/*--------------------------------*- C++ -*----------------------------------*\
| =========                 |                                                 |
| \\      /  F ield         | OpenFOAM: The Open Source CFD Toolbox           |
|  \\    /   O peration     | Version:  5.0                                   |
|   \\  /    A nd           | Web:      www.OpenFOAM.org                      |
|    \\/     M anipulation  |                                                 |
\*---------------------------------------------------------------------------*/
FoamFile
{
    version     2.0;
    format      ascii;
    class       volScalarField;
    location    "80";
    object      pMean;
}
// * * * * * * * * * * * * * * * * * * * * * * * * * * * * * * * * * * * * * //

dimensions      [0 2 -2 0 0 0 0];

internalField   nonuniform List<scalar> 
9200
(
-0.00049286744
-0.00047710751
-0.0012466722
-0.0004570422
-0.0012081845
-0.0021210321
-0.00042904002
-0.0011541787
-0.0020601929
-0.0029681673
-0.00038991111
-0.0010802784
-0.0019690527
-0.0028888934
-0.003859589
-0.00035009932
-0.00098097315
-0.0018452632
-0.0027642237
-0.0037637413
-0.0047691953
-0.00030158255
-0.00087499259
-0.0016812533
-0.0025964129
-0.003606757
-0.0046606242
-0.0057089067
-0.00025252186
-0.00075098023
-0.0015019143
-0.0023743447
-0.0033969063
-0.0044756935
-0.0055910174
-0.006675825
-0.00019927719
-0.00062226195
-0.0012949834
-0.002128432
-0.0031184086
-0.0042303641
-0.0053820867
-0.0065533127
-0.0076691579
-0.00014554799
-0.00048506288
-0.0010772709
-0.0018454397
-0.0028071692
-0.003902277
-0.0051070109
-0.0063262901
-0.0075465644
-0.0086856227
-9.0839794e-05
-0.00034555254
-0.00084628083
-0.0015448977
-0.0024487176
-0.0035325874
-0.0047354846
-0.0060299152
-0.007307647
-0.0085683744
-0.0097208913
-3.6626213e-05
-0.00020421479
-0.00061037202
-0.0012253353
-0.0020653353
-0.0031045835
-0.004313565
-0.0056240511
-0.0069987828
-0.0083251448
-0.0096143438
-0.010768144
1.6763986e-05
-6.3790153e-05
-0.00037173053
-0.00089682753
-0.0016564715
-0.0026427385
-0.0038218943
-0.0051592537
-0.0065685999
-0.0080146755
-0.0093747336
-0.010678352
-0.011821386
6.878365e-05
7.4041706e-05
-0.00013476675
-0.00056309182
-0.0012340302
-0.0021472375
-0.0032866308
-0.0046125069
-0.0060715076
-0.0075726293
-0.0090739825
-0.010451301
-0.011754068
-0.012870716
0.00011880644
0.00020710361
9.7877318e-05
-0.00023026042
-0.00080332528
-0.0016314703
-0.00270816
-0.0040110772
-0.0054801679
-0.0070566745
-0.0086335357
-0.01017318
-0.011548467
-0.01283199
-0.013910181
0.00016654068
0.00033446781
0.00032361568
9.7276043e-05
-0.00037178843
-0.001102296
-0.002101138
-0.0033550725
-0.0048221582
-0.0064341394
-0.0081135954
-0.0097498931
-0.011305908
-0.012657507
-0.013905398
-0.014928502
0.00021195202
0.00045534231
0.00054044133
0.00041562373
5.5003823e-05
-0.00056888513
-0.0014737181
-0.0026598978
-0.0040966628
-0.0057320683
-0.0074754773
-0.0092435413
-0.010915921
-0.012464478
-0.013770855
-0.014962915
-0.015920243
0.00025498222
0.0005687481
0.00074666332
0.00072195692
0.00047194711
-3.8570935e-05
-0.00083643118
-0.0019348016
-0.0033193245
-0.0049479861
-0.006744776
-0.0086086224
-0.010441844
-0.012125317
-0.013640528
-0.014877232
-0.015998503
-0.01687446
0.00029545511
0.00067443542
0.00094136164
0.0010140453
0.00087484586
0.00048197953
-0.00019824759
-0.00119179
-0.0025000682
-0.0040970593
-0.0059165732
-0.0078683461
-0.0098308781
-0.011704202
-0.01336943
-0.014823065
-0.015969502
-0.017000438
-0.017785785
0.0003333762
0.00077272758
0.0011238711
0.001290173
0.0012603864
0.00098732452
0.00043242184
-0.00044150144
-0.0016519479
-0.0031893454
-0.0050047637
-0.0070144646
-0.009102996
-0.01114063
-0.013022185
-0.014637741
-0.016003014
-0.017035189
-0.017962784
-0.018645733
0.00036893198
0.00086390275
0.0012938295
0.0015493409
0.001626191
0.0014730094
0.0010484916
0.00030590255
-0.0007870691
-0.0022386698
-0.0040188056
-0.006058668
-0.0082457943
-0.010450531
-0.012530512
-0.014386112
-0.015919573
-0.017167333
-0.018067506
-0.01887594
-0.019449447
0.00040227422
0.0009480233
0.0014512242
0.001791104
0.001970592
0.001935591
0.0016439743
0.0010413254
8.2677531e-05
-0.0012585568
-0.002972657
-0.0050089649
-0.0072677924
-0.0096165454
-0.011905746
-0.013992274
-0.015784221
-0.017201394
-0.018307514
-0.019055119
-0.01973445
-0.020191534
0.00043351417
0.0010253611
0.0015963776
0.0020153865
0.0022925878
0.0023726101
0.0022139656
0.001757021
0.00094599776
-0.00026284763
-0.0018807241
-0.0038787008
-0.006174539
-0.0086430825
-0.01112492
-0.013462608
-0.015513739
-0.017202451
-0.018471991
-0.019410145
-0.019991702
-0.020531821
-0.020868539
0.00046280618
0.0010963179
0.001729729
0.0022223777
0.0025917969
0.0027824922
0.0027549174
0.0024461776
0.0017927455
0.00073528729
-0.00075823511
-0.0026825199
-0.0049777553
-0.0075321705
-0.010187452
-0.012768165
-0.015109525
-0.017080592
-0.018626979
-0.01971633
-0.020467466
-0.020868822
-0.021263946
-0.02147779
0.00049033079
0.0011612477
0.0018518094
0.0024125736
0.0028683558
0.0031644433
0.0032643613
0.0031035675
0.0026145523
0.0017235954
0.00037964106
-0.0014366453
-0.0036913885
-0.0062927991
-0.0090908396
-0.011902678
-0.014536486
-0.016832463
-0.01867681
-0.020041108
-0.020924134
-0.021468205
-0.021681319
-0.021927274
-0.022017794
0.00051629133
0.001220501
0.0019632845
0.002586678
0.0031227595
0.0035182975
0.0037407509
0.0037257021
0.003404126
0.0026911566
0.0015184263
-0.0001578757
-0.0023318232
-0.0049371565
-0.0078401859
-0.010858206
-0.013782206
-0.016417091
-0.018613866
-0.020283783
-0.021430822
-0.022080958
-0.02240569
-0.022423968
-0.022519676
-0.022487953
0.0005408446
0.0012744594
0.002064873
0.0027455052
0.0033557664
0.0038444389
0.0041834061
0.004310187
0.0041556489
0.0036287931
0.0026447534
0.0011370918
-0.00091689104
-0.0034808267
-0.0064446847
-0.0096348338
-0.01283265
-0.01581582
-0.018391784
-0.020433229
-0.021883663
-0.022778963
-0.023178169
-0.023272098
-0.023093488
-0.023040046
-0.022888621
0.00056390174
0.0013235423
0.0021573181
0.0028899362
0.0035683818
0.0041436629
0.0045924122
0.0048555486
0.0048654612
0.0045285238
0.0037465394
0.0024323588
0.00053498113
-0.0019418368
-0.0049178667
-0.0082375013
-0.011681941
-0.015008154
-0.01798587
-0.020438602
-0.022269018
-0.023456152
-0.02407321
-0.024204191
-0.024062671
-0.023687593
-0.023488382
-0.023221063
0.00058516284
0.0013682443
0.0022413123
0.0030209569
0.0037617603
0.0044170855
0.0049684426
0.0053612616
0.0055311754
0.0053839653
0.0048135508
0.0037132163
0.0020054376
-0.00033977658
-0.0032767811
-0.006676337
-0.010329587
-0.013981567
-0.017369206
-0.02026984
-0.022532672
-0.024097242
-0.024984102
-0.025298182
-0.025152427
-0.024773055
-0.024205285
-0.023865684
-0.023487285
0.00060498301
0.0014090085
0.0023175481
0.0031395679
0.0039371795
0.0046660229
0.0053126513
0.0058276018
0.0061513982
0.0061910319
0.0058372076
0.0049664777
0.003476897
0.0013050792
-0.0015410682
-0.0049660483
-0.0087809377
-0.012729164
-0.016522329
-0.019894059
-0.022640082
-0.024645967
-0.025895449
-0.026448312
-0.026444438
-0.026015358
-0.025400865
-0.024646657
-0.024173742
-0.023690761
0.00062338747
0.0014464846
0.0023864725
0.0032468455
0.0040958934
0.0048920131
0.0056264514
0.0062555342
0.0067256644
0.0069472856
0.0068103902
0.0061806521
0.0049330939
0.0029725652
0.0002678825
-0.0031250722
-0.0070468649
-0.011250271
-0.015431338
-0.019285014
-0.022553249
-0.025064616
-0.026750471
-0.027639762
-0.027834591
-0.027500346
-0.026789044
-0.025944858
-0.025012831
-0.024414902
-0.02383564
0.00064508387
0.0014783481
0.0024490755
0.0033436019
0.0042392779
0.0050966447
0.0059115637
0.006646471
0.0072544568
0.0076512997
0.0077283159
0.0073462519
0.0063593767
0.0046432735
0.0021278425
-0.0011747313
-0.0051430221
-0.0095504478
-0.014088586
-0.018421638
-0.022239777
-0.025311335
-0.02750963
-0.028816558
-0.029310052
-0.029127234
-0.028459969
-0.02746998
-0.026405131
-0.025305815
-0.024591826
-0.023921903
0.00067147794
0.0015074357
0.0025007388
0.0034316137
0.0043683114
0.005281704
0.0061696953
0.0070023104
0.0077389295
0.0083026991
0.0085882242
0.0084555206
0.00774297
0.0062991785
0.004016627
0.00086172338
-0.0030891396
-0.0076409473
-0.012493071
-0.0172888
-0.021671811
-0.02534865
-0.028128673
-0.029938919
-0.030817361
-0.030885834
-0.030316451
-0.029316267
-0.0280571
-0.026782855
-0.025528274
-0.024707287
-0.02394969
0.00070484952
0.0015348212
0.0025460305
0.0035037812
0.0044852399
0.00544839
0.0064028321
0.0073248873
0.0081808971
0.0089019781
0.0093886755
0.0095026802
0.0090732179
0.0079239908
0.0059128092
0.0029600476
-0.00090811895
-0.0055382117
-0.010650114
-0.015878063
-0.020826776
-0.025142817
-0.028566495
-0.03096192
-0.032317958
-0.03272616
-0.032351793
-0.031391515
-0.030066929
-0.028550317
-0.027080206
-0.025683203
-0.024764862
-0.023922418
0.00074625364
0.0015590308
0.0025889288
0.0035656816
0.004579322
0.0055995911
0.0066125652
0.0076169688
0.0085822085
0.0094506056
0.01012916
0.010484483
0.010341447
0.0095034922
0.0077962714
0.0050958882
0.0013749576
-0.0032630858
-0.0085711242
-0.014187589
-0.019688485
-0.024664445
-0.028784821
-0.031842526
-0.033767883
-0.034612282
-0.034520967
-0.033693033
-0.032347498
-0.030709405
-0.028951203
-0.027300246
-0.025773798
-0.024767554
-0.023848621
0.00079588319
0.0015770711
0.0026300094
0.0036230634
0.0046582551
0.0057201857
0.0068027542
0.0078802109
0.0089463835
0.0099504765
0.01081037
0.011399151
0.011541073
0.011025488
0.0096488715
0.0072455753
0.0037337816
-0.00083988025
-0.0062730148
-0.012222217
-0.01824724
-0.023889921
-0.028748644
-0.032539643
-0.035123974
-0.036502926
-0.03679194
-0.036181318
-0.034900316
-0.033179039
-0.031244689
-0.029262203
-0.027446816
-0.025804127
-0.024717107
-0.023737295
0.00085296966
0.0015864438
0.0026696789
0.0036752873
0.0047313924
0.0058199291
0.0069524824
0.0081188622
0.0092744715
0.010404484
0.011433525
0.012246297
0.012667647
0.012480407
0.011454638
0.009386814
0.006141724
0.0017045729
-0.0037774065
-0.0099931369
-0.016500231
-0.022801643
-0.028427895
-0.033014299
-0.036344232
-0.038356605
-0.039127502
-0.03882912
-0.037692398
-0.03596523
-0.033885751
-0.03167393
-0.029486817
-0.027524141
-0.025779696
-0.02461946
-0.023592736
0.00091430026
0.0015862829
0.002706341
0.0037206705
0.004799064
0.0059129734
0.007074194
0.0083051569
0.0095717302
0.010813621
0.012001671
0.013026064
0.013719446
0.013860478
0.013199958
0.011498991
0.0085727808
0.0043419247
-0.0011097887
-0.0075173018
-0.014451481
-0.021388722
-0.027797754
-0.033231508
-0.037387669
-0.040132366
-0.041489467
-0.041604605
-0.040702112
-0.039041605
-0.036884567
-0.034467041
-0.032000791
-0.029629309
-0.027536516
-0.025705015
-0.024480756
-0.02342054
0.00097071339
0.001576508
0.0027361983
0.0037568436
0.004861742
0.0060001537
0.0071887523
0.0084549642
0.0098023306
0.011186
0.012515771
0.013741333
0.014695128
0.015160781
0.01487318
0.01356426
0.011002105
0.0070433435
0.001701489
-0.0048167834
-0.012111515
-0.019647178
-0.026839603
-0.033160593
-0.038216329
-0.041789268
-0.04383977
-0.044474312
-0.043903862
-0.042392506
-0.040221892
-0.037656033
-0.034926249
-0.03222918
-0.0296949
-0.027488962
-0.025584515
-0.024305494
-0.02322377
0.0010078382
0.0015557941
0.0027545934
0.0037820756
0.0049178646
0.0060802016
0.0072974895
0.0085974669
0.009986052
0.011474862
0.012985852
0.014391456
0.015597061
0.01637705
0.016466347
0.015566842
0.013406988
0.0097801894
0.0046262748
-0.0019178437
-0.0094969781
-0.01757988
-0.025541437
-0.032776332
-0.038795554
-0.043288532
-0.046139514
-0.04740467
-0.04726999
-0.04599928
-0.043888307
-0.041228508
-0.038281613
-0.035266711
-0.032364635
-0.029688859
-0.027386697
-0.025422769
-0.024098426
-0.02300225
0.001524114
0.0010084168
0.0027562177
0.0037937506
0.0049631886
0.0061504901
0.0073993682
0.0087344728
0.010162517
0.011703339
0.013350599
0.014989891
0.016421787
0.017510828
0.017971306
0.017494593
0.015766342
0.01252543
0.0076334319
0.001150057
-0.0066298559
-0.015196467
-0.023898047
-0.032059531
-0.039095289
-0.044593703
-0.048351237
-0.050360611
-0.050772707
-0.04984086
-0.04787238
-0.045181052
-0.042061374
-0.038764272
-0.035494517
-0.032412575
-0.029616839
-0.027234841
-0.025224053
-0.023863667
-0.022756988
0.0027413873
0.0014877336
0.00096820705
0.003789642
0.0049927509
0.0062073822
0.0074923621
0.0088642687
0.010334082
0.011924961
0.013638469
0.015455985
0.017186964
0.018555499
0.019387733
0.019335089
0.018063579
0.015253122
0.010692384
0.0043551197
-0.0035366499
-0.012512748
-0.021911243
-0.030997404
-0.039090744
-0.045672066
-0.050438927
-0.053307938
-0.054382238
-0.053896166
-0.052160081
-0.049509576
-0.046267872
-0.04272233
-0.039109937
-0.035615281
-0.032379713
-0.029484574
-0.027038442
-0.024992457
-0.023604614
-0.022491307
0.0037728502
0.0027147047
0.0014582638
0.00090165474
0.0050039735
0.0062471888
0.0075722454
0.0089842642
0.010499725
0.012143296
0.013918537
0.015826141
0.017789192
0.019534551
0.020702902
0.021085631
0.020281409
0.017941666
0.01377267
0.0076648266
-0.00024755234
-0.0095501227
-0.019589422
-0.029584072
-0.038762938
-0.046495343
-0.052369511
-0.056213162
-0.058069264
-0.058141786
-0.056737582
-0.054207273
-0.050904177
-0.047148918
-0.043216698
-0.039324489
-0.035636665
-0.03227249
-0.029297887
-0.026802392
-0.024731987
-0.023324013
-0.022208527
0.0049989968
0.0037487617
0.0026825903
0.0014390431
0.00082871343
0.0062688185
0.0076348036
0.0090911864
0.010658134
0.012357579
0.014196361
0.016185289
0.018275491
0.020317758
0.02194812
0.022725722
0.022414169
0.020567569
0.016848142
0.011045625
0.0032050994
-0.0063349034
-0.016947287
-0.027820233
-0.038099427
-0.047040384
-0.054113554
-0.059045041
-0.061804574
-0.062554489
-0.061588486
-0.059267774
-0.055970522
-0.052053897
-0.047828736
-0.043551552
-0.039416494
-0.035565988
-0.032097872
-0.029062386
-0.02653138
-0.024446694
-0.023025273
-0.021911391
0.0062760516
0.0049836599
0.0037231006
0.0026502246
0.0014261262
0.00076108689
0.0076795042
0.00918141
0.010804901
0.012564147
0.014471054
0.016541315
0.018743387
0.020965848
0.022963787
0.02429605
0.024432754
0.023121914
0.019889278
0.01446763
0.0067867155
-0.0028968939
-0.0140054
-0.02571325
-0.037094013
-0.047290057
-0.055646045
-0.061775237
-0.065560628
-0.06711067
-0.066696446
-0.064681977
-0.061467929
-0.057443985
-0.052961898
-0.048314501
-0.043735712
-0.039394547
-0.035411472
-0.031862392
-0.028783579
-0.026229885
-0.024140089
-0.022711484
-0.021602489
0.0077092149
0.0062755075
0.0049642257
0.0036998851
0.0026158579
0.0014176625
0.00070246761
0.0092533027
0.010933713
0.012757359
0.014736429
0.016891425
0.01920341
0.021583333
0.023831614
0.025604588
0.026387116
0.0255646
0.022883847
0.017895647
0.010465315
0.00073071555
-0.01078882
-0.023276871
-0.035747272
-0.047232957
-0.056947406
-0.064379168
-0.069312122
-0.071787915
-0.07204432
-0.070440801
-0.067394625
-0.063327313
-0.058628821
-0.053634969
-0.048615751
-0.043779053
-0.039268123
-0.035180811
-0.031572705
-0.028466845
-0.025902232
-0.02381549
-0.022385326
-0.02128407
0.0093088448
0.0077273186
0.0062703733
0.0049400374
0.0036737697
0.0025783053
0.0014124078
0.00065313674
0.011040547
0.012928258
0.014982025
0.017223868
0.019646862
0.022183675
0.024650639
0.026767407
0.028063951
0.027959152
0.02577851
0.021314561
0.014201612
0.0045157236
-0.0073270719
-0.020529812
-0.034066263
-0.046864454
-0.05800316
-0.06683704
-0.073036928
-0.076565451
-0.077615749
-0.076533939
-0.073748718
-0.06970927
-0.064844241
-0.059531041
-0.054083269
-0.048743711
-0.043692558
-0.039046493
-0.03488202
-0.031235223
-0.028117556
-0.025552564
-0.023475765
-0.022049044
-0.020958335
0.011125126
0.0093473005
0.0077332743
0.0062528867
0.0049044376
0.0036394451
0.002540247
0.0014076719
0.0006138917
0.013071709
0.015198237
0.017523356
0.020054125
0.022749859
0.0254361
0.027856282
0.029619638
0.030082513
0.02865336
0.024656401
0.017978508
0.0084172553
-0.0036506641
-0.017496385
-0.032063132
-0.046186119
-0.05880559
-0.069133483
-0.076716983
-0.081425151
-0.083395513
-0.082951528
-0.080526676
-0.076594582
-0.071619923
-0.066023445
-0.060161111
-0.054319462
-0.048711076
-0.043487281
-0.038739181
-0.034522929
-0.03085667
-0.027740579
-0.025184106
-0.023123259
-0.021704866
-0.020627333
0.013188817
0.011187302
0.0093705125
0.007722082
0.0062206165
0.004856924
0.0036000513
0.0025038665
0.0014008077
0.00058373997
0.015380373
0.017783501
0.020409867
0.023249791
0.026165027
0.028895108
0.031068059
0.032151089
0.031297056
0.028021001
0.021713476
0.012417398
0.00020130274
-0.014203269
-0.029756976
-0.045204744
-0.059352533
-0.071259814
-0.080338032
-0.086352192
-0.089370471
-0.08968437
-0.087725187
-0.083986287
-0.07896682
-0.073129188
-0.066875054
-0.060533123
-0.054358119
-0.048530943
-0.043174609
-0.038355829
-0.034111817
-0.030442959
-0.027339563
-0.024799274
-0.022760699
-0.021355643
-0.020292935
0.015524177
0.013275104
0.011226963
0.0093709445
0.0076898063
0.0061735866
0.0048041753
0.0035581566
0.0024695673
0.0013906912
0.00055999842
0.01800325
0.020712587
0.023663002
0.026794718
0.029850715
0.03244291
0.034080861
0.034012571
0.031245375
0.025528673
0.01642173
0.0042106972
-0.01068382
-0.027168978
-0.04393565
-0.0596476
-0.07321179
-0.083892217
-0.091335105
-0.095530038
-0.09672489
-0.095340927
-0.091887176
-0.08689402
-0.080864941
-0.074247081
-0.067414726
-0.06066372
-0.054214654
-0.04821688
-0.042766364
-0.037906543
-0.033655908
-0.029998328
-0.026917077
-0.024401609
-0.02239243
-0.021004172
-0.019956144
0.018168952
0.015624124
0.013322707
0.011228903
0.0093358591
0.0076339697
0.0061125086
0.0047479754
0.0035149015
0.0024358746
0.0013778478
0.00054101978
0.020961169
0.023999445
0.027282049
0.030656662
0.033713157
0.035901954
0.036560959
0.034748127
0.029365065
0.020573833
0.0082776546
-0.006955933
-0.024324657
-0.04239431
-0.059704436
-0.074992316
-0.087374633
-0.09636811
-0.1018666
-0.10406726
-0.10337217
-0.10030002
-0.095409931
-0.089245382
-0.082298728
-0.074990483
-0.067661393
-0.060570904
-0.053905221
-0.047783291
-0.042274902
-0.037400346
-0.033160102
-0.02952556
-0.026477874
-0.023997897
-0.02202239
-0.020650065
-0.01960058
0.021142029
0.018272949
0.015670482
0.013315338
0.011176291
0.0092641394
0.0075556865
0.0060400916
0.0046882014
0.0034701341
0.0024012916
0.0013598593
0.00052226521
0.024265646
0.027645803
0.031251376
0.034773052
0.037581383
0.038960024
0.0380561
0.033786769
0.024998715
0.012563096
-0.0031117722
-0.021240418
-0.04060049
-0.05953328
-0.076614658
-0.090789756
-0.10144704
-0.10837708
-0.11170822
-0.11181793
-0.1092273
-0.10452197
-0.098283339
-0.091048862
-0.083285906
-0.075380751
-0.06763595
-0.060273838
-0.053447201
-0.047245283
-0.041711291
-0.036842854
-0.032627527
-0.029031058
-0.026031947
-0.023593748
-0.021647556
-0.020268147
-0.01922086
0.024450443
0.021244419
0.018305504
0.015644542
0.013236683
0.011076061
0.0091603721
0.0074622789
0.0059599618
0.0046251277
0.0034227459
0.0023595024
0.001334914
0.00050327532
0.027915086
0.031654017
0.035530522
0.039004123
0.041171615
0.04116907
0.037994052
0.030432431
0.017484724
0.001013697
-0.017982792
-0.038567442
-0.05914984
-0.078083957
-0.09414973
-0.10657954
-0.11505939
-0.11964794
-0.12067903
-0.11867337
-0.11423729
-0.10799035
-0.10051422
-0.092323263
-0.083850472
-0.075442052
-0.067360999
-0.059793373
-0.052858949
-0.046616303
-0.041082129
-0.036237845
-0.032066966
-0.028528959
-0.02558682
-0.023181331
-0.021229687
-0.019861981
-0.018826866
0.028087426
0.024539877
0.021253223
0.018246659
0.015529853
0.013099888
0.010939128
0.0090382736
0.007359788
0.0058753801
0.0045581359
0.0033631922
0.0023070412
0.0013054239
0.00048388737
0.031907255
0.035988887
0.040012767
0.043079449
0.044051841
0.041957016
0.035651509
0.023950309
0.0062634897
-0.014406456
-0.036324377
-0.058558379
-0.079409354
-0.097454848
-0.11177614
-0.12192502
-0.1278875
-0.1299592
-0.12864281
-0.12456357
-0.11837697
-0.11070934
-0.10212226
-0.093095493
-0.084020308
-0.075200915
-0.066861407
-0.059151664
-0.05215675
-0.045904227
-0.040392186
-0.035596963
-0.031497578
-0.028028712
-0.025128407
-0.022699357
-0.020789337
-0.019439947
-0.018419254
0.032040054
0.028146081
0.024511565
0.021143047
0.018079413
0.015343966
0.012919781
0.010781597
0.0089051977
0.0072507957
0.0057853186
0.0044736629
0.0032870592
0.0022481346
0.0012708788
0.00046419819
0.036215369
0.040553728
0.044457591
0.046562774
0.045644261
0.040586666
0.030225132
0.013681182
-0.0090852022
-0.033761357
-0.057725408
-0.080576187
-0.10069722
-0.11703274
-0.12898219
-0.13644159
-0.13966346
-0.13914213
-0.13550904
-0.12945365
-0.12164727
-0.11269958
-0.10313762
-0.09339764
-0.083826458
-0.07468683
-0.066163763
-0.05836834
-0.051350188
-0.04511508
-0.039656572
-0.034945356
-0.03093087
-0.027508544
-0.024565622
-0.022195011
-0.020330468
-0.019003694
-0.017998302
0.036272262
0.032039447
0.028059875
0.024333443
0.020898645
0.017826071
0.015105763
0.012713129
0.010609276
0.008763266
0.0071333486
0.0056715644
0.0043654627
0.0032012405
0.0021817769
0.0012308167
0.00044375271
0.040751585
0.045155509
0.048416219
0.04885636
0.04519697
0.036199883
0.020956537
-0.00091604989
-0.028672147
-0.056546804
-0.081451647
-0.10383449
-0.12230983
-0.13621983
-0.14531616
-0.14980819
-0.15017996
-0.14708226
-0.14123014
-0.13333989
-0.12406959
-0.11399484
-0.10359723
-0.093265904
-0.08330371
-0.07393151
-0.065291596
-0.057455037
-0.05044675
-0.044268262
-0.03890746
-0.034296784
-0.030335492
-0.026839571
-0.023980487
-0.021669092
-0.019857807
-0.018553175
-0.01756465
0.040711272
0.036169817
0.031864593
0.02778765
0.023986563
0.020550892
0.017509703
0.01483344
0.012487195
0.010424776
0.0086098509
0.0069842558
0.0055250807
0.0042443777
0.0031041292
0.0021071726
0.0011848303
0.0004220183
0.045343738
0.049366842
0.051277479
0.049219708
0.041810864
0.027947288
0.0071982116
-0.020035677
-0.052003841
-0.081926271
-0.10661279
-0.12753711
-0.1435711
-0.15450418
-0.16040196
-0.1617744
-0.15929452
-0.15371737
-0.14579791
-0.13624457
-0.1256819
-0.11463763
-0.10354325
-0.092741201
-0.082489671
-0.072963016
-0.064258942
-0.056421117
-0.049471013
-0.043404117
-0.03816124
-0.033608421
-0.029535581
-0.026148242
-0.023369648
-0.021131057
-0.0193702
-0.018089492
-0.017118714
0.045173885
0.040461186
0.035862088
0.031458342
0.027307135
0.023509756
0.020126698
0.017150169
0.014536779
0.012245868
0.010225106
0.0084162543
0.0067906931
0.0053620539
0.0041079752
0.002994775
0.002023549
0.001132519
0.0003985193
0.049592693
0.052604855
0.052310074
0.046752663
0.034554872
0.015109801
-0.011326092
-0.043284741
-0.078172238
-0.10890819
-0.13233048
-0.1509314
-0.16389594
-0.1714528
-0.17393901
-0.17216573
-0.16692738
-0.15903281
-0.14923488
-0.13821043
-0.12653318
-0.11467708
-0.10302369
-0.091867914
-0.081417644
-0.0717982
-0.063077499
-0.055297282
-0.048472912
-0.042541829
-0.037361163
-0.032648137
-0.028713081
-0.025425584
-0.022749156
-0.020577913
-0.018869245
-0.01761295
-0.016661215
0.04927321
0.044724781
0.039953268
0.035268062
0.030797017
0.026663464
0.022938298
0.019648224
0.016760333
0.014221068
0.011985322
0.0099758805
0.0081646122
0.0065762977
0.0051791115
0.0039550266
0.0028720622
0.0019300337
0.001073586
0.00037283584
0.052941292
0.054156507
0.05061111
0.040433768
0.022666628
-0.0026699734
-0.034286666
-0.069715388
-0.10615829
-0.13652788
-0.15777301
-0.17336428
-0.18278281
-0.18669748
-0.18571582
-0.18087998
-0.17305624
-0.1630512
-0.15158947
-0.13929405
-0.12668075
-0.1141694
-0.10209072
-0.090685381
-0.08010778
-0.070451574
-0.061785184
-0.054144603
-0.047474564
-0.04160822
-0.03620731
-0.031665778
-0.027852399
-0.024696831
-0.022113933
-0.0200121
-0.018355304
-0.017124645
-0.01619268
0.052527655
0.048594674
0.043943369
0.039091028
0.034361368
0.029931065
0.025898329
0.022300986
0.019133955
0.016346
0.013880978
0.011665464
0.0096521395
0.0078876189
0.006336706
0.0049750791
0.0037842191
0.0027348495
0.0018257927
0.0010077348
0.00034464196
0.054667582
0.053018437
0.045120118
0.029485526
0.0057354111
-0.025135884
-0.060765927
-0.098260133
-0.13495177
-0.1638846
-0.18223281
-0.19426749
-0.19982004
-0.19998465
-0.19559956
-0.18788456
-0.17770325
-0.16582741
-0.15292707
-0.13956241
-0.12619041
-0.11317581
-0.10079066
-0.089217583
-0.078577896
-0.068969441
-0.060455926
-0.052988195
-0.046383331
-0.040223415
-0.03503238
-0.030636365
-0.026990659
-0.023954625
-0.021467165
-0.01943378
-0.017829666
-0.01662512
-0.015713791
0.054204316
0.051613064
0.047506237
0.042714553
0.037849474
0.033196545
0.028911293
0.025050521
0.021621141
0.018589653
0.015901239
0.013472125
0.011252143
0.0092981247
0.0075793635
0.0060707261
0.0047482556
0.0035942102
0.0025821092
0.0017100484
0.00093465063
0.00031372413
0.053781348
0.048189037
0.035059229
0.013468621
-0.01606431
-0.051398261
-0.089602504
-0.12784215
-0.1635964
-0.19024535
-0.20510852
-0.21318757
-0.21471
-0.21113826
-0.20354642
-0.1932049
-0.18093044
-0.16743706
-0.15332592
-0.13909253
-0.12513389
-0.11175074
-0.099151963
-0.087486169
-0.076883946
-0.067440466
-0.059117898
-0.051712623
-0.044724966
-0.038819858
-0.033799675
-0.029612747
-0.026117455
-0.023202628
-0.020809178
-0.018844345
-0.017293083
-0.016115458
-0.015225036
0.053321362
0.05305572
0.050163379
0.045827789
0.041024318
0.03628678
0.031839573
0.027789351
0.024151304
0.020904549
0.01800712
0.015378918
0.012947905
0.010803233
0.0089057819
0.0072388491
0.0057762197
0.0044971071
0.0033836859
0.0024128612
0.0015820844
0.00085397839
0.00027989806
0.049324167
0.038899172
0.019976778
-0.0075127216
-0.041861969
-0.080237697
-0.11965571
-0.1575175
-0.1913607
-0.21499221
-0.22589638
-0.2297709
-0.22724087
-0.2200997
-0.20958215
-0.19690929
-0.18282582
-0.16797165
-0.15287612
-0.13796836
-0.12357508
-0.10992781
-0.097200599
-0.085558059
-0.075131295
-0.065895947
-0.057628929
-0.049733276
-0.043051716
-0.037345145
-0.032581997
-0.02858031
-0.02523716
-0.022441054
-0.020141361
-0.018244786
-0.016746669
-0.015595937
-0.014727454
0.048989641
0.051978793
0.051188264
0.047976907
0.043566633
0.038942099
0.03448723
0.030358631
0.026608774
0.023206828
0.020140919
0.017341183
0.014717092
0.012382427
0.010308078
0.0084744559
0.0068636066
0.0054515818
0.004220048
0.0031515313
0.0022262356
0.0014412983
0.00076548534
0.0002430129
0.040571375
0.024704195
-7.3312989e-05
-0.032636255
-0.070433978
-0.1105053
-0.14999543
-0.18654807
-0.21763535
-0.23758783
-0.24418707
-0.24376685
-0.23734447
-0.22690514
-0.21378592
-0.19910079
-0.18349653
-0.16753679
-0.15167603
-0.13626493
-0.12155374
-0.10773789
-0.095015841
-0.083557527
-0.073354428
-0.064162604
-0.055275623
-0.047745203
-0.041291125
-0.035897496
-0.031359185
-0.027544426
-0.0243497
-0.021671446
-0.019464879
-0.017636054
-0.0161903
-0.015067761
-0.014221651
0.040511098
0.047580482
0.049786342
0.048493263
0.045058292
0.040831967
0.036572748
0.032541706
0.028810444
0.025374746
0.02220607
0.019294678
0.016510319
0.014008611
0.011761638
0.0097666568
0.0080014662
0.0064518961
0.0050952271
0.0039157722
0.0028967635
0.0020215218
0.0012872069
0.00066912165
0.00020309488
0.027097646
0.0056374239
-0.024333609
-0.060687634
-0.10062282
-0.14122784
-0.17989283
-0.2143138
-0.24186287
-0.25760119
-0.25967113
-0.25507607
-0.24503778
-0.23163199
-0.21627657
-0.19990393
-0.18306608
-0.16624761
-0.14981383
-0.13402931
-0.1191062
-0.10527409
-0.092743416
-0.081522397
-0.071344502
-0.06137724
-0.052922679
-0.045649998
-0.039573179
-0.034449466
-0.030137881
-0.026504544
-0.023456755
-0.020895047
-0.018780335
-0.017017416
-0.015626043
-0.014531844
-0.013708416
0.027498515
0.039206393
0.045191737
0.046634097
0.044917366
0.041558322
0.037753847
0.034037626
0.030523413
0.027202867
0.024071307
0.021134322
0.01825912
0.015628043
0.013235123
0.011086779
0.0091760106
0.0074852686
0.0060020687
0.0047059181
0.0035832505
0.0026186414
0.001798258
0.0011194943
0.00056467647
0.00016033219
0.0089279425
-0.017621947
-0.051620564
-0.090482684
-0.13140773
-0.17161833
-0.2087065
-0.24026061
-0.26358948
-0.27472935
-0.27222884
-0.26370052
-0.25036572
-0.23441408
-0.21719666
-0.19946138
-0.18166898
-0.16420792
-0.14734539
-0.13130408
-0.11634087
-0.10270625
-0.090424725
-0.079202762
-0.068064116
-0.058604993
-0.050438683
-0.04361723
-0.037861037
-0.033009372
-0.028916806
-0.025462433
-0.022559557
-0.020112028
-0.018086081
-0.016391678
-0.015054941
-0.013989404
-0.013188422
0.0099957382
0.026459466
0.03673973
0.04168375
0.042462388
0.04062882
0.037654931
0.034493967
0.031431367
0.028439316
0.025516669
0.02272166
0.01985485
0.017168533
0.014670785
0.012399701
0.010354938
0.0085349255
0.0069243758
0.0055130462
0.004282721
0.0032218546
0.0023167139
0.0015563194
0.00093818614
0.00045187879
0.00011481828
-0.013332132
-0.043954962
-0.080750534
-0.1209855
-0.16200229
-0.20112523
-0.23592334
-0.26393314
-0.28244572
-0.2887419
-0.28185787
-0.26968715
-0.25347403
-0.23542231
-0.21671213
-0.19792982
-0.17942744
-0.16148419
-0.14432044
-0.12821437
-0.11345463
-0.10007982
-0.087762443
-0.075359924
-0.06481366
-0.055672835
-0.048041992
-0.041598035
-0.036165097
-0.031574908
-0.027697716
-0.024419236
-0.021657834
-0.019319507
-0.017386121
-0.015760194
-0.01447837
-0.013441303
-0.012662419
-0.011455898
0.0093912761
0.024088123
0.033016985
0.037008175
0.037455981
0.035859517
0.033558634
0.031176256
0.028761849
0.026269545
0.023837886
0.021155544
0.01851956
0.01599317
0.013644301
0.011499556
0.0095656295
0.0078423536
0.006318068
0.0049842157
0.0038252293
0.0028314206
0.0019909764
0.0012959118
0.00074369139
0.00033104508
6.6462325e-05
-0.03864527
-0.072210063
-0.11069513
-0.15145539
-0.19191028
-0.22928831
-0.26109568
-0.28493755
-0.29818486
-0.2995646
-0.28859525
-0.27321626
-0.25458425
-0.23485709
-0.21500776
-0.19545355
-0.1764207
-0.15813436
-0.14088244
-0.12498735
-0.11049793
-0.097043195
-0.083286069
-0.071568847
-0.061368839
-0.052858791
-0.045668522
-0.03960544
-0.034481621
-0.030147712
-0.026481522
-0.023374152
-0.020747142
-0.018523086
-0.016681742
-0.015124583
-0.013897271
-0.012888598
-0.012131081
-0.035865297
-0.011484712
0.0072589076
0.020298343
0.02797622
0.031397883
0.031874579
0.030877247
0.029426545