/*--------------------------------*- C++ -*----------------------------------*\
| =========                 |                                                 |
| \\      /  F ield         | OpenFOAM: The Open Source CFD Toolbox           |
|  \\    /   O peration     | Version:  5.0                                   |
|   \\  /    A nd           | Web:      www.OpenFOAM.org                      |
|    \\/     M anipulation  |                                                 |
\*---------------------------------------------------------------------------*/
FoamFile
{
    version     2.0;
    format      ascii;
    class       volScalarField;
    location    "80";
    object      pPrime2Mean;
}
// * * * * * * * * * * * * * * * * * * * * * * * * * * * * * * * * * * * * * //

dimensions      [0 4 -4 0 0 0 0];

internalField   nonuniform List<scalar> 
9200
(
1.8120373e-07
1.6953073e-07
1.371946e-06
1.519783e-07
1.2816648e-06
3.8950378e-06
1.3037813e-07
1.1389763e-06
3.6475838e-06
7.7000261e-06
1.0495987e-07
9.6383102e-07
3.246848e-06
7.2243605e-06
1.3077937e-05
8.1715185e-08
7.6736972e-07
2.7545591e-06
6.4384528e-06
1.2294037e-05
2.017387e-05
5.8967112e-08
5.8302486e-07
2.2056935e-06
5.4743828e-06
1.0977663e-05
1.9002992e-05
2.9297735e-05
4.0204426e-08
4.1136438e-07
1.6831181e-06
4.4026055e-06
9.3640341e-06
1.7007641e-05
2.765256e-05
4.0745519e-05
2.4855495e-08
2.6977921e-07
1.1986534e-06
3.3743935e-06
7.5698219e-06
1.4564357e-05
2.4811582e-05
3.8536962e-05
5.4868054e-05
1.3981233e-08
1.5909091e-07
7.9418465e-07
2.4226025e-06
5.8380394e-06
1.1844553e-05
2.1335659e-05
3.4675198e-05
5.1998039e-05
7.2038363e-05
7.4111495e-09
8.3652377e-08
4.7689974e-07
1.6220955e-06
4.2323901e-06
9.2057489e-06
1.7460701e-05
2.9954206e-05
4.6924117e-05
6.8405721e-05
9.26531e-05
5.1247103e-09
4.2435932e-08
2.5752984e-07
9.9108321e-07
2.8723747e-06
6.7509009e-06
1.3684359e-05
2.4682474e-05
4.0726029e-05
6.1918237e-05
8.8148198e-05
0.0001171134
6.8090804e-09
3.3814232e-08
1.3455812e-07
5.4914216e-07
1.7929749e-06
4.6548344e-06
1.0159747e-05
1.9524112e-05
3.3795408e-05
5.4001262e-05
8.0030362e-05
0.00011162466
0.00014584536
1.2092433e-08
5.463508e-08
1.0328343e-07
2.953716e-07
1.026694e-06
2.9761996e-06
7.1284224e-06
1.4691061e-05
2.6990983e-05
4.5139384e-05
7.0134297e-05
0.0001016513
0.00013925115
0.00017924047
2.049209e-08
1.0089762e-07
1.5502118e-07
2.218654e-07
5.7419928e-07
1.7650163e-06
4.6779119e-06
1.0503734e-05
2.0594777e-05
3.6415503e-05
5.9052214e-05
8.9508112e-05
0.00012718094
0.00017141621
0.00021774136
3.151762e-08
1.682858e-07
2.7923127e-07
3.1253515e-07
4.2334595e-07
1.0267557e-06
2.8807839e-06
7.0852752e-06
1.5016755e-05
2.8191572e-05
4.8123154e-05
7.591204e-05
0.00011250262
0.00015700435
0.00020854808
0.0002617088
4.4721321e-08
2.5248391e-07
4.6428382e-07
5.4683243e-07
5.4933975e-07
7.4710341e-07
1.7498569e-06
4.5352675e-06
1.0420276e-05
2.0977836e-05
3.7802744e-05
6.2492671e-05
9.6083004e-05
0.00013949758
0.00019152878
0.00025100206
0.00031156661
5.9690592e-08
3.4916177e-07
6.9814531e-07
9.0208417e-07
9.2020198e-07
8.9247683e-07
1.2696003e-06
2.8779448e-06
6.9358226e-06
1.4981993e-05
2.871157e-05
4.9814485e-05
7.9880534e-05
0.00011994185
0.00017087478
0.00023110492
0.00029920064
0.00036763622
7.6060264e-08
4.5445621e-07
9.6934957e-07
1.3552488e-06
1.4996712e-06
1.4170841e-06
1.3991617e-06
2.1005851e-06
4.6013327e-06
1.0366883e-05
2.1103598e-05
3.8619232e-05
6.4590803e-05
0.00010066861
0.00014784868
0.00020697894
0.00027614173
0.00035345299
0.00043025827
9.3536329e-08
5.651125e-07
1.2672715e-06
1.8837928e-06
2.2498493e-06
2.2679822e-06
2.0805255e-06
2.1566643e-06
3.4083301e-06
7.1851179e-06
1.5172406e-05
2.920773e-05
5.1090504e-05
8.25334e-05
0.00012520356
0.00018014175
0.00024818232
0.00032693868
0.00041410705
0.00049971827
1.1188613e-07
6.7839024e-07
1.5824421e-06
2.4668113e-06
3.1334089e-06
3.3893154e-06
3.243474e-06
2.9764836e-06
3.3078761e-06
5.4350432e-06
1.0981516e-05
2.1798652e-05
3.9728429e-05
6.6566069e-05
0.00010399541
0.00015382075
0.00021715588
0.00029477476
0.0003838589
0.00048144361
0.00057626623
1.3091021e-07
7.9202052e-07
1.9067681e-06
3.0855506e-06
4.1150024e-06
4.7250212e-06
4.8121955e-06
4.4746698e-06
4.2229935e-06
5.0694707e-06
8.5327376e-06
1.6457773e-05
3.073957e-05
5.316787e-05
8.5436046e-05
0.0001293241
0.00018682193
0.00025916848
0.00034711381
0.00044717035
0.00055572219
0.00066011223
1.5041186e-07
9.0425023e-07
2.2335665e-06
3.7236419e-06
5.1623851e-06
6.2214954e-06
6.7093882e-06
6.5553245e-06
6.0579224e-06
6.0097401e-06
7.7799922e-06
1.3181825e-05
2.4175604e-05
4.2580968e-05
6.9991162e-05
0.00010808669
0.00015880317
0.00022446261
0.00030649051
0.00040543853
0.00051715437
0.00063716553
0.00075141269
1.7017446e-07
1.0138067e-06
2.5574381e-06
4.3672366e-06
6.24715e-06
7.8291599e-06
8.8587263e-06
9.1186032e-06
8.7009747e-06
8.1521021e-06
8.6450576e-06
1.1919986e-05
2.0008407e-05
3.4820969e-05
5.790431e-05
9.0666024e-05
0.00013481632
0.00019266777
0.0002669917
0.00035933641
0.00047005482
0.00059404888
0.00072594772
0.00085027317
1.8993913e-07
1.1198221e-06
2.8741511e-06
5.0050712e-06
7.3450541e-06
9.5035955e-06
1.1188358e-05
1.2062529e-05
1.2029215e-05
1.1374073e-05
1.102607e-05
1.2594456e-05
1.8164637e-05
2.9805448e-05
4.9131651e-05
7.7312875e-05
0.00011555621
0.00016585768
0.00023110223
0.00031458515
0.00041800293
0.00054118714
0.00067805806
0.00082219904
0.00095673726
2.0939353e-07
1.2217694e-06
3.1805312e-06
5.6282782e-06
8.4359668e-06
1.1206241e-05
1.3632753e-05
1.5288271e-05
1.5916311e-05
1.5538338e-05
1.4800525e-05
1.5110118e-05
1.8555163e-05
2.740763e-05
4.3497516e-05
6.7905582e-05
0.00010130568
0.00014493794
0.00020134513
0.00027421898
0.00036746548
0.00048267249
0.00061907493
0.00076935388
0.00092599337
0.0010707819
2.2809729e-07
1.3194405e-06
3.4742931e-06
6.2301216e-06
9.503634e-06
1.2904711e-05
1.6133878e-05
1.8704444e-05
2.0234513e-05
2.0497438e-05
1.9828048e-05
1.9356484e-05
2.1090094e-05
2.7500414e-05
4.0773257e-05
6.213311e-05
9.1864167e-05
0.00013027846
0.00017893449
0.00024131319
0.00032212975
0.0004257648
0.00055361817
0.00070392418
0.00086806025
0.0010373467
0.0011923187
2.4539729e-07
1.4129075e-06
3.7539046e-06
6.8056972e-06
1.0535556e-05
1.4572652e-05
1.8642004e-05
2.2228433e-05
2.4860673e-05
2.6098727e-05
2.5952865e-05
2.520626e-05
2.5679616e-05
2.9981905e-05
4.0743444e-05
5.9604124e-05
8.6752274e-05
0.00012162756
0.00016441584
0.0002175163
0.00028573733
0.00037487474
0.00048972077
0.00063103112
0.00079591323
0.00097425494
0.001156216
0.0013212057
2.6045993e-07
1.5026373e-06
4.0183265e-06
7.3518532e-06
1.1522512e-05
1.6189383e-05
2.1115848e-05
2.5787663e-05
2.9681364e-05
3.2186753e-05
3.3005554e-05
3.2513946e-05
3.2229651e-05
3.4779868e-05
4.3250845e-05
5.9942116e-05
8.5352139e-05
0.00011832877
0.00015755663
0.00020367964
0.00026051592
0.00033450774
0.00043256925
0.00055947445
0.00071514913
0.00089519307
0.0010879625
0.0012825014
0.0014572513
2.7323302e-07
1.589216e-06
4.2670107e-06
7.8667864e-06
1.2458134e-05
1.7739271e-05
2.3522455e-05
2.932044e-05
3.4594248e-05
3.8611324e-05
4.0807424e-05
4.1114327e-05
4.0632247e-05
4.1843719e-05
4.8211041e-05
6.2859996e-05
8.7035918e-05
0.00011948871
0.0001575589
0.0001997114
0.00024778438
0.00030762272
0.00038754216
0.000495269
0.00063529802
0.00080617469
0.0010018727
0.0012091519
0.0014160412
0.0016002228
2.8290556e-07
1.6741431e-06
4.4989322e-06
8.350117e-06
1.3338195e-05
1.9211549e-05
2.5836424e-05
3.2776407e-05
3.9509257e-05
4.5233848e-05
4.917301e-05
5.0822132e-05
5.0756852e-05
5.1128689e-05
5.5609079e-05
6.819619e-05
9.1279644e-05
0.00012413773
0.00016324452
0.00020476799
0.0002477655
0.00029619831
0.00035848536
0.00044472423
0.00056317442
0.00071738592
0.00090430955
0.0011160178
0.0013377325
0.0015566034
0.0017497857
2.9265458e-07
1.7524994e-06
4.7151309e-06
8.8014184e-06
1.4160944e-05
2.0599291e-05
2.8039459e-05
3.611576e-05
4.4350283e-05
5.1928579e-05
5.7919614e-05
6.1434797e-05
6.2443962e-05
6.2577408e-05
6.5478e-05
7.5923823e-05
9.7732181e-05
0.00013138908
0.00017324
0.00021744229
0.00025973684
0.00030099455
0.00034823598
0.00041269719
0.00050606593
0.00063643724
0.00080603634
0.0010097237
0.0012376407
0.0014735516
0.0017038799
0.0019053751
3.0391552e-07
1.8337359e-06
4.8942739e-06
9.225584e-06
1.492431e-05
2.1899771e-05
3.0118446e-05
3.9309169e-05
4.9055238e-05
5.8584625e-05
6.6876923e-05
7.273605e-05
7.5502013e-05
7.6101982e-05
7.7868917e-05
8.6132191e-05
0.00010625276
0.00014055162
0.00018617981
0.00023595729
0.00028220469
0.00032164748
0.00035834223
0.00040307861
0.00046995639
0.00057159708
0.00071538096
0.00090148827
0.001122557
0.0013666966
0.0016163925
0.0018574987
0.0020664646
3.2012621e-07
1.9223492e-06
5.0521087e-06
9.579551e-06
1.5634827e-05
2.310935e-05
3.2066726e-05
4.2334779e-05
5.3576694e-05
6.5107503e-05
7.5889043e-05
8.4504428e-05
8.9708668e-05
9.1571237e-05
9.2819106e-05
9.8991252e-05
0.00011690878
0.00015121026
0.00020086661
0.00025840383
0.00031308632
0.00035681465
0.00038909233
0.00041846893
0.00045995743
0.00053002079
0.00064154303
0.00080028101
0.0010040321
0.0012429023
0.0015030801
0.0017659725
0.0020170835
0.0022328015
3.4459877e-07
2.0131943e-06
5.2041136e-06
9.888796e-06
1.6208323e-05
2.4237985e-05
3.3877945e-05
4.5181965e-05
5.7877969e-05
7.1421234e-05
8.4815892e-05
9.6529185e-05
0.00010481618
0.00010880398
0.00011032279
0.00011470448
0.00012994464
0.00016325685
0.00021640616
0.00028294329
0.00034996518
0.00040432544
0.00043962029
0.00046013477
0.00047996416
0.00051816314
0.00059287592
0.00071616622
0.00089155763
0.0011138978
0.0013708018
0.0016466265
0.0019219483
0.0021822233
0.0024041797
3.7932976e-07
2.0894231e-06
5.3524073e-06
1.0182689e-05
1.6689778e-05
2.5140476e-05
3.5567821e-05
4.7838389e-05
6.1942228e-05
7.7466675e-05
9.35371e-05
0.00010861449
0.00012055986
0.00012756715
0.00013030933
0.00013346
0.00014572691
0.00017688199
0.00023228834
0.00030799972
0.0003903208
0.00046143366
0.0005080078
0.00052807364
0.00053254618
0.00054142115
0.00057725043
0.00065864286
0.00079593021
0.00098956961
0.0012313157
0.0015062324
0.0017971119
0.0020839431
0.0023523996
0.0025800749
4.2311974e-07
2.1324287e-06
5.4969593e-06
1.0455311e-05
1.7146791e-05
2.5884868e-05
3.6898404e-05
5.0322867e-05
6.5743546e-05
8.3203282e-05
0.00010195297
0.00012058149
0.00013667449
0.00014758495
0.00015263259
0.00015538699
0.0001646779
0.00019252758
0.00024842333
0.00033240057
0.00043176881
0.00052505281
0.000591517
0.00062105914
0.00061897336
0.00060395864
0.00060170484
0.00063699612
0.00072771432
0.00088131451
0.0010947573
0.0013564375
0.0016491031
0.0019542447
0.0022515724
0.0025271444
0.002759769
4.6888791e-07
2.1320609e-06
5.6251805e-06
1.0693344e-05
1.7576643e-05
2.6591105e-05
3.7972016e-05
5.2262644e-05
6.9304348e-05
8.8587267e-05
0.00010999396
0.00013227122
0.00015291345
0.00016854607
0.00017706647
0.00018051996
0.00018720627
0.00021081407
0.00026512384
0.00035547504
0.00047225816
0.00059202476
0.00068680982
0.00073684479
0.00073920391
0.00070870365
0.00067222319
0.00065997799
0.00069755872
0.00080061913
0.0009729418
0.0012074731
0.0014893766
0.0017992548
0.002117661
0.0024243674
0.0027059639
0.0029426722
5.0739147e-07
2.0819683e-06
5.7124987e-06
1.0873015e-05
1.7974043e-05
2.7254204e-05
3.8998736e-05
5.3804403e-05
7.2065289e-05
9.365647e-05
0.00011759264
0.00014356469
0.00016903983
0.00019012606
0.00020330694
0.00020878183
0.00021364356
0.00023245185
0.00028304868
0.00037708838
0.00051023743
0.0006593569
0.00079022376
0.00087235461
0.00089206022
0.000857286
0.00079371208
0.00073553588
0.00071591707
0.00075937093
0.00087811198
0.001071402
0.0013280841
0.0016301545
0.0019564697
0.0022869613
0.0026018218
0.0028883157
0.0031282094
5.3472086e-07
1.9761936e-06
5.7326243e-06
1.0973746e-05
1.8316045e-05
2.7861114e-05
3.9977702e-05
5.5292119e-05
7.4231201e-05
9.7586144e-05
0.00012478987
0.00015433064
0.0001848652
0.00021198591
0.00023100195
0.00023997689
0.00024419608
0.00025814678
0.0003031115
0.00039763026
0.00054475458
0.00072444647
0.00089802527
0.0010239512
0.0010753901
0.0010501941
0.00096989554
0.00087077944
0.00079274754
0.00076964264
0.00082322981
0.00096102077
0.001177343
0.0014568486
0.0017787275
0.0021204472
0.0024617019
0.0027834125
0.0030736619
0.0033158516
1.8296188e-06
5.4419804e-07
5.6630851e-06
1.0971586e-05
1.8561772e-05
2.8382063e-05
4.0893437e-05
5.6727336e-05
7.6348399e-05
0.00010063906
0.00013038061
0.00016462416
0.00020014942
0.00023385043
0.00025972986
0.00027380374
0.00027890633
0.00028851728
0.00032636627
0.00041794762
0.00057551571
0.00078524224
0.0010066692
0.0011876862
0.0012863274
0.0012869178
0.0012034639
0.0010718395
0.00093747536
0.0008433595
0.00082183182
0.00089014382
0.0010502909
0.0012913351
0.0015939819
0.0019349458
0.0022908243
0.0026413972
0.0029685983
0.003261457
0.0035051002
5.5228e-06
1.6923616e-06
5.248435e-07
1.0853362e-05
1.8663429e-05
2.8766665e-05
4.1712275e-05
5.8082115e-05
7.8422888e-05
0.00010367282
0.0001346993
0.00017267086
0.00021496401
0.00025534249
0.00028912742
0.00030983156
0.0003176608
0.00032402093
0.00035389503
0.00043923646
0.00060286816
0.00084038369
0.0011130019
0.0013595725
0.0015215373
0.0015662168
0.0014962138
0.0013440163
0.0011588164
0.00099226212
0.00088768272
0.00087356366
0.00096135553
0.001146848
0.0014139137
0.0017395557
0.0020985982
0.0024671783
0.0028255305
0.003156832
0.0034511697
0.0036954408
1.0658422e-05
5.3564699e-06
1.612295e-06
4.7217896e-07
1.8604999e-05
2.8960144e-05
4.2366604e-05
5.931261e-05
8.0431142e-05
0.00010670454
0.0001390596
0.00017890521
0.0002267322
0.00027658369
0.00031858598
0.00034765038
0.00036015047
0.00036492461
0.0003866885
0.00046292157
0.00062773474
0.00088924349
0.0012144671
0.001535803
0.0017774963
0.0018863787
0.0018493471
0.0016919273
0.0014649216
0.0012276914
0.0010347357
0.00092668847
0.00092633299
0.0010381861
0.0012516157
0.0015454576
0.0018935776
0.002269376
0.0026490374
0.0030135617
0.0033475628
0.0036422842
0.0038863814
1.8428615e-05
1.0450264e-05
5.206051e-06
1.5801346e-06
4.0464828e-07
2.8957811e-05
4.2788963e-05
6.0351644e-05
8.2335019e-05
0.00010972231
0.00014350495
0.00018526798
0.0002360318
0.000293909
0.00034832643
0.0003864379
0.00040602896
0.00041122851
0.00042557446
0.00049049783
0.00065152337
0.00093194437
0.001309192
0.0017129946
0.002050716
0.0022455263
0.0022637725
0.0021198569
0.0018635332
0.0015607173
0.0012768723
0.0010654975
0.00096201874
0.00098186918
0.0011220312
0.001365432
0.001686288
0.0020559223
0.0024469038
0.0028358858
0.003204935
0.003540243
0.0038342923
0.0040774506
2.8835299e-05
1.8226964e-05
1.0280186e-05
5.0926126e-06
1.5677467e-06
3.428391e-07
4.2994949e-05
6.1140386e-05
8.406612e-05
0.00011266532
0.00014803245
0.000191843
0.00024551673
0.00030811175
0.00037334866
0.00042659027
0.00045437577
0.00046283418
0.0004711048
0.00052342337
0.00067594237
0.00096932559
0.0013961162
0.0018882841
0.0023380048
0.0026418678
0.0027404806
0.0026321314
0.0023623885
0.0020022874
0.0016280017
0.0013062333
0.0010861698
0.00099577573
0.0010420934
0.001214249
0.0014890072
0.0018365649
0.0022263751
0.0026307287
0.0030271754
0.003399088
0.0037343404
0.004026705
0.004268208
4.309376e-05
2.874151e-05
1.8091756e-05
1.017383e-05
4.9930314e-06
1.5594794e-06
2.9427735e-07
6.1722773e-05
8.5555395e-05
0.00011545613
0.00015253494
0.00019859153
0.0002553083
0.00032249453
0.00039492346
0.00046146052
0.00050573277
0.00051889085
0.00052367345
0.000562965
0.00070290702
0.001002751
0.0014749909
0.0020595722
0.0026365502
0.0030739847
0.0032808628
0.003233604
0.0029696813
0.0025636664
0.002102164
0.0016654526
0.0013171507
0.0010991498
0.0010304467
0.0011089735
0.0013160869
0.0016229006
0.0019963204
0.0024046057
0.0028203456
0.0032223329
0.00359546
0.0039293402
0.0042190591
0.0044582359
6.2243004e-05
4.3250459e-05
2.8769682e-05
1.8013757e-05
1.0077375e-05
4.8830402e-06
1.5474107e-06
2.5809105e-07
8.6842205e-05
0.00011799437
0.00015683903
0.00020523549
0.00026512628
0.00033718023
0.00041661419
0.00049342755
0.00055231029
0.00058026551
0.00058282142
0.0006102114
0.00073433895
0.0010341441
0.0015462327
0.00222546
0.0029442691
0.0035409269
0.0038870688
0.0039300904
0.0036946906
0.0032569714
0.0027139698
0.0021600372
0.0016738981
0.0013122013
0.0011075029
0.0010686977
0.0011844248
0.0014286413
0.0017675106
0.0021654372
0.0025902022
0.0030151956
0.0034207729
0.003793497
0.0041247467
0.004410916
0.0046471498
8.8059623e-05
6.2831974e-05
4.3513709e-05
2.8793805e-05
1.7881955e-05
9.9240967e-06
4.7695821e-06
1.5294469e-06
2.3266405e-07
0.00012030662
0.00016081554
0.00021142304
0.00027434929
0.00035140927
0.00043836295
0.00052551483
0.00059792596
0.00063843384
0.00064980601
0.0006655179
0.00077205878
0.0010656449
0.0016112129
0.0023852823
0.0032595607
0.0040426697
0.0045621914
0.0047288521
0.0045483548
0.0040959427
0.0034791739
0.0028075882
0.002175815
0.0016559326
0.0012949839
0.0011146676
0.001113232
0.001270237
0.0015528225
0.001923048
0.0023436715
0.0027826637
0.0032146879
0.0036219053
0.0039926576
0.004320085
0.0046018654
0.0048345935
0.00012257557
8.9362532e-05
6.3562123e-05
4.3748368e-05
2.8726148e-05
1.764857e-05
9.7387515e-06
4.6619071e-06
1.5074516e-06
2.1514588e-07
0.00016450547
0.0002171024
0.00028263458
0.00036388093
0.00045889933
0.0005577839
0.00064406346
0.0006996263
0.00071573832
0.00073042142
0.0008176086
0.0010995684
0.0016714511
0.0025395374
0.003581754
0.0045796312
0.005310841
0.0056389634
0.0055439615
0.0050966553
0.0044155322
0.0036269715
0.0028430707
0.0021519519
0.0016156705
0.0012697574
0.0011242265
0.0011666924
0.0013679989
0.0016893154
0.0020895472
0.0025306533
0.0029814295
0.0034182043
0.0038251394
0.0041924143
0.0045149068
0.0047915316
0.0050202442
0.00016795227
0.00012485782
9.0769818e-05
6.4209479e-05
4.3820214e-05
2.8527593e-05
1.7378378e-05
9.5490885e-06
4.5642833e-06
1.4832131e-06
2.0231315e-07
0.00022244938
0.0002901503
0.00037414803
0.00047625537
0.00058801863
0.00069077918
0.00076349492
0.00079015953
0.00079510811
0.00087240111
0.0011386283
0.0017293753
0.0026881807
0.003911072
0.005153849
0.0061385347
0.0066719646
0.0066977293
0.0062784916
0.0055436311
0.0046392059
0.0036970105
0.0028225799
0.0020930878
0.0015582468
0.0012411413
0.0011398491
0.001231531
0.0014790455
0.0018385744
0.0022668686
0.0027259061
0.0031858783
0.0036251071
0.0040298874
0.0043922657
0.0047088042
0.0049795731
0.0052037987
0.00022715677
0.00017113938
0.0001268975
9.1770469e-05
6.4394391e-05
4.3596254e-05
2.8178773e-05
1.7079162e-05
9.3657611e-06
4.4731983e-06
1.4583756e-06
1.9249263e-07
0.00029707665
0.00038312345
0.00048886988
0.0006125716
0.00073552204
0.00082899461
0.00087205843
0.00087221259
0.00092190983
0.0011835895
0.0017878339
0.0028336113
0.0042461972
0.0057675918
0.0070539599
0.0078414527
0.0080295129
0.0076648654
0.0068881407
0.0058683262
0.0047610567
0.0036911573
0.002751403
0.0020053574
0.0014894707
0.0012139631
0.0011650412
0.0013099297
0.0016044301
0.0020008253
0.002454706
0.0029288501
0.0033953392
0.003834745
0.0042355857
0.0045917577
0.0049014034
0.0051656614
0.0053937536
0.00030298199
0.00023107932
0.00017365811
0.00012800888
9.1773732e-05
6.396046e-05
4.3022221e-05
2.7697224e-05
1.6747913e-05
9.1857299e-06
4.3823023e-06
1.426697e-06
1.8267133e-07
0.00039129173
0.00049877097
0.00062881667
0.00077156887
0.00089260279
0.00095859544
0.00096468207
0.00097922315
0.0012039031
0.0018468611
0.0029755171
0.0045902261
0.0064215043
0.0080651448
0.0091663674
0.0095630111
0.0092841196
0.0084785685
0.0073428509
0.0060614683
0.0047825336
0.0036154405
0.0026368482
0.001895874
0.001415451
0.0011929603
0.0012030396
0.0014037489
0.0017449154
0.0021760561
0.0026525938
0.0031388137
0.0036091062
0.0040464895
0.0044417248
0.0047904672
0.0050923188
0.0053573753
0.0055943135
0.00039810775
0.00030753217
0.00023372235
0.00017461504
0.00012752728
9.0796843e-05
6.2936584e-05
4.2213736e-05
2.7127933e-05
1.6397644e-05
9.000071e-06
4.264848e-06
1.3834204e-06
1.7275812e-07
0.00050763857
0.00063973191
0.00079408653
0.00094633971
0.0010447862
0.0010680051
0.0010631226
0.0012067252
0.0018340615
0.0031158689
0.0049343469
0.0071211567
0.0091794568
0.010663573
0.011329127
0.011170484
0.010350619
0.0090965726
0.0076288442
0.0061241468
0.0047110594
0.0034788587
0.0024876286
0.00177223
0.0013423264
0.0011826294
0.0012567366
0.0015144973
0.0019009479
0.0023640209
0.0028599177
0.0033550652
0.0038264956
0.0042597671
0.004647814
0.0049879208
0.0052886242
0.0055591124
0.0058000615
0.0005149281
0.00040296402
0.00030993554
0.00023401424
0.00017327355
0.00012568079
8.905895e-05
6.161453e-05
4.1295636e-05
2.652344e-05
1.6031351e-05
8.7518504e-06
4.1116956e-06
1.3338075e-06
1.6261926e-07
0.00064844773
0.00080626699
0.00098010337
0.0011218786
0.0011757623
0.00116842
0.0012486418
0.0017438042
0.003092299
0.0052913457
0.0078455769
0.010406456
0.012349473
0.013354738
0.013367018
0.012547668
0.011170429
0.0094990634
0.007747098
0.0060658433
0.004557943
0.0032921572
0.0023130517
0.0016421292
0.0012760363
0.0011871177
0.0013286212
0.001643282
0.0020726484
0.0025642538
0.0030759703
0.0035768801
0.0040468659
0.0044739936
0.0048532628
0.0051910557
0.0054949276
0.0057668697
0.0060109304
0.00065554295
0.00051966383
0.00040462297
0.00030877858
0.00023113357
0.00017006522
0.00012285779
8.6967713e-05
6.0153274e-05
4.0319991e-05
2.5882628e-05
1.5546563e-05
8.4246049e-06
3.9407741e-06
1.2768237e-06
1.5231294e-07
0.0008140962
0.0009944581
0.0011732409
0.0012773226
0.0012870337
0.0013267294
0.001702479
0.0028852614
0.0053315887
0.0086276247
0.011702533
0.014234146
0.015662414
0.015909982
0.015122963
0.013613989
0.011715635
0.0096870994
0.0077102448
0.0059014969
0.0043367756
0.0030667722
0.0021225761
0.0015131009
0.0012221804
0.0012101348
0.0014206976
0.0017907808
0.0022598307
0.0027761494
0.0033000219
0.0038035495
0.0042695164
0.0046884408
0.0050652529
0.0054046795
0.0057081163
0.0059805636
0.0062268311
0.00082021545
0.00065974499
0.00051996313
0.00040124717
0.00030330431
0.00022578789
0.00016558737
0.00011954232
8.4660656e-05
5.8588757e-05
3.9267373e-05
2.5038917e-05
1.4912591e-05
8.0592404e-06
3.7502869e-06
1.2116985e-06
1.4167209e-07
0.0010015186
0.0011935534
0.0013500558
0.0014038972
0.0014316701
0.0017135042
0.0027292777
0.0050378126
0.00886355
0.013104009
0.016229678
0.018255927
0.018822606
0.018118353
0.016487179
0.014330476
0.011987384
0.0096781544
0.0075384744
0.0056487209
0.0040617778
0.0028141773
0.0019254387
0.0013923373
0.0011859034
0.0012548326
0.0015344302
0.0019572675
0.0024621106
0.002999037
0.0035313085
0.0040342389
0.0044935549
0.00491096
0.0052887678
0.0056261345
0.005928124
0.0062000586
0.0064476595
0.0010068788
0.00082389687
0.00065828783
0.00051337945
0.00039198855
0.00029468624
0.00021883094
0.00016042737
0.00011592321
8.219159e-05
5.689672e-05
3.7888415e-05
2.3933178e-05
1.4214044e-05
7.6518532e-06
3.5390998e-06
1.1382704e-06
1.3054641e-07
0.0012022289
0.0013814207
0.0014952768
0.0015451783
0.0017688417
0.0026386729
0.0047784901
0.0085910784
0.013678546
0.018361798
0.020989841
0.022097835
0.02156254
0.019839639
0.017407384
0.014698761
0.012010196
0.0095002614
0.0072555682
0.0053256384
0.0037468914
0.002545434
0.0017304906
0.0012865684
0.0011717381
0.0013237179
0.0016707788
0.002142746
0.0026789767
0.0032321287
0.0037688538
0.0042678758
0.0047279593
0.0051466605
0.0055211616
0.0058553942
0.0061547703
0.0064252037
0.0066732908
0.0012082629
0.0010108949
0.00082107182
0.00064762321
0.00049899678
0.00037861267
0.00028404379
0.00021097491
0.00015487683
0.00011209497
7.9541203e-05
5.4724925e-05
3.6076477e-05
2.2727056e-05
1.3442803e-05
7.2019242e-06
3.3072594e-06
1.0565897e-06
1.1883493e-07
0.0013963259
0.0015454524
0.0016451858
0.0018515718
0.0026121984
0.0045731817
0.0083052656
0.013608264
0.019385698
0.023872118
0.025532959
0.025432255
0.023699037
0.021005273
0.017884801
0.014753348
0.01182329
0.0091859451
0.0068851311
0.0049494037
0.0034051742
0.0022710378
0.0015460895
0.0012018763
0.0011834855
0.0014187008
0.001830359
0.0023470111
0.0029096766
0.0034743071
0.0040113923
0.0045151171
0.004977917
0.0053924221
0.005762476
0.0060922342
0.0063878696
0.0066558055
0.0069035854
0.0014083425
0.0012148031
0.0010082395
0.00080631655
0.00062684888
0.00047923762
0.00036270985
0.00027226629
0.00020265729
0.00014908761
0.00010804104
7.6231032e-05
5.1890606e-05
3.4119469e-05
2.1406084e-05
1.2599164e-05
6.7097711e-06
3.0549474e-06
9.6720338e-07
1.0651148e-07
0.001575479
0.0017177078
0.0019413829
0.0026351198
0.0044399258
0.0080200465
0.013445767
0.01970122
0.025424372
0.029104139
0.02946811
0.028031178
0.025138823
0.021609406
0.01796756
0.01454862
0.011471725
0.0087667374
0.0064487588
0.0045354065
0.0030486977
0.0020008716
0.0013799112
0.0011435546
0.0012242859
0.0015412859
0.0020134748
0.0025694431
0.00315297
0.0037241225
0.0042718745
0.0047811549
0.0052393109
0.0056483934
0.0060124496
0.0063364503
0.0066271778
0.0068916519
0.0071383844
0.0016062188
0.0014265671
0.001215975
0.00099100966
0.00077868073
0.00059902405
0.00045624163
0.00034551673
0.00026005192
0.00019408208
0.00014303818
0.00010312529
7.1952006e-05
4.8863494e-05
3.1995695e-05
1.9976366e-05
1.1685507e-05
6.1767996e-06
2.7832905e-06
8.7090778e-07
9.3637475e-08
0.0017737839
0.0020268507
0.0026891474
0.0043720036
0.007785248
0.013198534
0.01984256
0.026265235
0.031206695
0.033611115
0.032531256
0.029774075
0.025879538
0.021717345
0.017729854
0.014147104
0.010998282
0.0082705055
0.0059647809
0.0040972307
0.0026886082
0.0017440628
0.0012388184
0.001116223
0.0012968491
0.0016925511
0.0022197845
0.0028087275
0.0034072593
0.0039975388
0.0045554348
0.0050602498
0.0055124343
0.0059142865
0.0062708689
0.0065877556
0.0068724218
0.0071324933
0.0073775141
0.00184178
0.0016511959
0.001442883
0.0012017419
0.00095813556
0.000741755
0.00056713472
0.0004318686
0.00032802252
0.0002476575
0.00018526805
0.00013592488
9.6856087e-05
6.7437365e-05
4.5609674e-05
2.9719922e-05
1.8443401e-05
1.0706535e-05
5.6065867e-06
2.4945008e-06
7.688724e-07
8.0366833e-08
0.0021185586
0.0027703936
0.0043565734
0.0076102586
0.012949602
0.019794832
0.026831661
0.032650424
0.036232448
0.037115219
0.034592971
0.03066552
0.026006181
0.021426513
0.017258461
0.013608288
0.010439743
0.0077195468
0.0054483156
0.0036468811
0.0023351024
0.0015089146
0.0011290588
0.0011241147
0.0014033453
0.0018726338
0.0024479902
0.0030631971
0.0036923044
0.0042995718
0.0048540153
0.0053528937
0.0057969758
0.0061898848
0.0065374216
0.0068458289
0.0071232829
0.0073780606
0.0076207801
0.0022426336
0.0019325355
0.0016993243
0.0014424077
0.0011702899
0.00091359057
0.00069982037
0.00053391055
0.00040759275
0.00031057955
0.00023512635
0.00017519312
0.000126989
9.0319571e-05
6.2631843e-05
4.2158221e-05
2.7302699e-05
1.6817337e-05
9.6696742e-06
5.0045152e-06
2.1919658e-06
6.6273781e-07
6.6935886e-08
0.0028942283
0.0044006491
0.0074915596
0.012711072
0.019661267
0.027103371
0.033712829
0.038327251
0.040214164
0.039481359
0.03566001
0.030807844
0.025648488
0.020856165
0.016635438
0.012980989
0.0098240491
0.0071307744
0.0049117406
0.0031949717
0.0019974998
0.0013032548
0.0010566468
0.001170847
0.0015446484
0.0020804012
0.0026964936
0.0033572376
0.004012997
0.0046190414
0.0051683636
0.0056587513
0.0060927306
0.0064748582
0.0068117492
0.0071102964
0.0073794113
0.0076280614
0.007868013
0.0030812403
0.0023969098
0.0020304507
0.0017296421
0.0014250194
0.0011251173
0.00086301482
0.00065686661
0.00050140169
0.00038386311
0.00029326399
0.00022120015
0.00016275968
0.00011778451
8.3435377e-05
5.7586683e-05
3.8529213e-05
2.4763931e-05
1.5111991e-05
8.5860924e-06
4.3783109e-06
1.8803523e-06
5.5468142e-07
5.3673844e-08
0.0045270032
0.0074430936
0.012479516
0.019455048
0.027199834
0.034401232
0.039925041
0.042950077
0.042991672
0.040722753
0.035847701
0.030369052
0.02496511
0.020121578
0.015926728
0.012301035
0.0091705118
0.0065164994
0.0043652032
0.0027510514
0.0016848511
0.0011349801
0.00102699
0.0012583442
0.0017200097
0.0023145471
0.0029950924
0.0036957097
0.0043541689
0.0049570216
0.0054981175
0.0059776461
0.0063993605
0.0067688251
0.0070934333
0.00738074
0.007640436
0.0078822324
0.0081189931
0.0047492116
0.0033034455
0.0025637055
0.0021156028
0.0017434883
0.001393762
0.0010727205
0.00081190015
0.00061578557
0.00047017216
0.0003607749
0.00027451018
0.00020434361
0.00015012009
0.00010819687
7.6287729e-05
5.233811e-05
3.4755846e-05
2.2129128e-05
1.3347012e-05
7.4706775e-06
3.7382694e-06
1.5658118e-06
4.4739446e-07
4.0998684e-08
0.0074971319
0.012273138
0.019155445
0.027122469
0.034815181
0.041089679
0.045104193
0.046337413
0.044561755
0.040976408
0.035351483
0.029551022
0.02410328
0.019309893
0.01517848
0.011590947
0.0084910532
0.005885344
0.0038172978
0.0023246099
0.0014067552
0.0010115362
0.0010434003
0.0013865274
0.0019287594
0.0026108854
0.0033489161
0.0040585536
0.0047172947
0.0053131154
0.0058431451
0.0063092432
0.0067164724
0.0070713351
0.0073819983
0.0076567265
0.0079060088
0.0081402459
0.0083734925
0.0076704029
0.005003414
0.0035328885
0.0027195555
0.002179307
0.0017448747
0.0013539477
0.0010200481
0.00076409354
0.00057700375
0.00044052077
0.0003362959
0.00025224526
0.00018744634
0.00013711709
9.8361891e-05
6.8934361e-05
4.6941085e-05
3.0879828e-05
1.9431466e-05
1.1547963e-05
6.3424964e-06
3.0975061e-06
1.2560698e-06
3.4406446e-07
2.9407109e-08
0.012141601
0.018771823
0.026827632
0.034931976
0.041866454
0.046740797
0.049039408
0.048453546
0.045056377
0.040480548
0.034421084
0.028540381
0.023173716
0.018482017
0.014417608
0.01086205
0.007791663
0.0052434088
0.0032766492
0.0019263414
0.0011727313
0.00093792773
0.00110681
0.001555806
0.0022129057
0.002975466
0.0037321711
0.0044477249
0.0051019253
0.0056872522
0.006203125
0.0066531504
0.0070435951
0.0073818694
0.0076769588
0.0079378307
0.0081757157
0.0084017467
0.0086312708
0.012130792
0.0078565794
0.0052472377
0.0037483722
0.0028437159
0.0022283615
0.001735916
0.0013131501
0.00097173126
0.00072002253
0.000540974
0.00040968247
0.00030768129
0.00023025564
0.0001702994
0.00012395512
8.8369593e-05
6.1461241e-05
4.1459937e-05
2.6953902e-05
1.6711816e-05
9.7466343e-06
5.2248139e-06
2.4720698e-06
9.6044954e-07
2.4843264e-07
1.9457624e-08
0.018371266
0.026309435