/*--------------------------------*- C++ -*----------------------------------*\
| =========                 |                                                 |
| \\      /  F ield         | OpenFOAM: The Open Source CFD Toolbox           |
|  \\    /   O peration     | Version:  5.0                                   |
|   \\  /    A nd           | Web:      www.OpenFOAM.org                      |
|    \\/     M anipulation  |                                                 |
\*---------------------------------------------------------------------------*/
FoamFile
{
    version     2.0;
    format      ascii;
    class       volVectorField;
    location    "80";
    object      U;
}
// * * * * * * * * * * * * * * * * * * * * * * * * * * * * * * * * * * * * * //

dimensions      [0 1 -1 0 0 0 0];

internalField   nonuniform List<vector> 
9200
(
(1.0047436 -0.0010735527 -3.1025649e-24)
(1.0050448 -0.0035122914 -9.7226776e-22)
(1.0080477 -0.0011070003 0)
(1.0055108 -0.0053830715 4.9315623e-22)
(1.008307 -0.0036530012 -8.8170194e-22)
(1.0095512 -0.0011308584 0)
(1.0060536 -0.0074223556 5.0850747e-23)
(1.0087009 -0.0055852221 -7.5625666e-23)
(1.0097971 -0.0037546148 0)
(1.0118936 -0.0011687202 0)
(1.0067241 -0.0090035532 -8.9682715e-22)
(1.0091646 -0.0077231415 -4.9025307e-22)
(1.0101614 -0.0057272298 -4.9571948e-22)
(1.0121173 -0.0039264198 -3.3631959e-23)
(1.0138003 -0.0012038806 4.6496114e-25)
(1.0074428 -0.010604383 -8.2894176e-22)
(1.0097129 -0.0093742388 1.2907375e-22)
(1.0105903 -0.00792818 -1.5564932e-21)
(1.0124351 -0.0059733451 -5.6923667e-22)
(1.0140078 -0.0040921495 5.0046415e-23)
(1.0159776 -0.001247206 1.6658752e-21)
(1.0082066 -0.011920569 -6.4728859e-22)
(1.0103197 -0.011063082 -1.0579257e-21)
(1.011097 -0.0096218796 9.6086981e-22)
(1.0128097 -0.0082808169 4.4144889e-23)
(1.0142871 -0.0062131196 -7.2873091e-22)
(1.0161718 -0.0042988823 -7.172526e-22)
(1.0180079 -0.001290038 -9.9978906e-23)
(1.0089702 -0.013153241 -1.3107495e-22)
(1.0109487 -0.012464668 -6.0685073e-22)
(1.0116606 -0.011355775 -9.4739738e-22)
(1.0132423 -0.010050738 1.3629504e-22)
(1.0146157 -0.0086207405 1.5749912e-21)
(1.0164121 -0.0065168104 7.0854661e-22)
(1.0181894 -0.0045079337 1.1424449e-21)
(1.0201903 -0.0013363827 -1.8353845e-21)
(1.0097166 -0.014212616 7.0025359e-22)
(1.0115862 -0.013792218 -8.6993588e-22)
(1.0122496 -0.012795948 1.324508e-22)
(1.0137295 -0.011861496 -5.6484762e-22)
(1.0149867 -0.010464473 3.1534818e-22)
(1.0166929 -0.009052247 2.7069096e-21)
(1.0183922 -0.0068276828 -1.0044692e-21)
(1.0203676 -0.0047428689 2.0379973e-21)
(1.0222885 -0.0013795962 4.1325124e-21)
(1.0104208 -0.01516455 -4.3350674e-22)
(1.0122069 -0.01495802 6.1977546e-22)
(1.0128529 -0.014158579 -9.7009321e-24)
(1.0142365 -0.013364008 -4.8907147e-22)
(1.0154077 -0.012345224 1.5347849e-22)
(1.0169938 -0.010995863 5.4100818e-22)
(1.0186256 -0.0094948892 -1.004202e-21)
(1.0205431 -0.0071833422 -1.9812715e-21)
(1.0224637 -0.0049725749 -1.0789307e-21)
(1.0245018 -0.0014223063 -2.9246076e-22)
(1.0110648 -0.01600031 2.0820343e-22)
(1.0127971 -0.016031472 2.2656913e-22)
(1.0134524 -0.015357867 -7.4607824e-22)
(1.0147626 -0.014777895 6.259803e-22)
(1.0158446 -0.013901137 -1.5904154e-21)
(1.0173332 -0.012970761 3.0516384e-21)
(1.0188564 -0.011547359 1.8093024e-22)
(1.0207401 -0.010007404 -3.4848202e-21)
(1.0226149 -0.0075357151 1.8312554e-21)
(1.024689 -0.0052119364 -3.8262002e-21)
(1.0266426 -0.0014594997 6.9155687e-22)
(1.0116334 -0.016742442 -4.2592796e-23)
(1.0133396 -0.017009337 -2.9572548e-22)
(1.014037 -0.016463405 3.8114482e-22)
(1.0152936 -0.016016279 0)
(1.0163035 -0.015352289 1.2826757e-23)
(1.0176737 -0.014599535 -5.546905e-22)
(1.0191109 -0.013625971 6.7651104e-22)
(1.0209064 -0.012198954 1.7580948e-21)
(1.0227796 -0.010519746 -5.1698088e-22)
(1.024834 -0.0079101743 2.3823911e-21)
(1.0268483 -0.0054328615 1.7058284e-21)
(1.0288645 -0.0014918656 -3.7823943e-22)
(1.0121251 -0.017406095 -1.2775484e-23)
(1.0138222 -0.017918043 2.3362741e-22)
(1.014594 -0.017475586 0)
(1.0158261 -0.017148923 0)
(1.0167767 -0.016609499 5.4200925e-22)
(1.0180281 -0.01609895 -1.3720652e-21)
(1.019348 -0.015340497 1.9277965e-21)
(1.0210732 -0.014414356 -1.8042298e-21)
(1.0228857 -0.01286199 -1.2282819e-22)
(1.0249898 -0.01107486 5.5753985e-24)
(1.026997 -0.0082610456 -3.1954638e-21)
(1.0291064 -0.0056435254 3.7538588e-21)
(1.0310105 -0.0015143458 -7.0050025e-21)
(1.0124995 -0.017985567 1.5059273e-22)
(1.0142336 -0.018770934 -3.4653783e-23)
(1.0151136 -0.018422537 4.5555767e-22)
(1.016354 -0.018179175 -5.8340518e-22)
(1.0172682 -0.017740873 6.7071733e-22)
(1.0183926 -0.017374388 -3.9526172e-22)
(1.0195859 -0.016902028 -3.8923416e-22)
(1.0211911 -0.01625039 4.9593565e-23)
(1.0229678 -0.015231058 -1.4396546e-21)
(1.0250579 -0.013600049 -1.3532581e-21)
(1.027159 -0.011603669 -8.2389532e-22)
(1.0292837 -0.008602569 -2.3080379e-21)
(1.0312955 -0.0058195137 -1.6229942e-21)
(1.03319 -0.0015256282 1.9974271e-21)
(1.012781 -0.018508196 -3.9080394e-23)
(1.0145666 -0.019584881 -9.3231142e-22)
(1.0155879 -0.019322487 6.3082857e-24)
(1.0168733 -0.019137925 5.5240681e-23)
(1.0177799 -0.018749486 -5.3582521e-23)
(1.0187791 -0.018488707 4.9263698e-22)
(1.0198241 -0.01821051 -3.5219564e-22)
(1.0212803 -0.017907563 5.2029359e-22)
(1.022965 -0.017214297 -3.2749059e-22)
(1.025072 -0.016164494 9.1578064e-23)
(1.0272079 -0.01432011 5.0297318e-23)
(1.0294874 -0.012131981 -1.0568834e-22)
(1.0315157 -0.0088933566 3.4718424e-21)
(1.0335397 -0.0059630259 -1.8281297e-21)
(1.0352865 -0.0015228304 1.5986394e-21)
(1.0129438 -0.018988183 -2.469454e-22)
(1.0148135 -0.020372797 4.9893879e-22)
(1.0160121 -0.020195177 -4.0344784e-22)
(1.0173862 -0.020050432 5.6178596e-22)
(1.0183154 -0.01966679 -6.5837385e-22)
(1.0191986 -0.019442239 1.2027962e-21)
(1.0200814 -0.019321165 -1.9035634e-21)
(1.0213403 -0.019277019 1.2292413e-22)
(1.0228968 -0.019000415 5.1037266e-22)
(1.0249541 -0.018348407 -9.345205e-22)
(1.0271757 -0.017098068 5.5642984e-21)
(1.0295578 -0.015063095 -2.2622696e-21)
(1.0317852 -0.012594746 -1.1799195e-21)
(1.0338343 -0.009138025 -4.2060846e-22)
(1.0357039 -0.0060565948 5.2066728e-24)
(1.037355 -0.0015059517 -1.81374e-21)
(1.0130034 -0.019409836 0)
(1.0149704 -0.021144584 6.5958083e-22)
(1.0163798 -0.02105657 -1.6936904e-23)
(1.0178887 -0.020937611 0)
(1.0188768 -0.020518383 0)
(1.0196655 -0.020267463 0)
(1.020377 -0.020228928 1.5076777e-22)
(1.0213943 -0.020401643 -9.2284618e-22)
(1.0227597 -0.020472101 1.695098e-21)
(1.0247171 -0.020325448 -1.4746524e-21)
(1.026965 -0.019516432 3.1966696e-22)
(1.0295223 -0.018092434 -1.2218788e-21)
(1.0319104 -0.015735903 2.0531159e-22)
(1.034213 -0.013002374 1.3650864e-21)
(1.036083 -0.0093055442 2.7505906e-22)
(1.0378639 -0.0060989783 9.3508923e-22)
(1.0393346 -0.0014754522 0)
(1.01297 -0.019781945 -3.0859578e-22)
(1.0150293 -0.021910829 -9.0910178e-22)
(1.0166844 -0.021919816 1.5309217e-21)
(1.0183741 -0.021820003 9.1453047e-22)
(1.0194601 -0.021326 1.0278789e-21)
(1.0201962 -0.020992836 0)
(1.0207371 -0.020961888 1.5656642e-21)
(1.0214679 -0.021268229 -5.8391277e-22)
(1.0225774 -0.021657235 -3.2275879e-21)
(1.0243479 -0.02196817 2.2540362e-21)
(1.0265795 -0.021736152 9.184381e-22)
(1.0292597 -0.020802826 3.6310961e-22)
(1.0319154 -0.01902248 -3.1748218e-21)
(1.0344477 -0.016357251 4.5449779e-21)
(1.0365964 -0.013303188 8.5542119e-22)
(1.0383622 -0.0093944033 6.7856697e-21)
(1.0399376 -0.0060825554 2.5454507e-21)
(1.0412296 -0.0014310074 2.3270906e-21)
(1.0128292 -0.020118103 3.5409361e-23)
(1.0149893 -0.022675503 -5.5618118e-22)
(1.0169201 -0.022794971 -1.7568376e-22)
(1.0188356 -0.022714209 9.6045937e-22)
(1.020071 -0.022118953 -1.391734e-22)
(1.0207989 -0.02164493 2.0814289e-22)
(1.0211705 -0.021528429 -1.8883588e-21)
(1.0215928 -0.021890098 -3.6600757e-21)
(1.0223761 -0.022529007 -1.4663899e-21)
(1.0238645 -0.023284246 1.0226846e-21)
(1.0259919 -0.023625101 -5.3066705e-22)
(1.0287597 -0.023342926 2.6568397e-21)
(1.0316554 -0.02204719 -1.8548973e-21)
(1.034559 -0.019918033 -2.2202063e-23)
(1.0369799 -0.016847624 -2.0975563e-22)
(1.0390586 -0.013496841 -1.1377956e-21)
(1.0405555 -0.0093886919 2.3132469e-21)
(1.0419363 -0.0060060628 -7.9827252e-23)
(1.0430194 -0.0013714212 2.1414179e-21)
(1.0125839 -0.020420419 3.0074695e-22)
(1.0148495 -0.023442269 6.3441442e-22)
(1.0170822 -0.023689995 -3.071017e-21)
(1.0192685 -0.023636117 -5.1425777e-22)
(1.0207067 -0.022916863 3.2631287e-22)
(1.0214873 -0.022254568 5.0423765e-23)
(1.0217085 -0.02196307 3.4033858e-22)
(1.0218038 -0.022284924 1.0191057e-21)
(1.0221862 -0.023085428 -6.4258223e-22)
(1.0232879 -0.024229936 -4.3601723e-21)
(1.0252091 -0.025174595 2.7492834e-21)
(1.0279751 -0.02557891 -4.4099812e-23)
(1.0311062 -0.024952717 -1.0298466e-21)
(1.0343772 -0.023292073 8.2428352e-23)
(1.0372527 -0.020663876 5.5902046e-23)
(1.039648 -0.017209244 -4.1181195e-21)
(1.0414445 -0.013553107 1.0029789e-21)
(1.0427068 -0.0092859345 -3.8764707e-21)
(1.043832 -0.00586896 -9.6457832e-22)
(1.0446921 -0.001294853 -2.1992619e-21)
(1.0122386 -0.020690472 6.0652837e-23)
(1.0146094 -0.024212197 1.0899827e-21)
(1.0171662 -0.024609341 4.0823109e-22)
(1.019665 -0.024595782 9.1307907e-22)
(1.0213632 -0.023739234 -2.2124804e-22)
(1.0222437 -0.022839252 -8.0532564e-22)
(1.0223526 -0.022302974 2.7385386e-21)
(1.0221023 -0.022471216 5.8755142e-21)
(1.0220312 -0.023323265 -6.1268276e-22)
(1.0226494 -0.02478486 0)
(1.0242417 -0.026328641 -1.7434667e-21)
(1.0268973 -0.027485781 1.855332e-21)
(1.0301999 -0.027610131 3.4729256e-21)
(1.0338621 -0.026621058 -2.9175295e-21)
(1.0372235 -0.024378149 1.4429031e-21)
(1.0401559 -0.021265669 -3.4751871e-21)
(1.0422717 -0.017390511 -2.2115639e-22)
(1.0438358 -0.013467642 1.3900709e-21)
(1.044755 -0.0090836074 -2.3069977e-21)
(1.0456126 -0.0056716426 -2.1839245e-22)
(1.0462364 -0.0012014537 -1.9944747e-21)
(1.0118016 -0.020929516 -4.199467e-22)
(1.014269 -0.024984909 9.8710604e-22)
(1.0171694 -0.025555044 1.5499714e-21)
(1.020017 -0.025600191 -1.6966647e-21)
(1.0220287 -0.024601881 -1.4345707e-21)
(1.0230691 -0.02341472 8.2784259e-23)
(1.0230652 -0.022539314 0)
(1.0224972 -0.02245106 5.1227315e-23)
(1.0219502 -0.023248804 -1.7028315e-21)
(1.0219893 -0.024937056 -4.249249e-21)
(1.0231176 -0.027051749 2.4063411e-23)
(1.0255252 -0.028996421 1.2085223e-21)
(1.02891 -0.029986826 -3.2591306e-22)
(1.0329221 -0.029782215 -1.1653849e-21)
(1.0368391 -0.028137675 2.1166e-21)
(1.0403711 -0.025315739 -1.9520673e-21)
(1.043065 -0.021641202 4.6086866e-22)
(1.044955 -0.017385606 -2.7776716e-21)
(1.0461218 -0.013233088 -5.744013e-22)
(1.0466976 -0.0087816808 -1.1126874e-22)
(1.0472648 -0.0054173722 -1.1726203e-21)
(1.0476443 -0.0010943693 0)
(1.011281 -0.021139752 -1.0368089e-22)
(1.0138313 -0.025758488 -5.9774287e-22)
(1.0170906 -0.026527505 -4.7025379e-23)
(1.0203178 -0.026653505 -2.0424932e-21)
(1.0226955 -0.025518247 -1.19621e-21)
(1.0239628 -0.024014459 8.1130304e-22)
(1.0239344 -0.022718577 1.1190936e-22)
(1.0230321 -0.022286822 3.2233483e-21)
(1.0219759 -0.022877894 9.3411641e-22)
(1.0213629 -0.02468502 4.0642718e-22)
(1.0218786 -0.027313653 -1.0990547e-22)
(1.02388 -0.030058327 -2.9078878e-21)
(1.0272162 -0.032010433 3.1347051e-22)
(1.0315095 -0.03273921 5.9995941e-22)
(1.0359869 -0.031832772 -2.9652641e-21)
(1.0402285 -0.029515046 -3.3351718e-21)
(1.0435973 -0.025981087 2.567498e-22)
(1.0460977 -0.0217839 5.0761776e-21)
(1.0475379 -0.01717715 1.8135226e-22)
(1.0483283 -0.012847976 -1.478229e-21)
(1.0485119 -0.0083851816 0)
(1.0487794 -0.0051103125 2.4836247e-21)
(1.0489112 -0.00097771734 5.8332939e-23)
(1.0106881 -0.021323464 1.2666568e-21)
(1.0133007 -0.026530371 -1.5275306e-21)
(1.0169299 -0.027525469 1.703486e-21)
(1.0205608 -0.027756476 7.5152495e-22)
(1.023353 -0.026498466 -2.1232446e-21)
(1.0249181 -0.024659353 0)
(1.0249525 -0.022884438 5.5103547e-23)
(1.0237373 -0.021982788 8.9739831e-22)
(1.0222071 -0.022266613 2.8310113e-21)
(1.0208337 -0.024059572 4.5553113e-21)
(1.0205831 -0.027097442 -2.0336994e-21)
(1.0219989 -0.030624069 -2.5232997e-21)
(1.0251196 -0.03361398 3.1720759e-21)
(1.0295806 -0.035414701 -2.8667636e-21)
(1.0345979 -0.035432629 4.8807393e-21)
(1.0395949 -0.033771207 6.5428033e-21)
(1.0437973 -0.030577239 -1.6583301e-21)
(1.0470306 -0.026366873 2.0803658e-21)
(1.0490601 -0.02165796 -5.8353208e-21)
(1.0500863 -0.01675974 1.3181884e-21)
(1.0504013 -0.012320063 3.0158131e-21)
(1.0501851 -0.0079006489 -2.4067385e-21)
(1.050149 -0.0047564838 1.3916252e-21)
(1.0500333 -0.00085285586 4.7807257e-23)
(1.0100391 -0.021482917 -7.5663127e-23)
(1.0126838 -0.027297042 -1.5386163e-21)
(1.0166944 -0.028546884 -5.434414e-22)
(1.0207428 -0.028907826 -4.8410144e-21)
(1.0239898 -0.02754739 1.2468035e-21)
(1.0259233 -0.025370524 -2.6598441e-21)
(1.0261075 -0.02306114 7.7426044e-23)
(1.0246786 -0.021602261 -3.7042261e-21)
(1.0225991 -0.02148449 4.7086414e-22)
(1.0204587 -0.023071345 1.7718878e-21)
(1.0192974 -0.026384054 -8.4352346e-22)
(1.0199336 -0.030649687 4.8572378e-21)
(1.0226374 -0.034730195 -1.6682201e-21)
(1.0271151 -0.037731645 -2.9987282e-22)
(1.0326037 -0.0388655 2.2830212e-21)
(1.038381 -0.038062522 7.47363e-22)
(1.0435169 -0.035360311 -3.721069e-22)
(1.0476801 -0.031313475 3.4931412e-21)
(1.0504447 -0.026408284 0)
(1.0520359 -0.021254552 6.0695255e-22)
(1.0524884 -0.016144148 1.6548372e-22)
(1.0523326 -0.011656492 -2.8898743e-22)
(1.0517057 -0.0073381069 -8.1359382e-23)
(1.0513684 -0.0043627995 -2.0316858e-21)
(1.0510082 -0.00071838394 -8.2676778e-22)
(1.0093499 -0.021620977 -8.4221246e-22)
(1.0119921 -0.028054006 1.0508972e-21)
(1.0163877 -0.029588983 6.6909072e-22)
(1.0208668 -0.030101477 5.846941e-22)
(1.0245954 -0.028665892 4.3451109e-21)
(1.0269661 -0.026157341 4.9547078e-22)
(1.0273893 -0.023279893 1.0630689e-22)
(1.0258376 -0.021173395 2.2621629e-22)
(1.0231842 -0.020496793 3.4868515e-21)
(1.0202857 -0.021735342 2.7734016e-22)
(1.0180819 -0.025177627 2.4195333e-21)
(1.0177433 -0.030103095 -6.5266754e-22)
(1.0198037 -0.03529341 -2.6377593e-21)
(1.0241098 -0.039611796 5.2910367e-22)
(1.0299572 -0.042054712 -1.0534445e-21)
(1.0364949 -0.042328195 -3.6673846e-21)
(1.0426525 -0.04032552 -4.3377041e-21)
(1.0478872 -0.036579743 -5.2912601e-21)
(1.0516212 -0.031619036 -7.298252e-21)
(1.0539285 -0.026094394 -9.3880603e-23)
(1.0548589 -0.02058305 6.3860776e-21)
(1.0547637 -0.01533359 9.2777463e-22)
(1.054101 -0.010871311 -2.1995772e-21)
(1.0530665 -0.0067083063 1.8937996e-21)
(1.0524356 -0.0039357131 -1.2938988e-21)
(1.0518408 -0.00057549923 7.9317483e-23)
(1.0086254 -0.021741268 2.4627295e-23)
(1.011242 -0.028796698 1.0395767e-21)
(1.0160237 -0.030649659 -2.3873959e-21)
(1.0209319 -0.031331618 2.9967588e-21)
(1.0251547 -0.029850671 -3.2069711e-21)
(1.0280302 -0.027031116 2.5667722e-21)
(1.0287831 -0.023567254 2.3832736e-21)
(1.0272052 -0.020725195 2.1230116e-21)
(1.0240521 -0.019364933 -5.2218951e-21)
(1.0203216 -0.020110601 -2.5613824e-21)
(1.0169863 -0.02348854 -1.9630601e-22)
(1.015491 -0.028955247 -6.9668512e-21)
(1.0166649 -0.035242575 6.464027e-21)
(1.0205789 -0.040974656 -2.7113388e-21)
(1.0266259 -0.044917435 9.4786189e-22)
(1.0338637 -0.046496657 6.4660962e-22)
(1.0410906 -0.045431024 -3.1913317e-21)
(1.0475376 -0.042179904 3.2531772e-21)
(1.0524272 -0.037273509 -3.1296576e-21)
(1.0557066 -0.031479324 7.2324916e-23)
(1.0572756 -0.025423292 0)
(1.0575828 -0.019639459 2.3954397e-21)
(1.0568569 -0.014351949 5.0046592e-22)
(1.0556953 -0.0099793949 0)
(1.0542635 -0.0060228033 -2.2448912e-21)
(1.053354 -0.0034810444 -1.7402106e-22)
(1.0525436 -0.0004313805 4.9131977e-22)
(1.0078418 -0.021851082 1.898516e-22)
(1.0104527 -0.029520508 1.42952e-22)
(1.0156178 -0.031726489 -2.1297879e-21)
(1.0209479 -0.032592464 1.8209788e-22)
(1.02568 -0.03109938 -8.7812299e-22)
(1.0291 -0.027997903 -2.8391099e-21)
(1.0302733 -0.023943677 -1.6240984e-22)
(1.0287716 -0.020294475 -2.5220939e-21)
(1.0252053 -0.018125884 8.8619791e-22)
(1.0205816 -0.018214966 3.841694e-21)
(1.0160786 -0.021323672 -5.8368601e-21)
(1.0132389 -0.027191338 -2.8998504e-21)
(1.0132764 -0.03452926 -3.8789172e-21)
(1.0165502 -0.041746465 9.5340128e-22)
(1.0225951 -0.047364106 -3.0355718e-21)
(1.0304277 -0.050489062 1.4966546e-21)
(1.0387351 -0.05062134 -2.1555251e-21)
(1.0465039 -0.048095888 1.2737538e-20)
(1.0527459 -0.043408391 4.1603455e-21)
(1.0572097 -0.037418412 2.6784885e-21)
(1.0596915 -0.030872061 3.8715612e-21)
(1.0605488 -0.024388799 -8.057109e-22)
(1.0600916 -0.018463449 -2.4502635e-22)
(1.0587606 -0.01321607 0)
(1.0571068 -0.0089987008 0)
(1.0552965 -0.0052934087 1.9081603e-22)
(1.05413 -0.0030061724 -1.029377e-21)
(1.0531187 -0.00029470061 -6.0905365e-22)
(1.0069257 -0.021956909 0)
(1.0096387 -0.030223557 7.6255894e-22)
(1.0151814 -0.03281639 2.1327361e-21)
(1.0209285 -0.033877426 1.675569e-21)
(1.0261792 -0.032407153 2.8933016e-21)
(1.0301765 -0.029060372 5.3593995e-22)
(1.0318457 -0.02442409 -1.6965833e-21)
(1.0305263 -0.019912981 -4.1242524e-21)
(1.026635 -0.016815315 4.5078973e-21)
(1.0211458 -0.016084125 -5.9855026e-22)
(1.0154091 -0.018728774 4.7562134e-22)
(1.0110403 -0.024819482 7.8503375e-22)
(1.0097011 -0.033113745 -1.1638241e-20)
(1.0120638 -0.041856039 1.6908718e-21)
(1.0178662 -0.049304687 1.6133893e-21)
(1.0261448 -0.054215984 -2.7706244e-21)
(1.0354997 -0.055831579 1.758228e-21)
(1.0446721 -0.054292896 -2.7901541e-21)
(1.0524415 -0.050033538 8.2389859e-21)
(1.0583257 -0.043969828 -7.3358371e-22)
(1.0619534 -0.036962194 3.3966937e-21)
(1.0636303 -0.029791382 2.102067e-21)
(1.0635813 -0.023039736 -2.6385829e-22)
(1.0624093 -0.017062291 -5.3170898e-21)
(1.0604565 -0.011951318 -1.7372988e-21)
(1.058332 -0.0079470651 4.1909988e-22)
(1.056168 -0.0045324843 1.365918e-21)
(1.0547662 -0.0025204107 -4.101514e-22)
(1.0535478 -0.00017515911 7.4126982e-23)
(1.0057516 -0.022090851 -1.1291853e-22)
(1.0088027 -0.030898876 0)
(1.0147053 -0.033915328 0)
(1.0208768 -0.035178802 0)
(1.0266576 -0.033767091 -7.4705137e-22)
(1.0312643 -0.030217234 2.3302408e-21)
(1.0334992 -0.025020691 1.4385359e-22)
(1.0324637 -0.019608274 4.6933395e-22)
(1.0283361 -0.015471768 6.7781313e-21)
(1.0220473 -0.013766159 -8.9845712e-21)
(1.0149862 -0.015744375 3.185268e-21)
(1.008966 -0.021838556 -1.5144664e-21)
(1.0060076 -0.030969763 4.5153583e-21)
(1.0071687 -0.041247827 -2.2298636e-21)
(1.0124579 -0.050655052 7.6263273e-21)
(1.0209908 -0.057586668 2.3371437e-21)
(1.0313136 -0.060981948 -2.5535345e-21)
(1.0419345 -0.060726427 -5.1097916e-21)
(1.0513897 -0.057140905 -1.7107463e-22)
(1.0589195 -0.051171889 -3.4206977e-21)
(1.0639601 -0.043771992 -4.2011737e-21)
(1.0666905 -0.035898423 1.0612968e-21)
(1.0673184 -0.02828524 4.5056469e-21)
(1.0664191 -0.021377539 -2.2601763e-21)
(1.064476 -0.015484248 -4.9916976e-22)
(1.0619374 -0.010581851 -6.8052985e-22)
(1.0593707 -0.0068426245 1.2759457e-21)
(1.0568823 -0.0037522469 7.1588229e-22)
(1.0552597 -0.0020297532 8.4889757e-22)
(1.0538373 -0.00011712173 -7.1703682e-23)
(1.004073 -0.022228478 2.8165452e-22)
(1.0079008 -0.031574373 9.5061704e-22)
(1.0141432 -0.035007394 0)
(1.0207645 -0.036487005 0)
(1.0271027 -0.035172074 0)
(1.0323576 -0.031466086 0)
(1.0352333 -0.025739549 0)
(1.0345855 -0.01940383 -1.2716646e-22)
(1.0303141 -0.014135493 -2.0427986e-21)
(1.0232908 -0.011302367 9.7696215e-21)
(1.0148673 -0.01240455 1.5323126e-22)
(1.0070976 -0.018268822 4.1974048e-21)
(1.0022592 -0.028092576 -1.211583e-20)
(1.0019235 -0.03987213 7.4111419e-21)
(1.006404 -0.051334259 -6.6889094e-22)
(1.0149585 -0.060508197 4.443005e-21)
(1.0261216 -0.06598554 -6.5436872e-21)
(1.0381958 -0.067333789 8.7577867e-22)
(1.0494678 -0.064713823 6.613564e-21)
(1.0588649 -0.059044779 3.0867887e-21)
(1.0655842 -0.051367408 5.8933366e-22)
(1.0696467 -0.042803028 4.3074495e-21)
(1.0711789 -0.034267771 1.9684114e-22)
(1.070796 -0.026359545 -1.7047115e-21)
(1.06895 -0.019478294 1.6788905e-21)
(1.0662972 -0.013751709 3.7798644e-21)
(1.0632001 -0.009133667 9.8486905e-22)
(1.0602261 -0.0057025115 -5.4177998e-22)
(1.0574458 -0.0029628121 7.6991964e-23)
(1.0556125 -0.0015333991 -2.8512871e-23)
(1.0540861 -4.8438799e-05 9.501708e-23)
(1.0012915 -0.02242831 -5.9946818e-22)
(1.0066025 -0.032229864 3.8961037e-22)
(1.0134013 -0.03609763 1.8473155e-21)
(1.0205146 -0.037782942 3.1561577e-21)
(1.0274454 -0.036603981 0)
(1.0334026 -0.032797772 0)
(1.0370097 -0.026591792 1.8168267e-22)
(1.0368872 -0.019320376 2.7473498e-21)
(1.0325771 -0.012841077 -5.187472e-21)
(1.024893 -0.0087388991 8.0113513e-21)
(1.0151111 -0.0087554936 -5.8402164e-22)
(1.0054639 -0.014154397 -9.4251118e-21)
(0.99851206 -0.024487837 2.5310968e-21)
(0.9963943 -0.037695523 -1.1982043e-21)
(0.99975087 -0.051278885 -7.0196421e-21)
(1.0080586 -0.06289358 5.7121529e-22)
(1.0198874 -0.070749261 7.5972936e-21)
(1.0333744 -0.074042153 -4.7555991e-22)
(1.0465613 -0.072715035 -9.0226645e-22)
(1.0580332 -0.067602696 1.6544399e-20)
(1.0667071 -0.059796964 3.0078033e-21)
(1.0723874 -0.050594578 -3.8944445e-21)
(1.0751009 -0.041090418 6.1656209e-21)
(1.0754362 -0.032086056 4.2879366e-21)
(1.0739151 -0.024107472 6.68086e-22)
(1.0712063 -0.017352417 2.1103429e-21)
(1.0678542 -0.011907525 1.095163e-21)
(1.0642466 -0.0076307088 -2.6829711e-23)
(1.0609047 -0.004542655 -3.5354657e-22)
(1.057867 -0.0021710639 -2.9146043e-22)
(1.0558416 -0.0010345439 4.6698522e-22)
(1.054244 6.6478788e-05 3.044598e-23)
(0.99669233 -0.02273742 2.9696478e-22)
(1.0045746 -0.032912145 -1.2600926e-21)
(1.0122089 -0.037181059 -2.4359288e-21)
(1.019986 -0.039050945 -3.8023265e-21)
(1.0275308 -0.038028662 0)
(1.0342204 -0.034159729 0)
(1.0386679 -0.027553154 0)
(1.0392945 -0.019379665 -2.472794e-23)
(1.0351248 -0.011627186 6.6921525e-21)
(1.0268755 -0.0061251976 7.3134608e-21)
(1.0157662 -0.0048479233 -8.7704173e-22)
(1.0041081 -0.009532631 -1.7082612e-21)
(0.99485511 -0.020152766 2.1725624e-20)
(0.99065302 -0.034694715 -1.1965752e-20)
(0.99255496 -0.050433495 1.7239525e-21)
(1.0003173 -0.0646593 0)
(1.0125935 -0.075177161 2.7263319e-21)
(1.0274062 -0.080767653 -9.7116879e-22)
(1.042566 -0.081094646 6.5717418e-21)
(1.0562995 -0.076838754 -1.9926132e-22)
(1.0672037 -0.069107406 -8.1928659e-21)
(1.07481 -0.059346287 -2.1187822e-21)
(1.0789937 -0.048860834 -6.0300833e-21)
(1.0803051 -0.038660488 -5.8385538e-21)
(1.0792845 -0.029456722 7.6949356e-22)
(1.0767133 -0.021542692 9.4924578e-22)
(1.0731318 -0.015078319 -5.2878717e-22)
(1.0691513 -0.0099817994 -1.6843012e-23)
(1.0650831 -0.0060960262 -2.8018089e-23)
(1.0614154 -0.0033774338 -5.6646797e-22)
(1.0581551 -0.0013830502 3.7399229e-22)
(1.0559701 -0.00054419123 -1.971485e-21)
(1.0542708 0.00021045444 9.1632659e-22)
(0.98915772 -0.02321578 4.1547399e-22)
(1.0013206 -0.033657893 -2.0295701e-22)
(1.0101256 -0.038281295 -4.6978192e-21)
(1.0187451 -0.040305981 -7.8579224e-21)
(1.0271062 -0.039376331 9.8593748e-22)
(1.0345476 -0.035499981 2.167951e-22)
(1.0397647 -0.028527311 2.8021374e-21)
(1.0415083 -0.019509054 -2.0544579e-21)
(1.0378729 -0.010502229 -1.3215735e-21)
(1.029254 -0.0035109532 -1.3519074e-20)
(1.0168829 -0.00073022696 7.5353472e-21)
(1.003098 -0.0044426503 1.5578734e-20)
(0.99135185 -0.015117674 9.4823321e-23)
(0.98475112 -0.030879926 -1.0515137e-20)
(0.98487943 -0.048762736 -1.026087e-20)
(0.99177642 -0.0657338 -2.1951838e-21)
(1.0042431 -0.079176834 1.3573478e-21)
(1.0202462 -0.08741949 9.3635303e-21)
(1.037391 -0.089786622 -6.2946892e-22)
(1.0535442 -0.086732355 -1.662267e-21)
(1.0669488 -0.079325578 -1.6349557e-21)
(1.076803 -0.069135003 -1.1718788e-20)
(1.0827778 -0.057671322 1.5208527e-21)
(1.0853378 -0.046201167 -1.0568652e-21)
(1.0850457 -0.035626179 -7.2404648e-21)
(1.0827459 -0.02641044 -1.9385187e-21)
(1.0791029 -0.018775641 -1.3477166e-21)
(1.0747499 -0.012676619 -1.2674326e-21)
(1.0701919 -0.0080080174 -4.7994637e-22)
(1.0657189 -0.0045500661 -1.4818564e-22)
(1.0617694 -0.0022195718 1.2198651e-22)
(1.0583171 -0.00060619816 -9.0029883e-23)
(1.0560084 -6.9668436e-05 1.0374985e-21)
(1.0542232 0.00033521612 -2.1373356e-21)
(0.97719926 -0.023949006 -2.9014214e-22)
(0.99587114 -0.03446133 2.8510259e-22)
(1.0064016 -0.039339646 6.669917e-21)
(1.0161979 -0.041543152 3.2245295e-21)
(1.025547 -0.040732214 -2.9933413e-21)
(1.0339369 -0.036686679 -2.498436e-21)
(1.0400785 -0.029442862 -3.3062732e-22)
(1.0423728 -0.019891355 0)
(1.0405351 -0.0094771411 -3.0002366e-21)
(1.0319336 -0.00091139191 -1.5586733e-20)
(1.0184985 0.0035402143 -3.4581143e-21)
(1.0025245 0.001076725 -5.9792436e-21)
(0.98805492 -0.0094218056 0)
(0.978761 -0.026250022 1.1462251e-21)
(0.9767988 -0.046233347 2.0261372e-20)
(0.9824908 -0.066056612 3.2356512e-21)
(0.99485886 -0.082661499 -1.2865996e-20)
(1.01187 -0.093902949 0)
(1.0309616 -0.098711541 -2.9424998e-21)
(1.0496562 -0.097243751 -4.5559983e-21)
(1.0658173 -0.090465674 -1.3789278e-20)
(1.078252 -0.08002031 -3.1934507e-21)
(1.0863648 -0.067623816 0)
(1.0904833 -0.05481141 -7.7234034e-21)
(1.0911601 -0.042737845 4.4709256e-22)
(1.0893189 -0.032041403 3.4544977e-23)
(1.0857132 -0.023078572 -2.8013435e-21)
(1.0811203 -0.015824581 1.3183963e-21)
(1.0760461 -0.010212131 1.690837e-22)
(1.0709871 -0.0060142175 8.1669018e-23)
(1.0661661 -0.0030110777 -4.3273266e-22)
(1.0619796 -0.0010798453 -5.8845094e-23)
(1.0583625 0.00015117053 0)
(1.0559524 0.00038446495 -4.3452232e-23)
(1.054103 0.00046363931 -7.8458085e-22)
(0.95912654 -0.025013031 -2.2419298e-22)
(0.98674856 -0.035279418 -8.864164e-22)
(0.99980999 -0.040201041 7.4559454e-21)
(1.0113332 -0.042476147 5.216312e-22)
(1.0218053 -0.041954206 -4.2330868e-22)
(1.0315162 -0.037882395 -4.9859828e-22)
(1.0389824 -0.030175738 -2.0225966e-21)
(1.0423457 -0.020284819 -4.260345e-22)
(1.0425647 -0.0087121689 0)
(1.0346623 0.0015028194 4.3958862e-21)
(1.0205128 0.007886222 -6.5929065e-21)
(1.0024482 0.0069716783 -3.0852843e-22)
(0.98504151 -0.0031014714 -7.9399668e-21)
(0.97277025 -0.020816823 1.2396247e-20)
(0.96837887 -0.042849137 7.8773944e-21)
(0.97252378 -0.065588001 1.6542562e-20)
(0.98448188 -0.085554082 -2.7801364e-20)
(1.0022745 -0.10012124 -4.2332969e-21)
(1.0232225 -0.10777883 1.3178554e-20)
(1.044536 -0.10831596 -9.2734332e-21)
(1.063687 -0.10252177 1.1553005e-20)
(1.0790382 -0.092052268 5.6777447e-22)
(1.0896616 -0.078806282 0)
(1.0956823 -0.064610188 -2.2283249e-21)
(1.0976074 -0.050897188 5.0053922e-23)
(1.0964201 -0.038552381 2.7238234e-21)
(1.0929952 -0.028060794 2.2265138e-21)
(1.0882197 -0.019496064 1.0658218e-21)
(1.0827335 -0.012787998 5.6021208e-22)
(1.0770426 -0.007709021 0)
(1.0715504 -0.0040264538 1.1600108e-22)
(1.0664377 -0.001494561 -5.9181796e-22)
(1.0620602 3.2579533e-05 3.1826661e-21)
(1.0583106 0.00088299191 -1.2445853e-21)
(1.0558091 0.00082779977 3.9742864e-23)
(1.0539082 0.00059031192 2.97233e-21)
(0.93362952 -0.026426075 -3.2113612e-22)
(0.97207519 -0.036139429 9.136875e-23)
(0.9888237 -0.040644791 -2.3610965e-21)
(1.0025769 -0.042958905 -3.4274075e-23)
(1.0146492 -0.042634385 2.1153194e-21)
(1.0257627 -0.038838642 1.1717352e-21)
(1.0351431 -0.030939585 1.4095357e-22)
(1.0408107 -0.020185255 -2.947384e-22)
(1.0422059 -0.0080874402 -5.2491586e-22)
(1.0370275 0.0041049593 -3.3738987e-21)
(1.0224216 0.012298904 4.3406228e-22)
(1.0027664 0.013162337 5.7234791e-21)
(0.98238168 0.0038057793 1.7569416e-21)
(0.96686641 -0.014616617 9.7408434e-21)
(0.95969116 -0.038619089 -5.0398867e-20)
(0.96195222 -0.064293377 1.684561e-21)
(0.97316851 -0.087787703 9.1800357e-21)
(0.99147897 -0.10598166 1.1759639e-20)
(1.0141412 -0.11688969 -7.9744704e-21)
(1.0381004 -0.11987518 -1.7616447e-21)
(1.0604406 -0.1154686 9.4418439e-21)
(1.0790399 -0.10526232 -7.6117511e-21)
(1.0925677 -0.091302299 2.8621252e-21)
(1.1008721 -0.075705591 0)
(1.1043617 -0.060230519 1.0685059e-20)
(1.10406 -0.046041512 7.1261803e-21)
(1.1009589 -0.033827583 -8.5764926e-22)
(1.0960969 -0.023746299 3.1754719e-21)
(1.0902219 -0.015792193 2.5835678e-22)
(1.0839769 -0.0096881859 -4.6502558e-22)
(1.0777489 -0.0052145967 9.7301773e-22)
(1.0718986 -0.0020668131 -2.4601881e-21)
(1.0665469 -1.4325623e-05 -1.3201993e-22)
(1.0620186 0.0011119023 3.6638987e-21)
(1.0581726 0.0015918831 -4.9963626e-22)
(1.0555952 0.0012510623 -1.3323239e-22)
(1.0536636 0.00070289032 1.1970695e-21)
(0.90091725 -0.028380406 6.4490068e-23)
(0.94977061 -0.037234171 5.9418635e-22)
(0.97217728 -0.040627102 -2.3767674e-21)
(0.98900176 -0.04288699 -2.1528095e-22)
(1.0028017 -0.042732819 5.2537987e-23)
(1.0155154 -0.039190189 -9.4150587e-23)
(1.0266585 -0.031450646 -4.3352485e-22)
(1.0348517 -0.02017632 -8.0215938e-22)
(1.0379354 -0.0068718026 0)
(1.0356809 0.006577359 6.6316775e-22)
(1.022846 0.016889224 0)
(1.002818 0.019662381 0)
(0.98002631 0.011226607 8.0438939e-21)
(0.96113713 -0.0076853799 -1.4149456e-21)
(0.95083198 -0.033559894 -8.4109814e-21)
(0.95086385 -0.062160217 -1.4991676e-20)
(0.96098971 -0.089314534 2.8145449e-20)
(0.97952315 -0.11139764 3.3328058e-22)
(1.0037084 -0.12594121 5.8714211e-21)
(1.0302846 -0.13183121 1.9850634e-21)
(1.05597 -0.12925889 -1.3810719e-20)
(1.0781338 -0.11966328 -5.6692716e-21)
(1.0949762 -0.10518044 3.7087489e-21)
(1.105982 -0.088207659 1.0134372e-20)
(1.1113967 -0.070855402 1.7408557e-21)
(1.1122464 -0.054631941 8.3574821e-22)
(1.1096422 -0.0404618 -2.8250245e-21)
(1.1047805 -0.028661891 -2.027581e-21)
(1.0985722 -0.019255661 -3.1137491e-22)
(1.0917613 -0.011998774 -1.4376142e-21)
(1.0848557 -0.006598617 -2.1310089e-21)
(1.0781897 -0.0027499009 -1.0259373e-21)
(1.0720495 -0.00015410222 -5.7325382e-22)
(1.0665122 0.0014200046 3.193557e-21)
(1.0618658 0.0021521459 -7.4365423e-21)
(1.0579542 0.0022709595 -1.0093746e-21)
(1.0553186 0.0016559211 -1.1691111e-21)
(1.0533589 0.00081310228 0)
(0.86381997 -0.029932064 3.9707566e-21)
(0.91844784 -0.038276603 7.0292939e-23)
(0.94836667 -0.040211497 -3.1700683e-22)
(0.96983154 -0.042204337 -5.9039396e-22)
(0.98586928 -0.042157537 -2.4321501e-21)
(1.0000792 -0.038673342 -1.8908632e-21)
(1.0123145 -0.031005997 3.5443685e-22)
(1.0222822 -0.019775383 4.2910895e-22)
(1.028286 -0.0055381893 7.4060193e-22)
(1.0282833 0.0095986429 5.0771379e-21)
(1.0196559 0.021678507 1.0683066e-21)
(1.0011367 0.026336922 0)
(0.97751414 0.019116081 0)
(0.95562285 -0.00010056652 -1.0392237e-20)