/*--------------------------------*- C++ -*----------------------------------*\
| =========                 |                                                 |
| \\      /  F ield         | OpenFOAM: The Open Source CFD Toolbox           |
|  \\    /   O peration     | Version:  5.0                                   |
|   \\  /    A nd           | Web:      www.OpenFOAM.org                      |
|    \\/     M anipulation  |                                                 |
\*---------------------------------------------------------------------------*/
FoamFile
{
    version     2.0;
    format      ascii;
    class       volVectorField;
    location    "80";
    object      U_0;
}
// * * * * * * * * * * * * * * * * * * * * * * * * * * * * * * * * * * * * * //

dimensions      [0 1 -1 0 0 0 0];

internalField   nonuniform List<vector> 
9200
(
(1.0047305 -0.0010727912 -3.1136688e-24)
(1.0050311 -0.0035095538 -9.7674506e-22)
(1.0080322 -0.0011064474 0)
(1.0054963 -0.0053788174 4.9545654e-22)
(1.0082909 -0.0036509895 -8.8619562e-22)
(1.0095351 -0.0011304326 0)
(1.0060376 -0.0074163517 5.1085639e-23)
(1.008684 -0.0055823613 -7.5932085e-23)
(1.0097806 -0.0037528504 0)
(1.0118765 -0.0011683909 0)
(1.0067063 -0.0089958491 -9.0113608e-22)
(1.0091461 -0.0077193902 -4.9320285e-22)
(1.0101443 -0.0057249113 -4.9808743e-22)
(1.0121 -0.0039248296 -3.3788685e-23)
(1.0137824 -0.0012034893 4.6692676e-25)
(1.0074226 -0.010594762 -8.3296523e-22)
(1.0096923 -0.0093699521 1.2959143e-22)
(1.0105719 -0.007925402 -1.5639979e-21)
(1.0124175 -0.0059714835 -5.7204056e-22)
(1.01399 -0.0040903479 5.022481e-23)
(1.0159586 -0.0012466548 1.6732976e-21)
(1.0081834 -0.011908691 -6.5065647e-22)
(1.0102961 -0.011058351 -1.063452e-21)
(1.0110768 -0.0096192469 9.6546352e-22)
(1.0127914 -0.008278974 4.4382973e-23)
(1.0142695 -0.0062110501 -7.3198871e-22)
(1.0161533 -0.0042965362 -7.2045019e-22)
(1.0179878 -0.0012892799 -1.003906e-22)
(1.0089434 -0.013138688 -1.3193095e-22)
(1.0109212 -0.012459546 -6.1048376e-22)
(1.0116377 -0.011353635 -9.5215026e-22)
(1.0132229 -0.01004985 1.3671037e-22)
(1.0145981 -0.008618812 1.5821822e-21)
(1.0163943 -0.0065139743 7.1174329e-22)
(1.0181701 -0.0045047417 1.1473718e-21)
(1.0201683 -0.0013353672 -1.8433756e-21)
(1.0096855 -0.014194735 7.0417767e-22)
(1.0115538 -0.013786621 -8.7445762e-22)
(1.0122231 -0.012794737 1.3284537e-22)
(1.0137083 -0.011862259 -5.6751561e-22)
(1.014969 -0.010463863 3.1632214e-22)
(1.0166761 -0.0090493819 2.7187704e-21)
(1.0183741 -0.0068235153 -1.0086598e-21)
(1.0203467 -0.0047385027 2.0467134e-21)
(1.0222645 -0.0013782804 4.150439e-21)
(1.0103848 -0.01514259 -4.3609534e-22)
(1.0121683 -0.014951665 6.223265e-22)
(1.0128217 -0.014158548 -9.6652205e-24)
(1.0142126 -0.013367403 -4.9045564e-22)
(1.0153893 -0.012346875 1.5426511e-22)
(1.0169781 -0.010994356 5.4274352e-22)
(1.0186094 -0.0094901607 -1.0084677e-21)
(1.0205239 -0.0071772459 -1.989602e-21)
(1.022441 -0.0049669176 -1.0834109e-21)
(1.024475 -0.0014206099 -2.9359961e-22)
(1.0110235 -0.015973331 2.0952305e-22)
(1.0127511 -0.016023924 2.2681974e-22)
(1.013415 -0.015359193 -7.4964089e-22)
(1.0147347 -0.014784696 6.2934942e-22)
(1.0158248 -0.013906447 -1.5965872e-21)
(1.0173185 -0.01297179 3.0642768e-21)
(1.0188425 -0.011543562 1.8154294e-22)
(1.0207237 -0.0099998807 -3.4991502e-21)
(1.0225942 -0.0075274389 1.8389381e-21)
(1.0246635 -0.0052048155 -3.8422653e-21)
(1.0266127 -0.0014574118 6.9473498e-22)
(1.0115863 -0.016709385 -4.2883618e-23)
(1.0132849 -0.016999933 -2.9556024e-22)
(1.0139918 -0.016466073 3.835918e-22)
(1.0152604 -0.016027343 0)
(1.0162815 -0.01536249 1.2819905e-23)
(1.0176598 -0.01460488 -5.5612844e-22)
(1.0190998 -0.013624408 6.7922386e-22)
(1.0208936 -0.012191494 1.7651275e-21)
(1.0227623 -0.010508936 -5.1927736e-22)
(1.0248108 -0.0078993599 2.3922948e-21)
(1.0268196 -0.0054243303 1.7131037e-21)
(1.0288308 -0.001489438 -3.7976327e-22)
(1.0120699 -0.01736484 -1.3360702e-23)
(1.0137575 -0.017905932 2.3427452e-22)
(1.0145395 -0.017479384 0)
(1.0157859 -0.017164878 0)
(1.0167509 -0.016626056 5.4413006e-22)
(1.0180144 -0.016110332 -1.3762598e-21)
(1.0193398 -0.015343149 1.9347528e-21)
(1.0210651 -0.014408279 -1.8113826e-21)
(1.0228731 -0.012849957 -1.2331025e-22)
(1.0249705 -0.011060108 5.6045611e-24)
(1.0269705 -0.0082477497 -3.209102e-21)
(1.0290738 -0.0056336708 3.7711941e-21)
(1.030973 -0.0015117278 -7.0372727e-21)
(1.0124396 -0.017936701 1.5177254e-22)
(1.0141576 -0.018755083 -3.4770797e-23)
(1.0150481 -0.018427092 4.5759121e-22)
(1.0163047 -0.018200475 -5.8597615e-22)
(1.017237 -0.017765096 6.7317942e-22)
(1.0183782 -0.017393903 -3.9631351e-22)
(1.0195806 -0.016910933 -3.9091459e-22)
(1.0211885 -0.016247768 4.9728861e-23)
(1.0229614 -0.01521897 -1.4452759e-21)
(1.0250441 -0.013582351 -1.3580084e-21)
(1.0271364 -0.011584964 -8.2712122e-22)
(1.0292531 -0.0085869082 -2.3173125e-21)
(1.0312588 -0.0058086478 -1.6297329e-21)
(1.0331483 -0.0015229564 2.006752e-21)
(1.0127145 -0.018449341 -3.8962107e-23)
(1.0144779 -0.019563833 -9.3490695e-22)
(1.0155094 -0.019326984 6.6425854e-24)
(1.0168127 -0.019164787 5.541974e-23)
(1.0177411 -0.018782708 -5.3685473e-23)
(1.0187627 -0.018518419 4.9380734e-22)
(1.0198215 -0.018228192 -3.5382144e-22)
(1.021284 -0.017910677 5.2249099e-22)
(1.0229664 -0.017204099 -3.2839546e-22)
(1.0250657 -0.01614468 9.1877608e-23)
(1.0271911 -0.014296538 5.0481138e-23)
(1.0294604 -0.012109402 -1.070097e-22)
(1.0314804 -0.0088758211 3.4867012e-21)
(1.0334982 -0.0059514906 -1.8367361e-21)
(1.0352408 -0.0015201771 1.6066612e-21)
(1.0128698 -0.01891855 -2.495744e-22)
(1.0147109 -0.020345042 5.0125594e-22)
(1.0159184 -0.020198614 -4.0517111e-22)
(1.017311 -0.020082469 5.6457069e-22)
(1.0182665 -0.019710041 -6.6113029e-22)
(1.0191784 -0.019484379 1.2080751e-21)
(1.0200807 -0.019350246 -1.9096687e-21)
(1.0213508 -0.019288802 1.2315501e-22)
(1.0229076 -0.018994403 5.1214845e-22)
(1.0249577 -0.018328022 -9.3736252e-22)
(1.0271669 -0.017069915 5.582925e-21)
(1.0295363 -0.015033583 -2.2718309e-21)
(1.0317527 -0.012568951 -1.1847084e-21)
(1.0337936 -0.009119161 -4.2177586e-22)
(1.0356579 -0.0060448631 6.236185e-24)
(1.0373053 -0.0015032902 -1.8229727e-21)
(1.0129255 -0.019325153 0)
(1.0148526 -0.021108586 6.6170729e-22)
(1.0162691 -0.021057838 -1.7434829e-23)
(1.017797 -0.020974942 0)
(1.0188159 -0.020572921 0)
(1.0196392 -0.020324053 0)
(1.0203771 -0.020272286 1.5092748e-22)
(1.0214118 -0.020425371 -9.271484e-22)
(1.0227816 -0.020473368 1.6976657e-21)
(1.0247332 -0.020306484 -1.4792377e-21)
(1.0269672 -0.019484505 3.2085913e-22)
(1.0295088 -0.018055582 -1.225636e-21)
(1.0318824 -0.015701246 2.0651564e-22)
(1.034174 -0.012974148 1.3704673e-21)
(1.0360369 -0.0092861107 2.7542742e-22)
(1.0378133 -0.006087489 9.3968735e-22)
(1.0392812 -0.0014727724 0)
(1.0128852 -0.019683528 -3.1491637e-22)
(1.0148954 -0.021864861 -9.1327008e-22)
(1.0165551 -0.021917686 1.539133e-21)
(1.0182637 -0.021862118 9.1840232e-22)
(1.0193843 -0.021392382 1.0327706e-21)
(1.0201611 -0.021065851 0)
(1.020736 -0.02102243 1.5687864e-21)
(1.0214922 -0.021307711 -5.8366122e-22)
(1.0226121 -0.021669561 -3.2345895e-21)
(1.0243795 -0.021953435 2.2577286e-21)
(1.0265962 -0.021701688 9.2083753e-22)
(1.0292575 -0.020758483 3.6491078e-22)
(1.0318943 -0.01897777 -3.1861344e-21)
(1.0344119 -0.016318492 4.5603973e-21)
(1.0365505 -0.013273692 8.5614803e-22)
(1.0383105 -0.0093751495 6.8180878e-21)
(1.0398827 -0.0060717509 2.5575415e-21)
(1.041173 -0.0014284726 2.3399677e-21)
(1.0127374 -0.020004449 3.610522e-23)
(1.0148387 -0.022617822 -5.5809182e-22)
(1.0167706 -0.022788013 -1.7689653e-22)
(1.0187038 -0.022760344 9.6580044e-22)
(1.0199766 -0.022197335 -1.3987542e-22)
(1.020751 -0.021736065 2.1194349e-22)
(1.0211657 -0.021609743 -1.8810915e-21)
(1.0216235 -0.02194994 -3.6576112e-21)
(1.0224253 -0.022557137 -1.4667019e-21)
(1.023915 -0.023277376 1.0260278e-21)
(1.0260271 -0.023589918 -5.318754e-22)
(1.0287727 -0.023291282 2.663038e-21)
(1.0316445 -0.021991216 -1.8622931e-21)
(1.0345284 -0.019866774 -2.1128348e-23)
(1.0369351 -0.01680639 -2.0853531e-22)
(1.0390055 -0.013467281 -1.1428651e-21)
(1.0404985 -0.0093704282 2.3248648e-21)
(1.0418776 -0.0059963349 -8.0923295e-23)
(1.04296 -0.0013693784 2.154491e-21)
(1.0124852 -0.020290221 3.0587606e-22)
(1.0146816 -0.023371226 6.3652517e-22)
(1.0169113 -0.023676703 -3.0916136e-21)
(1.0191129 -0.023685195 -5.1721606e-22)
(1.0205903 -0.023007405 3.2909715e-22)
(1.0214227 -0.022365121 5.3044497e-23)
(1.0216984 -0.022069666 3.3890234e-22)
(1.0218415 -0.022369767 1.0237358e-21)
(1.0222523 -0.023135012 -6.4247552e-22)
(1.0233611 -0.024235459 -4.3649504e-21)
(1.0252675 -0.025141211 2.7539397e-21)
(1.028008 -0.025520433 -4.3413004e-23)
(1.0311094 -0.024884348 -1.0311063e-21)
(1.0343546 -0.023226108 8.2462996e-23)
(1.0372105 -0.020608254 5.8159464e-23)
(1.0395938 -0.017167299 -4.1354187e-21)
(1.0413844 -0.013524772 1.0108236e-21)
(1.042645 -0.0092694135 -3.895594e-21)
(1.0437702 -0.0058606681 -9.695395e-22)
(1.0446306 -0.0012936095 -2.2132875e-21)
(1.0121344 -0.020542301 6.0997886e-23)
(1.0144238 -0.024126186 1.0925408e-21)
(1.0169728 -0.024588186 4.1102272e-22)
(1.0194837 -0.024646728 9.1986778e-22)
(1.0212224 -0.023842518 -2.2095097e-22)
(1.0221625 -0.022972773 -8.0817236e-22)
(1.0223409 -0.02243521 2.729043e-21)
(1.0221517 -0.022586506 5.8713604e-21)
(1.022117 -0.023401 -6.1681287e-22)
(1.0227489 -0.024807933 0)
(1.0243285 -0.026300179 -1.7454206e-21)
(1.0269557 -0.02742147 1.860235e-21)
(1.0302222 -0.027528238 3.4803532e-21)
(1.0338511 -0.026537941 -2.9295518e-21)
(1.0371861 -0.024305013 1.4454013e-21)
(1.0401013 -0.021208171 -3.4874303e-21)
(1.0422081 -0.017349769 -2.1806394e-22)
(1.0437692 -0.01344175 1.3986473e-21)
(1.044689 -0.0090694958 -2.3207168e-21)
(1.0455482 -0.0056651111 -2.1896067e-22)
(1.0461733 -0.0012009931 -2.0082782e-21)
(1.0116926 -0.020762279 -4.2143749e-22)
(1.0140654 -0.024882395 9.8848773e-22)
(1.0169526 -0.02552449 1.5621521e-21)
(1.019808 -0.025651705 -1.7117128e-21)
(1.0218609 -0.024717495 -1.4442537e-21)
(1.0229676 -0.023572985 8.6178386e-23)
(1.023053 -0.022710845 0)
(1.0225528 -0.022607284 5.4419322e-23)
(1.0220527 -0.023360186 -1.7042789e-21)
(1.0221177 -0.024982808 -4.2523216e-21)
(1.0232377 -0.027031835 2.4293132e-23)
(1.0256151 -0.028927657 1.210736e-21)
(1.0289573 -0.029890525 -3.2720151e-22)
(1.0329276 -0.029679288 -1.1663794e-21)
(1.0368095 -0.028043367 2.1242039e-21)
(1.0403174 -0.025238845 -1.9606296e-21)
(1.0429976 -0.02158456 4.6247395e-22)
(1.0448823 -0.017347936 -2.7903479e-21)
(1.0460493 -0.01321073 -5.7411844e-22)
(1.0466282 -0.00877055 -1.1122989e-22)
(1.0471985 -0.0054128726 -1.1805174e-21)
(1.0475805 -0.0010943742 0)
(1.0111681 -0.020952485 -1.0303432e-22)
(1.0136096 -0.025638026 -5.978265e-22)
(1.0168497 -0.026486086 -4.7462124e-23)
(1.0200797 -0.026704174 -2.0615526e-21)
(1.022498 -0.025645432 -1.204521e-21)
(1.0238367 -0.024197901 8.1635782e-22)
(1.0239067 -0.022924807 1.0341654e-22)
(1.0230832 -0.022477374 3.2293409e-21)
(1.022095 -0.023026922 9.3549081e-22)
(1.0215212 -0.024758533 4.0627773e-22)
(1.0220366 -0.027306562 -1.0992707e-22)
(1.0240075 -0.029987139 -2.9119966e-21)
(1.0272951 -0.031899159 3.1350178e-22)
(1.031537 -0.032613763 6.132779e-22)
(1.035969 -0.031713111 -2.9661839e-21)
(1.0401777 -0.029414153 -3.342826e-21)
(1.0435265 -0.025904211 2.5498218e-22)
(1.046018 -0.021730855 5.0972954e-21)
(1.0474572 -0.017144189 1.8324423e-22)
(1.048251 -0.012830057 -1.4867265e-21)
(1.04844 -0.0083774506 0)
(1.0487118 -0.0051080111 2.5018886e-21)
(1.0488471 -0.0009780301 5.8396119e-23)
(1.0105724 -0.021115294 1.2598888e-21)
(1.0130606 -0.026390587 -1.524111e-21)
(1.0166645 -0.027471706 1.7190722e-21)
(1.0202925 -0.027804747 7.6027338e-22)
(1.0231235 -0.026635961 -2.1463135e-21)
(1.0247635 -0.024868186 0)
(1.0249064 -0.023128294 5.2846509e-23)
(1.0237889 -0.022214187 9.0027813e-22)
(1.0223393 -0.022456854 2.8264893e-21)
(1.0210222 -0.024167143 4.5454962e-21)
(1.0207831 -0.02710859 -2.0332871e-21)
(1.0221707 -0.030553377 -2.5240126e-21)
(1.0252375 -0.033487802 3.1754575e-21)
(1.0296369 -0.035264109 -2.8677098e-21)
(1.0345967 -0.035283059 4.8881832e-21)
(1.0395498 -0.033640904 6.5484447e-21)
(1.0437236 -0.030474871 -1.6757762e-21)
(1.0469429 -0.026293921 2.0880613e-21)
(1.0489691 -0.021610931 -5.8675409e-21)
(1.0499988 -0.016732932 1.3319717e-21)
(1.0503204 -0.012307276 3.0363301e-21)
(1.0501115 -0.0078965704 -2.4262057e-21)
(1.050081 -0.0047564161 1.4046536e-21)
(1.0499696 -0.00085381 4.7872373e-23)
(1.0099219 -0.021253064 -8.0719847e-23)
(1.0124255 -0.02713659 -1.5337088e-21)
(1.0164037 -0.028479454 -5.497673e-22)
(1.0204425 -0.028952227 -4.9037697e-21)
(1.023726 -0.027693559 1.2651142e-21)
(1.0257361 -0.025604564 -2.6956562e-21)
(1.0260384 -0.023344271 7.5023724e-23)
(1.0247257 -0.021879325 -3.7045192e-21)
(1.0227439 -0.021725006 4.7426718e-22)
(1.0206797 -0.023220441 1.7686661e-21)
(1.0195437 -0.02642059 -8.4405235e-22)
(1.0201567 -0.030583765 4.8563792e-21)
(1.0228028 -0.034590061 -1.6664694e-21)
(1.027208 -0.037553528 -3.0106633e-22)
(1.0326253 -0.03868114 2.2750238e-21)
(1.0383452 -0.037896686 7.4988771e-22)
(1.0434417 -0.035226124 -3.7547658e-22)
(1.0475837 -0.031215078 3.5042833e-21)
(1.0503412 -0.026342752 0)
(1.0519352 -0.021215746 6.0888723e-22)
(1.0523954 -0.016124585 1.6619704e-22)
(1.0522491 -0.011649321 -2.905404e-22)
(1.0516315 -0.0073378019 -8.0307144e-23)
(1.0513007 -0.0043649435 -2.050294e-21)
(1.0509454 -0.00072031544 -8.3578799e-22)
(1.0092325 -0.021368738 -8.1777872e-22)
(1.0117153 -0.027871544 1.0469057e-21)
(1.0160709 -0.029506705 6.7695046e-22)
(1.0205342 -0.030140692 5.9367913e-22)
(1.0242952 -0.028819673 4.4174571e-21)
(1.0267424 -0.026416365 4.9798579e-22)
(1.0272924 -0.02360315 1.0338249e-22)
(1.0258752 -0.021499905 2.2655308e-22)
(1.0233393 -0.020791256 3.4807149e-21)
(1.0205399 -0.021935107 2.7208892e-22)
(1.0183792 -0.025247712 2.4149978e-21)
(1.0180256 -0.030047431 -6.5220134e-22)
(1.0200257 -0.035141242 -2.6398766e-21)
(1.0242483 -0.039404192 5.2655769e-22)
(1.0300089 -0.041830564 -1.0603021e-21)
(1.0364733 -0.042120035 -3.652413e-21)
(1.0425778 -0.040152196 -4.3040358e-21)
(1.0477817 -0.036449119 -5.3051709e-21)
(1.0515033 -0.031529529 -7.3253839e-21)
(1.0538115 -0.026039531 -9.3486e-23)
(1.0547503 -0.020554047 6.4198737e-21)
(1.0546671 -0.015321973 9.3828645e-22)
(1.0540163 -0.01087001 -2.2197581e-21)
(1.0529924 -0.0067117871 1.9123192e-21)
(1.0523688 -0.0039400794 -1.3076285e-21)
(1.0517793 -0.00057796219 7.9983807e-23)
(1.0085073 -0.021466191 2.3700763e-23)
(1.0109472 -0.028590921 1.0307637e-21)
(1.0156803 -0.030551598 -2.4172742e-21)
(1.020567 -0.031364418 3.0502271e-21)
(1.0248169 -0.030010032 -3.2715298e-21)
(1.0277681 -0.027312828 2.6046939e-21)
(1.0286536 -0.023930485 2.387851e-21)
(1.0272284 -0.021104887 2.1329829e-21)
(1.0242154 -0.019719219 -5.2104828e-21)
(1.0206077 -0.02037017 -2.55401e-21)
(1.0173395 -0.023600934 -1.9511669e-22)
(1.0158409 -0.028916597 -6.9534001e-21)
(1.0169537 -0.035081277 6.4571121e-21)
(1.020773 -0.04073617 -2.7176805e-21)
(1.0267164 -0.044648552 9.4501925e-22)
(1.0338621 -0.046238824 6.5359127e-22)
(1.0410193 -0.045210215 -3.2034195e-21)
(1.047423 -0.042009062 3.2706694e-21)
(1.0522926 -0.037153254 -3.1441514e-21)
(1.0555698 -0.031403346 7.7451776e-23)
(1.0571474 -0.025381458 0)
(1.0574687 -0.019621461 2.4108546e-21)
(1.0567581 -0.014348701 5.0083946e-22)
(1.0556104 -0.0099839946 0)
(1.0541903 -0.0060299776 -2.26741e-21)
(1.0532884 -0.003487597 -1.7445225e-22)
(1.0524837 -0.00043350291 4.9991564e-22)
(1.0077196 -0.021553311 1.9198056e-22)
(1.0101413 -0.0292903 1.4300257e-22)
(1.0152476 -0.031611897 -2.1595584e-21)
(1.0205508 -0.032617775 1.8603729e-22)
(1.0253037 -0.031262333 -8.9526667e-22)
(1.0287962 -0.028300457 -2.8855251e-21)
(1.0301064 -0.024347106 -1.6394162e-22)
(1.028775 -0.020730408 -2.5285726e-21)
(1.0253729 -0.018545448 8.8114119e-22)
(1.0208982 -0.018541797 3.8305829e-21)
(1.0164912 -0.021488044 -5.8154414e-21)
(1.0136644 -0.027177636 -2.8955037e-21)
(1.0136429 -0.034362695 -3.8771503e-21)
(1.0168115 -0.041476364 9.4901677e-22)
(1.0227345 -0.047045697 -3.0493132e-21)
(1.0304534 -0.05017373 1.493127e-21)
(1.038671 -0.050343722 -2.1985669e-21)
(1.0463807 -0.047875542 1.2752707e-20)
(1.0525925 -0.043249278 4.1661802e-21)
(1.0570491 -0.037315032 2.6583491e-21)
(1.059539 -0.030813058 3.8911437e-21)
(1.0604125 -0.024361896 -8.0451767e-22)
(1.059974 -0.018457148 -2.4621259e-22)
(1.0586614 -0.013221282 0)
(1.0570229 -0.0090090566 0)
(1.0552249 -0.0053040597 1.9251689e-22)
(1.0540661 -0.0030146773 -1.0459346e-21)
(1.0530612 -0.00029641375 -6.2711081e-22)
(1.0067984 -0.021636897 0)
(1.0093141 -0.029968205 7.6824167e-22)
(1.0147846 -0.032684646 2.1585765e-21)
(1.0204991 -0.033894361 1.7089019e-21)
(1.0257633 -0.032571531 2.9624288e-21)
(1.0298281 -0.029381452 5.4043794e-22)
(1.0316361 -0.024867117 -1.7237013e-21)
(1.0305045 -0.020407599 -4.1387095e-21)
(1.0268025 -0.017305218 4.5087194e-21)
(1.0214922 -0.016486147 -6.0030694e-22)
(1.0158825 -0.018956261 4.7356996e-22)
(1.0115493 -0.024839396 7.8039463e-22)
(1.0101568 -0.032946481 -1.1623939e-20)
(1.0124047 -0.04155428 1.6800647e-21)
(1.0180657 -0.048932228 1.6085524e-21)
(1.0262066 -0.053834958 -2.7922719e-21)
(1.035448 -0.055486942 1.7565718e-21)
(1.0445417 -0.054012478 -2.8092715e-21)
(1.0522674 -0.049825991 8.2737051e-21)
(1.0581372 -0.043831393 -7.6008565e-22)
(1.0617712 -0.036880635 3.4126062e-21)
(1.0634662 -0.029752199 2.1133755e-21)
(1.0634399 -0.023028667 -2.6372403e-22)
(1.0622909 -0.017067803 -5.3611143e-21)
(1.0603583 -0.011964799 -1.7473882e-21)
(1.05825 -0.0079628817 4.2021076e-22)
(1.0560985 -0.0045462965 1.3854046e-21)
(1.0547047 -0.0025305663 -4.2114084e-22)
(1.0534934 -0.00017704053 8.7620552e-23)
(1.0056156 -0.02174913 -1.8515238e-22)
(1.0084634 -0.03061798 0)
(1.0142835 -0.03376592 0)
(1.0204162 -0.035186646 0)
(1.0262017 -0.033930661 -7.6764775e-22)
(1.0308688 -0.030554267 2.3884907e-21)
(1.0332417 -0.025502145 1.3707709e-22)
(1.0324108 -0.020163326 4.603943e-22)
(1.0284985 -0.016036684 6.7758785e-21)
(1.0224209 -0.014251319 -8.947069e-21)
(1.015521 -0.01604551 3.1701696e-21)
(1.0095662 -0.021901661 -1.5072574e-21)
(1.006564 -0.030807813 4.5119808e-21)
(1.0076026 -0.040915286 -2.2104941e-21)
(1.0127303 -0.050224304 7.6499414e-21)
(1.0210985 -0.057131479 2.3311781e-21)
(1.0312803 -0.060559306 -2.5875971e-21)
(1.041799 -0.060374128 -5.1087378e-21)
(1.0511932 -0.056873857 -1.3784406e-22)
(1.0586986 -0.050989242 -3.4116556e-21)
(1.063742 -0.043661211 -4.2191392e-21)
(1.0664919 -0.03584278 1.0572214e-21)
(1.0671468 -0.028267308 4.5370862e-21)
(1.066276 -0.02138264 -2.2827348e-21)
(1.0643584 -0.015501513 -4.9821446e-22)
(1.0618415 -0.010603183 -6.886689e-22)
(1.0592915 -0.0068635004 1.2960985e-21)
(1.0568156 -0.003768891 7.1814005e-22)
(1.0552012 -0.0020414856 8.9217726e-22)
(1.0537842 -0.00011776001 -6.7129519e-23)
(1.0039217 -0.021864136 2.759284e-22)
(1.0075445 -0.031268755 9.7826869e-22)
(1.0136996 -0.034839892 0)
(1.020275 -0.036485329 0)
(1.0266081 -0.035332651 0)
(1.0319139 -0.031816155 0)
(1.0349235 -0.026257738 0)
(1.0344956 -0.020020579 -1.2470363e-22)
(1.0304662 -0.014779605 -2.0527012e-21)
(1.0236875 -0.011877749 9.7302694e-21)
(1.0154649 -0.012790144 1.5213251e-22)
(1.0077959 -0.018386333 4.1710659e-21)
(1.002928 -0.027942717 -1.2078242e-20)
(1.0024644 -0.039510204 7.4227809e-21)
(1.0067627 -0.050841363 -6.7211116e-22)
(1.0151234 -0.059970335 4.4482499e-21)
(1.0261144 -0.065473325 -6.5451357e-21)
(1.0380582 -0.066896656 8.9825122e-22)
(1.0492478 -0.064374705 6.598134e-21)
(1.0586072 -0.058807174 3.0868732e-21)
(1.0653236 -0.051219313 5.9158763e-22)
(1.0694059 -0.042725704 4.3112499e-21)
(1.0709696 -0.034240227 1.9637896e-22)
(1.0706214 -0.026363638 -1.7175101e-21)
(1.0688078 -0.019499412 1.6821724e-21)
(1.0661827 -0.013779887 3.818959e-21)
(1.0631076 -0.0091622644 9.9459145e-22)
(1.0601504 -0.0057279619 -5.5043689e-22)
(1.0573822 -0.0029819919 7.7237331e-23)
(1.0555573 -0.001546704 -5.7108627e-23)
(1.0540341 -5.0878726e-05 8.9347816e-23)
(1.0011088 -0.022039957 -5.4904556e-22)
(1.0062293 -0.031899114 3.9363751e-22)
(1.0129413 -0.035913775 1.8193744e-21)
(1.0200017 -0.037771784 3.2130477e-21)
(1.0269173 -0.036760656 0)
(1.0329149 -0.033158734 0)
(1.0366467 -0.027144149 1.7772945e-22)
(1.0367546 -0.019999095 2.7921629e-21)
(1.0327132 -0.013567905 -5.2023377e-21)
(1.0253075 -0.0094108589 7.9953686e-21)
(1.0157717 -0.0092368464 -5.7991392e-22)
(1.0062652 -0.014338357 -9.37758e-21)
(0.9993048 -0.024357646 2.5314128e-21)
(0.99705651 -0.037306618 -1.1985737e-21)
(1.0002105 -0.050720521 -7.0338285e-21)
(1.0082931 -0.062264607 5.6738658e-22)
(1.0199149 -0.070135447 7.6780808e-21)
(1.033239 -0.073506221 -4.7856576e-22)
(1.0463173 -0.072289837 -9.8390018e-22)
(1.057734 -0.067297751 1.6576891e-20)
(1.0663966 -0.059601912 2.9633039e-21)
(1.0720958 -0.050489119 -3.9103269e-21)
(1.074845 -0.041049852 6.2181355e-21)
(1.0752221 -0.032087847 4.3020794e-21)
(1.0737414 -0.024133153 6.5596362e-22)
(1.0710679 -0.01738857 2.1335931e-21)
(1.0677441 -0.011945827 1.106567e-21)
(1.0641585 -0.0076658436 -2.0689837e-23)
(1.060833 -0.0045721403 -3.6369523e-22)
(1.0578069 -0.0021924889 -2.9206974e-22)
(1.0557892 -0.0010491115 4.5467604e-22)
(1.0541959 6.2031604e-05 2.9779711e-23)
(0.99644909 -0.022327604 2.846379e-22)
(1.0041793 -0.032554996 -1.2892115e-21)
(1.0117387 -0.036979572 -2.4261037e-21)
(1.0194602 -0.039033161 -3.8527474e-21)
(1.0269802 -0.03818119 0)
(1.033703 -0.034532654 0)
(1.0382638 -0.028138262 0)
(1.039116 -0.020120661 -3.8580196e-23)
(1.0352394 -0.012439386 6.6865342e-21)
(1.0273017 -0.0068992973 7.300642e-21)
(1.0164884 -0.0054363615 -8.7059258e-22)
(1.0050174 -0.0097952958 -1.6977319e-21)
(0.99578428 -0.020050671 2.1644872e-20)
(0.99145112 -0.03428205 -1.1917911e-20)
(0.99313054 -0.0498069 1.7013387e-21)
(1.0006347 -0.063931086 0)
(1.0126655 -0.074449503 2.7487169e-21)
(1.0272781 -0.080118163 -1.0053145e-21)
(1.0422982 -0.080568066 6.5320499e-21)
(1.0559546 -0.076452434 -1.8419291e-22)
(1.0668354 -0.068854102 -8.2063951e-21)
(1.0744577 -0.059204867 -2.0981604e-21)
(1.0786811 -0.048802882 -6.0566247e-21)
(1.0800422 -0.038658585 -5.8789419e-21)
(1.0790713 -0.029487376 7.8825341e-22)
(1.0765444 -0.021588871 9.5051637e-22)
(1.0729993 -0.015128508 -5.3001924e-22)
(1.0690471 -0.010029109 -1.6279933e-23)
(1.0650001 -0.0061368904 -4.4532486e-23)
(1.0613483 -0.0034103988 -5.7555163e-22)
(1.0580987 -0.0014063708 3.7511261e-22)
(1.0559202 -0.00055957254 -1.9282678e-21)
(1.0542261 0.00020549146 9.0931737e-22)
(0.98881052 -0.022789747 4.0796997e-22)
(1.0009046 -0.033279873 -2.0380302e-22)
(1.0096582 -0.03806476 -4.8695515e-21)
(1.0182261 -0.040279311 -7.8388705e-21)
(1.0265539 -0.039529904 1.0532509e-21)
(1.0340224 -0.035888518 2.2002247e-22)
(1.0393534 -0.029144786 2.9615283e-21)
(1.0412853 -0.020317065 -2.114164e-21)
(1.0379623 -0.011404229 -1.3094039e-21)
(1.0296847 -0.0043919457 -1.3525577e-20)
(1.0176629 -0.0014382552 7.5339373e-21)
(1.0041211 -0.0047968111 1.5476845e-20)
(0.99242888 -0.015053421 1.0160302e-22)
(0.98569946 -0.030447368 -1.0514197e-20)
(0.98558651 -0.048065622 -1.0273081e-20)
(0.99219096 -0.064898487 -2.1720605e-21)
(1.0043704 -0.078322983 1.3689914e-21)
(1.0201316 -0.086641125 9.3253182e-21)
(1.0371005 -0.089142274 -6.4063104e-22)
(1.0531495 -0.086249092 -1.6571836e-21)
(1.0665145 -0.079000986 -1.590428e-21)
(1.0763793 -0.068948259 -1.1766134e-20)
(1.0823968 -0.057590559 1.5107763e-21)
(1.0850149 -0.046193587 -1.0224799e-21)
(1.0847834 -0.035662523 -7.2973197e-21)
(1.0825387 -0.026468746 -1.9582261e-21)
(1.0789419 -0.018840617 -1.3654239e-21)
(1.0746253 -0.012739 -1.2710657e-21)
(1.0700946 -0.0080631937 -4.911229e-22)
(1.0656415 -0.0045958135 -1.4700682e-22)
(1.0617071 -0.0022554822 1.192674e-22)
(1.0582649 -0.00063094349 -9.0309188e-23)
(1.0559622 -8.5529247e-05 1.027572e-21)
(1.0541807 0.00033071499 -2.1255378e-21)
(0.97669771 -0.023518033 -2.8139541e-22)
(0.99543981 -0.034074331 2.8618808e-22)
(1.0059662 -0.039110315 6.8802629e-21)
(1.0157223 -0.041502554 3.2030652e-21)
(1.0250222 -0.040884709 -3.3574151e-21)
(1.0334366 -0.037094032 -2.7395661e-21)
(1.0396784 -0.030094012 -3.5132842e-22)
(1.0421704 -0.020739587 0)
(1.0405946 -0.010453939 -3.0373448e-21)
(1.0323648 -0.001902247 -1.5538377e-20)
(1.0193321 0.0027015857 -3.4344269e-21)
(1.0036667 0.00061778292 -5.9370065e-21)
(0.98929039 -0.0094057213 0)
(0.97987478 -0.025801466 1.1713054e-21)
(0.97765319 -0.045464139 2.028035e-20)
(0.98301694 -0.065106923 3.1937191e-21)
(0.99505313 -0.081669328 -1.2972582e-20)
(1.0117761 -0.092980185 0)
(1.0306504 -0.097932231 -2.8584551e-21)
(1.0492083 -0.096646599 -4.4436716e-21)
(1.0653089 -0.090055073 -1.3803905e-20)
(1.0777453 -0.079777219 -3.1419938e-21)
(1.0859022 -0.067513539 0)
(1.0900874 -0.054795543 -7.7803556e-21)
(1.0908371 -0.042780427 4.7812111e-22)
(1.0890642 -0.03211443 3.254678e-23)
(1.0855164 -0.023162117 -2.8240572e-21)
(1.0809699 -0.015906008 1.3383344e-21)
(1.0759306 -0.010285322 1.6964921e-22)
(1.0708974 -0.0060760272 5.1728485e-23)
(1.0660946 -0.0030608991 -3.9142651e-22)
(1.0619221 -0.0011182354 -5.4700163e-23)
(1.0583136 0.0001255053 0)
(1.05591 0.0003681507 -4.3427376e-23)
(1.0540639 0.0004583803 -7.8195528e-22)
(0.95842623 -0.024594819 -2.4033923e-22)
(0.98631011 -0.03490654 -8.9855922e-22)
(0.99945837 -0.039977767 7.5243868e-21)
(1.0109565 -0.042466918 5.900523e-22)
(1.0213763 -0.042121081 -5.0201574e-22)
(1.0310917 -0.038310909 -5.1704884e-22)
(1.0386252 -0.030863904 -2.1677838e-21)
(1.0421741 -0.021169942 -4.1757902e-22)
(1.0424836 -0.009807535 0)
(1.0350983 0.00039287299 4.3939549e-21)
(1.0213981 0.0069083077 -6.4992953e-21)
(1.0037149 0.0063934012 -3.1550802e-22)
(0.98644691 -0.0031438893 -7.9008464e-21)
(0.97406529 -0.020356854 1.2366138e-20)
(0.96939592 -0.042007054 7.9317415e-21)
(0.97317621 -0.064516978 1.6541554e-20)
(0.98475508 -0.084411738 -2.8091592e-20)
(1.0022095 -0.099038588 -4.4138567e-21)
(1.0228937 -0.10684688 1.319993e-20)
(1.0440324 -0.10758681 -9.4446844e-21)
(1.0630964 -0.10200883 1.1619753e-20)
(1.0784363 -0.091740072 4.4230635e-22)
(1.0891029 -0.078658375 0)
(1.0951987 -0.064582541 -2.2442737e-21)
(1.0972103 -0.050946442 5.8147956e-23)
(1.0961067 -0.03864319 2.7560738e-21)
(1.0927542 -0.028167261 2.2311461e-21)
(1.0880372 -0.019601638 1.0684736e-21)
(1.0825954 -0.012883859 5.7468369e-22)
(1.0769375 -0.0077908675 0)
(1.0714687 -0.0040936072 1.4086848e-22)
(1.0663723 -0.0015476932 -5.3152481e-22)
(1.0620067 -7.8543536e-06 3.1705727e-21)
(1.0582649 0.00085613992 -1.2352287e-21)
(1.0557698 0.00081088096 3.9412372e-23)
(1.0538718 0.00058541401 2.9643076e-21)
(0.93271333 -0.026024023 -2.8184252e-22)
(0.97160961 -0.035811824 9.180957e-23)
(0.98860959 -0.040453827 -2.4159572e-21)
(1.002369 -0.042976192 -3.8508707e-23)
(1.0143994 -0.042812933 2.0515829e-21)
(1.0254965 -0.039295352 1.2623369e-21)
(1.0349078 -0.031668572 1.3813658e-22)
(1.0407173 -0.021140692 -4.5562679e-22)
(1.0421895 -0.0092791387 -5.1519103e-22)
(1.0375673 0.0028809544 -3.377783e-21)
(1.0233839 0.011163167 4.2976209e-22)
(1.0041658 0.012448975 5.6675994e-21)
(0.98396908 0.0036940186 1.7623622e-21)
(0.96835833 -0.014150345 9.6794236e-21)
(0.96088624 -0.037703445 -5.0415987e-20)
(0.96274573 -0.063094527 1.6064324e-21)
(0.97353292 -0.086483996 9.3219762e-21)
(0.99145159 -0.10472406 1.1901101e-20)
(1.0137987 -0.11578728 -8.154841e-21)
(1.0375392 -0.11899513 -1.8181462e-21)
(1.0597603 -0.11483552 9.4425125e-21)
(1.0783304 -0.10486651 -7.7456751e-21)
(1.0918974 -0.091107016 2.9783743e-21)
(1.1002843 -0.075661663 0)
(1.1038751 -0.060286507 1.0709566e-20)
(1.1036747 -0.046153589 7.1957341e-21)
(1.1006633 -0.03396241 -8.887049e-22)
(1.0958747 -0.023882221 3.2288249e-21)
(1.090056 -0.01591656 2.591782e-22)
(1.0838528 -0.009795506 -4.8094573e-22)
(1.0776546 -0.0053036629 9.4996426e-22)
(1.0718253 -0.0021379759 -2.4517179e-21)
(1.0664884 -6.9991056e-05 -1.3353027e-22)
(1.0619695 0.001070344 3.627603e-21)
(1.0581308 0.0015641512 -5.0212509e-22)
(1.0555587 0.0012339956 -1.3332983e-22)
(1.05363 0.00069794657 1.1950366e-21)
(0.89983074 -0.027997223 6.4827643e-23)
(0.94924911 -0.036959628 6.2224237e-22)
(0.97206193 -0.040479312 -2.5614167e-21)
(0.98892173 -0.042926618 -2.7802988e-22)
(1.0027241 -0.042935583 5.3032808e-23)
(1.015457 -0.039676028 -9.2123118e-23)
(1.0266508 -0.032227094 -4.810514e-22)
(1.0349766 -0.021205352 -7.2462092e-22)
(1.0382365 -0.0081429038 0)
(1.0363546 0.0051996566 6.5956149e-22)
(1.0239625 0.015592872 0)
(1.0043684 0.01880162 0)
(0.98180514 0.011034867 7.995223e-21)
(0.9628402 -0.0072180889 -1.4138476e-21)
(0.95222119 -0.03256995 -8.4083581e-21)
(0.9518131 -0.06082773 -1.507134e-20)
(0.9614575 -0.087838906 2.8287463e-20)
(0.97954244 -0.10995059 6.0490407e-22)
(1.003357 -0.12465077 6.0626351e-21)
(1.0296652 -0.13078093 2.0621789e-21)
(1.0551931 -0.12848674 -1.3872147e-20)
(1.077304 -0.11916765 -5.4964004e-21)
(1.0941776 -0.1049263 3.7067968e-21)
(1.1052717 -0.088141632 1.0041715e-20)
(1.1108029 -0.070917711 1.7323899e-21)
(1.1117739 -0.054769007 8.5423277e-22)
(1.1092799 -0.040631344 -2.8278846e-21)
(1.1045098 -0.028835413 -2.0628213e-21)
(1.0983725 -0.019416177 -3.1405018e-22)
(1.0916143 -0.012138172 -1.4848749e-21)
(1.0847461 -0.0067153122 -2.1400682e-21)
(1.0781066 -0.0028441112 -1.0285917e-21)
(1.0719846 -0.00022825477 -5.9528067e-22)
(1.0664606 0.0013628419 3.2025424e-21)
(1.0618217 0.0021098886 -7.3774749e-21)
(1.0579161 0.0022427396 -9.9937791e-22)
(1.0552852 0.0016385311 -1.1677832e-21)
(1.0533281 0.00080811419 0)
(0.86270312 -0.029612908 3.9807124e-21)
(0.9178287 -0.038128421 7.2836861e-23)
(0.94827494 -0.040145063 -3.7295958e-22)
(0.96990963 -0.042277081 -6.2326983e-22)
(0.98603612 -0.042417239 -2.3489649e-21)
(1.0003149 -0.039236596 -1.8971144e-21)
(1.0126651 -0.031872465 3.4829003e-22)
(1.0227926 -0.020903318 7.8937153e-22)
(1.0289772 -0.0069332166 7.2473148e-22)
(1.0291963 0.0080500302 5.0511076e-21)
(1.0209905 0.020214745 1.056047e-21)
(1.0028658 0.02532848 0)
(0.97948406 0.018836535 0)
(0.9575463 0.00036273608 -1.0356674e-20)