/*--------------------------------*- C++ -*----------------------------------*\
| =========                 |                                                 |
| \\      /  F ield         | OpenFOAM: The Open Source CFD Toolbox           |
|  \\    /   O peration     | Version:  5.0                                   |
|   \\  /    A nd           | Web:      www.OpenFOAM.org                      |
|    \\/     M anipulation  |                                                 |
\*---------------------------------------------------------------------------*/
FoamFile
{
    version     2.0;
    format      ascii;
    class       volVectorField;
    location    "80";
    object      UMean;
}
// * * * * * * * * * * * * * * * * * * * * * * * * * * * * * * * * * * * * * //

dimensions      [0 1 -1 0 0 0 0];

internalField   nonuniform List<vector> 
9200
(
(1.0022492 -0.00050533296 -2.2305978e-24)
(1.0023178 -0.0015869248 -4.552649e-22)
(1.0037665 -0.00054072977 0)
(1.0024437 -0.002438813 2.2875965e-22)
(1.0037995 -0.0017107315 -4.210539e-22)
(1.0044922 -0.00056552769 0)
(1.0025557 -0.0033364758 2.373259e-23)
(1.0038781 -0.0026228832 -4.295392e-23)
(1.0045123 -0.001800777 0)
(1.0056399 -0.00060516897 0)
(1.0027155 -0.0040124927 -4.0103023e-22)
(1.0039212 -0.0035993313 -1.9927025e-22)
(1.0045683 -0.002756362 -2.3330022e-22)
(1.005642 -0.0019495426 -1.62298e-23)
(1.0066027 -0.00064147638 3.4605098e-25)
(1.0028771 -0.0046813595 -3.6758763e-22)
(1.0039877 -0.0043304305 6.9598104e-23)
(1.0045793 -0.0037896387 -7.1856712e-22)
(1.0056659 -0.0029792654 -2.5198945e-22)
(1.0065916 -0.0020903745 3.4068871e-23)
(1.0077468 -0.00068551173 8.349067e-22)
(1.0030579 -0.0051950777 -2.55547e-22)
(1.0040497 -0.0050611315 -4.8570238e-22)
(1.0046054 -0.0045637139 4.4455621e-22)
(1.0056324 -0.004107587 1.6969716e-23)
(1.0065894 -0.0031912505 -3.5416284e-22)
(1.0077263 -0.0022659425 -3.4491003e-22)
(1.0088284 -0.00072707572 -4.2149873e-23)
(1.003238 -0.005654701 -8.9348798e-24)
(1.0041119 -0.0056248268 -2.5110984e-22)
(1.0046197 -0.0053399071 -4.14314e-22)
(1.0055997 -0.0049574294 8.6656763e-23)
(1.0065204 -0.0044088803 7.2434663e-22)
(1.0077006 -0.0034579955 3.2481812e-22)
(1.0088001 -0.0024364366 5.9581203e-22)
(1.0100382 -0.00077249176 -9.5745728e-22)
(1.0034202 -0.0060100051 2.4793049e-22)
(1.0041679 -0.0061322994 -3.9344594e-22)
(1.0046287 -0.0059432772 8.0151164e-23)
(1.0055463 -0.0058137562 -2.5916482e-22)
(1.0064403 -0.0053321282 2.0492735e-22)
(1.0076008 -0.0047902935 1.2821926e-21)
(1.0087535 -0.0037177476 -5.9918081e-22)
(1.010009 -0.0026283266 1.0749219e-21)
(1.0112118 -0.00081428561 2.1861818e-21)
(1.0035964 -0.0062975467 -1.2193747e-22)
(1.0042162 -0.0065291803 3.1089513e-22)
(1.0046265 -0.0064875783 -1.1105889e-23)
(1.0054767 -0.0064894941 -2.9787284e-22)
(1.0063318 -0.0062641392 5.875899e-23)
(1.0074763 -0.0058124408 3.5988357e-22)
(1.0086266 -0.0051610181 -4.7641377e-22)
(1.0099486 -0.0040127403 -9.9038348e-22)
(1.0111833 -0.0028104725 -5.3045713e-22)
(1.0124878 -0.00085659375 -1.4342679e-22)
(1.0037657 -0.0065103633 6.0398686e-23)
(1.0042549 -0.0068538368 1.4579399e-22)
(1.0046139 -0.006917661 -3.3784723e-22)
(1.0053884 -0.0071024327 2.5119874e-22)
(1.0061984 -0.0070089314 -8.1289287e-22)
(1.0073144 -0.0068478468 1.4780346e-21)
(1.0084627 -0.0062804785 1.2415234e-22)
(1.009805 -0.0055853636 -1.7877469e-21)
(1.0111126 -0.0042937451 9.6631643e-22)
(1.0124683 -0.0030017601 -2.0021515e-21)
(1.0137328 -0.00089387564 3.9321544e-22)
(1.0039234 -0.0066612677 -2.4810369e-23)
(1.0042827 -0.0070987226 -2.1235785e-22)
(1.0045897 -0.007271823 1.2174169e-22)
(1.0052823 -0.0075953474 0)
(1.0060402 -0.0076865611 1.1586908e-23)
(1.0071157 -0.0076905508 -3.6312638e-22)
(1.0082534 -0.0074167007 3.3173995e-22)
(1.0096112 -0.0068229018 8.8767781e-22)
(1.0109578 -0.0059903866 -4.10044e-22)
(1.0123968 -0.0045914042 1.260427e-21)
(1.0137249 -0.0031774212 9.302818e-22)
(1.015053 -0.00092858512 -2.0114141e-22)
(1.0040689 -0.0067567482 -6.481123e-24)
(1.0042994 -0.0072782762 1.2889384e-22)
(1.0045544 -0.0075433919 0)
(1.0051594 -0.0080060773 0)
(1.0058594 -0.008239346 2.6562765e-22)
(1.0068821 -0.0084615668 -7.8516355e-22)
(1.0079968 -0.0083559205 1.0221696e-21)
(1.0093633 -0.0080834305 -8.5963837e-22)
(1.0107413 -0.0073436175 -4.8625103e-23)
(1.0122441 -0.0064233407 4.8129406e-24)
(1.0136577 -0.004866071 -1.7859624e-21)
(1.0150656 -0.003349978 2.2232973e-21)
(1.0163402 -0.00095693399 -4.0676824e-21)
(1.0041958 -0.006807566 8.1529115e-23)
(1.0043042 -0.0073967728 -1.779362e-23)
(1.004508 -0.0077464793 2.195358e-22)
(1.0050213 -0.0083272356 -2.9239984e-22)
(1.0056583 -0.0087040585 3.4073742e-22)
(1.0066163 -0.009101692 -2.3259604e-22)
(1.0076975 -0.0092201429 -1.6777244e-22)
(1.0090543 -0.009144971 3.2703149e-23)
(1.0104633 -0.0087266028 -5.8396887e-22)
(1.0120185 -0.0079071835 -5.29703e-22)
(1.0135154 -0.0068253237 -4.3602594e-22)
(1.0150143 -0.0051382641 -1.2288116e-21)
(1.0163763 -0.0035010961 -8.8835823e-22)
(1.017671 -0.00098005025 1.1814376e-21)
(1.0043156 -0.0068108653 -1.3678838e-22)
(1.0043005 -0.0074626764 -4.9576536e-22)
(1.0044514 -0.0078873707 -3.0410426e-23)
(1.0048703 -0.0085723042 3.4270495e-23)
(1.0054404 -0.0090744247 -3.4392772e-23)
(1.0063224 -0.009645703 2.9400527e-22)
(1.0073576 -0.0099490723 -1.4461344e-22)
(1.0086899 -0.010128252 2.2124894e-22)
(1.0101118 -0.0099110389 -2.2301015e-22)
(1.0117238 -0.0094307448 1.7049638e-23)
(1.0132912 -0.0084355638 2.5941091e-23)
(1.0148981 -0.0072283419 -1.6772251e-22)
(1.0163467 -0.005378225 1.972973e-21)
(1.0177402 -0.0036379061 -1.1006584e-21)
(1.0189644 -0.0009957102 9.8875885e-22)
(1.0044206 -0.0067801845 -9.7591243e-23)
(1.0042841 -0.0074854549 2.1749815e-22)
(1.0043848 -0.0079741501 -2.2112967e-22)
(1.0047093 -0.008747548 2.8211989e-22)
(1.0052088 -0.0093638179 -3.3371999e-22)
(1.0060055 -0.01008638 5.306568e-22)
(1.0069827 -0.010575422 -9.9937769e-22)
(1.008272 -0.010971557 7.5564767e-23)
(1.009694 -0.011016801 2.4154189e-22)
(1.0113409 -0.010759648 -6.640552e-22)
(1.0129925 -0.010097274 2.7867176e-21)
(1.0146929 -0.0089730075 -1.3825077e-21)
(1.0162667 -0.00758771 -6.6503771e-22)
(1.0177457 -0.0055978709 -1.8627729e-22)
(1.0190691 -0.0037483413 8.0643717e-23)
(1.0202676 -0.0010042267 -1.1402852e-21)
(1.0045118 -0.00671988 0)
(1.004258 -0.0074694411 3.3534941e-22)
(1.0043097 -0.0080127674 5.5373326e-23)
(1.0045405 -0.0088620932 0)
(1.0049667 -0.0095782818 0)
(1.005671 -0.010435891 0)
(1.0065791 -0.011091855 9.6690576e-23)
(1.0078076 -0.011704306 -3.8830924e-22)
(1.00921 -0.011980812 1.0578553e-21)
(1.0108769 -0.012011283 -6.7922362e-22)
(1.0125925 -0.011571795 2.4153793e-22)
(1.0144087 -0.010784586 -5.9868447e-22)
(1.016094 -0.0094593991 1.5806452e-22)
(1.0177198 -0.0079224111 7.6190231e-22)
(1.0191145 -0.0057769887 9.5214996e-23)
(1.0204173 -0.0038355526 5.819152e-22)
(1.0215279 -0.0010046293 0)
(1.0045886 -0.0066346648 -1.956137e-22)
(1.0042228 -0.0074213335 -3.9428992e-22)
(1.0042267 -0.008011744 8.2223247e-22)
(1.0043658 -0.00892461 5.5073715e-22)
(1.0047173 -0.009726487 5.8202752e-22)
(1.0053244 -0.010700813 0)
(1.0061535 -0.011509324 8.9381065e-22)
(1.0073041 -0.012317779 -3.5912108e-22)
(1.0086674 -0.012829147 -1.6783854e-21)
(1.0103297 -0.013120712 1.4356398e-21)
(1.0120981 -0.012974499 4.1612733e-22)
(1.0140094 -0.012421006 3.0053401e-22)
(1.0158407 -0.011415802 -1.7793262e-21)
(1.0176001 -0.0099214261 2.3977879e-21)
(1.0191525 -0.0082013228 2.8192999e-22)
(1.0205169 -0.0059210514 4.1893869e-21)
(1.0217243 -0.0038930604 1.5644262e-21)
(1.0227664 -0.00099693695 1.5475007e-21)
(1.0046508 -0.0065290807 1.6258038e-23)
(1.0041794 -0.0073473979 -2.6697963e-22)
(1.0041365 -0.0079768667 -5.6691548e-23)
(1.0041869 -0.0089418699 5.2496104e-22)
(1.0044635 -0.0098160496 -8.2253761e-23)
(1.0049709 -0.010890137 1.0060927e-23)
(1.0057125 -0.011833383 -1.2491577e-21)
(1.0067704 -0.012820816 -2.0624847e-21)
(1.0080743 -0.013551554 -8.3381322e-22)
(1.0097074 -0.014109764 3.7080857e-22)
(1.0115039 -0.014238833 -3.5060566e-22)
(1.0135002 -0.013994807 1.2746858e-21)
(1.0154614 -0.01321327 -1.1767138e-21)
(1.0174008 -0.012026584 8.2703565e-23)
(1.0191004 -0.010315982 3.365059e-23)
(1.0206379 -0.0084335565 -6.8685148e-22)
(1.0218814 -0.006018596 1.4738083e-21)
(1.0230169 -0.003921828 -9.7226861e-23)
(1.0239549 -0.00098096343 1.5022391e-21)
(1.004699 -0.0064073967 1.3013064e-22)
(1.0041271 -0.0072528286 2.7942432e-22)
(1.0040398 -0.0079135023 -1.5268004e-21)
(1.004005 -0.0089213685 -3.1587133e-22)
(1.004208 -0.0098555317 1.3725832e-22)
(1.0046151 -0.011013099 -1.747631e-23)
(1.0052629 -0.012072627 1.9542891e-22)
(1.0062159 -0.013218563 4.485315e-22)
(1.007441 -0.014154493 -3.5744229e-22)
(1.0090183 -0.01496565 -2.3313175e-21)
(1.010817 -0.015382448 1.1861291e-21)
(1.0128714 -0.015437507 9.9957309e-23)
(1.014959 -0.014962192 -4.0555752e-22)
(1.0170659 -0.013994091 2.7248583e-23)
(1.018974 -0.012560236 1.8005978e-22)
(1.0206758 -0.010656222 -2.4507277e-21)
(1.0220925 -0.0086004346 8.3317267e-22)
(1.0232445 -0.0060714012 -2.4502023e-21)
(1.0242609 -0.0039194261 -6.226877e-22)
(1.0250974 -0.0009568129 -1.5893748e-21)
(1.0047334 -0.0062732249 4.3708815e-23)
(1.0040658 -0.0071410475 4.948818e-22)
(1.0039372 -0.0078266713 3.1480533e-22)
(1.0038212 -0.0088697641 4.9413465e-22)
(1.0039528 -0.0098523345 -2.0217553e-22)
(1.0042607 -0.01107801 -4.606122e-22)
(1.004811 -0.012235672 1.5418633e-21)
(1.0056497 -0.013519135 3.251398e-21)
(1.0067783 -0.0146412 -1.3633162e-22)
(1.0082742 -0.01569141 0)
(1.010045 -0.016389626 -7.1842663e-22)
(1.0121283 -0.01676209 1.2083532e-21)
(1.0143185 -0.016592851 1.8005283e-21)
(1.0165945 -0.015932055 -1.8744212e-21)
(1.0187066 -0.014692166 6.4943573e-22)
(1.0206481 -0.013034644 -1.9453642e-21)
(1.022233 -0.0109148 1.3434884e-22)
(1.0235647 -0.0087049368 9.9930244e-22)
(1.0245611 -0.0060747443 -1.6166613e-21)
(1.0254634 -0.0038863329 -1.0582049e-22)
(1.0261808 -0.00092472433 -1.5158521e-21)
(1.0047543 -0.0061293827 -1.1643622e-22)
(1.0039959 -0.0070153812 4.2924607e-22)
(1.0038288 -0.0077214978 7.4170716e-22)
(1.0036359 -0.0087928877 -8.54208e-22)
(1.0036996 -0.0098135226 -8.3641803e-22)
(1.0039108 -0.011093506 5.311262e-24)
(1.004362 -0.012331562 0)
(1.0050802 -0.013731402 -1.0054946e-22)
(1.0060974 -0.015018203 -1.0046066e-21)
(1.0074879 -0.016288085 -2.0852735e-21)
(1.0092001 -0.017259595 1.6276013e-22)
(1.0112773 -0.01794925 7.0887489e-22)
(1.0135422 -0.018114015 -2.2767935e-22)
(1.0159654 -0.017769818 -4.9715706e-22)
(1.0182937 -0.016818441 1.249517e-21)
(1.020477 -0.015330678 -1.2194585e-21)
(1.0223226 -0.01341205 2.5686137e-22)
(1.0238303 -0.011095965 -1.7201051e-21)
(1.0249943 -0.008738677 -1.673955e-22)
(1.0258452 -0.0060292869 -3.2249391e-23)
(1.0266077 -0.0038226723 -8.8288352e-22)
(1.0272026 -0.00088504802 0)
(1.0047626 -0.0059785678 6.1649696e-24)
(1.0039171 -0.0068798094 -2.5180632e-22)
(1.0037146 -0.0076022839 -4.3401416e-23)
(1.0034494 -0.0086956444 -1.1172353e-21)
(1.0034494 -0.0097455542 -7.5455996e-22)
(1.0035677 -0.011067587 4.6986331e-22)
(1.0039205 -0.012369097 1.5433492e-22)
(1.0045142 -0.013864548 1.7339129e-21)
(1.0054081 -0.01529255 4.4966916e-22)
(1.006673 -0.016760052 2.2341354e-22)
(1.0082962 -0.017990085 -6.4276042e-23)
(1.0103304 -0.018993617 -1.6972026e-21)
(1.0126335 -0.019502778 1.309216e-22)
(1.0151768 -0.019511901 1.0807294e-21)
(1.0177068 -0.018868652 -1.1975842e-21)
(1.0201535 -0.017649716 -1.6882684e-21)
(1.0222723 -0.01585968 -1.3627508e-23)
(1.024063 -0.013698218 3.0368234e-21)
(1.025393 -0.011186209 1.7934733e-22)
(1.0264057 -0.0087023354 -1.023457e-21)
(1.0270724 -0.0059347157 0)
(1.027692 -0.0037295313 1.9722242e-21)
(1.0281569 -0.00083831184 2.6650922e-23)
(1.0047611 -0.0058230729 4.4954782e-22)
(1.0038302 -0.0067364791 -5.1711007e-22)
(1.0035945 -0.0074721632 7.5402004e-22)
(1.0032616 -0.0085823337 3.3880714e-22)
(1.0032026 -0.0096543886 -1.1830576e-21)
(1.0032328 -0.011007646 0)
(1.0034901 -0.012357199 5.0105217e-23)
(1.0039585 -0.013927952 4.4936642e-22)
(1.004721 -0.015473649 1.5002143e-21)
(1.0058429 -0.017114225 2.5122786e-21)
(1.0073489 -0.018582531 -9.0647102e-22)
(1.0093025 -0.019888989 -1.2832463e-21)
(1.011603 -0.020748965 1.6367774e-21)
(1.0142284 -0.021131824 -1.2716094e-21)
(1.0169388 -0.020844028 2.3950768e-21)
(1.0196411 -0.019922634 2.8733525e-21)
(1.0220693 -0.018362722 -1.5930836e-21)
(1.0241635 -0.016286686 1.1956423e-21)
(1.0257837 -0.013872699 -3.9595218e-21)
(1.026958 -0.011185588 1.3034971e-21)
(1.0277622 -0.0085945351 2.2926153e-21)
(1.0282437 -0.0057924978 -2.0329288e-21)
(1.0287087 -0.0036085003 1.2813954e-21)
(1.029041 -0.0007851185 2.2985862e-23)
(1.0047548 -0.0056647603 -1.0910004e-22)
(1.0037378 -0.0065878294 -5.4855203e-22)
(1.0034689 -0.0073343392 -3.7095655e-22)
(1.0030721 -0.0084570676 -2.5273633e-21)
(1.0029588 -0.0095451777 6.6181599e-22)
(1.0029067 -0.01092034 -1.5799453e-21)
(1.0030732 -0.012304195 6.072326e-23)
(1.0034184 -0.013931498 -2.073093e-21)
(1.0040441 -0.015572163 1.9620801e-22)
(1.0050107 -0.017358634 8.8799224e-22)
(1.0063739 -0.019040786 -2.6672159e-22)
(1.0082107 -0.020632871 2.5473786e-21)
(1.0104648 -0.021841687 -6.7961883e-22)
(1.0131283 -0.022614215 -1.941058e-22)
(1.0159841 -0.022715122 5.866734e-22)
(1.0189272 -0.022147953 4.3087815e-22)
(1.0216684 -0.02085491 -3.1906732e-22)
(1.0241145 -0.018966415 1.9194677e-21)
(1.0260569 -0.016582026 0)
(1.02753 -0.013934691 3.2608798e-22)
(1.028471 -0.011091237 9.9738842e-23)
(1.0290706 -0.008416731 -1.9382859e-22)
(1.0293476 -0.0056049467 4.2935833e-23)
(1.0296546 -0.0034615482 -1.8449485e-21)
(1.0298524 -0.00072613288 -8.5044501e-22)
(1.0047486 -0.0055055334 -3.1856874e-22)
(1.0036452 -0.0064355854 3.9019692e-22)
(1.0033401 -0.0071913717 3.2294727e-22)
(1.0028812 -0.0083228439 3.0558225e-22)
(1.0027177 -0.0094222965 2.5489867e-21)
(1.0025894 -0.010811453 3.5897576e-22)
(1.002671 -0.012217977 7.7525711e-23)
(1.0028976 -0.013884523 1.2913364e-22)
(1.0033846 -0.01559697 1.821622e-21)
(1.0041875 -0.017502872 2.0586335e-22)
(1.005387 -0.019371344 1.1418357e-21)
(1.0070735 -0.021226069 -3.4349459e-22)
(1.0092368 -0.022773628 -1.4128654e-21)
(1.0118891 -0.023943138 1.3051586e-22)
(1.0148466 -0.024461825 -7.6174181e-22)
(1.0179998 -0.024294041 -8.9029839e-22)
(1.0210502 -0.023333441 -1.9836639e-22)
(1.0238629 -0.021675317 -2.7668727e-21)
(1.0261925 -0.019419941 -4.1838677e-21)
(1.0280033 -0.016744233 -1.1130753e-23)
(1.0292324 -0.013878431 4.2242314e-21)
(1.0299497 -0.010903278 9.7046927e-22)
(1.0303113 -0.0081717698 -2.0196574e-21)
(1.0303805 -0.0053750059 1.8243245e-21)
(1.0305265 -0.0032910802 -1.2993598e-21)
(1.0305899 -0.0006620727 7.1766868e-23)
(1.0047404 -0.0053471248 9.6586416e-24)
(1.0035588 -0.0062817106 2.8807758e-22)
(1.0032131 -0.0070452567 -1.0201099e-21)
(1.0026912 -0.0081824722 1.4493172e-21)
(1.0024792 -0.0092894765 -1.7888622e-21)
(1.0022802 -0.010686313 1.6806854e-21)
(1.0022837 -0.012105492 1.5586824e-21)
(1.0023981 -0.013796 1.2552138e-21)
(1.0027492 -0.015558885 -2.7755294e-21)
(1.0033824 -0.017558469 -1.2544787e-21)
(1.0044022 -0.019582319 -1.287017e-22)
(1.0059092 -0.021672039 -3.2066842e-21)
(1.0079387 -0.023541002 2.9563866e-21)
(1.0105284 -0.02510581 -1.5196585e-21)
(1.0135357 -0.026063118 3.1742307e-22)
(1.0168575 -0.026336446 5.5851184e-22)
(1.0201956 -0.025765826 -1.8486953e-21)
(1.0233831 -0.024410325 2.110949e-21)
(1.0261287 -0.022330197 -1.9279782e-21)
(1.028355 -0.019720936 3.0027629e-22)
(1.0299217 -0.01676207 0)
(1.0309192 -0.0137014 1.7461781e-21)
(1.0313602 -0.010625366 1.8517059e-22)
(1.0314825 -0.0078631875 0)
(1.0313374 -0.0051064483 -2.2214414e-21)
(1.0313226 -0.0030996924 -8.8103309e-23)
(1.0312533 -0.00059367359 6.6045703e-22)
(1.0047058 -0.0051909032 1.0029733e-22)
(1.0034795 -0.0061278356 5.9488106e-23)
(1.0030949 -0.0068979068 -8.9846318e-22)
(1.0025071 -0.008038084 4.4534925e-23)
(1.0022451 -0.0091499555 -5.8132397e-22)
(1.001979 -0.010549084 -1.9228578e-21)
(1.0019107 -0.011973061 -1.0943262e-22)
(1.0019208 -0.01367405 -1.5386953e-21)
(1.0021416 -0.015468111 4.7118947e-22)
(1.0026024 -0.017534952 1.8744508e-21)
(1.003433 -0.019683682 -2.7640195e-21)
(1.004736 -0.021977657 -1.4621512e-21)
(1.0065916 -0.024143449 -1.8884436e-21)
(1.0090666 -0.026093288 3.0802311e-22)
(1.0120669 -0.027500396 -1.8390666e-21)
(1.0155052 -0.028249389 5.3144949e-22)
(1.0190964 -0.028124463 -2.5636411e-21)
(1.0226478 -0.027139466 5.8740028e-21)
(1.0258332 -0.025311031 1.9166264e-21)
(1.0285165 -0.022815498 2.1538048e-23)
(1.0305144 -0.019849891 2.4644626e-21)
(1.0318456 -0.016630787 -2.0949177e-22)
(1.032538 -0.013408691 -1.5454073e-22)
(1.0327063 -0.010260468 0)
(1.0325747 -0.0074962471 0)
(1.0322156 -0.004803362 1.7694837e-22)
(1.0320423 -0.0028901366 -1.3688978e-21)
(1.0318435 -0.00052175622 -1.1080745e-21)
(1.0045787 -0.0050379203 0)
(1.0033889 -0.0059767986 2.0831531e-22)
(1.0029892 -0.0067507301 8.9888544e-22)
(1.0023367 -0.0078921109 8.6293106e-22)
(1.0020205 -0.0090061769 1.8044287e-21)
(1.0016873 -0.010403787 4.2263779e-22)
(1.0015518 -0.011825902 -1.2086522e-21)
(1.0014654 -0.013526406 -2.6256758e-21)
(1.0015634 -0.015333977 2.5504555e-21)
(1.0018556 -0.017443664 -3.0634492e-22)
(1.0024896 -0.019687726 2.1833544e-22)
(1.0035697 -0.022151418 2.713773e-22)
(1.0052162 -0.024583814 -5.3556084e-21)
(1.0075264 -0.026900113 4.9838335e-22)
(1.0104597 -0.028758716 5.9005966e-22)
(1.013955 -0.030008475 -1.8998339e-21)
(1.0177516 -0.030379744 6.9531149e-22)
(1.0216417 -0.029833216 -1.883406e-21)
(1.0252707 -0.028332744 4.7666914e-21)
(1.0284501 -0.02602852 -1.4984436e-21)
(1.0309356 -0.023100987 2.066472e-21)
(1.0327043 -0.019800232 1.3683905e-21)
(1.0337086 -0.016354425 -8.1332001e-23)
(1.0341034 -0.012999768 -4.4914602e-21)
(1.0339697 -0.0098155849 -1.2025523e-21)
(1.0335844 -0.0070764268 2.0388668e-22)
(1.0330132 -0.0044702582 1.8019675e-21)
(1.032686 -0.0026652251 -7.644135e-22)
(1.0323619 -0.00044737886 1.3128046e-21)
(1.0042418 -0.0048938617 -3.084212e-22)
(1.0032285 -0.0058304291 0)
(1.0028816 -0.0066066783 0)
(1.002185 -0.0077459142 0)
(1.0018136 -0.0088607553 -4.6096794e-22)
(1.0014103 -0.010253125 1.6643676e-21)
(1.0012084 -0.011668955 9.4241733e-23)
(1.0010317 -0.013359353 2.4302088e-22)
(1.0010152 -0.015165658 3.9471654e-21)
(1.0011457 -0.017295543 -4.5290788e-21)
(1.0015791 -0.019605757 1.4239852e-21)
(1.0024249 -0.022203923 -6.2076116e-22)
(1.0038325 -0.024868363 2.0951159e-21)
(1.0059313 -0.027525193 -5.8621861e-22)
(1.0087373 -0.029826744 4.0103493e-21)
(1.0122243 -0.031592599 8.5434372e-22)
(1.0161678 -0.032502056 -2.1437574e-21)
(1.0203565 -0.032459322 -2.0953912e-21)
(1.0244179 -0.031365648 1.1924072e-21)
(1.0281129 -0.029334143 -9.6687956e-22)
(1.0311419 -0.026519749 -2.4314067e-21)
(1.033416 -0.023177694 1.7574876e-22)
(1.034849 -0.019571478 3.3254652e-21)
(1.0355314 -0.015929079 -2.1115948e-21)
(1.0355802 -0.01248606 -9.7620065e-23)
(1.0351484 -0.0092968295 -7.4818172e-22)
(1.0345077 -0.0066101565 1.8059345e-21)
(1.0337296 -0.0041117747 3.9481774e-22)
(1.033255 -0.0024277828 2.6150458e-21)
(1.032811 -0.00037257985 6.0647129e-22)
(1.0034624 -0.0047435999 1.0238252e-22)
(1.0028816 -0.0056955508 1.9780949e-22)
(1.0027182 -0.0064659085 0)
(1.0020419 -0.0076028186 0)
(1.001631 -0.0087149387 0)
(1.0011562 -0.01010048 0)
(1.0008854 -0.011505579 0)
(1.0006216 -0.013179158 -6.5503743e-23)
(1.0004974 -0.014970946 -1.3497886e-21)
(1.0004743 -0.017101114 5.0629505e-21)
(1.0007098 -0.019448675 6.3468382e-23)
(1.0013138 -0.022147049 1.6757988e-21)
(1.0024587 -0.02500602 -5.0061373e-21)
(1.0043044 -0.027970748 3.5625369e-21)
(1.0069246 -0.030697523 -3.6435718e-22)
(1.0103351 -0.032983915 2.0422521e-21)
(1.0143583 -0.03446432 -2.805963e-21)
(1.0187923 -0.03498394 1.0616582e-21)
(1.0232584 -0.034376595 2.1527152e-21)
(1.0274739 -0.032704179 1.2256894e-21)
(1.0310834 -0.030085834 3.2296922e-22)
(1.0339344 -0.026771835 1.7695827e-21)
(1.0358759 -0.023037601 4.4864075e-23)
(1.0369685 -0.019157872 -1.3124636e-21)
(1.0372631 -0.015369764 7.4293067e-22)
(1.0369739 -0.011870921 3.7213648e-21)
(1.0362335 -0.0087129173 9.4360043e-22)
(1.0353428 -0.006103964 -7.9146193e-22)
(1.0343655 -0.0037326205 4.4300655e-23)
(1.0337509 -0.0021805688 -1.5820814e-21)
(1.0331946 -0.00029986219 -3.408915e-22)
(1.001732 -0.0045801249 3.8663009e-22)
(1.0021204 -0.0055564068 1.9139572e-22)
(1.0023853 -0.0063391893 7.1719327e-22)
(1.001859 -0.0074615343 1.2981683e-21)
(1.0014655 -0.0085726393 0)
(1.0009324 -0.0099469855 0)
(1.0005912 -0.011340126 1.3251187e-22)
(1.00024 -0.012990144 2.2787225e-21)
(1.0000124 -0.014757745 -3.4977108e-21)
(0.99984285 -0.016869494 4.4569963e-21)
(0.99988662 -0.019229316 -2.2039641e-22)
(1.0002435 -0.021994421 -3.92087e-21)
(1.0011099 -0.025007471 1.1385869e-21)
(1.0026676 -0.028242684 -5.3156415e-22)
(1.0050474 -0.031368313 -3.2830404e-21)
(1.0083128 -0.034169178 1.5666327e-22)
(1.0123422 -0.036242041 5.1819467e-21)
(1.0169567 -0.037374762 -2.7981362e-22)
(1.0217843 -0.037329073 -2.9489047e-21)
(1.0265081 -0.036106398 7.6911895e-21)
(1.030722 -0.033774397 -6.0579384e-22)
(1.034204 -0.030569051 -2.151433e-21)
(1.0367403 -0.026766793 4.789482e-21)
(1.0383303 -0.022673414 2.2297303e-21)
(1.0390012 -0.018574097 -5.0690651e-22)
(1.0389156 -0.014675658 2.1387657e-21)
(1.0382638 -0.0111684 1.0877373e-21)
(1.0372228 -0.0080719361 3.9803102e-22)
(1.036089 -0.0055646487 -8.8393423e-22)
(1.0349222 -0.0033374048 -1.457596e-22)
(1.0341762 -0.0019262963 -4.5394392e-22)
(1.0335144 -0.00023086439 -2.2617017e-23)
(0.9984736 -0.0044142011 -1.6408053e-22)
(1.0004518 -0.0054142628 -2.6958914e-22)
(1.0016528 -0.0062014492 -8.4339118e-22)
(1.0015253 -0.0073373353 -1.2010796e-21)
(1.0012725 -0.0084308489 0)
(1.0007339 -0.0097973019 0)
(1.0003328 -0.011173619 0)
(0.99989498 -0.012798084 -1.4918428e-22)
(0.99956566 -0.014531614 4.3895862e-21)
(0.9992549 -0.0166106 4.1665072e-21)
(0.99911276 -0.018958274 -3.1021645e-22)
(0.9992218 -0.021757229 -6.98617e-22)
(0.99980019 -0.02488507 8.6130156e-21)
(1.0010409 -0.028349918 -4.4426917e-21)
(1.003131 -0.031840754 3.4041062e-22)
(1.0061845 -0.035139489 0)
(1.0101433 -0.037814939 1.6166084e-21)
(1.014864 -0.03960101 -1.2699154e-21)
(1.0199959 -0.040186882 1.4654549e-21)
(1.0251992 -0.039503434 4.1216432e-22)
(1.0300242 -0.037556199 -3.6375133e-21)
(1.0341802 -0.034549329 5.4032727e-23)
(1.0373823 -0.030753302 -3.3809816e-21)
(1.039568 -0.026494515 -4.0697226e-21)
(1.0407096 -0.022096069 1.3130421e-21)
(1.0409588 -0.017817805 3.737951e-22)
(1.0404536 -0.013868124 -2.4041052e-22)
(1.0394512 -0.010385641 3.2557353e-23)
(1.038113 -0.0073831662 -1.0775034e-21)
(1.0367467 -0.0049988663 -8.7055563e-22)
(1.0354018 -0.0029305211 2.283656e-22)
(1.0345334 -0.0016675204 7.6115371e-22)
(1.0337701 -0.00017255119 -3.1640171e-23)
(0.9929005 -0.0042393527 -1.6243399e-22)
(0.99726537 -0.0052855831 -1.1134406e-22)
(1.0000383 -0.0060526693 -1.3528783e-21)
(1.0008068 -0.0071956496 -2.4221199e-21)
(1.0009442 -0.0083090471 5.2355193e-22)
(1.0005193 -0.0096455202 2.5575501e-22)
(1.0001049 -0.011011492 3.7143669e-21)
(0.99959187 -0.012603492 -2.1382556e-21)
(0.99916479 -0.014300043 -7.3543223e-22)
(0.99871664 -0.016331486 -8.6138622e-21)
(0.99839333 -0.018647223 3.6787744e-21)
(0.99825716 -0.021448627 6.3229197e-21)
(0.99853852 -0.024653387 9.0855814e-23)
(0.99944084 -0.02830374 -4.3452798e-21)
(1.0011994 -0.032120071 -4.3524709e-21)
(1.0039781 -0.035890849 -4.6639624e-22)
(1.0077887 -0.039167008 7.7879019e-22)
(1.0125348 -0.041635467 2.7841602e-21)
(1.017901 -0.042913995 -5.435886e-22)
(1.023539 -0.042856953 -4.904312e-22)
(1.0289652 -0.041395162 8.7520808e-22)
(1.0338223 -0.038688244 -6.1395299e-21)
(1.0377525 -0.034983288 1.1847601e-22)
(1.0406192 -0.030623718 1.2764854e-21)
(1.0423397 -0.025959992 -5.4061273e-21)
(1.0430198 -0.021303391 -1.7664745e-21)
(1.042795 -0.01691396 -1.5365196e-21)
(1.0418842 -0.01294991 -6.1705551e-22)
(1.040526 -0.0095368965 -9.044629e-22)
(1.038904 -0.0066553315 2.7459375e-23)
(1.0373176 -0.0044131131 -2.7093882e-22)
(1.0358073 -0.0025160378 -8.6062902e-23)
(1.0348256 -0.0014061697 -1.2778344e-22)
(1.0339724 -0.00011765133 -2.6269656e-22)
(0.9842152 -0.0040366516 2.9271194e-22)
(0.99169317 -0.0051619207 1.4544861e-22)
(0.99692442 -0.005912504 1.4327889e-21)
(0.99923703 -0.0070356728 9.7342037e-22)
(1.000239 -0.0081606205 -1.8608855e-21)
(1.0001822 -0.0095169505 -3.1448192e-21)
(0.99986742 -0.010844347 -4.9643601e-22)
(0.9993187 -0.012414229 0)
(0.99881275 -0.014062902 -2.7587932e-21)
(0.99823595 -0.016041698 -1.0756015e-20)
(0.99773606 -0.018304847 -1.2965494e-21)
(0.99735741 -0.021082123 -2.4229242e-21)
(0.99733417 -0.024325387 0)
(0.99788304 -0.028116987 7.1979502e-22)
(0.99927413 -0.032214825 8.2663615e-21)
(1.001721 -0.036423625 5.7588337e-22)
(1.0053074 -0.040287508 -6.9822105e-21)
(1.0099939 -0.043454722 0)
(1.0155146 -0.045476861 9.4792044e-22)
(1.0215274 -0.046127222 1.381441e-21)
(1.0275276 -0.045252994 -5.6262811e-21)
(1.0330971 -0.042953054 6.2019903e-22)
(1.037804 -0.039438836 0)
(1.0414315 -0.03505413 -5.1825595e-21)
(1.0438283 -0.030177001 1.694158e-21)
(1.0450537 -0.025160601 -1.0069772e-22)
(1.0452068 -0.020320242 -2.228489e-21)
(1.0445171 -0.015864156 1.7060423e-21)
(1.0431854 -0.011944788 8.7643707e-23)
(1.041489 -0.008631634 -2.0450853e-21)
(1.0395961 -0.0058973877 2.1024029e-21)
(1.0378043 -0.003813509 8.8693269e-22)
(1.0361415 -0.0020976366 0)
(1.0350559 -0.0011438778 2.9710481e-24)
(1.0341245 -6.8819432e-05 -1.666463e-22)
(0.97199776 -0.003778065 2.1418692e-22)
(0.98277494 -0.0050318371 6.7919266e-23)
(0.99141278 -0.0057751666 1.2117076e-21)
(0.9961821 -0.0068863523 4.286001e-22)
(0.99869159 -0.0079864533 -2.3624411e-22)
(0.99946815 -0.0093500445 -7.9180376e-22)
(0.99951399 -0.010704559 -3.4219412e-21)
(0.99903986 -0.012215423 -2.4118428e-22)
(0.99848815 -0.013834973 0)
(0.99781428 -0.015742917 3.5648996e-21)
(0.99714948 -0.017943508 -3.5859036e-21)
(0.99653268 -0.020667719 -5.0910601e-23)
(0.99620021 -0.023915358 -2.9580375e-21)
(0.99638109 -0.027803569 4.6029069e-21)
(0.9973738 -0.03213701 3.6933951e-21)
(0.99943874 -0.036742428 6.2202665e-21)
(1.0027292 -0.041170381 -1.5508953e-20)
(1.0072701 -0.045040496 -5.2388195e-21)
(1.0128574 -0.047844803 5.3937036e-21)
(1.0191719 -0.049275637 -7.8477449e-21)
(1.0257022 -0.049088358 6.1767121e-21)
(1.0319785 -0.047307763 -3.8458583e-21)
(1.0374966 -0.044092496 0)
(1.0419536 -0.039775497 -1.4181384e-21)
(1.0451217 -0.034747604 3.9207865e-22)
(1.0469982 -0.02940871 2.5327015e-21)
(1.0476469 -0.024119526 9.2239674e-22)
(1.0472726 -0.01915017 4.6725872e-22)
(1.0460943 -0.01469855 1.1601841e-21)
(1.044363 -0.010858107 0)
(1.0423375 -0.0076830725 1.7883104e-21)
(1.0401913 -0.0051176496 2.3030361e-21)
(1.0382102 -0.0032057687 -2.997474e-22)
(1.0364083 -0.0016787064 -2.9543771e-22)
(1.035227 -0.00088206859 -4.1822838e-23)
(1.0342375 -1.8354643e-05 7.5943239e-22)
(0.9568046 -0.0034022134 -2.6695703e-22)
(0.96986909 -0.0048474404 4.3119996e-23)
(0.98245974 -0.005626885 -4.4350194e-22)
(0.99068434 -0.0067343117 -5.487117e-23)
(0.99565704 -0.0078175106 1.9767078e-21)
(0.9979134 -0.0091438358 2.4734893e-21)
(0.9987728 -0.010512779 1.2254247e-22)
(0.99865066 -0.012047954 -2.4553014e-21)
(0.99815592 -0.013592967 -2.3804495e-22)
(0.99743449 -0.01545036 -3.1244945e-21)
(0.99663238 -0.017565737 1.3144325e-22)
(0.99579267 -0.020221033 2.369943e-21)
(0.99515175 -0.023435431 6.8868349e-22)
(0.99494869 -0.027380589 3.2580783e-21)
(0.99551702 -0.031899165 -1.9099345e-20)
(0.99715523 -0.036855663 -4.6837102e-22)
(1.0000829 -0.041814677 5.6700176e-21)
(1.0043936 -0.04637928 6.9398497e-21)
(1.0099552 -0.049991748 -6.7638309e-21)
(1.0164872 -0.052265201 -1.9970039e-21)
(1.0234879 -0.052859527 3.4192226e-21)
(1.0304479 -0.051711759 -6.7295989e-21)
(1.0367957 -0.048912799 4.9147182e-21)
(1.0421397 -0.044767147 0)
(1.0461662 -0.039669971 4.5345049e-21)
(1.0488004 -0.034055461 5.5947877e-21)
(1.0500556 -0.028338744 -1.9621813e-21)
(1.050114 -0.022842483 4.1644288e-21)
(1.0491795 -0.01782616 1.2277927e-22)
(1.0475325 -0.013421932 -1.2816543e-21)
(1.0454055 -0.0097132897 -1.4774988e-21)
(1.0430736 -0.0067011568 -1.7135001e-22)
(1.0406927 -0.0043241226 -1.3334087e-22)
(1.0385392 -0.0025950762 1.1840034e-24)
(1.0366126 -0.0012619671 -3.9121412e-22)
(1.0353434 -0.00062167576 -5.718103e-23)
(1.0343069 4.5214572e-05 3.7257953e-22)
(0.94061827 -0.0028407708 4.0427062e-23)
(0.95333138 -0.004532779 -3.1214548e-23)
(0.96927707 -0.0054215579 -6.3781781e-22)
(0.98158401 -0.0065616647 -3.9294218e-22)
(0.99013962 -0.0076382621 8.8200524e-23)
(0.99485912 -0.0089384514 -1.4484578e-22)
(0.99717178 -0.01026778 -1.2692689e-21)
(0.99784781 -0.011811265 3.5119439e-22)
(0.99770742 -0.013385236 0)
(0.99702319 -0.015138667 6.6883411e-22)
(0.99616089 -0.017189287 0)
(0.99513102 -0.0197443 0)
(0.99420047 -0.02290458 2.9396547e-21)
(0.99360543 -0.026859759 -5.2535191e-22)
(0.99372589 -0.031517509 -3.0564453e-21)
(0.99489428 -0.036774038 -6.3626299e-21)
(0.9973968 -0.04222413 1.2087659e-20)
(1.0013956 -0.047463167 5.0094989e-21)
(1.0068371 -0.051895971 5.9474218e-21)
(1.013494 -0.055062557 2.4462926e-21)
(1.0208912 -0.056524835 -6.4003883e-21)
(1.0284947 -0.056122524 2.8576382e-21)
(1.0356741 -0.053862275 1.2131436e-21)
(1.0419486 -0.05000398 1.3016614e-22)
(1.0469121 -0.044931268 2.2327298e-22)
(1.0504061 -0.039107567 1.0942977e-21)
(1.0523825 -0.032992424 -9.5822508e-22)
(1.0529857 -0.026974513 -2.603932e-21)
(1.0524094 -0.0213644 -2.5316669e-22)
(1.0509295 -0.016356263 -3.7495943e-21)
(1.048814 -0.012065263 -1.2056554e-21)
(1.046319 -0.0085167543 -4.7552172e-22)
(1.043699 -0.0056976098 -2.0307651e-21)
(1.0411041 -0.0035239111 7.388331e-23)
(1.0387955 -0.0019858133 -1.6727211e-22)
(1.0367592 -0.00084935071 6.4167794e-23)
(1.0354112 -0.00036540768 -3.0760641e-22)
(1.0343402 0.00010872569 0)
(0.92677269 -0.0020328702 2.7226635e-22)
(0.93516336 -0.0039864483 3.1301305e-23)
(0.95205102 -0.0050867611 -1.6496533e-22)
(0.96790888 -0.0063273239 -2.6793816e-22)
(0.980904 -0.0074336441 -1.113631e-21)
(0.98927885 -0.0087120461 -9.8232279e-22)
(0.99404365 -0.01001642 3.2680588e-22)