/*--------------------------------*- C++ -*----------------------------------*\
| =========                 |                                                 |
| \\      /  F ield         | OpenFOAM: The Open Source CFD Toolbox           |
|  \\    /   O peration     | Version:  5.0                                   |
|   \\  /    A nd           | Web:      www.OpenFOAM.org                      |
|    \\/     M anipulation  |                                                 |
\*---------------------------------------------------------------------------*/
FoamFile
{
    version     2.0;
    format      ascii;
    class       volSymmTensorField;
    location    "80";
    object      UPrime2Mean;
}
// * * * * * * * * * * * * * * * * * * * * * * * * * * * * * * * * * * * * * //

dimensions      [0 2 -2 0 0 0 0];

internalField   nonuniform List<symmTensor> 
9200
(
(1.0584832e-06 -2.7350763e-07 -1.1055812e-27 9.3939045e-08 3.678932e-28 1.6393441e-48)
(1.2522356e-06 -9.9692039e-07 -2.9866504e-25 9.938932e-07 2.9506839e-25 9.0988791e-44)
(3.5852163e-06 -5.6983333e-07 0 9.890369e-08 0 0)
(1.6099754e-06 -1.7978772e-06 1.7863033e-25 2.3117368e-06 -2.2716162e-25 2.3192013e-44)
(3.9412628e-06 -1.9729312e-06 -5.2457038e-25 1.0710735e-06 2.8121644e-25 7.7460273e-44)
(5.2867189e-06 -7.1611668e-07 0 1.0331228e-07 0 0)
(2.1237609e-06 -2.9229026e-06 2.1863367e-26 4.3909989e-06 -3.2440856e-26 2.4852244e-46)
(4.5294898e-06 -3.248041e-06 -5.2872151e-26 2.4784998e-06 3.9648631e-26 6.9479084e-46)
(5.7123595e-06 -2.473988e-06 0 1.1371128e-06 0 0)
(8.6938213e-06 -9.6054437e-07 0 1.1101454e-07 0 0)
(2.907127e-06 -4.1792804e-06 -4.5004732e-25 6.3697612e-06 6.7445482e-25 7.3840927e-44)
(5.2809913e-06 -4.8892737e-06 -3.2078069e-25 4.7451918e-06 3.0700393e-25 2.0566926e-44)
(6.3808898e-06 -3.993289e-06 -3.7846327e-25 2.6220491e-06 2.4531752e-25 2.3930133e-44)
(9.219883e-06 -3.3319045e-06 -3.1317084e-26 1.2564042e-06 1.1683758e-26 1.1313947e-46)
(1.2106132e-05 -1.174551e-06 6.2380685e-28 1.1827817e-07 -6.2228734e-29 3.8512993e-50)
(3.9399152e-06 -5.7386178e-06 -4.8727599e-25 8.7570095e-06 7.2949285e-25 6.2691028e-44)
(6.2763258e-06 -6.4547113e-06 1.0533342e-25 6.901529e-06 -1.1095142e-25 1.9147969e-45)
(7.2145327e-06 -5.9175919e-06 -1.2599431e-24 5.0437065e-06 1.0602774e-24 2.3142052e-43)
(9.9949789e-06 -5.2748149e-06 -5.3340005e-25 2.8882472e-06 2.8852739e-25 2.9792345e-44)
(1.2714775e-05 -4.1097207e-06 6.5025354e-26 1.3748353e-06 -2.1508613e-26 3.8629112e-46)
(1.6764251e-05 -1.4366993e-06 2.1409081e-24 1.2716092e-07 -1.8716294e-25 2.8836322e-43)
(5.2584264e-06 -7.3872478e-06 -4.1598789e-25 1.0869536e-05 5.9593288e-25 3.3634443e-44)
(7.4968956e-06 -8.3104371e-06 -8.7939371e-25 9.5423234e-06 9.9107255e-25 1.0738469e-43)
(8.2822283e-06 -7.6766112e-06 8.3838821e-25 7.3569344e-06 -7.9161802e-25 8.8546105e-44)
(1.0942327e-05 -7.7022968e-06 4.0962343e-26 5.5942036e-06 -2.9339801e-26 1.5880979e-46)
(1.3557784e-05 -6.4389033e-06 -8.3128642e-25 3.154866e-06 4.0281475e-25 5.3510819e-44)
(1.7490418e-05 -5.0947471e-06 -9.2633672e-25 1.5270744e-06 2.7522941e-25 5.129554e-44)
(2.1768061e-05 -1.6914951e-06 -1.364257e-25 1.3542298e-07 1.0733021e-26 8.9189658e-46)
(6.8239857e-06 -9.1784617e-06 -5.2731194e-26 1.2998739e-05 6.8269215e-26 6.3841372e-46)
(8.8985839e-06 -1.0107744e-05 -5.2572268e-25 1.1913514e-05 6.0442793e-25 3.1784901e-44)
(9.5538846e-06 -9.7215782e-06 -8.68153e-25 1.0206855e-05 8.9567896e-25 8.126457e-44)
(1.2093086e-05 -9.8189833e-06 1.6823303e-25 8.20822e-06 -1.397685e-25 2.6461637e-45)
(1.4581646e-05 -9.3334867e-06 1.8241368e-24 6.1417599e-06 -1.1871984e-24 2.3677122e-43)
(1.8428836e-05 -7.9265789e-06 9.2318163e-25 3.503182e-06 -4.0349289e-25 4.7894593e-44)
(2.2610735e-05 -6.0831617e-06 1.7419016e-24 1.6784369e-06 -4.7705394e-25 1.4167242e-43)
(2.7932461e-05 -1.9776795e-06 -3.115225e-24 1.4406558e-07 2.2411579e-25 3.6585281e-43)
(8.6160785e-06 -1.096312e-05 5.4452593e-25 1.4818893e-05 -7.1047466e-25 3.512338e-44)
(1.0454821e-05 -1.1989898e-05 -8.5403771e-25 1.4338952e-05 9.966855e-25 7.2119248e-44)
(1.0972997e-05 -1.1655982e-05 1.5459048e-25 1.2800513e-05 -1.6849277e-25 2.4139911e-45)
(1.3425553e-05 -1.2227011e-05 -6.2932918e-25 1.1458577e-05 5.8126271e-25 3.0510727e-44)
(1.5776409e-05 -1.1795983e-05 4.4894751e-25 9.0598111e-06 -3.4399024e-25 1.4558904e-44)
(1.9578655e-05 -1.1448221e-05 3.6937935e-24 6.8640389e-06 -2.1926619e-24 7.2245562e-43)
(2.3628896e-05 -9.4211795e-06 -1.6638837e-24 3.8508942e-06 6.7614513e-25 1.2893652e-43)
(2.8952729e-05 -7.2344566e-06 3.5404634e-24 1.8493447e-06 -8.9904931e-25 4.5644741e-43)
(3.4488995e-05 -2.251605e-06 7.8547531e-24 1.5120539e-07 -5.2070417e-25 1.8847785e-42)
(1.0581345e-05 -1.2720812e-05 -3.3016942e-25 1.6422533e-05 4.0799381e-25 1.0754858e-44)
(1.2103929e-05 -1.3772279e-05 6.9447239e-25 1.6471083e-05 -8.1077296e-25 4.2046406e-44)
(1.2503285e-05 -1.3648112e-05 -1.848084e-26 1.5471479e-05 2.1293862e-26 3.8908214e-47)
(1.4842878e-05 -1.4438055e-05 -6.6115518e-25 1.4485889e-05 6.6076457e-25 3.2798938e-44)
(1.7132271e-05 -1.4553988e-05 1.7973931e-25 1.2706236e-05 -1.5377212e-25 1.9186602e-45)
(2.0859598e-05 -1.4407516e-05 8.9172564e-25 1.0206595e-05 -6.3204885e-25 4.3885873e-44)
(2.4893776e-05 -1.3577885e-05 -1.5511341e-24 7.5836397e-06 8.5795659e-25 9.9862937e-44)
(3.0114914e-05 -1.1182869e-05 -3.4402674e-24 4.2501647e-06 1.2956297e-24 4.0873413e-43)
(3.5698526e-05 -8.3752038e-06 -2.0273257e-24 2.0075142e-06 4.8210056e-25 1.1925322e-43)
(4.2183474e-05 -2.5413844e-06 -5.961953e-25 1.5754554e-07 3.626877e-26 8.7293166e-45)
(1.2669533e-05 -1.4366569e-05 1.776929e-25 1.7712517e-05 -2.0925161e-25 2.6021839e-45)
(1.380014e-05 -1.5467401e-05 3.1607486e-25 1.8405474e-05 -3.6862451e-25 8.1926123e-45)
(1.4085053e-05 -1.5510916e-05 -8.5505322e-25 1.7862618e-05 9.6188878e-25 5.3667633e-44)
(1.6309522e-05 -1.6666101e-05 7.2887588e-25 1.7642354e-05 -7.5296104e-25 3.3093052e-44)
(1.8524089e-05 -1.7044813e-05 -2.197832e-24 1.6163496e-05 2.065751e-24 2.753625e-43)
(2.2283897e-05 -1.7685534e-05 4.5103726e-24 1.4416997e-05 -3.6393203e-24 9.4820285e-43)
(2.6241843e-05 -1.7049113e-05 3.3795085e-25 1.1354023e-05 -2.2595079e-25 5.0973449e-45)
(3.1595449e-05 -1.6128979e-05 -6.2734611e-24 8.4237254e-06 3.2521415e-24 1.3008855e-42)
(3.7014288e-05 -1.2933548e-05 3.6096752e-24 4.6217133e-06 -1.2800597e-24 3.6952144e-43)
(4.3672038e-05 -9.6323829e-06 -8.1696956e-24 2.1687452e-06 1.8267761e-24 1.5977567e-42)
(5.0191431e-05 -2.8051044e-06 1.6414606e-24 1.6149611e-07 -9.3352839e-26 5.7589941e-44)
(1.4828495e-05 -1.5864417e-05 -6.1807509e-26 1.871353e-05 7.008484e-26 2.789162e-46)
(1.5485827e-05 -1.6993389e-05 -4.7452146e-25 2.0041634e-05 5.4596391e-25 1.7067272e-44)
(1.5670194e-05 -1.7263566e-05 3.9060089e-25 2.0065578e-05 -4.349571e-25 9.8424288e-45)
(1.7753566e-05 -1.8705498e-05 0 2.0546404e-05 0 0)
(1.9921012e-05 -1.9515369e-05 2.5093245e-26 1.9793834e-05 -2.6056652e-26 4.2320625e-47)
(2.3677079e-05 -2.0620472e-05 -9.7140223e-25 1.8509689e-05 8.7743644e-25 4.5809447e-44)
(2.7716088e-05 -2.0860503e-05 1.12356e-24 1.6128548e-05 -8.6051988e-25 4.7289406e-44)
(3.3111527e-05 -2.0279703e-05 3.2277819e-24 1.272772e-05 -2.0085808e-24 3.2725135e-43)
(3.8738138e-05 -1.8678569e-05 -1.2467026e-24 9.2115442e-06 6.2144698e-25 5.2062461e-44)
(4.5248991e-05 -1.4887721e-05 5.2086105e-24 5.0072866e-06 -1.7377705e-24 6.274901e-43)
(5.1986822e-05 -1.082887e-05 4.0455436e-24 2.3021269e-06 -8.5482379e-25 3.3221696e-43)
(5.9206647e-05 -3.0629051e-06 -9.4678936e-25 1.6349802e-07 4.9559366e-26 1.5852736e-44)
(1.6997868e-05 -1.7169224e-05 -1.9111405e-26 1.9423796e-05 2.0577868e-26 2.2594901e-47)
(1.7113866e-05 -1.8327731e-05 3.3747676e-25 2.1402675e-05 -3.7816495e-25 7.2266897e-45)
(1.7207783e-05 -1.8833144e-05 0 2.1981892e-05 0 0)
(1.9127822e-05 -2.05836e-05 0 2.3278438e-05 0 0)
(2.1250679e-05 -2.1750217e-05 7.9397605e-25 2.319675e-05 -8.3617953e-25 3.1234202e-44)
(2.500837e-05 -2.3485878e-05 -2.3251639e-24 2.2853315e-05 2.2624388e-24 2.3684771e-43)
(2.9095986e-05 -2.4259808e-05 3.3937048e-24 2.0862715e-05 -2.9038816e-24 4.2015969e-43)
(3.4738695e-05 -2.4821478e-05 -3.3313161e-24 1.822454e-05 2.4172522e-24 3.2860249e-43)
(4.0449343e-05 -2.3535247e-05 -2.3047845e-25 1.4033045e-05 1.3457206e-25 1.3384849e-45)
(4.7376919e-05 -2.157422e-05 1.5425296e-26 1.0047784e-05 -7.305892e-27 7.0519074e-48)
(5.3865872e-05 -1.6757143e-05 -7.796348e-24 5.3294353e-06 2.4636379e-24 1.199134e-42)
(6.1427264e-05 -1.2063907e-05 1.0024723e-23 2.418517e-06 -2.0028425e-24 1.7814977e-42)
(6.8396507e-05 -3.2782159e-06 -1.9618036e-23 1.6252937e-07 9.5723689e-25 6.0747205e-42)
(1.9125559e-05 -1.8256577e-05 2.4714832e-25 1.9871353e-05 -2.5306825e-25 3.50419e-45)
(1.8643072e-05 -1.943607e-05 -5.0410654e-26 2.2480421e-05 5.5343006e-26 1.4616081e-46)
(1.8655151e-05 -2.0201791e-05 6.3495636e-25 2.3631823e-05 -7.173585e-25 2.2836123e-44)
(2.0383966e-05 -2.2227253e-05 -8.6013411e-25 2.5722037e-05 9.7530738e-25 3.8705436e-44)
(2.2472212e-05 -2.3782998e-05 1.0332764e-24 2.6440843e-05 -1.1356889e-24 5.0794588e-44)
(2.6198267e-05 -2.6043197e-05 -6.9655225e-25 2.7017252e-05 7.2476488e-25 2.0652433e-44)
(3.0366466e-05 -2.7552631e-05 -6.5088165e-25 2.5938163e-05 6.0073621e-25 1.4243659e-44)
(3.6182829e-05 -2.8889814e-05 1.060115e-25 2.3811829e-05 -8.8250526e-26 3.5973032e-46)
(4.2262781e-05 -2.8844297e-05 -2.799852e-24 2.0237643e-05 1.9204297e-24 1.8828771e-43)
(4.945571e-05 -2.7311427e-05 -2.8170195e-24 1.5459204e-05 1.5565979e-24 1.6391311e-43)
(5.6475289e-05 -2.4374835e-05 -2.0169765e-24 1.0762811e-05 8.8313606e-25 7.50252e-44)
(6.3762396e-05 -1.8713554e-05 -6.0225091e-24 5.6174557e-06 1.7897425e-24 5.9235922e-43)
(7.1077815e-05 -1.3171849e-05 -4.5169267e-24 2.4935339e-06 8.478819e-25 3.0150697e-43)
(7.8301348e-05 -3.4614932e-06 6.0389678e-24 1.588127e-07 -2.720565e-25 5.0663919e-43)
(2.1189658e-05 -1.9116038e-05 -3.2188499e-25 2.0067807e-05 3.0587735e-25 7.3884471e-45)
(2.006208e-05 -2.0316168e-05 -1.4433157e-24 2.330237e-05 1.5553225e-24 1.1295412e-43)
(1.9976053e-05 -2.134483e-05 -4.7971825e-26 2.5017017e-05 5.7550413e-26 3.1085713e-46)
(2.1492285e-05 -2.3626098e-05 9.4531405e-26 2.7885037e-05 -1.1019906e-25 4.7625891e-46)
(2.3551203e-05 -2.5553668e-05 -9.5453971e-26 2.9412864e-05 1.1036766e-25 4.5235835e-46)
(2.7215225e-05 -2.8324606e-05 8.9327449e-25 3.1045579e-05 -9.8412534e-25 3.3212448e-44)
(3.1434579e-05 -3.0474212e-05 -5.9353533e-25 3.0898222e-05 5.8640592e-25 1.1420163e-44)
(3.7423798e-05 -3.2798054e-05 9.7102776e-25 2.986974e-05 -8.6422466e-25 2.5632139e-44)
(4.380709e-05 -3.3638111e-05 -7.739004e-25 2.6682932e-05 6.219169e-25 1.6167236e-44)
(5.1637231e-05 -3.360655e-05 1.6884897e-25 2.2494513e-05 -1.0580458e-25 7.1931994e-46)
(5.9016054e-05 -3.1015714e-05 1.2493844e-25 1.671374e-05 -6.6621888e-26 2.7333826e-46)
(6.7083171e-05 -2.7366528e-05 -4.8632679e-25 1.1428577e-05 2.1513664e-25 9.3707892e-45)
(7.3931886e-05 -2.0480945e-05 1.0010137e-23 5.8085961e-06 -2.8161705e-24 1.4409756e-42)
(8.1582035e-05 -1.4214494e-05 -5.6774447e-24 2.5331007e-06 1.0068785e-24 4.3258e-43)
(8.8227008e-05 -3.5872328e-06 5.2462719e-24 1.5206862e-07 -2.1831471e-25 3.4804374e-43)
(2.3146146e-05 -1.9743935e-05 -3.5832821e-25 2.0062142e-05 3.4109889e-25 6.2360689e-45)
(2.1321747e-05 -2.0952444e-05 7.155828e-25 2.3904579e-05 -7.5741355e-25 2.5472814e-44)
(2.1141138e-05 -2.2247527e-05 -6.5554634e-25 2.6154927e-05 7.3441459e-25 2.2405633e-44)
(2.2435376e-05 -2.4768083e-05 8.8327434e-25 2.9765893e-05 -1.0303316e-24 3.7628956e-44)
(2.4465232e-05 -2.7056336e-05 -1.0720598e-24 3.2113807e-05 1.2524143e-24 5.1060974e-44)
(2.8033597e-05 -3.026307e-05 1.9707905e-24 3.4793627e-05 -2.2145181e-24 1.4456829e-43)
(3.2275844e-05 -3.3049037e-05 -3.5451379e-24 3.5761468e-05 3.817267e-24 4.2134725e-43)
(3.835415e-05 -3.6244425e-05 2.6187473e-25 3.5910585e-05 -2.6193206e-25 2.0374467e-45)
(4.5070243e-05 -3.8246651e-05 1.084605e-24 3.3762386e-05 -9.4189567e-25 2.6838029e-44)
(5.3439698e-05 -3.937344e-05 -2.4600074e-24 2.9984842e-05 1.904927e-24 1.3807543e-43)
(6.1681257e-05 -3.8348153e-05 1.4021213e-23 2.4530744e-05 -8.8512521e-24 3.2719754e-42)
(7.0352026e-05 -3.5067462e-05 -6.5175856e-24 1.7934371e-05 3.3306486e-24 6.6356192e-43)
(7.808279e-05 -3.0116784e-05 -3.4815095e-24 1.1903127e-05 1.365095e-24 1.6398904e-43)
(8.5157325e-05 -2.217379e-05 -1.1870014e-24 5.9195947e-06 3.08536e-25 1.6825657e-44)
(9.2133624e-05 -1.5063703e-05 2.0695599e-25 2.5238229e-06 -3.9416447e-26 3.8682034e-45)
(9.8428403e-05 -3.6574277e-06 -6.3387563e-24 1.4254322e-07 2.4153716e-25 4.6026755e-43)
(2.4983581e-05 -2.0145619e-05 0 1.9876457e-05 0 0)
(2.2424526e-05 -2.1345059e-05 1.0591966e-24 2.430742e-05 -1.1016843e-24 5.4969031e-44)
(2.2140001e-05 -2.2905193e-05 8.862623e-26 2.7068408e-05 -1.013368e-25 1.0383002e-45)
(2.3204897e-05 -2.5655464e-05 0 3.1392629e-05 0 0)
(2.5203165e-05 -2.828136e-05 0 3.4531834e-05 0 0)
(2.8653924e-05 -3.1857686e-05 0 3.8237317e-05 0 0)
(3.2881657e-05 -3.5211212e-05 3.0393341e-25 4.0369488e-05 -3.548706e-25 3.3753309e-45)
(3.8958945e-05 -3.9234284e-05 -1.7820682e-24 4.1915718e-05 1.8473409e-24 8.3599286e-44)
(4.5912494e-05 -4.232321e-05 3.9247496e-24 4.0966606e-05 -3.8414713e-24 3.8591664e-43)
(5.4830212e-05 -4.493411e-05 -3.4437867e-24 3.8331323e-05 2.8762062e-24 2.2062571e-43)
(6.3870174e-05 -4.5182034e-05 9.3580893e-25 3.3046175e-05 -6.9970724e-25 1.756119e-44)
(7.3799597e-05 -4.3657e-05 -3.3476085e-24 2.6587968e-05 2.004127e-24 1.5470834e-43)
(8.2243061e-05 -3.8870561e-05 7.0154388e-25 1.8866553e-05 -3.4589227e-25 7.747397e-45)
(9.0437211e-05 -3.2828447e-05 4.3195432e-24 1.2229123e-05 -1.5914419e-24 2.1621811e-43)
(9.6483194e-05 -2.3563494e-05 7.6089757e-25 5.912803e-06 -1.8177484e-25 6.7472617e-45)
(0.00010309977 -1.5740983e-05 3.3182213e-24 2.4690973e-06 -5.1682541e-25 1.1885072e-43)
(0.00010848579 -3.6601142e-06 0 1.3059021e-07 0 0)
(2.66851e-05 -2.0330299e-05 -6.6722402e-25 1.9546886e-05 5.779327e-25 1.9670507e-44)
(2.3372014e-05 -2.1504971e-05 -1.36093e-24 2.4549545e-05 1.4043976e-24 8.6901332e-44)
(2.2965245e-05 -2.332608e-05 2.5860729e-24 2.7804968e-05 -2.8608695e-24 3.2603954e-43)
(2.3797709e-05 -2.6296535e-05 1.6437088e-24 3.280716e-05 -1.9767148e-24 1.3313273e-43)
(2.576472e-05 -2.9233063e-05 1.82898e-24 3.668245e-05 -2.2631774e-24 1.5055834e-43)
(2.9094539e-05 -3.3116428e-05 0 4.1359811e-05 0 0)
(3.3270824e-05 -3.6957142e-05 3.0432368e-24 4.4673756e-05 -3.7002355e-24 3.2226975e-43)
(3.9239603e-05 -4.1681089e-05 -1.2403621e-24 4.7686504e-05 1.4406899e-24 4.644411e-44)
(4.6317219e-05 -4.5842608e-05 -7.1393215e-24 4.8242385e-05 7.4455198e-24 1.1788943e-42)
(5.5627472e-05 -4.9882349e-05 5.7129592e-24 4.7003676e-05 -5.4520517e-24 6.8347701e-43)
(6.5534613e-05 -5.1840749e-05 2.3374856e-24 4.2688851e-05 -1.8774789e-24 8.4643557e-44)
(7.6671545e-05 -5.1838394e-05 1.2022431e-24 3.6249888e-05 -8.6668102e-25 2.6192232e-44)
(8.6687082e-05 -4.875282e-05 -9.8260754e-24 2.824915e-05 5.6447171e-24 1.1713353e-42)
(9.585383e-05 -4.2734497e-05 1.4504299e-23 1.9593299e-05 -6.5453872e-24 2.2549859e-42)
(0.00010301544 -3.5121053e-05 2.423897e-24 1.2313493e-05 -8.0422747e-25 6.5038371e-44)
(0.00010845446 -2.4702173e-05 2.4566238e-23 5.7977753e-06 -5.7105548e-24 6.1206707e-42)
(0.00011394374 -1.6174106e-05 9.4373328e-24 2.367352e-06 -1.3653233e-24 8.5964734e-43)
(0.00011835383 -3.5934182e-06 9.1877175e-24 1.1666329e-07 -2.8876326e-25 8.4156319e-43)
(2.8241614e-05 -2.0312355e-05 6.1662337e-26 1.9105621e-05 -5.3136167e-26 1.6982186e-46)
(2.4170224e-05 -2.1445031e-05 -8.8887808e-25 2.4666692e-05 9.0177372e-25 3.6929134e-44)
(2.3619974e-05 -2.3516493e-05 -2.3093863e-25 2.8399745e-05 2.5734722e-25 2.4516814e-45)
(2.421942e-05 -2.6698635e-05 1.661695e-24 3.4042601e-05 -2.0129734e-24 1.3170097e-43)
(2.6162699e-05 -2.9926558e-05 -2.553162e-25 3.8594873e-05 3.2411957e-25 2.9950881e-45)
(2.9381443e-05 -3.4059667e-05 2.7071315e-25 4.4170976e-05 -2.9564828e-25 3.3562954e-45)
(3.3474457e-05 -3.828733e-05 -3.8041135e-24 4.862518e-05 4.9766857e-24 5.6228133e-43)
(3.9241498e-05 -4.3569208e-05 -7.5252967e-24 5.3128577e-05 9.2256773e-24 1.6751376e-42)
(4.6295792e-05 -4.8694404e-05 -3.2589206e-24 5.5359818e-05 3.7206772e-24 2.6124627e-43)
(5.5808413e-05 -5.4147384e-05 2.3621625e-24 5.5910341e-05 -2.3127343e-24 1.0271743e-43)
(6.6428937e-05 -5.7855018e-05 -1.4743758e-24 5.292918e-05 1.3702208e-24 3.8960232e-44)
(7.8871349e-05 -5.9921565e-05 7.5044868e-24 4.7386548e-05 -5.8060184e-24 7.2747303e-43)
(9.0501329e-05 -5.8386096e-05 -6.0793685e-24 3.8973975e-05 4.0708742e-24 4.5718597e-43)
(0.00010172974 -5.4084231e-05 1.1633797e-25 2.9661756e-05 -9.0581545e-26 3.5846318e-45)
(0.00010989237 -4.6107142e-05 -3.8587674e-25 1.9932972e-05 1.2946022e-25 9.1961829e-45)
(0.00011658749 -3.7106861e-05 -4.2139484e-24 1.2180166e-05 1.3683243e-24 1.6414213e-43)
(0.00012033565 -2.544318e-05 8.950261e-24 5.566225e-06 -1.9373157e-24 7.4542853e-43)
(0.0001246804 -1.6355771e-05 -4.623349e-25 2.2229528e-06 6.6051896e-26 4.1961248e-45)
(0.00012784943 -3.4553409e-06 9.0697673e-24 1.0142492e-07 -2.5655927e-25 8.0183321e-43)
(2.9651795e-05 -2.0110758e-05 5.0179763e-25 1.8582876e-05 -4.2098383e-25 1.1287336e-44)
(2.482923e-05 -2.118014e-05 9.657098e-25 2.4691627e-05 -9.78647e-25 4.3375476e-44)
(2.4115872e-05 -2.348784e-05 -5.0787257e-24 2.88909e-05 5.6090593e-24 1.2245961e-42)
(2.4483389e-05 -2.6878494e-05 -9.5108827e-25 3.5150109e-05 1.167689e-24 4.5202388e-44)
(2.641574e-05 -3.0386287e-05 5.2621553e-25 4.032335e-05 -6.6710673e-25 1.1591846e-44)
(2.9552453e-05 -3.4724142e-05 5.5342157e-26 4.6712196e-05 -4.7635529e-26 4.2391791e-46)
(3.3546163e-05 -3.9229764e-05 6.4979387e-25 5.2214511e-05 -8.755261e-25 1.5664066e-44)
(3.90418e-05 -4.4909029e-05 2.0427937e-24 5.8167755e-05 -2.5538058e-24 1.1522398e-43)
(4.5915543e-05 -5.0841992e-05 -1.3915496e-24 6.2181979e-05 1.7072504e-24 4.8922274e-44)
(5.5382352e-05 -5.7570806e-05 -1.0419621e-23 6.4774077e-05 1.1632411e-23 2.1522495e-42)
(6.6500408e-05 -6.3094745e-05 7.041613e-24 6.3650019e-05 -6.8502849e-24 7.610032e-43)
(8.0063497e-05 -6.7359331e-05 9.705537e-27 5.9483094e-05 -7.5304064e-26 5.020742e-45)
(9.3542208e-05 -6.8082899e-05 -3.0253889e-24 5.1571193e-05 2.1958348e-24 9.9624334e-44)
(0.00010696476 -6.5435163e-05 2.4668086e-25 4.145539e-05 -1.4753046e-25 6.1192001e-46)
(0.00011749674 -5.8894958e-05 5.3073745e-25 3.0505723e-05 -3.1702074e-25 1.2197951e-44)
(0.00012536568 -4.9174779e-05 -1.5681899e-23 1.9930429e-05 6.2788469e-24 2.0879971e-42)
(0.00013013679 -3.8505804e-05 4.5621979e-24 1.1796419e-05 -1.4220657e-24 2.2721657e-43)
(0.00013229665 -2.5789102e-05 -1.5656609e-23 5.2295193e-06 3.1229606e-24 2.0506481e-42)
(0.00013506607 -1.6263559e-05 -3.9840683e-24 2.0422833e-06 4.9177146e-25 1.3287484e-43)
(0.00013681133 -3.2461361e-06 -9.8080903e-24 8.5522492e-08 2.4588661e-25 9.0716502e-43)
(3.0918088e-05 -1.9745958e-05 1.4834136e-25 1.8005683e-05 -1.0935474e-25 8.6512484e-46)
(2.5363901e-05 -2.0725701e-05 1.6792497e-24 2.4654466e-05 -1.6856113e-24 1.3248919e-43)
(2.4469944e-05 -2.3253646e-05 8.9236563e-25 2.9315682e-05 -9.5643503e-25 4.1714057e-44)
(2.4607493e-05 -2.6852832e-05 1.5854966e-24 3.6178325e-05 -1.9726427e-24 1.2313344e-43)
(2.6548e-05 -3.0636877e-05 -5.0137308e-25 4.1920807e-05 6.8332424e-25 1.5047252e-44)
(2.964131e-05 -3.5142416e-05 -1.5103343e-24 4.9024847e-05 2.1012734e-24 9.7861934e-44)
(3.355561e-05 -3.98319e-05 5.113283e-24 5.5460761e-05 -7.2086879e-24 1.0052217e-42)
(3.8735233e-05 -4.5738452e-05 1.1470239e-23 6.2769083e-05 -1.5881985e-23 4.2428477e-42)
(4.5276051e-05 -5.2275345e-05 -1.4013034e-24 6.858624e-05 1.620598e-24 4.9989384e-44)
(5.4434217e-05 -6.0073823e-05 0 7.339481e-05 0 0)
(6.5740251e-05 -6.7340333e-05 -4.4342506e-24 7.4537892e-05 4.6862907e-24 3.0708886e-43)
(8.0149357e-05 -7.3945984e-05 5.528952e-24 7.2407494e-05 -5.494924e-24 4.5546648e-43)
(9.5360855e-05 -7.722735e-05 1.091461e-23 6.5578735e-05 -9.11023e-24 1.295052e-42)
(0.00011133715 -7.7104526e-05 -1.0568542e-23 5.5590485e-05 7.647387e-24 1.1285447e-42)
(0.00012455075 -7.2018447e-05 4.9938884e-24 4.3183497e-05 -2.8900716e-24 2.0173219e-43)
(0.00013524862 -6.3467542e-05 -1.339604e-23 3.0857224e-05 6.3954114e-24 1.3738673e-42)
(0.0001409885 -5.1488052e-05 -1.6484684e-25 1.9501402e-05 -9.0190014e-27 2.902648e-44)
(0.00014411596 -3.9354116e-05 6.1979171e-24 1.1184692e-05 -1.7596894e-24 3.2478285e-43)
(0.00014393701 -2.5680482e-05 -1.0232737e-23 4.801541e-06 1.8930468e-24 8.7840229e-43)
(0.00014493375 -1.5889444e-05 -8.0124112e-25 1.8327659e-06 8.6513281e-26 4.5346414e-45)
(0.0001451356 -2.968961e-06 -9.4625169e-24 6.9695672e-08 2.0811183e-25 8.5079904e-43)
(3.2048262e-05 -1.9239209e-05 -5.0989442e-25 1.7397539e-05 4.5115215e-25 1.6548274e-44)
(2.5791984e-05 -2.0097901e-05 1.4621554e-24 2.4581158e-05 -1.4757884e-24 1.0306469e-43)
(2.4702402e-05 -2.2828846e-05 2.4979676e-24 2.9707912e-05 -2.8003644e-24 3.0687432e-43)
(2.4612911e-05 -2.6637577e-05 -2.8324478e-24 3.7173551e-05 3.5953453e-24 3.9842248e-43)
(2.6584134e-05 -3.0703424e-05 -2.6259649e-24 4.3446891e-05 3.5694791e-24 3.3820281e-43)
(2.9688752e-05 -3.5356672e-05 1.3680447e-25 5.1172354e-05 -1.7009637e-25 8.6071889e-46)
(3.3557236e-05 -4.0143174e-05 0 5.8405883e-05 0 0)
(3.8422487e-05 -4.6116219e-05 2.3948042e-25 6.6936083e-05 -1.769653e-25 8.5213423e-45)
(4.4507548e-05 -5.3023387e-05 -3.4120901e-24 7.4492203e-05 4.8967777e-24 3.5037041e-43)
(5.3099216e-05 -6.1622643e-05 -9.7153305e-24 8.159465e-05 1.2532157e-23 1.9750088e-42)
(6.4239096e-05 -7.0455303e-05 5.7905876e-26 8.5334864e-05 -2.1626857e-25 9.4766691e-45)
(7.9085158e-05 -7.9377227e-05 3.4491758e-24 8.581155e-05 -3.7339619e-24 1.710362e-43)
(9.5781202e-05 -8.5532249e-05 -1.0827427e-24 8.0882478e-05 1.046266e-24 1.5231793e-44)
(0.00011425 -8.8406417e-05 -3.8328876e-24 7.1691322e-05 2.9852522e-24 1.2993067e-43)
(0.00013076851 -8.5831165e-05 8.1025236e-24 5.8695492e-05 -5.4943227e-24 5.3542766e-43)
(0.00014477451 -7.8530434e-05 -8.0629718e-24 4.4274686e-05 4.5167231e-24 4.8758696e-43)
(0.00015346341 -6.7138804e-05 1.8858695e-24 3.053835e-05 -8.37823e-25 2.3833212e-44)
(0.00015750893 -5.3127274e-05 -1.2016555e-23 1.8680687e-05 4.1506621e-24 9.8347568e-43)
(0.00015779046 -3.9501877e-05 -1.8703871e-24 1.0365646e-05 4.3545827e-25 3.2375245e-44)
(0.00015513016 -2.510583e-05 -3.4752164e-25 4.3006597e-06 5.1326683e-26 1.3345752e-45)
(0.00015416022 -1.5239857e-05 -5.6427727e-24 1.6044773e-06 5.8654608e-25 2.7486707e-43)
(0.00015269604 -2.628699e-06 0 5.4657181e-08 0 0)
(3.3063041e-05 -1.8614709e-05 -1.7690268e-26 1.6779966e-05 5.756054e-26 1.1719411e-45)
(2.6135814e-05 -1.931589e-05 -8.5031e-25 2.4493907e-05 8.6707216e-25 3.6294811e-44)
(2.4835497e-05 -2.222829e-05 -1.1718795e-25 3.0097872e-05 1.2004084e-25 7.6553428e-46)
(2.4523616e-05 -2.6247203e-05 -3.5104939e-24 3.8179054e-05 4.5285698e-24 6.4992481e-43)
(2.6548794e-05 -3.060865e-05 -2.2430872e-24 4.496093e-05 3.1371504e-24 2.6626108e-43)
(2.973077e-05 -3.5407284e-05 1.5079951e-24 5.322356e-05 -2.2571969e-24 1.0740612e-43)
(3.3624137e-05 -4.0222452e-05 7.5476688e-26 6.1106396e-05 -2.374867e-25 7.2029244e-45)
(3.8190125e-05 -4.6106763e-05 6.1621963e-24 7.069447e-05 -9.4675396e-24 1.3407877e-42)
(4.3734729e-05 -5.3126928e-05 1.9441568e-24 7.9847779e-05 -2.8306138e-24 1.0353275e-43)
(5.1553074e-05 -6.2229565e-05 8.7803753e-25 8.9235021e-05 -1.2535327e-24 1.8592941e-44)
(6.2154039e-05 -7.235725e-05 -2.6326387e-25 9.5795395e-05 3.5073271e-25 1.3794234e-45)
(7.6955596e-05 -8.3431809e-05 -7.9918101e-24 9.9371398e-05 9.5335716e-24 9.6864131e-43)
(9.468801e-05 -9.2591493e-05 9.3759274e-25 9.7129054e-05 -9.3905251e-25 9.4760429e-45)
(0.00011542451 -9.8965894e-05 3.1155341e-24 8.9695291e-05 -3.3109944e-24 3.1268356e-43)
(0.00013538388 -9.9608277e-05 -1.0431538e-23 7.6802245e-05 7.6602098e-24 8.155214e-43)
(0.00015357323 -9.4773073e-05 -1.319864e-23 6.1045465e-05 8.2599935e-24 1.149192e-42)
(0.00016594413 -8.406397e-05 6.797676e-25 4.4400072e-05 -2.8241401e-25 9.9251344e-45)
(0.00017317069 -7.0039554e-05 2.2619433e-23 2.9598402e-05 -9.3541578e-24 3.0996977e-42)
(0.00017378292 -5.3799397e-05 1.03661e-24 1.7482999e-05 -3.4858498e-25 1.0353745e-44)
(0.00017121474 -3.8946591e-05 -7.034807e-24 9.3745547e-06 1.6618866e-24 3.3474693e-43)
(0.00016569469 -2.4066063e-05 0 3.7518684e-06 0 0)
(0.00016259196 -1.4326391e-05 1.2690107e-23 1.367398e-06 -1.1924193e-24 1.4159153e-42)
(0.00015942017 -2.23261e-06 1.9988728e-25 4.1090245e-08 -2.5059338e-27 2.9912912e-46)
(3.4004458e-05 -1.7901241e-05 1.7508973e-24 1.6171973e-05 -1.3990364e-24 1.697562e-43)
(2.6428028e-05 -1.8400856e-05 -1.8128325e-24 2.4409775e-05 2.0032385e-24 1.8934568e-43)
(2.4895335e-05 -2.1466207e-05 2.5364822e-24 3.0511708e-05 -2.9735726e-24 3.4769801e-43)
(2.4364027e-05 -2.5694141e-05 1.1552718e-24 3.9233232e-05 -1.5605533e-24 7.2249686e-44)
(2.6466144e-05 -3.0372351e-05 -3.7570866e-24 4.6519104e-05 5.4065023e-24 7.469803e-43)
(2.9800837e-05 -3.5331952e-05 0 5.5250062e-05 0 0)
(3.3819847e-05 -4.0133974e-05 6.0370658e-26 6.3639636e-05 -1.2566259e-25 6.9593791e-46)
(3.8154078e-05 -4.5787341e-05 1.8373957e-24 7.4093064e-05 -2.9102628e-24 1.1924608e-43)
(4.3128239e-05 -5.2679421e-05 5.4531455e-24 8.4664187e-05 -8.6947422e-24 9.4523943e-43)
(4.9998177e-05 -6.1959925e-05 9.2361015e-24 9.6241351e-05 -1.4294597e-23 2.2822687e-42)
(5.9703146e-05 -7.3027201e-05 -4.8510795e-24 0.00010571069 6.6619518e-24 4.3462262e-43)
(7.3940618e-05 -8.5958734e-05 -6.6251871e-24 0.0001127643 8.4853298e-24 6.5966195e-43)
(9.2131919e-05 -9.8073869e-05 9.4625941e-24 0.00011394921 -1.0772729e-23 1.047505e-42)
(0.00011464442 -0.00010825818 -9.4333906e-24 0.00010927714 9.1508127e-24 7.9212627e-43)
(0.00013797444 -0.00011290212 1.8026501e-23 9.7548683e-05 -1.5131375e-23 2.4050172e-42)
(0.00016069146 -0.0001114623 2.5431335e-23 8.1112022e-05 -1.7707782e-23 4.0557938e-42)
(0.00017802312 -0.00010277634 -8.9792463e-24 6.2095639e-05 5.6556169e-24 6.8473565e-43)
(0.00018935405 -8.8799544e-05 9.5195797e-24 4.3621024e-05 -4.5567267e-24 4.9379929e-43)
(0.00019284851 -7.167938e-05 -2.8850491e-23 2.8021296e-05 1.1136375e-23 4.8167523e-42)
(0.00019020831 -5.3523762e-05 7.900499e-24 1.5958997e-05 -2.4304329e-24 5.4704277e-43)
(0.00018400565 -3.7654156e-05 1.5603064e-23 8.2620378e-06 -3.3737598e-24 1.6700432e-42)
(0.00017543986 -2.2574758e-05 -1.3127682e-23 3.1800738e-06 1.8272802e-24 1.4753097e-42)
(0.00017014298 -1.3172307e-05 8.0590392e-24 1.1319589e-06 -6.898243e-25 6.8800704e-43)
(0.00016524605 -1.7894213e-06 1.6865689e-25 2.9582163e-08 -1.6070994e-27 2.0078845e-46)
(3.4933817e-05 -1.7130387e-05 -3.7270788e-25 1.5589493e-05 1.8270032e-25 5.0635532e-45)
(2.6720262e-05 -1.7380174e-05 -1.8227851e-24 2.434197e-05 2.0244889e-24 2.0065635e-43)
(2.4916856e-05 -2.0560819e-05 -1.0670087e-24 3.0971194e-05 1.1401519e-24 6.3854035e-44)
(2.4160199e-05 -2.4990247e-05 -7.8086377e-24 4.0368324e-05 1.0687144e-23 3.5820539e-42)
(2.635815e-05 -3.0009533e-05 2.1415607e-24 4.8171821e-05 -3.2006129e-24 2.542004e-43)
(2.9927224e-05 -3.5163853e-05 -4.9255048e-24 5.7323806e-05 7.9960381e-24 1.3032831e-42)
(3.4195674e-05 -3.9935648e-05 9.2511402e-26 6.6087966e-05 -1.8373385e-25 1.0663674e-45)
(3.8429963e-05 -4.5250347e-05 -6.9486117e-24 7.7210285e-05 1.2015945e-23 2.0194674e-42)
(4.282493e-05 -5.1792032e-05 1.086066e-24 8.8994983e-05 -1.7294224e-24 3.6023184e-44)
(4.8658474e-05 -6.0905513e-05 3.5434754e-24 0.00010257811 -5.7666102e-24 3.4093414e-43)
(5.7140493e-05 -7.2504581e-05 -2.1368729e-24 0.00011492832 3.0071921e-24 9.131233e-44)
(7.030397e-05 -8.6885684e-05 1.2010505e-23 0.00012568972 -1.7016969e-23 2.4191403e-42)
(8.8288573e-05 -0.00010172144 -4.7371199e-24 0.00013094338 5.7541204e-24 2.6554251e-43)
(0.00011189466 -0.00011580872 -1.0203894e-24 0.00013004377 1.1604582e-24 1.1282911e-44)
(0.00013816919 -0.00012506814 7.5398074e-24 0.00012070059 -6.6147467e-24 4.6266425e-43)
(0.00016554487 -0.00012810233 3.1508793e-24 0.00010468148 -2.5409038e-24 6.3614764e-44)
(0.00018855299 -0.00012259335 -1.949798e-24 8.3792709e-05 1.3731873e-24 2.7135203e-44)
(0.00020561829 -0.00011005365 1.6353434e-23 6.1905996e-05 -8.9208302e-24 1.3267726e-42)
(0.00021317385 -9.1995893e-05 0 4.1843136e-05 0 0)
(0.00021322039 -7.209265e-05 2.8588129e-24 2.5872786e-05 -9.7134726e-25 3.8574598e-44)
(0.00020594785 -5.2182616e-05 8.0069081e-25 1.4193507e-05 -2.0662363e-25 3.2099691e-45)
(0.00019597569 -3.5639154e-05 -1.4354879e-24 7.0786801e-06 2.7067294e-25 1.1544495e-44)
(0.00018425386 -2.0667939e-05 2.9222394e-26 2.6124007e-06 -2.2376738e-26 8.1575001e-45)
(0.00017673115 -1.1806868e-05 -1.1874426e-23 9.0779211e-07 8.8717567e-25 1.3977292e-42)
(0.00017014135 -1.3088195e-06 -5.3596743e-24 2.0609715e-08 5.613053e-26 3.7603531e-43)
(3.5897343e-05 -1.6331176e-05 -1.1839398e-24 1.5047526e-05 9.0699938e-25 8.1582876e-44)
(2.7081561e-05 -1.6286066e-05 1.235838e-24 2.4298817e-05 -1.3816557e-24 9.7350242e-44)
(2.495031e-05 -1.9534865e-05 9.9887492e-25 3.1494403e-05 -1.19997e-24 6.0871682e-44)
(2.394903e-05 -2.4149623e-05 9.1713082e-25 4.1608697e-05 -1.3007808e-24 5.3341689e-44)
(2.6245725e-05 -2.9530813e-05 7.6133487e-24 4.9962799e-05 -1.180659e-23 3.5664875e-42)
(3.0131689e-05 -3.4927614e-05 9.115849e-25 5.9510404e-05 -1.5733904e-24 5.6197797e-44)
(3.47917e-05 -3.9681781e-05 1.2931526e-25 6.8539541e-05 -2.5907257e-25 1.8406895e-45)
(3.9100136e-05 -4.4576351e-05 4.2578589e-25 8.0132551e-05 -7.8094485e-25 8.2942631e-45)
(4.2958e-05 -5.0542127e-05 6.3653722e-24 9.2884143e-05 -1.1531188e-23 1.53254e-42)
(4.7735533e-05 -5.9174939e-05 1.9055903e-25 0.00010826148 -5.0344614e-25 1.0884614e-44)
(5.4740343e-05 -7.0882648e-05 5.1001759e-24 0.00012336434 -8.3811562e-24 5.9822408e-43)
(6.6361251e-05 -8.6224297e-05 -1.4905259e-24 0.00013790983 2.3299393e-24 4.219421e-44)
(8.3453725e-05 -0.00010336992 -7.0892207e-24 0.00014770452 9.9651544e-24 7.0930753e-43)
(0.00010732794 -0.00012121446 1.5775311e-24 0.00015153402 -1.7662394e-24 2.6087604e-44)
(0.00013583448 -0.00013547025 -4.1140607e-24 0.00014590587 4.5425799e-24 1.601528e-43)
(0.00016756595 -0.00014394387 -1.3000553e-23 0.00013168313 1.0743305e-23 1.1592636e-42)