/*--------------------------------*- C++ -*----------------------------------*\
| =========                 |                                                 |
| \\      /  F ield         | OpenFOAM: The Open Source CFD Toolbox           |
|  \\    /   O peration     | Version:  5.0                                   |
|   \\  /    A nd           | Web:      www.OpenFOAM.org                      |
|    \\/     M anipulation  |                                                 |
\*---------------------------------------------------------------------------*/
FoamFile
{
    version     2.0;
    format      ascii;
    class       volScalarField;
    location    "180";
    object      p;
}
// * * * * * * * * * * * * * * * * * * * * * * * * * * * * * * * * * * * * * //

dimensions      [0 2 -2 0 0 0 0];

internalField   nonuniform List<scalar> 
9200
(
-0.00072561738
-0.00072262304
-0.0016308084
-0.00071798969
-0.0016329165
-0.00278492
-0.00071626879
-0.0016217791
-0.0027843263
-0.0038033773
-0.00070918305
-0.0016132724
-0.0027688962
-0.0038056328
-0.0048518263
-0.00070199353
-0.0015933065
-0.0027562646
-0.0037882098
-0.0048570725
-0.0058445539
-0.0006908683
-0.0015710441
-0.0027272184
-0.0037743849
-0.0048402782
-0.0058563783
-0.0068157878
-0.00067781263
-0.0015399608
-0.0026929637
-0.0037399378
-0.0048292264
-0.0058437382
-0.0068360056
-0.0077448731
-0.00066187953
-0.0015032742
-0.0026450298
-0.0036979658
-0.0047939201
-0.0058406391
-0.0068306531
-0.0077762414
-0.0086363574
-0.00064378278
-0.0014594284
-0.0025872037
-0.0036379559
-0.0047492179
-0.0058104527
-0.0068406827
-0.0077819445
-0.0086823938
-0.0094840508
-0.00062373208
-0.0014094814
-0.0025175918
-0.0035641013
-0.0046822352
-0.0057699172
-0.0068215851
-0.0078113685
-0.0087040362
-0.0095476355
-0.010285491
-0.00060242302
-0.001353574
-0.0024376125
-0.0034740065
-0.0045973719
-0.0057034251
-0.0067918535
-0.0078108877
-0.0087584996
-0.0095891333
-0.010369593
-0.011037059
-0.0005807275
-0.0012923073
-0.0023477614
-0.003369291
-0.0044915896
-0.0056154787
-0.0067329237
-0.0078006009
-0.0087837019
-0.0096746255
-0.01043554
-0.011144485
-0.011735429
-0.00055980523
-0.0012260931
-0.0022492916
-0.0032505463
-0.0043666798
-0.0055021213
-0.006649448
-0.0077584739
-0.0088012821
-0.0097334465
-0.010559822
-0.011239189
-0.011868831
-0.012377353
-0.00054072394
-0.0011552864
-0.0021434682
-0.0031192999
-0.0042233551
-0.0053651126
-0.0065362293
-0.0076886665
-0.0087852215
-0.0097878124
-0.010659993
-0.011408102
-0.011996491
-0.012539137
-0.012959893
-0.00052502454
-0.0010800356
-0.0020317103
-0.0029770586
-0.0040635573
-0.0052050627
-0.0063946851
-0.0075846402
-0.0087389859
-0.0098074062
-0.010760544
-0.01155721
-0.012216372
-0.012703639
-0.013152169
-0.013480516
-0.00051252566
-0.0010014536
-0.0019153062
-0.0028254827
-0.0038893301
-0.0050240922
-0.0062251446
-0.0074475036
-0.0086543181
-0.0097951413
-0.010826415
-0.011713243
-0.012423028
-0.012980052
-0.013357061
-0.013705032
-0.013937183
-0.00050115251
-0.00092044626
-0.0017961154
-0.002666165
-0.0037030156
-0.0048244801
-0.0060298457
-0.0072771451
-0.0085317146
-0.0097406861
-0.010859423
-0.011835863
-0.012644016
-0.013251097
-0.013695371
-0.013953392
-0.014195292
-0.014328399
-0.00048753018
-0.00083851237
-0.001675036
-0.0025013333
-0.0035069402
-0.0046088763
-0.0058113445
-0.0070757342
-0.0083704093
-0.0096436003
-0.010846918
-0.011925636
-0.012834237
-0.01354614
-0.014038468
-0.014358166
-0.014489666
-0.014621028
-0.014653221
-0.00046583974
-0.00075897281
-0.0015523078
-0.0023328567
-0.0033038029
-0.0043799837
-0.0055727389
-0.0068459068
-0.0081723372
-0.009502208
-0.010787296
-0.0119673
-0.012992722
-0.013814505
-0.014416297
-0.014779252
-0.014964791
-0.014963353
-0.014980866
-0.014911323
-0.0004289844
-0.00068566668
-0.0014285089
-0.0021625806
-0.0030958053
-0.0041408781
-0.0053172844
-0.0065910026
-0.0079401171
-0.0093179764
-0.01067771
-0.011957789
-0.013101341
-0.014053541
-0.014773084
-0.015247706
-0.015469705
-0.015511873
-0.015372422
-0.015274003
-0.015103114
-0.00036988673
-0.00062293017
-0.0013035371
-0.0019932542
-0.0028846259
-0.0038944965
-0.0050485286
-0.0063146376
-0.0076773048
-0.0090932894
-0.010518941
-0.011892789
-0.013155319
-0.014242064
-0.01510445
-0.0157026
-0.016036216
-0.0161052
-0.015996561
-0.015715427
-0.015500321
-0.01522945
-0.00028294948
-0.00057495536
-0.0011771128
-0.0018275093
-0.0026723449
-0.0036434599
-0.0047698818
-0.0060207568
-0.0073878934
-0.0088317289
-0.010312933
-0.011772152
-0.013148587
-0.014373324
-0.015385957
-0.016137593
-0.016598141
-0.016775563
-0.016681998
-0.016416609
-0.01599174
-0.015660473
-0.015290707
-0.00016527459
-0.0005450399
-0.0010489973
-0.0016678675
-0.0024609302
-0.0033908278
-0.0044842797
-0.00571333
-0.0070762709
-0.0085374899
-0.01006317
-0.011597119
-0.013079795
-0.014439214
-0.01560866
-0.016524917
-0.017147476
-0.017452448
-0.01746139
-0.017196442
-0.01677066
-0.016201681
-0.015755556
-0.015287462
-1.7394347e-05
-0.00053497535
-0.0009191667
-0.0015165964
-0.0022523184
-0.0031396252
-0.0041949238
-0.0053959547
-0.0067469403
-0.0082152789
-0.0097739717
-0.011370848
-0.012949241
-0.014436879
-0.01576214
-0.016853237
-0.017653078
-0.018125922
-0.018260018
-0.018088345
-0.017645822
-0.017057368
-0.016345728
-0.015786204
-0.015225516
0.00015650301
-0.00054474648
-0.00078791262
-0.0013755304
-0.0020485015
-0.0028926409
-0.0039051336
-0.0050724692
-0.0064040536
-0.0078700642
-0.0094503373
-0.011097588
-0.012759505
-0.014365404
-0.015841735
-0.017109577
-0.018101072
-0.018761534
-0.019066385
-0.019014171
-0.018652565
-0.018027411
-0.01727571
-0.016423643
-0.015753211
-0.015108182
0.00034947974
-0.00057218718
-0.00065579445
-0.0012459157
-0.0018514307
-0.0026525109
-0.0036181697
-0.0047468756
-0.0060519213
-0.0075065848
-0.0090976872
-0.010782476
-0.0125146
-0.014226521
-0.015845005
-0.017287178
-0.018475712
-0.019342771
-0.019842841
-0.019960865
-0.019709595
-0.019149895
-0.018339545
-0.017425275
-0.016436214
-0.015661544
-0.014937963
0.00055509822
-0.00061072823
-0.00052363017
-0.0011285667
-0.0016626713
-0.0024217092
-0.0033372754
-0.0044230862
-0.0056950472
-0.0071297694
-0.0087213319
-0.010431245
-0.012219683
-0.014023731
-0.015772563
-0.017381758
-0.018767867
-0.019850961
-0.02057022
-0.020887794
-0.020802616
-0.020340653
-0.019577418
-0.018580994
-0.01750709
-0.016386865
-0.015514502
-0.014718016
0.00076579868
-0.00064458838
-0.00039526021
-0.0010235641
-0.00148311
-0.0022028669
-0.0030654817
-0.004105036
-0.005337903
-0.0067448053
-0.0083267756
-0.010049702
-0.011880717
-0.013762001
-0.015627131
-0.017392483
-0.018971096
-0.020274356
-0.021226815
-0.021773181
-0.021888268
-0.021584389
-0.020902885
-0.019932558
-0.018751587
-0.017522808
-0.016278309
-0.015315331
-0.014451353
0.00096851313
-0.00067071845
-0.00028388983
-0.00092979335
-0.0013137244
-0.0019981073
-0.0028053839
-0.0037965966
-0.0049850507
-0.0063568955
-0.0079197999
-0.0096439228
-0.011503961
-0.013447342
-0.015413248
-0.017321007
-0.019082791
-0.020604057
-0.02179806
-0.022592261
-0.022942292
-0.022835391
-0.022300039
-0.021392147
-0.020213868
-0.018851873
-0.017474619
-0.016113787
-0.015067272
-0.014141614
0.001160006
-0.00070751154
-0.00018058489
-0.00084351868
-0.0011570755
-0.0018087171
-0.0025594212
-0.003501426
-0.0046410041
-0.00597138
-0.007506246
-0.0092203442
-0.01109603
-0.013086318
-0.015136795
-0.017171154
-0.019103192
-0.020835343
-0.022272328
-0.023327509
-0.023936919
-0.024067134
-0.023721268
-0.02294363
-0.0218054
-0.020420513
-0.018883065
-0.017365117
-0.015896585
-0.014773838
-0.013792732
0.001359775
-0.0007541278
-7.4379144e-05
-0.00075836077
-0.0010189214
-0.0016359272
-0.0023296608
-0.0032225805
-0.0043100383
-0.0055936137
-0.0070921482
-0.0087855571
-0.010663954
-0.012686
-0.01480452
-0.016948407
-0.019035115
-0.020966696
-0.02264246
-0.023964343
-0.024851589
-0.025248991
-0.025138079
-0.024538042
-0.023510316
-0.022140255
-0.020552572
-0.018846976
-0.017197224
-0.015630163
-0.014438686
-0.013408354
0.0015602289
-0.00080501787
2.314834e-05
-0.00068650846
-0.00088864117
-0.0014790022
-0.0021188228
-0.0029624629
-0.0039959287
-0.0052287364
-0.0066836325
-0.0083464263
-0.010215
-0.012253981
-0.014423853
-0.016659467
-0.018883392
-0.020999566
-0.022904817
-0.024492861
-0.025668598
-0.026357379
-0.026517226
-0.0261453
-0.025278878
-0.023995889
-0.022395306
-0.020610773
-0.018745923
-0.016974184
-0.015318159
-0.014065525
-0.01299245
0.0017525739
-0.00085540514
0.0001180654
-0.00063989436
-0.00075725914
-0.0013234599
-0.0019297244
-0.0027239257
-0.0037018499
-0.0048812977
-0.0062866899
-0.0079099856
-0.0097567898
-0.01179825
-0.014002851
-0.016311959
-0.01865443
-0.020937816
-0.023059123
-0.024906953
-0.026375039
-0.027371375
-0.027832206
-0.027729878
-0.02707987
-0.025937529
-0.0243972
-0.022569945
-0.020596572
-0.018582678
-0.016699485
-0.014964303
-0.013658197
-0.012548625
0.0019301423
-0.00090572007
0.00021302194
-0.00059220525
-0.00064378654
-0.0011637628
-0.0017452435
-0.0025087037
-0.0034315465
-0.0045551119
-0.005906779
-0.0074831901
-0.0092972212
-0.011327267
-0.013550119
-0.015914294
-0.018355852
-0.020787261
-0.02310792
-0.025204234
-0.026961998
-0.028274857
-0.029058864
-0.029262547
-0.028875902
-0.027933318
-0.026508833
-0.024711977
-0.022664455
-0.020512024
-0.018360418
-0.016376822
-0.014572424
-0.013220423
-0.012080569
0.0020873589
-0.00095463038
0.00030225507
-0.00054085501
-0.00053860826
-0.0010424271
-0.0015548194
-0.0022948032
-0.0031876981
-0.0042545392
-0.0055486171
-0.007072459
-0.0088442376
-0.010849898
-0.013074853
-0.01547563
-0.017996283
-0.020555254
-0.023056104
-0.025385539
-0.027424603
-0.029055815
-0.030177726
-0.030716001
-0.030635313
-0.02994451
-0.02869824
-0.026988532
-0.024938993
-0.022679884
-0.020359764
-0.018082645
-0.016010042
-0.014146342
-0.012755935
-0.011591716
0.0022191994
-0.00099942033
0.00038166558
-0.00049383894
-0.00043625109
-0.00094000353
-0.0014032756
-0.0020766879
-0.0029459072
-0.003982567
-0.0052175525
-0.0066834102
-0.0084053381
-0.010375172
-0.012586796
-0.015005884
-0.017585288
-0.02025043
-0.022910477
-0.025454474
-0.02776158
-0.029706521
-0.031173443
-0.032067365
-0.03232783
-0.031937397
-0.030925878
-0.029368124
-0.027373542
-0.025077953
-0.022618043
-0.020142914
-0.017753135
-0.015603079
-0.013689876
-0.0122683
-0.011085386
0.0023214996
-0.0010377436
0.00045004454
-0.00045517222
-0.00034001892
-0.00083468812
-0.001268481
-0.0019090121
-0.0027038855
-0.0037112004
-0.0049175249
-0.0063223433
-0.0079872384
-0.0099117489
-0.01209602
-0.014515693
-0.017133375
-0.019882602
-0.022679433
-0.025416944
-0.02797485
-0.030223193
-0.032035103
-0.033297773
-0.033927215
-0.033879025
-0.033156469
-0.031811004
-0.029937667
-0.027661857
-0.025129516
-0.022481422
-0.019865025
-0.017375861
-0.015159909
-0.01320675
-0.011760971
-0.010564699
0.002391125
-0.0010677875
0.00050628735
-0.00042384423
-0.00025668472
-0.00073451947
-0.0011334757
-0.0017548369
-0.0025148186
-0.0034417428
-0.0046172162
-0.0059941076
-0.0075974492
-0.009467498
-0.011612378
-0.014016207
-0.016651967
-0.01946275
-0.02237281
-0.025280799
-0.028069048
-0.030605642
-0.032756021
-0.034392852
-0.035411
-0.035739937
-0.035354766
-0.034280868
-0.032592087
-0.030402771
-0.027852607
-0.025095218
-0.022273121
-0.019529993
-0.016954932
-0.014684487
-0.012700592
-0.011237219
-0.010032581
0.0024263465
-0.001088552
0.00054928344
-0.00039901568
-0.00018669924
-0.00064787456
-0.0010042723
-0.001597356
-0.00233102
-0.0032332104
-0.0043197712
-0.0056637558
-0.0072421386
-0.0090511592
-0.011144999
-0.013518518
-0.016153224
-0.019002993
-0.02200185
-0.025055633
-0.028051132
-0.030856819
-0.033333474
-0.035342647
-0.036761134
-0.037494072
-0.037488353
-0.036740662
-0.035300068
-0.033262556
-0.030760642
-0.027946
-0.024977418
-0.021996768
-0.01914198
-0.016494526
-0.01418071
-0.012174879
-0.010700138
-0.0094917585
-0.0010990011
0.0024263465
0.00057755824
-0.00038038703
-0.00013004848
-0.00057500801
-0.00089243535
-0.0014473582
-0.0021464047
-0.0030228312
-0.004086963
-0.0053366381
-0.0068828405
-0.0086702946
-0.010704033
-0.013033083
-0.015649472
-0.018516432
-0.021579183
-0.024752721
-0.027930133
-0.030982398
-0.03376829
-0.036141478
-0.037964075
-0.039119573
-0.039527691
-0.039155381
-0.038023307
-0.036204708
-0.033817277
-0.031009741
-0.027943293
-0.024779213
-0.021656427
-0.018705343
-0.015998832
-0.013652372
-0.011632927
-0.010152618
-0.0089447463
0.00059102649
-0.0010990011
0.002391125
-0.00036865805
-8.7021049e-05
-0.00051611454
-0.00079910754
-0.0013183851
-0.0019704331
-0.002810219
-0.0038429669
-0.0050793937
-0.0065261517
-0.008283001
-0.010298752
-0.012571545
-0.015152564
-0.018016586
-0.021118693
-0.024384993
-0.027717054
-0.030990482
-0.034064438
-0.036787605
-0.039010794
-0.040599055
-0.041447077
-0.041492237
-0.040724667
-0.039190342
-0.036986926
-0.034252531
-0.031149804
-0.027846717
-0.024504348
-0.021256518
-0.018224551
-0.015472
-0.013103128
-0.011077864
-0.0095973491
-0.008393854
-0.00036335712
0.0005910265
-0.0010885521
0.0023214997
-5.9048716e-05
-0.00047181869
-0.00072404273
-0.001210815
-0.0018189282
-0.0026077728
-0.0035982165
-0.0048004092
-0.00623963
-0.0078975631
-0.0098837294
-0.01214502
-0.01467575
-0.017516691
-0.020634983
-0.023966929
-0.027424839
-0.03089146
-0.034228683
-0.03728284
-0.039896534
-0.041919783
-0.043225119
-0.043721764
-0.04336848
-0.042180724
-0.040230822
-0.03764039
-0.034566076
-0.031181782
-0.027659383
-0.024157114
-0.020801714
-0.017704126
-0.014918085
-0.012536472
-0.010512623
-0.0090368074
-0.0078411881
-4.5927608e-05
-0.00036335717
0.00057755815
-0.0010677877
0.0022191994
-0.00044403389
-0.00066754285
-0.0011243355
-0.0016927709
-0.0024338829
-0.0033655258
-0.0045210314
-0.0059177842
-0.007575365
-0.009468535
-0.011704373
-0.01423227
-0.017031626
-0.020142641
-0.023514059
-0.027068286
-0.030697954
-0.034270401
-0.037632169
-0.040620489
-0.043073562
-0.044845081
-0.045818482
-0.045921708
-0.045137753
-0.043509331
-0.041135398
-0.038160404
-0.034757117
-0.031107776
-0.027385195
-0.023742249
-0.020296866
-0.017148568
-0.014341023
-0.011955711
-0.0099399236
-0.0084732628
-0.0072886543
-0.00043229994
-4.592768e-05
-0.00036865807
0.00054928339
-0.0010377438
0.0020873589
-0.000631577
-0.0010593296
-0.0015915639
-0.0022891285
-0.0031655648
-0.0042553905
-0.0055989364
-0.0072017864
-0.0091134838
-0.011261092
-0.013769418
-0.016576883
-0.019658197
-0.023042205
-0.02666361
-0.030424757
-0.034201494
-0.037843516
-0.041185393
-0.044056505
-0.046294941
-0.047761442
-0.048354823
-0.048025155
-0.046782457
-0.04469776
-0.04189648
-0.03854393
-0.034826279
-0.030930935
-0.027028719
-0.023264828
-0.019746913
-0.016562319
-0.013744586
-0.011363949
-0.0093622743
-0.0079087794
-0.0067379685
-0.00061557441
-0.00043229992
-5.9048719e-05
-0.00038038715
0.00050628723
-0.00099942051
0.0019301424
-0.0010180298
-0.0015156332
-0.0021730617
-0.0029992441
-0.0040272053
-0.0052958971
-0.0068407073
-0.0086877198
-0.010871829
-0.01330057
-0.016096188
-0.019199608
-0.022569475
-0.026227692
-0.030088454
-0.034036343
-0.037927617
-0.041597248
-0.044868611
-0.047567291
-0.049534463
-0.050642541
-0.050809515
-0.050011109
-0.048286279
-0.0457351
-0.042508276
-0.038789603
-0.034775523
-0.030655345
-0.026595079
-0.022730169
-0.019156825
-0.0159497
-0.01313235
-0.010764057
-0.0087819759
-0.0073452436
-0.0061906485
-0.00099974071
-0.00061557437
-0.00044403402
-8.702119e-05
-0.00039901573
0.00045004451
-0.00095463047
0.001752574
-0.0014674089
-0.0020860757
-0.0028660607
-0.0038374708
-0.0050354368
-0.0064981073
-0.0082772732
-0.010387608
-0.012875394
-0.015605322
-0.018707157
-0.022116382
-0.025780097
-0.029706717
-0.033791501
-0.037897976
-0.041865126
-0.045513464
-0.048658903
-0.051126209
-0.052764269
-0.053461209
-0.053158277
-0.051859612
-0.049634637
-0.046612351
-0.042966891
-0.038897681
-0.034608042
-0.030285901
-0.02608983
-0.022143749
-0.018531528
-0.015314858
-0.012507653
-0.01015872
-0.0082011756
-0.0067843242
-0.0056480511
-0.0014460307
-0.00099974081
-0.00063157717
-0.00047181875
-0.00013004851
-0.00042384431
0.00038166555
-0.0009057201
0.001560229
-0.0020308425
-0.0027663937
-0.0036856419
-0.0048190122
-0.006203072
-0.0078885854
-0.0099225595
-0.012326168
-0.015143068
-0.018199224
-0.021619795
-0.025343995
-0.029300342
-0.033485064
-0.037770635
-0.042001125
-0.045997947
-0.049570452
-0.052529753
-0.054704388
-0.055955067
-0.056190116
-0.055377524
-0.053552179
-0.050814904
-0.047322551
-0.04327032
-0.038869971
-0.034328132
-0.029828183
-0.025518878
-0.021511112
-0.017875802
-0.014661698
-0.011873674
-0.0095505057
-0.0076217558
-0.0062273799
-0.0051114336
-0.002006337
-0.0014460308
-0.0010180299
-0.00066754294
-0.00051611469
-0.00018669933
-0.00045517215
0.00030225518
-0.00085540502
0.0013597751
-0.0027031031
-0.0035721375
-0.0046460199
-0.0059577789
-0.0075537753
-0.0094830972
-0.011800045
-0.014522394
-0.017698897
-0.021101245
-0.024852926
-0.028895138
-0.033138744
-0.037563645
-0.042020195
-0.046332156
-0.050306074
-0.053742376
-0.056451821
-0.058270898
-0.059076847
-0.058802188
-0.057444864
-0.055072218
-0.051816574
-0.047860854
-0.043418411
-0.038709699
-0.033941072
-0.029288345
-0.024888336
-0.020837714
-0.01719421
-0.013994029
-0.011233536
-0.0089416133
-0.0070450647
-0.0056757149
-0.0045818726
-0.0026749571
-0.002006337
-0.001467409
-0.0010593298
-0.00072404297
-0.00057500803
-0.00025668462
-0.00049383881
0.00021302212
-0.00080501763
0.0011600062
-0.0035000319
-0.0045168612
-0.0057617774
-0.0072754945
-0.0091043405
-0.011303984
-0.013929233
-0.016999913
-0.020562634
-0.024331972
-0.02842131
-0.032780911
-0.037299192
-0.041939778
-0.046529306
-0.050873239
-0.054764904
-0.058000013
-0.060393059
-0.06179348
-0.062099309
-0.061271186
-0.05933948
-0.056405288
-0.052631404
-0.048224545
-0.043412772
-0.038421417
-0.033453008
-0.028672964
-0.024204328
-0.020128839
-0.016491305
-0.013315687
-0.010589834
-0.0083333059
-0.0064725658
-0.005131477
-0.004059802
-0.003467879
-0.0026749571
-0.0020308428
-0.0015156335
-0.0011243356
-0.00079910759
-0.00064787458
-0.00034001879
-0.00054085463
0.00011806577
-0.00075412739
0.0009685134
-0.0044347712
-0.0056155497
-0.0070533024
-0.0087894855
-0.010876234
-0.01337109
-0.016332917
-0.019778865
-0.023755491
-0.027908109
-0.032338419
-0.037008
-0.041781953
-0.04660553
-0.051282706
-0.055601529
-0.059345912
-0.062310791
-0.064319456
-0.065238962
-0.064992516
-0.063572113
-0.061042677
-0.05753926
-0.053253506
-0.048412988
-0.043256692
-0.038010884
-0.032870758
-0.02798875
-0.023472883
-0.019389904
-0.015771809
-0.012629749
-0.0099437301
-0.0077274122
-0.005908014
-0.0045959663
-0.0035202559
-0.0043980466
-0.0034678792
-0.0027031035
-0.0020860759
-0.0015915642
-0.0012108151
-0.00089243542
-0.00073451925
-0.0004362507
-0.00059220474
2.3148849e-05
-0.00070751101
0.00076579913
-0.0055225351
-0.0068877024
-0.0085382101
-0.010520584
-0.012889428
-0.015706528
-0.019031567
-0.022880655
-0.027295206
-0.031845277
-0.036613453
-0.04157949
-0.046582079
-0.05154852
-0.056259784
-0.060489769
-0.064016636
-0.066639488
-0.068195544
-0.068573994
-0.067727393
-0.065681765
-0.062538086
-0.058464506
-0.053679352
-0.048427599
-0.042955058
-0.037484842
-0.03220146
-0.027242458
-0.022700386
-0.018626683
-0.015039373
-0.0119372
-0.0092975656
-0.0071305912
-0.005353318
-0.0040357043
-0.0029563141
-0.0054807816
-0.0043980469
-0.0035000321
-0.002766394
-0.0021730621
-0.0016927713
-0.001318385
-0.0010042721
-0.00083468779
-0.00053860778
-0.00063989356
-7.4378322e-05
-0.00067071777
0.00055509893
-0.0067822888
-0.0083510877
-0.010236855
-0.01248876
-0.015165525
-0.018330914
-0.022046288
-0.026323791
-0.03119831
-0.036155052
-0.041252096
-0.046493272
-0.051690242
-0.056750748
-0.061435091
-0.0655062
-0.068741311
-0.070948706
-0.071985046
-0.071765667
-0.070276268
-0.067579236
-0.063811852
-0.059173972
-0.053907815
-0.048271797
-0.042514091
-0.036850579
-0.031452483
-0.026441488
-0.021893803
-0.017843474
-0.01429469
-0.011241114
-0.0086615872
-0.0065453455
-0.0047598836
-0.0034537993
-0.0023809704
-0.0067348076
-0.0054807816
-0.0044347714
-0.0035721381
-0.0028660613
-0.0022891288
-0.0018189284
-0.001447358
-0.0011334753
-0.00094000287
-0.00064378576
-0.00068650744
-0.00018058379
-0.00064458758
0.00034948079
-0.0082318763
-0.010025725
-0.012169151
-0.014715201
-0.017725129
-0.021265041
-0.02539605
-0.030125588
-0.035477523
-0.040845568
-0.046254787
-0.051743124
-0.057091281
-0.062189032
-0.066778185
-0.070615139
-0.073481225
-0.075199602
-0.075651389
-0.074782034
-0.0726135
-0.069246121
-0.064852828
-0.059663304
-0.053940176
-0.047950724
-0.041940827
-0.036115869
-0.030632246
-0.025594139
-0.021058134
-0.017040553
-0.013541666
-0.010556486
-0.0080389678
-0.0058943419
-0.0041535179
-0.0028563617
-0.0017958076
-0.008178004
-0.0067348078
-0.0055225355
-0.0045168619
-0.0036856424
-0.0029992445
-0.0024338832
-0.0019704332
-0.0015973554
-0.0012684803
-0.0010424263
-0.00075725814
-0.00075835937
-0.00028388836
-0.00061072722
0.00015650444
-0.0098911061
-0.011931449
-0.014355957
-0.017220421
-0.020588794
-0.024528011
-0.029098237
-0.034299949
-0.040142097
-0.045919511
-0.051618321
-0.057316774
-0.062764592
-0.067834808
-0.07225411
-0.075777303
-0.078195481
-0.079352448
-0.079158439
-0.077592679
-0.074715898
-0.070666731
-0.065652792
-0.059930941
-0.053779831
-0.047470621
-0.041243106
-0.035290073
-0.029750468
-0.024706114
-0.020193111
-0.016222876
-0.012801449
-0.0098871651
-0.0073162356
-0.005239763
-0.0035256999
-0.002248281
-0.0012006674
-0.0098300787
-0.0081780043
-0.0067822891
-0.0056155501
-0.0046460203
-0.0038374715
-0.0031655653
-0.0026077728
-0.0021464044
-0.0017548361
-0.0014032747
-0.0011637616
-0.00088863972
-0.00084351701
-0.00039525855
-0.00057218607
-1.739254e-05
-0.011779753
-0.014088877
-0.016817659
-0.020024747
-0.023775679
-0.028137335
-0.033167235
-0.038856309
-0.04519508
-0.051376847
-0.057333116
-0.063196329
-0.068683914
-0.073654504
-0.077823643
-0.080950542
-0.082841628
-0.083367621
-0.082471252
-0.080169502
-0.076562938
-0.071828422
-0.066206644
-0.059977793
-0.053431556
-0.046838917
-0.040431046
-0.034384355
-0.028813509
-0.023776425
-0.019305046
-0.015419176
-0.012078432
-0.0090715539
-0.0066025762
-0.0045565509
-0.0028867312
-0.0016282053
-0.00059637976
-0.011710786
-0.0098300787
-0.0082318765
-0.006887703
-0.0057617782
-0.004819013
-0.0040272056
-0.0033655258
-0.0028102189
-0.0023310196
-0.0019090108
-0.001554818
-0.0013234584
-0.0010189197
-0.00092979136
-0.00052362832
-0.00054474533
-0.00016527246
-0.013918272
-0.016518271
-0.019574379
-0.0231473
-0.027303462
-0.032108205
-0.03761356
-0.043801257
-0.050638358
-0.057210603
-0.063383834
-0.069358089
-0.074817624
-0.079609653
-0.083444052
-0.086090366
-0.087376596
-0.087205987
-0.085556827
-0.082486922
-0.07813714
-0.072721934
-0.066512066
-0.059806405
-0.052901745
-0.04606618
-0.039517206
-0.033405586
-0.027819354
-0.022813054
-0.018431597
-0.014634484
-0.011151789
-0.0082792946
-0.0058501321
-0.0038622596
-0.0022341775
-0.0009979435
1.6677487e-05
-0.013840508
-0.011710786
-0.0098911066
-0.0083510884
-0.0070533029
-0.0059577795
-0.0050354372
-0.0042553909
-0.0035982165
-0.0030228306
-0.0025148177
-0.0020766863
-0.0017452419
-0.0014790003
-0.0011570734
-0.0010235619
-0.00065579256
-0.00053497435
-0.00028294711
-0.016326834
-0.019239579
-0.022645146
-0.02660582
-0.031187717
-0.036452503
-0.042447246
-0.049138784
-0.056466389
-0.063408095
-0.069749235
-0.075772838
-0.081128589
-0.085657719
-0.089069534
-0.091150603
-0.091757458
-0.090829456
-0.088384736
-0.084522471
-0.07942458
-0.073341013
-0.06656853
-0.059421366
-0.052200969
-0.045166197
-0.03850868
-0.032350271
-0.026778018
-0.021864246
-0.017578711
-0.0135746
-0.010265183
-0.0074356729
-0.0050878644
-0.0031534451
-0.0015708001
-0.0003577591
0.00063783789
-0.016239373
-0.013840508
-0.011779754
-0.010025725
-0.0085382106
-0.0072754952
-0.0062030727
-0.0052958976
-0.0045210313
-0.0038429663
-0.0032332096
-0.0027038844
-0.0022948012
-0.0019297223
-0.0016359251
-0.0013137223
-0.0011285644
-0.00078791072
-0.00054503911
-0.00036988428
-0.019025266
-0.022271735
-0.026047668
-0.03041602
-0.035441119
-0.041180454
-0.047672494
-0.054866089
-0.062668363
-0.069950801
-0.076402601
-0.08240523
-0.087575189
-0.091752456
-0.09465171
-0.096084624
-0.095942002
-0.094202371
-0.09092732
-0.08625725
-0.080414519
-0.073681239
-0.066377968
-0.058832693
-0.051343961
-0.044145818
-0.037399812
-0.031230826
-0.025750348
-0.020937184
-0.016362762
-0.012573732
-0.0093115017
-0.0065839907
-0.0043100329
-0.0024336153
-0.00089663843
0.00029123531
0.0012665229
-0.018927159
-0.016239373
-0.013918272
-0.01193145
-0.010236856
-0.0087894863
-0.0075537758
-0.0064981075
-0.0055989364
-0.004800409
-0.0040869623
-0.0034417414
-0.0029459056
-0.0025087014
-0.0021188206
-0.0018087148
-0.0014831077
-0.0012459136
-0.000919165
-0.00057495489
-0.00042898203
-0.022032426
-0.025632368
-0.029797701
-0.034591042
-0.040074108
-0.04629754
-0.053288971
-0.060975412
-0.069228049
-0.076815081
-0.083310265
-0.089215155
-0.094111731
-0.09784401
-0.10014083
-0.10084632
-0.099889163
-0.09729211
-0.093160292
-0.087675641
-0.081097925
-0.073740983
-0.065949177
-0.058055649
-0.050336629
-0.04299627
-0.036205802
-0.030123186
-0.024745138
-0.019539296
-0.015227097
-0.011486856
-0.0083522879
-0.0057169339
-0.0035208434
-0.0017027615
-0.00021319258
0.00094824305
0.0019020935
-0.021922695
-0.018927159
-0.016326834
-0.014088878
-0.012169152
-0.010520585
-0.0091043409
-0.0078885858
-0.0068407076
-0.0059177841
-0.0050793927
-0.0043197698
-0.0037111988
-0.0031876963
-0.002723923
-0.0023296584
-0.001998105
-0.0016626691
-0.0013755284
-0.0010489957
-0.00062292993
-0.00046583764
-0.025365878
-0.029337224
-0.033908613
-0.039141562
-0.045093107
-0.051805134
-0.059291338
-0.067453653
-0.076125076
-0.083969295
-0.090433587
-0.096158596
-0.10068772
-0.10388016
-0.10548709
-0.10539042
-0.10356115
-0.10006923
-0.095062705
-0.088763382
-0.081468744
-0.073527136
-0.065297452
-0.057094233
-0.04916576
-0.041735913
-0.03502076
-0.029038206
-0.023137088
-0.018245771
-0.013982611
-0.010398153
-0.007378161
-0.0048389248
-0.0027209219
-0.00096261012
0.00047857804
0.0016122269
0.0025439973
-0.025243511
-0.021922695
-0.019025267
-0.016518271
-0.014355957
-0.01248876
-0.010876234
-0.0094830977
-0.0082772731
-0.0072017861
-0.0062396292
-0.0053366369
-0.0046172147
-0.003982565
-0.0034315442
-0.0029624602
-0.002559419
-0.0022028647
-0.0018514288
-0.0015165948
-0.0011771115
-0.00068566667
-0.00048752847
-0.029041328
-0.033399748
-0.038391198
-0.044074568
-0.050500632
-0.057699861
-0.065668916
-0.074286198
-0.08332968
-0.091377037
-0.097730989
-0.10318558
-0.10724898
-0.10980806
-0.11064115
-0.10967327
-0.1069256
-0.10250824
-0.096614885
-0.089509153
-0.081531299
-0.073054524
-0.064423613
-0.055929001
-0.047853229
-0.040480783
-0.033858093
-0.027188904
-0.021660592
-0.016816073
-0.012741292
-0.0092954858
-0.0063938464
-0.003950564
-0.0019117416
-0.00021431902
0.0011773158
0.0022827863
0.0031914208
-0.028905294
-0.025243511
-0.022032427
-0.019239579
-0.016817659
-0.014715201
-0.012889429
-0.011303985
-0.0099225594
-0.0086877196
-0.0075753645
-0.0065261507
-0.0056637542
-0.004917523
-0.0042545372
-0.0037018477
-0.0032225778
-0.0028053817
-0.0024217074
-0.0020484999
-0.0016678661
-0.0013035361
-0.00075897286
-0.00050115124
-0.033072235
-0.037830757
-0.043252767
-0.049393279
-0.056294687
-0.063973247
-0.072408763
-0.08145049
-0.090806772
-0.099000914
-0.10515402
-0.11024041
-0.11374053
-0.11557477
-0.11555471
-0.11365401
-0.10995061
-0.10458482
-0.097799921
-0.089914193
-0.081299519
-0.072319288
-0.063299613
-0.054585697
-0.046541551
-0.039247373
-0.031733678
-0.025502222
-0.02001513
-0.015396159
-0.011487379
-0.0081838969
-0.0053998202
-0.0030534115
-0.0010950877
0.00054047337
0.0018830635
0.0029587017
0.0038436549
-0.032921508
-0.028905294
-0.025365878
-0.022271735
-0.019574379
-0.017220421
-0.015165525
-0.01337109
-0.011800046
-0.010387608
-0.0091134829
-0.007897562
-0.006882839
-0.0059941061
-0.0052175507
-0.0045551097
-0.0039959264
-0.0035014236
-0.0030654799
-0.0026525093
-0.002252317
-0.0018275082
-0.0014285081
-0.00083851243
-0.00051252484
-0.037469403
-0.042637715
-0.048496923
-0.055096594
-0.062468507
-0.07061341
-0.079492208
-0.088908963
-0.098523636
-0.10679627
-0.11264449
-0.11726724
-0.12010659
-0.12112785
-0.12018252
-0.11729876
-0.11260382
-0.10627475
-0.098615917
-0.089991528
-0.080763227
-0.071281649
-0.061955478
-0.053238846
-0.045250883
-0.03681145
-0.029807429
-0.023607145
-0.018388027
-0.013965541
-0.010226313
-0.0070636405
-0.0043977379
-0.0021496855
-0.00027242962
0.0013027036
0.0025935328
0.0036392073
0.004499981
-0.037302953
-0.032921507
-0.029041328
-0.025632368
-0.022645147
-0.020024747
-0.017725129
-0.015706528
-0.013929232
-0.012326168
-0.010871828
-0.009468534
-0.008283
-0.0072421374
-0.0063223415
-0.0055486152
-0.0048812959
-0.0043100364
-0.0037965945
-0.0033372738
-0.0028926396
-0.0024609291
-0.0019932532
-0.0015523071
-0.0009204462
-0.00052502408
-0.042240352
-0.047824425
-0.054123115
-0.061178878
-0.069011094
-0.077604076
-0.086884761
-0.09663188
-0.10644421
-0.11470118
-0.12014654
-0.12420874
-0.12629129
-0.12641737
-0.12448378
-0.12057283
-0.11485527
-0.10757121
-0.099075479
-0.08972317
-0.079867268
-0.069975957
-0.060604837
-0.051912799
-0.042465084
-0.034614685
-0.027625441
-0.021741364
-0.016752631
-0.012530127
-0.0089580176
-0.0059363936
-0.0033902168
-0.0012409979
0.00055851825
0.0020690804
0.0033078395
0.0043231562
0.0051597076
-0.042057169
-0.037302953
-0.033072235
-0.029337224
-0.026047667
-0.023147299
-0.020588794
-0.018330914
-0.016332916
-0.014522393
-0.012875393
-0.011261091
-0.009883728
-0.0086702933
-0.0075974478
-0.0066834089
-0.0059067777
-0.0052287348
-0.0046410024
-0.0041050343
-0.0036181684
-0.0031396241
-0.0026723438
-0.0021625798
-0.0016750354
-0.0010014534
-0.00054072374
-0.047388967
-0.053390613
-0.060126359
-0.067630025
-0.07590681
-0.084920246
-0.094561588
-0.10461138
-0.11449873
-0.12266294