/*--------------------------------*- C++ -*----------------------------------*\
| =========                 |                                                 |
| \\      /  F ield         | OpenFOAM: The Open Source CFD Toolbox           |
|  \\    /   O peration     | Version:  5.0                                   |
|   \\  /    A nd           | Web:      www.OpenFOAM.org                      |
|    \\/     M anipulation  |                                                 |
\*---------------------------------------------------------------------------*/
FoamFile
{
    version     2.0;
    format      ascii;
    class       surfaceScalarField;
    location    "180";
    object      phi;
}
// * * * * * * * * * * * * * * * * * * * * * * * * * * * * * * * * * * * * * //

dimensions      [0 3 -1 0 0 0 0];

internalField   nonuniform List<scalar> 
18180
(
0.0016134787
-1.3906763
0.0031167263
-1.3009159
0.0015596953
-1.392236
0.0045140423
-1.2171888
0.0030058001
-1.302362
0.001503997
-1.39374
0.0058156543
-1.1389961
0.0043557924
-1.2185388
0.0029027193
-1.3037607
0.001453247
-1.3951932
0.007022666
-1.0659681
0.0056139236
-1.1402542
0.0042097744
-1.2198459
0.0028060955
-1.3051136
0.0014021139
-1.3965953
0.0081405517
-0.9976973
0.0067836342
-1.0671378
0.0054291698
-1.1414736
0.0040738345
-1.2211136
0.0027108083
-1.3064223
0.0013512523
-1.3979466
0.0091710877
-0.9338425
0.0078682769
-0.99878195
0.0065656809
-1.0682743
0.0052607469
-1.1426605
0.0039404081
-1.2223432
0.0026157273
-1.3076867
0.0012986299
-1.3992452
0.010117964
-0.87408612
0.0088702458
-0.93484447
0.0076217249
-0.99983799
0.0063713654
-1.0693849
0.0050960173
-1.1438161
0.0038081433
-1.2235356
0.0025178385
-1.3089059
0.0012438069
-1.400489
0.010984298
-0.8181456
0.0097922789
-0.87500815
0.0085998383
-0.93582258
0.0074079682
-1.0008746
0.0061821627
-1.0704711
0.0049345783
-1.1449426
0.0036723044
-1.2246901
0.0024156471
-1.3100778
0.0011860802
-1.4016751
0.011773994
-0.76576022
0.010637158
-0.81899048
0.0095021954
-0.87591051
0.0083725891
-0.9367872
0.0072008818
-1.0018933
0.0059994549
-1.071536
0.004769006
-1.1460393
0.0035305851
-1.225805
0.00230785
-1.3111995
0.001124653
-1.4027997
0.01249141
-0.71669635
0.01140799
-0.76653105
0.010331293
-0.81981958
0.0092668834
-0.8768048
0.0081537377
-0.93774006
0.0070047458
-1.0028986
0.0058123501
-1.0725793
0.0045967233
-1.1471054
0.0033803053
-1.2268775
0.0021929801
-1.3122679
0.0010593071
-1.403859
0.013141854
-0.67073533
0.01210819
-0.71739655
0.011089874
-0.76728963
0.010092691
-0.82064539
0.0090417843
-0.87769285
0.0079515207
-0.93868683
0.0068041561
-1.0038904
0.0056186314
-1.0736012
0.004413747
-1.1481389
0.0032198752
-1.2279044
0.0020704702
-1.313279
0.00098990847
-1.4048489
0.013732111
-0.62767419
0.012741748
-0.67136888
0.011781134
-0.71808781
0.010852061
-0.768049
0.0098661829
-0.82146979
0.0088401727
-0.8785815
0.0077450186
-0.9396277
0.0065980304
-1.0048698
0.0054123414
-1.0745998
0.0042178244
-1.1491368
0.0030486489
-1.2288826
0.0019399382
-1.3142291
0.00091657652
-1.4057655
0.014271297
-0.58731654
0.013313794
-0.62824623
0.012408922
-0.67199667
0.011547446
-0.7187832
0.010628264
-0.76881108
0.0096710742
-0.82230069
0.0086345081
-0.87947099
0.0075349165
-0.94056458
0.0063776756
-1.0058351
0.0051906206
-1.0755726
0.0040074135
-1.1500956
0.0028653894
-1.229808
0.0018015628
-1.3151141
0.00083958563
-1.4066051
0.014771664
-0.54946278
0.013831823
-0.58783457
0.012978178
-0.62881549
0.012181849
-0.67263108
0.011329796
-0.71948473
0.010444723
-0.76958473
0.0094721551
-0.82313834
0.0084284001
-0.88036447
0.0073092556
-0.94149616
0.0061403218
-1.0067848
0.0049515387
-1.0765167
0.003781115
-1.1510113
0.0026703727
-1.2306768
0.0016557808
-1.3159302
0.00075936252
-1.4073645
0.01524915
-0.51390095
0.01430752
-0.54993848
0.013495845
-0.58835224
0.012759215
-0.62939285
0.011973112
-0.67327439
0.011162011
-0.72020202
0.010257575
-0.77037015
0.0092771823
-0.82398712
0.0082056052
-0.88126082
0.0070660645
-0.94242191
0.0058827309
-1.007716
0.0046926654
-1.0774283
0.0035394979
-1.1518804
0.0024640199
-1.2314851
0.0015033568
-1.3166742
0.00067645073
-1.4080409
0.015721513
-0.48039909
0.014758304
-0.51435173
0.01397221
-0.55041484
0.013285304
-0.58887833
0.012561472
-0.62998121
0.011824334
-0.67393672
0.010990744
-0.72093519
0.010079888
-0.77117285
0.0090645372
-0.82484605
0.0079656527
-0.88216041
0.0067997754
-0.94333895
0.0056018871
-1.0086253
0.0044145879
-1.0783034
0.0032821011
-1.1526985
0.0022473786
-1.2322291
0.0013452784
-1.3173431
0.0005914918
-1.4086324
0.016205323
-0.44870384
0.015207109
-0.48084789
0.014422049
-0.51480157
0.013769151
-0.55089869
0.0130998
-0.58941666
0.012433899
-0.63059078
0.011672163
-0.67461813
0.010835459
-0.72169076
0.0098836989
-0.77199202
0.0088360559
-0.82571645
0.0077000141
-0.88306065
0.0065074896
-0.94424455
0.0052980303
-1.0095087
0.0041162125
-1.0791375
0.0030106685
-1.1534618
0.0020217324
-1.2329055
0.0011827493
-1.3179343
0.00050519083
-1.4091376
0.016711651
-0.41855855
0.015680068
-0.4491768
0.014864433
-0.48129028
0.014224626
-0.51525705
0.013595972
-0.55139486
0.012994386
-0.58997714
0.012303169
-0.63122179
0.011543338
-0.67532601
0.010661003
-0.72246806
0.0096739751
-0.77282994
0.0085796526
-0.82659609
0.0074063478
-0.88395951
0.0061882934
-0.94513482
0.0049692718
-1.0103618
0.0037997002
-1.0799265
0.0027262458
-1.1541663
0.0017887662
-1.2335115
0.0010170993
-1.3184462
0.00041829063
-1.4095559
0.01724142
-0.38972893
0.016200683
-0.41907917
0.015320964
-0.44963333
0.014670877
-0.48173653
0.014062271
-0.51572335
0.013512197
-0.55191267
0.012886531
-0.5905605
0.012203746
-0.63188219
0.011394867
-0.67605988
0.010476249
-0.72327034
0.0094344636
-0.77368475
0.0082939509
-0.82748369
0.0070820106
-0.88485323
0.0058399623
-0.94600551
0.004618112
-1.0111802
0.0034655675
-1.0806658
0.0024310716
-1.1548086
0.0015503304
-1.2340448
0.00084974399
-1.3188777
0.00033154561
-1.4098874
0.017782864
-0.36203217
0.016782712
-0.39031096
0.015810907
-0.41956911
0.015131145
-0.4500936
0.014516018
-0.48219027
0.013998083
-0.51620923
0.013427575
-0.55245372
0.012818201
-0.59117496
0.012084483
-0.63257181
0.011240182
-0.67682381
0.010260254
-0.72409613
0.0091652118
-0.77455601
0.0079741206
-0.8283758
0.0067247179
-0.88573798
0.0054645851
-0.94685198
0.0042442575
-1.0119589
0.0031169025
-1.0813517
0.0021273516
-1.1553856
0.0013084537
-1.2345035
0.0006821429
-1.3192283
0.00024569893
-1.4101331
0.018312043
-0.33535988
0.017424211
-0.36267367
0.01634525
-0.3908453
0.015627993
-0.42006596
0.014978809
-0.45055639
0.01446822
-0.48266041
0.013935741
-0.5167174
0.013390569
-0.55302609
0.012730309
-0.59182079
0.011963796
-0.63329542
0.011053238
-0.67761679
0.01001494
-0.72494585
0.0088587876
-0.77544067
0.0076180218
-0.82926911
0.0063356294
-0.88660903
0.005061438
-0.94766916
0.0038515384
-1.0126935
0.0027555223
-1.0819798
0.0018176712
-1.1558948
0.001065274
-1.2348866
0.00051575165
-1.3194983
0.0001615159
-1.4102947
0.018796344
-0.30968508
0.018105035
-0.3360407
0.016921647
-0.36325007
0.016176794
-0.3913941
0.015472434
-0.42055958
0.014943935
-0.4510321
0.014425795
-0.48315047
0.013928641
-0.51725547
0.013335014
-0.55363079
0.012646298
-0.59250329
0.011810331
-0.63405252
0.010838238
-0.67844009
0.0097299034
-0.72581697
0.008513409
-0.77633606
0.0072254994
-0.83015898
0.0059137449
-0.88746133
0.0046343897
-0.94845201
0.0034412245
-1.0133792
0.0023851035
-1.0825473
0.0015046191
-1.1563342
0.00082297333
-1.2351938
0.00035203261
-1.3196889
7.9840941e-05
-1.4103745
0.019199861
-0.28505227
0.018788731
-0.31036877
0.017522301
-0.33664136
0.016779566
-0.36385284
0.016012901
-0.39193457
0.015448026
-0.42106367
0.014917884
-0.45152419
0.014445614
-0.48366744
0.013904983
-0.51782544
0.013288935
-0.55427343
0.012529578
-0.59322253
0.011630867
-0.63484515
0.010581545
-0.67929173
0.009403951
-0.72670751
0.008127282
-0.77723784
0.0067953392
-0.83104057
0.0054625176
-0.88828946
0.0041844531
-0.94919524
0.0030178135
-1.0140119
0.0020081774
-1.0830508
0.0011910714
-1.1567023
0.00058381677
-1.2354256
0.000192479
-1.3198015
1.7239037e-06
-1.4103762
0.019489184
-0.26155556
0.019428015
-0.28569155
0.018115723
-0.31096219
0.017421616
-0.33728341
0.016604243
-0.36444418
0.015998715
-0.39248526
0.015434439
-0.42158023
0.014960547
-0.45203912
0.014451914
-0.48421437
0.013896465
-0.51843297
0.013210942
-0.55495479
0.012389619
-0.59398128
0.011408362
-0.63567196
0.010282766
-0.68017055
0.0090333791
-0.72761361
0.0076990275
-0.77814153
0.0063302433
-0.8319083
0.0049827553
-0.88908776
0.0037164043
-0.94989383
0.0025837455
-1.0145875
0.0016286069
-1.0834884
0.0008799673
-1.1569984
0.00034959523
-1.2355827
3.8943557e-05
-1.3198387
-7.1501723e-05
-1.4103047
0.019638366
-0.23931031
0.019972115
-0.26209966
0.018661763
-0.28623759
0.018072374
-0.31161295
0.017234587
-0.33791375
0.016602874
-0.36504834
0.015994502
-0.39304532
0.015495838
-0.42211552
0.014993562
-0.45258077
0.014478886
-0.48479679
0.013857692
-0.51907972
0.013113065
-0.55567824
0.012205965
-0.59477889
0.011143415
-0.63653261
0.0099360657
-0.68107323
0.008616702
-0.72853128
0.0072303172
-0.77904161
0.0058307756
-0.83275632
0.0044791678
-0.88985053
0.0032327377
-0.95054282
0.0021436704
-1.0151025
0.0012493125
-1.0838577
0.00057379237
-1.1572226
0.00012269614
-1.2356665
-0.00010828077
-1.3198019
-0.00014456812
-1.4101602
0.019632059
-0.21842529
0.020374266
-0.23971246
0.019117938
-0.26255583
0.018690359
-0.28685558
0.017876024
-0.31225439
0.01725132
-0.3385622
0.016606859
-0.3656607
0.016071799
-0.39362128
0.015551758
-0.42267372
0.015052502
-0.45315439
0.014478171
-0.48541727
0.013802863
-0.51976952
0.012971608
-0.55644388
0.011980321
-0.59561579
0.010827918
-0.63742446
0.0095399313
-0.68199646
0.0081543228
-0.72945529
0.0067214094
-0.77993224
0.0053013004
-0.83357845
0.0039542692
-0.89057206
0.0027385628
-0.95113771
0.0017007218
-1.0155539
0.00087385037
-1.0841578
0.0002749359
-1.1573749
-9.6297627e-05
-1.2356785
-0.00024967193
-1.3196968
-0.00021259745
-1.4099476
0.019464996
-0.19898223
0.020598149
-0.21864917
0.019445649
-0.24004017
0.019229748
-0.26309522
0.018488116
-0.28746767
0.017918124
-0.31292119
0.017264696
-0.33922003
0.01669958
-0.36628848
0.016147362
-0.39421688
0.015638482
-0.4232597
0.015087121
-0.45376334
0.014465572
-0.48607998
0.01370542
-0.52050333
0.012789396
-0.55725296
0.011702248
-0.59649012
0.010460407
-0.63834494
0.0090932986
-0.68293544
0.0076461376
-0.73038002
0.0061760718
-0.78080701
0.004744251
-0.83436843
0.0034133922
-0.89124689
0.0022373362
-0.95167433
0.0012592718
-1.0159394
0.00050499309
-1.0843878
-1.4520896e-05
-1.1574567
-0.00030592621
-1.2356222
-0.00038314725
-1.3195263
-0.00027627551
-1.4096713
0.019139202
-0.18102479
0.020623384
-0.19900747
0.019615377
-0.2188189
0.019647475
-0.2404579
0.019025534
-0.26363264
0.018564037
-0.28811358
0.017944092
-0.31360059
0.017375128
-0.33989558
0.016793147
-0.36693426
0.016258214
-0.39483661
0.015704757
-0.42387733
0.015114223
-0.45441199
0.014412214
-0.48678677
0.013569202
-0.52128313
0.012553698
-0.55810441
0.011370395
-0.59740011
0.010038201
-0.63928984
0.008595662
-0.68388496
0.0070950902
-0.73129903
0.0055965318
-0.78165929
0.0041649618
-0.83512
0.0028602676
-0.89186982
0.001734055
-0.95214911
0.00082261947
-1.016257
0.00014575074
-1.0845481
-0.00029274897
-1.1574698
-0.00050479009
-1.2355006
-0.00050853096
-1.319294
-0.00033509178
-1.4093362
0.018670341
-0.16456995
0.020447003
-0.18084841
0.019611675
-0.19900377
0.019907983
-0.21907941
0.019445109
-0.24087747
0.019143068
-0.26421167
0.018607149
-0.28877664
0.018076705
-0.31430217
0.017487254
-0.34058969
0.016926159
-0.36760221
0.016352582
-0.39548444
0.015767906
-0.42453102
0.015103249
-0.45510302
0.014322738
-0.48754031
0.013379329
-0.52210876
0.012263316
-0.55899733
0.010980376
-0.59834228
0.0095603692
-0.64025455
0.0080489386
-0.68483881
0.0065030713
-0.73220557
0.0049879026
-0.78248223
0.0035673259
-0.83582706
0.0023003649
-0.89243613
0.0012325817
-0.95255907
0.00039460383
-1.0165058
-0.00020142415
-1.0846394
-0.00055785691
-1.1574168
-0.0006919543
-1.2353172
-0.0006249243
-1.3190042
-0.00038891413
-1.4089473
0.016348818
-0.1753482
0.020067326
-0.16419027
0.019431728
-0.18066846
0.019983968
-0.19907975
0.019711854
-0.21934615
0.019609647
-0.24134405
0.019207536
-0.26481206
0.018767043
-0.28946697
0.018210006
-0.31502492
0.017642776
-0.34130631
0.017046344
-0.36829597
0.01644807
-0.3961646
0.015796296
-0.42522406
0.015059381
-0.45583966
0.014180372
-0.48834135
0.013134761
-0.52298021
0.011912123
-0.55992907
0.010530822
-0.59931274
0.0090276342
-0.64123324
0.0074545622
-0.6857903
0.0058747531
-0.73309242
0.0043540938
-0.783269
0.0029571205
-0.83648381
0.0017380638
-0.89294161
0.00073748691
-0.95290196
-2.1694322e-05
-1.0166856
-0.00053406921
-1.0846632
-0.00080845574
-1.1573003
-0.00086645634
-1.2350756
-0.00073206002
-1.318661
-0.00043783049
-1.4085094
0.014308468
-0.16990107
0.017893002
-0.17317387
0.019074635
-0.16383318
0.019860115
-0.18054461
0.019803077
-0.19917097
0.019924899
-0.2196614
0.019698346
-0.24183486
0.019399484
-0.2654445
0.018925416
-0.29018239
0.018390481
-0.31577262
0.017788547
-0.34204851
0.017171628
-0.36901953
0.016512458
-0.39688077
0.015795414
-0.4259601
0.014964291
-0.45662358
0.013984187
-0.48919078
0.01282765
-0.52389574
0.011498311
-0.56089656
0.010021131
-0.60030623
0.0084408673
-0.64221955
0.0068165522
-0.6867321
0.0052138986
-0.73395223
0.0037010045
-0.78401288
0.002339148
-0.8370849
0.0011785923
-0.89338271
0.00025253573
-0.95317619
-0.00042309902
-1.0167965
-0.00085022912
-1.0846214
-0.0010432526
-1.1571235
-0.0010277566
-1.2347799
-0.00082975175
-1.3182691
-0.00048176393
-1.4080277
0.012460559
-0.16438097
0.015957939
-0.167966
0.016988405
-0.17108764
0.019544563
-0.16351762
0.019707676
-0.18044921
0.020060433
-0.19930651
0.020039161
-0.22000222
0.01992565
-0.24236103
0.01958681
-0.26610589
0.019134437
-0.29092634
0.018563643
-0.31654772
0.017943073
-0.34281995
0.01726952
-0.36977659
0.016551385
-0.39763674
0.015745737
-0.42674154
0.014817098
-0.45745649
0.01372472
-0.49008785
0.012455758
-0.52485318
0.011019867
-0.5618953
0.0094515272
-0.60131689
0.0078032422
-0.64320624
0.0061383579
-0.68765656
0.0045263273
-0.73477755
0.0030337298
-0.78470746
0.0017191947
-0.8376255
0.00062639301
-0.89375657
-0.0002183572
-0.95338093
-0.0008070454
-1.0168397
-0.0011481434
-1.0845165
-0.001261368
-1.1568899
-0.0011754621
-1.2344342
-0.00091792745
-1.317833
-0.00052088364
-1.4075068
0.010721762
-0.15896318
0.014151867
-0.16257489
0.015134676
-0.16611227
0.017543562
-0.16908664
0.019423015
-0.16323296
0.020000595
-0.18038937
0.020201144
-0.19946849
0.020302657
-0.22037923
0.020144642
-0.24291886
0.019827888
-0.26679934
0.01933807
-0.29170077
0.018748883
-0.31735353
0.018073766
-0.3436242
0.017345763
-0.37057097
0.016544467
-0.39843547
0.015646378
-0.42757082
0.014606887
-0.45833866
0.013399287
-0.49103138
0.012015607
-0.52584892
0.010476295
-0.56292007
0.00882417
-0.60233782
0.0071177326
-0.64418561
0.0054255091
-0.68855574
0.0038172674
-0.73556109
0.0023584814
-0.78534675
0.0011023343
-0.83810144
8.6138624e-05
-0.89406107
-0.00067192202
-0.95351605
-0.0011711593
-1.0168167
-0.0014264983
-1.0843514
-0.001462155
-1.1566032
-0.0013094202
-1.2340427
-0.00099672247
-1.3173571
-0.00055526756
-1.4069515
0.0090230143
-0.15383615
0.012380243
-0.15719156
0.013411357
-0.16085158
0.015750597
-0.16431931
0.017502683
-0.16716631
0.019746641
-0.16297901
0.020169324
-0.18035755
0.020498303
-0.19966414
0.020554178
-0.22078876
0.020420053
-0.24351103
0.020065144
-0.26752642
0.019556745
-0.29250863
0.018913631
-0.31819339
0.018186511
-0.34446495
0.01737938
-0.37140588
0.016490802
-0.39927989
0.015485176
-0.42844911
0.014330509
-0.45926988
0.013002953
-0.49201872
0.011505937
-0.52687856
0.0098686082
-0.5639645
0.0081414101
-0.6033615
0.0063893711
-0.64514948
0.0046831889
-0.68942166
0.0030931935
-0.7362958
0.0016808796
-0.7859253
0.00049397538
-0.83850928
-0.00043815017
-0.89429484
-0.001105087
-0.95358212
-0.0015135874
-1.0167296
-0.0016842736
-1.0841293
-0.0016452636
-1.1562673
-0.0014296757
-1.2336098
-0.0010662994
-1.3168461
-0.00058510981
-1.4063664
0.0073130249
-0.14919151
0.01056831
-0.15202421
0.011727444
-0.15550765
0.014058544
-0.15915952
0.015773023
-0.16258965
0.017894108
-0.16531378
0.019940617
-0.1627503
0.02049385
-0.1803531
0.020781295
-0.19989125
0.020864138
-0.22123285
0.020692996
-0.24413888
0.020320011
-0.26828968
0.019758084
-0.29335308
0.019063986
-0.31907087
0.018259927
-0.34534549
0.0173695
-0.37228458
0.0163772
-0.40017191
0.015258519
-0.42937712
0.013981632
-0.46024856
0.012533659
-0.49304644
0.010926511
-0.52793647
0.0091984025
-0.5650215
0.0074075855
-0.60437971
0.0056231078
-0.64608939
0.0039179469
-0.69024642
0.0023601479
-0.73697507
0.0010070008
-0.78643832
-0.00010109192
-0.83884634
-0.00094262408
-0.8944573
-0.00151534
-0.95358037
-0.0018328131
-1.0165811
-0.0019208215
-1.0838537
-0.0018105969
-1.1558864
-0.0015364182
-1.2331396
-0.0011269619
-1.3163042
-0.00061059622
-1.4057558
0.005560247
-0.14521335
0.0086650717
-0.14728827
0.010009777
-0.15030655
0.012372946
-0.15382205
0.014128583
-0.15751508
0.016209322
-0.16090486
0.018150421
-0.16352358
0.02028551
-0.16254196
0.020805637
-0.18037744
0.021123577
-0.20015069
0.021172961
-0.22171281
0.020985648
-0.24480451
0.020560561
-0.26909216
0.019948429
-0.29423753
0.019178301
-0.31998924
0.018293294
-0.34626929
0.01730211
-0.37320949
0.0161996
-0.40111299
0.014958776
-0.43035427
0.013557382
-0.46127228
0.011989853
-0.49410979
0.010278059
-0.52901612
0.0084691446
-0.56608306
0.006627227
-0.60538383
0.0048253646
-0.64699681
0.0031360907
-0.69102236
0.0016247702
-0.73759284
0.00034238393
-0.7868818
-0.00067819941
-0.83911076
-0.0014240218
-0.89454862
-0.0019005481
-0.95351264
-0.0021277651
-1.0163741
-0.0021358013
-1.0835285
-0.0019582769
-1.1554645
-0.0016299956
-1.2326366
-0.0011790522
-1.3157358
-0.00063195284
-1.4051239
0.0037523626
-0.14206627
0.0066457452
-0.14319402
0.008208193
-0.14548669
0.010618831
-0.14855243
0.012475277
-0.15216874
0.014586431
-0.15589219
0.016513496
-0.15926794
0.018548467
-0.16178654
0.020620753
-0.16235708
0.021175639
-0.1804295
0.021466313
-0.20044404
0.021503013
-0.22223018
0.021266909
-0.24551086
0.020793317
-0.26993705
0.020106007
-0.29516523
0.019256198
-0.32095214
0.01827194
-0.34723912
0.017172735
-0.37418262
0.015949208
-0.40210343
0.014582266
-0.43137915
0.01305487
-0.4623373
0.011371314
-0.49520304
0.0095630246
-0.53011
0.0076847675
-0.5671406
0.0058064203
-0.60636489
0.0040025326
-0.64786325
0.0023446802
-0.69174227
0.00089327798
-0.73814373
-0.00030747962
-0.78725252
-0.0012332678
-0.83930152
-0.0018794762
-0.89456969
-0.0022590856
-0.95338132
-0.0023977421
-1.0161122
-0.0023291692
-1.0831576
-0.00208863
-1.1550059
-0.0017108588
-1.2321048
-0.0012229832
-1.3151448
-0.00064941891
-1.4044744
0.0018936088
-0.13988463
0.0045107947
-0.13993132
0.0062971604
-0.14128299
0.0087459176
-0.14361377
0.010737583
-0.14681474
0.012930487
-0.1505128
0.014922295
-0.15430099
0.016946669
-0.15766614
0.018937672
-0.16010346
0.021012547
-0.16219398
0.021548255
-0.18051144
0.02183108
-0.20077211
0.021824536
-0.2227878
0.021543258
-0.2462608
0.020996555
-0.2708276
0.020231015
-0.29614005
0.019282474
-0.32196268
0.018191043
-0.34825743
0.016971561
-0.37520497
0.015621559
-0.40314272
0.014124781
-0.43244906
0.012472867
-0.46343885
0.010679338
-0.49631935
0.0087845784
-0.53120981
0.0068508164
-0.56818499
0.0049514433
-0.6073138
0.0031619186
-0.64868049
0.0015505
-0.69239949
0.0001719522
-0.73862317
-0.00093764616
-0.78754814
-0.0017625995
-0.83941839
-0.0023066836
-0.89452209
-0.0025897597
-0.9531893
-0.0026424158
-1.015799
-0.0025011425
-1.0827451
-0.0022021467
-1.1545146
-0.0017795602
-1.2315482
-0.0012592028
-1.314535
-0.00066324628
-1.4038112
-0.13876355
1.2230958e-08
0.0022826743
-0.13765651
0.0042759415
-0.1379101
0.0067315178
-0.13926859
0.0088654394
-0.14174163
0.011166929
-0.14505118
0.013278441
-0.14886894
0.01537153
-0.15272585
0.017374225
-0.15610269
0.019376448
-0.15846736
0.021409075
-0.16205481
0.021942897
-0.18062326
0.022190159
-0.20113773
0.022143556
-0.2233881
0.021793244
-0.24705749
0.021171288
-0.27176787
0.020307837
-0.29716541
0.019252058
-0.32302369
0.018039909
-0.34932577
0.016693384
-0.3762768
0.015211186
-0.40422912
0.013584063
-0.43356026
0.011811437
-0.46457095
0.0099161942
-0.49745097
0.0079475351
-0.53230653
0.0059732549
-0.5692068
0.0040696548
-0.60822154
0.0023107279
-0.64944072
0.00076053871
-0.69298808
-0.00053340627
-0.7390274
-0.0015435373
-0.7877672
-0.0022630994
-0.83946198
-0.0027038234
-0.89440803
-0.0028918265
-0.95293989
-0.0028617866
-1.0154383
-0.0026521686
-1.0822951
-0.0022994606
-1.1539947
-0.0018367193
-1.2309707
-0.00128819
-1.31391
-0.00067369482
-1.4031375
-0.13648089
1.3501617e-08
-0.13876355
-0.0018935845
0.0021649825
-0.13554555
0.0045802637
-0.13575884
0.006837096
-0.13724025
0.0092458245
-0.13982053
0.011504612
-0.14327735
0.013724004
-0.14722142
0.015817998
-0.15116963
0.01784244
-0.15456868
0.019819676
-0.15687796
0.021827233
-0.16193914
0.022334655
-0.18076776
0.022548582
-0.20154276
0.022439153
-0.22403401
0.022018923
-0.24790513
0.021301611
-0.27276164
0.020331279
-0.29824463
0.019153524
-0.32413731
0.017812657
-0.35044505
0.016331556
-0.37739717
0.014714802
-0.40535986
0.012958891
-0.43470771
0.011071829
-0.46572659
0.009085792
-0.49858923
0.0070573435
-0.53339062
0.0050592848
-0.57019643
0.003168504
-0.60907931
0.0014565288
-0.65013671
-1.8583234e-05
-0.6935029
-0.0012172991
-0.73935364
-0.0021211655
-0.78790914
-0.0027321902
-0.83943361
-0.0030695974
-0.89423026
-0.003164944
-0.95263673
-0.0030561573
-1.0150343
-0.0027828907
-1.0818117
-0.0023813135
-1.1534501
-0.0018830118
-1.2303759
-0.0013104422
-1.3132733
-0.00068102584
-1.4024565
-0.13431592
1.4019279e-08
-0.13648089
-0.0022826477
-0.13988463
-0.0037523387
0.002320914
-0.1332862
0.0046590101
-0.13358076
0.007146569
-0.13514099
0.0095502388
-0.13786615
0.011924482
-0.14147783
0.01416772
-0.14557114
0.01629768
-0.14962487
0.018315815
-0.15306482
0.02028081
-0.15533153
0.022244817
-0.1618493
0.022727198
-0.18094637
0.02288616
-0.20198977
0.022714569
-0.22472966
0.022204228
-0.24880774
0.021382354
-0.27381272
0.02028936
-0.29938047
0.018980401
-0.32530505
0.017501546
-0.35161504
0.015881783
-0.37856415
0.014129892
-0.40653087
0.012249421
-0.4358853
0.010256907
-0.4668977
0.0081928789
-0.49972476
0.006120839
-0.53445218
0.0041164033
-0.57114433
0.0022559812
-0.60987876
0.00060667244
-0.65076197
-0.00078046904
-0.69393973
-0.0018748001
-0.73960001
-0.0026670894
-0.78797424
-0.0031678799
-0.83933533
-0.0034031826
-0.89399202
-0.003409151
-0.95228374
-0.0032260909
-1.0145911
-0.0028941111
-1.0812989
-0.0024485358
-1.1528846
-0.0019191474
-1.2297672
-0.0013264649
-1.3126278
-0.00068549984
-1.401771
-0.13199502
1.4778665e-08
-0.13431592
-0.0021649546
-0.13765651
-0.0045107685
-0.14206626
-0.0055602236
0.002362975
-0.13099017
0.0048785094
-0.1313127
0.0073958577
-0.13298661
0.0099214697
-0.13586314
0.012342647
-0.13965276
0.014638794
-0.14391225
0.016782756
-0.14809181
0.018803354
-0.15158737
0.020741249
-0.15382797
0.022664886
-0.16178699
0.023100965
-0.18116118
0.023207329
-0.20248253
0.022953741
-0.22547917
0.022344139
-0.24976953
0.021401194
-0.27492455
0.020175144
-0.30057521
0.018723958
-0.32652746
0.017101306
-0.35283456
0.015340269
-0.37977453
0.013455477
-0.40773692
0.011457361
-0.43708576
0.0093705518
-0.46807537
0.0072437192
-0.50084764
0.0051453566
-0.53548113
0.0031528352
-0.57204119
0.0013400319
-0.61061212
-0.00023159654
-0.65131084
-0.001519229
-0.6942953
-0.0025015087
-0.73976559
-0.0031784902
-0.78796363
-0.0035687201
-0.83916979
-0.0037042191
-0.89369695
-0.0036248209
-0.95188501
-0.0033723704
-1.0141129
-0.0029867631
-1.0807607
-0.0025020174
-1.1523017
-0.0019458571
-1.2291478
-0.001336764
-1.3119766
-0.00068737205
-1.4010836
-0.12963206
1.5291057e-08
-0.13199502
-0.0023208849
-0.13554555
-0.0042759145
-0.13993131
-0.0066457202
-0.14521334
-0.0073130023
0.0024777147
-0.12858937
0.005054528
-0.12897137
0.0076968646
-0.13076201
0.010291285
-0.13381178
0.012783278
-0.13779724
0.015114721
-0.14224422
0.017278621
-0.14656707
0.019290591
-0.15013671
0.021204112
-0.15236719
0.02306759
-0.16175362
0.023461434
-0.18141528
0.023496282
-0.20302507
0.023151864
-0.22628689
0.022426255
-0.25079459
0.021350899
-0.27610031
0.019979051
-0.30183031
0.018378003
-0.32780416
0.016606888
-0.35410118
0.014704877
-0.38102393
0.012692033
-0.40897159
0.010585592
-0.4383008
0.008418267
-0.46924992
0.006245274
-0.50194756
0.0041391522
-0.53646745
0.0021769559
-0.57287811
0.00042865286
-0.61127237
-0.0010514442
-0.65177862
-0.0022294561
-0.69456736
-0.0030936734
-0.73985041
-0.0036531533
-0.78787919
-0.0039338061
-0.8389402
-0.0039727628
-0.89334901
-0.0038126192
-0.95144476
-0.0034959647
-1.0136037
-0.0030618756
-1.0802008
-0.0025426899
-1.1517049
-0.0019638785
-1.2285207
-0.0013418387
-1.3113221
-0.0006868907
-1.4003967
-0.12715437
1.5618143e-08
-0.12963206
-0.002362945
-0.1332862
-0.0045802353
-0.13791009
-0.0062971343
-0.14319402
-0.0086650478
-0.1491915
-0.0090229924
0.0025680959
-0.12610294
0.0052666094
-0.12654111
0.0079965682
-0.12846729
0.01067883
-0.13170733
0.013227957
-0.13591048
0.015599058
-0.14056466
0.017774147
-0.14505063
0.019778348
-0.14871095
0.021650071
-0.15094967
0.023459277
-0.16175146
0.02379345
-0.18171245
0.023748385
-0.20362159
0.023296734
-0.22715737
0.022443228
-0.25188692
0.021221246
-0.2773425
0.019694073
-0.30314637
0.017936276
-0.32913355
0.016014981
-0.35541128
0.013974805
-0.3823067
0.011841344
-0.41022734
0.0096386978
-0.43952123
0.0074064393
-0.47041109
0.005205616
-0.50301402
0.0031108387
-0.53740133
0.0011973685
-0.57364683
-0.00047044902
-0.61185337
-0.001846459
-0.65216162
-0.0029063822
-0.69475465
-0.0036481811
-0.73985538
-0.0040894787
-0.78772352
-0.0042627336
-0.83865023
-0.0042092435
-0.89295239
-0.0039734643
-0.95096726
-0.0035979859
-1.0130676
-0.0031205486
-1.0796229
-0.002571505
-1.1510973
-0.0019739453
-1.2278886
-0.0013421761
-1.3106668
-0.00068429401
-1.3997124
-0.12458629
1.5905492e-08
-0.12715436
-0.0024776836
-0.13099016
-0.0046589808
-0.13575883
-0.0067314909
-0.14128298
-0.0082081685
-0.14728826
-0.010568288
-0.15383614
-0.01072174
0.0026776466
-0.12351398
0.0054777321
-0.12402228
0.0083096297
-0.12609809
0.011069775
-0.12954915
0.013679182
-0.1339906
0.016082796
-0.1388733
0.018268601
-0.14354088
0.02025114
-0.14731201
0.02208445
-0.14957485
0.023825786
-0.16178379
0.024092394
-0.18205646
0.023951899
-0.20427675
0.023381051
-0.2280952
0.022384459
-0.25305013
0.021004576
-0.278653
0.019312821
-0.30452292
0.017394288
-0.33051285
0.015323466
-0.35675994
0.013150667
-0.38361602
0.010906949
-0.4114956
0.008622313
-0.4407371
0.0063427454
-0.47154822
0.0041333882
-0.50403657
0.0020694498
-0.53827341
0.00022255346
-0.57433983
-0.0013498775
-0.61234995
-0.0026108079
-0.65245719
-0.0035458915
-0.69485694
-0.0041625938
-0.73978226
-0.0044864503
-0.7874998
-0.0045555608
-0.83830391
-0.0044144225
-0.89251143
-0.0041084783
-0.95045677
-0.003679658
-1.0125084
-0.0031639254
-1.0790305
-0.0025894202
-1.1504818
-0.0019767782
-1.227254
-0.0013382457
-1.3100129
-0.00067980842
-1.3990326
-0.12190865
1.6249289e-08
-0.12458628
-0.0025680642
-0.12858936
-0.0048784797
-0.13358075
-0.0068370684
-0.13926858
-0.0087458922
-0.14548668
-0.010009754
-0.15202421
-0.012380222
-0.15896318
-0.012460538
0.0027866701
-0.12082292
0.0056977676
-0.12141041
0.0086252218
-0.12365354
0.011465461
-0.12733543
0.014129484
-0.13203729
0.016564741
-0.13716944
0.018750344
-0.14204009
0.020711899
-0.14593946
0.02249585
-0.14824491
0.024162502
-0.1618539
0.024347227
-0.18245179
0.024099676
-0.20499538
0.023394135
-0.22910487
0.022241863
-0.25428742
0.02069254
-0.28003272
0.018829672
-0.3059583
0.01674857
-0.33193796
0.014531717
-0.35814099
0.012234852
-0.38494392
0.0098935821
-0.41276686
0.0075435234
-0.44193788
0.0052356446
-0.47265047
0.0030378564
-0.50500498
0.0010240887
-0.53907494
-0.00073919663
-0.57495051
-0.0022027522
-0.61275801
-0.0033393002
-0.65266379
-0.0041445781
-0.69487495
-0.0046351298
-0.73963358
-0.0048436038
-0.78721176
-0.0048127646
-0.83790557
-0.0045893384
-0.89203057
-0.0042189494
-0.94991747
-0.003742283
-1.0119301
-0.0031931729
-1.0784268
-0.0025973837
-1.1498612
-0.0019730734
-1.2266191
-0.0013304948
-1.3093622
-0.0006736515
-1.398359
-0.119122
1.644041e-08
-0.12190865
-0.0026776148
-0.12610293
-0.0050544978
-0.13131268
-0.0071465407
-0.13724023
-0.0088654134
-0.14361376
-0.010618807
-0.15030654
-0.011727423
-0.15719155
-0.014151846
-0.16438096
-0.014308447
0.0029001817
-0.11802533
0.0059195323
-0.11870472
0.0089442136
-0.12113229
0.011860406
-0.12506635
0.014577705
-0.13005025
0.017035482
-0.13545458
0.01922013
-0.14054832
0.021152143
-0.14459575
0.022879876
-0.14696228
0.02445912
-0.1619658
0.024550965
-0.18290308
0.024181241
-0.20578249
0.023327726
-0.23019073
0.022006389
-0.25560127
0.02027851
-0.28148156
0.01823981
-0.30744954
0.015997182
-0.33340342
0.013640876
-0.35954702
0.011231071
-0.38628141
0.0088075694
-0.41403091
0.006410402
-0.44311263
0.0040944255
-0.47370704
0.0019285606
-0.50590945
-1.6158638e-05
-0.53979798
-0.0016799807
-0.57547328
-0.0030227649
-0.61307454
-0.0040274605
-0.6527809
-0.0046997513
-0.69481033
-0.0050646449
-0.73941254
-0.0051609879
-0.78686354
-0.0050351856
-0.83745973
-0.0047352635
-0.89151425
-0.0043062904
-0.94935347
-0.0037872137
-1.011336
-0.0032094587
-1.0778147
-0.0025963167
-1.1492379
-0.0019634989
-1.2259861
-0.0013193568
-1.3087165
-0.00066602368
-1.3976929
-0.11622184
1.6277617e-08
-0.119122
-0.002786638
-0.12351397
-0.0052665787
-0.12897135
-0.0073958291
-0.13514098
-0.0092457984
-0.14174162
-0.01073756
-0.14855242
-0.012372924
-0.15550764
-0.013411336
-0.16257489
-0.015957919
-0.16990107
-0.016348798
0.0030145602
-0.11512036
0.0061434795
-0.11590399
0.0092625369
-0.11853442
0.012252997
-0.12274164
0.015016225
-0.128031
0.017494907
-0.13372936
0.019671163
-0.13906734
0.021567015