/*--------------------------------*- C++ -*----------------------------------*\
| =========                 |                                                 |
| \\      /  F ield         | OpenFOAM: The Open Source CFD Toolbox           |
|  \\    /   O peration     | Version:  5.0                                   |
|   \\  /    A nd           | Web:      www.OpenFOAM.org                      |
|    \\/     M anipulation  |                                                 |
\*---------------------------------------------------------------------------*/
FoamFile
{
    version     2.0;
    format      ascii;
    class       volScalarField;
    location    "180";
    object      pMean;
}
// * * * * * * * * * * * * * * * * * * * * * * * * * * * * * * * * * * * * * //

dimensions      [0 2 -2 0 0 0 0];

internalField   nonuniform List<scalar> 
9200
(
-0.00060121946
-0.00059467635
-0.0013477619
-0.00058793557
-0.0013400296
-0.0023014741
-0.00057986279
-0.0013228437
-0.0022863057
-0.0031513201
-0.00056791663
-0.001300338
-0.0022588645
-0.0031335684
-0.0040302978
-0.00055444753
-0.0012681939
-0.0022227123
-0.0030980726
-0.0040100494
-0.0048734854
-0.00053778854
-0.0012311164
-0.0021715134
-0.003051407
-0.0039681372
-0.0048536589
-0.0057064082
-0.00051922839
-0.0011863158
-0.0021115036
-0.0029847444
-0.0039135995
-0.004808278
-0.0056887731
-0.0065148952
-0.00049843112
-0.00113615
-0.0020390902
-0.0029059364
-0.0038344073
-0.004750251
-0.0056426268
-0.0065020472
-0.0073033493
-0.00047600112
-0.0010802093
-0.0019573795
-0.0028104011
-0.0037399467
-0.0046634987
-0.0055851942
-0.0064584614
-0.0072978472
-0.0080657648
-0.00045219196
-0.0010196115
-0.0018660893
-0.0027019035
-0.0036244106
-0.0045589975
-0.0054955035
-0.006406592
-0.0072603635
-0.00807026
-0.0088019726
-0.00042749233
-0.00095485025
-0.0017669225
-0.0025801377
-0.003492161
-0.0044293098
-0.0053860895
-0.0063196531
-0.0072191658
-0.0080425114
-0.0088192162
-0.0095073057
-0.00040238868
-0.00088668937
-0.0016609034
-0.0024472535
-0.003342838
-0.0042791814
-0.0052476032
-0.0062116878
-0.0071410006
-0.0080174196
-0.0088052393
-0.0095399769
-0.010179931
-0.00037741328
-0.00081575122
-0.001549467
-0.0023046223
-0.0031790193
-0.0041078935
-0.0050851146
-0.0060709755
-0.0070413128
-0.0079544932
-0.0088021729
-0.0095436313
-0.010230701
-0.010815713
-0.00035298845
-0.00074264984
-0.0014339349
-0.0021541363
-0.0030024366
-0.0039183614
-0.0048973383
-0.0059026393
-0.0069056082
-0.0078703296
-0.0087612826
-0.0095682641
-0.010256028
-0.010887073
-0.011412217
-0.00032943783
-0.00066798893
-0.001315616
-0.0019975489
-0.002815507
-0.0037125683
-0.0046873221
-0.0057046804
-0.0067388529
-0.0077473157
-0.0087005102
-0.009556376
-0.010314353
-0.010937879
-0.011506509
-0.011966049
-0.00030627796
-0.00059268592
-0.0011957092
-0.0018366247
-0.0026205294
-0.0034933659
-0.0044571778
-0.0054801783
-0.0065380226
-0.0075900973
-0.0085986867
-0.0095270777
-0.01033874
-0.011035484
-0.011586526
-0.012085369
-0.012474612
-0.00028208228
-0.00051775376
-0.0010754016
-0.0016730467
-0.0024198494
-0.0032635087
-0.0042101208
-0.0052312195
-0.0063060221
-0.0073943347
-0.0084598354
-0.0094552546
-0.010349313
-0.01110313
-0.011729016
-0.012197949
-0.012620869
-0.012935462
-0.0002545525
-0.00044458611
-0.00095547146
-0.0015085777
-0.0022156836
-0.0030258463
-0.0039493356
-0.0049612643
-0.0060447472
-0.0071625276
-0.0082780043
-0.0093440746
-0.010316818
-0.011162032
-0.011847109
-0.01239037
-0.012769206
-0.013110176
-0.013346674
-0.00022029829
-0.000375234
-0.00083644248
-0.0013448709
-0.0020101654
-0.0027831175
-0.0036781699
-0.004673838
-0.0057577904
-0.0068961772
-0.0080550524
-0.0091856851
-0.010243284
-0.011178346
-0.011962724
-0.012565436
-0.013016286
-0.013297003
-0.013551038
-0.01370675
-0.00017536942
-0.00031207331
-0.00071877712
-0.0011835434
-0.0018051452
-0.0025379669
-0.0033998737
-0.0043727351
-0.0054489466
-0.0065988508
-0.0077918704
-0.0089810417
-0.01011865
-0.011152763
-0.012037483
-0.012745916
-0.013254699
-0.013602782
-0.013778621
-0.013941587
-0.014014704
-0.00011593589
-0.00025767881
-0.00060260931
-0.0010264375
-0.0016022552
-0.0022927874
-0.0031175837
-0.0040616984
-0.0051224222
-0.0062744907
-0.0074918348
-0.0087301681
-0.0099427007
-0.011072746
-0.012070515
-0.012888655
-0.013507905
-0.013910109
-0.014146643
-0.01421165
-0.01428045
-0.014270064
-3.9060422e-05
-0.00021445843
-0.00048796886
-0.00087540102
-0.0014030676
-0.0020497309
-0.002834165
-0.0037443689
-0.0047824532
-0.0059276376
-0.0071588936
-0.0084360426
-0.0097143241
-0.010936626
-0.012046532
-0.012991033
-0.013727919
-0.014243202
-0.014527961
-0.014644667
-0.014594195
-0.014566759
-0.014472793
5.6631306e-05
-0.00018427725
-0.00037494744
-0.00073217982
-0.0012090006
-0.0018109331
-0.0025521867
-0.0034241441
-0.0044332241
-0.0055629788
-0.0067978316
-0.0081024428
-0.0094358636
-0.010741865
-0.011962136
-0.013034803
-0.013910336
-0.014549332
-0.014947522
-0.015104082
-0.015094239
-0.014924854
-0.014800169
-0.014623168
0.00017050037
-0.00016823367
-0.00026381803
-0.00059832117
-0.0010213736
-0.0015784412
-0.0022740776
-0.0031041129
-0.0040786992
-0.005185223
-0.0064137406
-0.0077342638
-0.0091107269
-0.0104899
-0.011813067
-0.013014581
-0.014033776
-0.014822178
-0.015347961
-0.015615662
-0.015635063
-0.015493101
-0.015202745
-0.014980764
-0.014722037
0.00029982182
-0.00016663519
-0.00015504156
-0.00047506007
-0.00084145468
-0.0013542053
-0.0020021093
-0.0027871866
-0.003722535
-0.0047989103
-0.0060118506
-0.0073369129
-0.008743757
-0.010183526
-0.011599564
-0.012924085
-0.014090628
-0.015037136
-0.015721152
-0.01611779
-0.016243324
-0.01611753
-0.015839478
-0.015427395
-0.015108965
-0.01477101
0.00044027308
-0.00017848327
-4.9030158e-05
-0.00036323532
-0.00067048072
-0.0011400603
-0.0017384193
-0.002476135
-0.0033681664
-0.0044082884
-0.0055973092
-0.0069160884
-0.008340556
-0.009827332
-0.011323536
-0.012762048
-0.014072301
-0.015184168
-0.016039219
-0.01660052
-0.016853511
-0.016825926
-0.016548734
-0.016132028
-0.015598745
-0.015185778
-0.01477188
0.00058709182
-0.00019996231
5.361478e-05
-0.00026329662
-0.00050949881
-0.00093765034
-0.0014850595
-0.0021736132
-0.0030188373
-0.0040173781
-0.0051750174
-0.0064775138
-0.0079072252
-0.0094269531
-0.010989079
-0.012529185
-0.013975711
-0.015252118
-0.016289553
-0.017032765
-0.017454069
-0.017549416
-0.017359644
-0.016926292
-0.01636999
-0.015717313
-0.015212777
-0.014726656
0.00073503611
-0.00022348003
0.00015023158
-0.00017529278
-0.00035926735
-0.0007485429
-0.0012439486
-0.0018821832
-0.002677633
-0.0036300008
-0.0047496386
-0.0060267385
-0.0074500415
-0.0089887738
-0.010601663
-0.012228818
-0.013800051
-0.01523577
-0.016458207
-0.017399261
-0.018010821
-0.018274979
-0.018200419
-0.017840832
-0.017248475
-0.016553185
-0.015784169
-0.01519181
-0.014637714
0.00087552642
-0.00024564651
0.00023453687
-9.8890033e-05
-0.00022056574
-0.00057399985
-0.001016761
-0.0016042926
-0.0023475244
-0.003249808
-0.0043256188
-0.0055691013
-0.0069752206
-0.0085195476
-0.010167805
-0.011866004
-0.013547556
-0.015132456
-0.01653754
-0.017683102
-0.018505834
-0.018965574
-0.019056899
-0.01880154
-0.018266574
-0.017514064
-0.016681961
-0.015800775
-0.015125057
-0.014507529
0.001009489
-0.00027270985
0.00030916345
-3.2643759e-05
-9.5026728e-05
-0.00041479161
-0.00080494376
-0.001342172
-0.002031339
-0.0028803656
-0.0039072167
-0.0051097347
-0.0064888169
-0.0080261148
-0.0096946335
-0.011447192
-0.013222579
-0.014942976
-0.016522684
-0.017873959
-0.018919139
-0.019600667
-0.01988947
-0.019793427
-0.019348462
-0.018634418
-0.017722474
-0.016757077
-0.015768945
-0.015014933
-0.014338725
0.0011535621
-0.00030619015
0.00037821824
2.9294381e-05
1.4701579e-05
-0.0002715824
-0.00060971747
-0.0010976834
-0.001731727
-0.0025251379
-0.0034985762
-0.0046535894
-0.0059966969
-0.0075152457
-0.0091895623
-0.010979729
-0.012831255
-0.014670652
-0.016412639
-0.017964437
-0.019237505
-0.0201572
-0.020675156
-0.020774697
-0.020478724
-0.019837309
-0.018942622
-0.017873648
-0.016779773
-0.01569079
-0.014863997
-0.014134092
0.0013003288
-0.00034323311
0.00043880075
8.4678484e-05
0.00011552319
-0.00014401929
-0.00043280496
-0.00087233947
-0.0014509982
-0.0021873613
-0.0031037251
-0.0042055181
-0.0055045511
-0.0069935752
-0.0086600635
-0.010471491
-0.012380957
-0.014321004
-0.016209335
-0.017951366
-0.019450716
-0.020618897
-0.021387877
-0.021720176
-0.021613843
-0.021107316
-0.020264931
-0.019190032
-0.017968122
-0.016751741
-0.015568637
-0.014674903
-0.013896685
0.0014428394
-0.00038105503
0.00050126918
0.00012023875
0.00021281146
-2.2379003e-05
-0.00027570515
-0.00066788968
-0.0011910735
-0.0018698471
-0.0027265061
-0.0037702897
-0.0050179725
-0.0064676021
-0.008113554
-0.0099305882
-0.011879877
-0.01390118
-0.015917336
-0.017834891
-0.019553067
-0.020972465
-0.022008238
-0.022600928
-0.022726778
-0.02239972
-0.021674422
-0.020628813
-0.019376179
-0.01800693
-0.016675016
-0.015405064
-0.014450537
-0.013629363
0.0015760649
-0.00041975095
0.0005648248
0.00015289503
0.00029278695
9.5965443e-05
-0.00012663181
-0.00048525177
-0.00095433681
-0.0015749833
-0.0023703659
-0.0033524841
-0.0045424846
-0.0059437542
-0.0075573687
-0.0093652029
-0.01133667
-0.013419483
-0.015543257
-0.017618238
-0.019542516
-0.021209327
-0.022519685
-0.023394454
-0.023785996
-0.023686029
-0.023125751
-0.022175906
-0.020927198
-0.019501198
-0.017991588
-0.016551967
-0.015202885
-0.014193917
-0.013334915
0.0016954786
-0.0004579451
0.00062480943
0.00018887505
0.00036720312
0.0001822789
2.0078379e-05
-0.00030957124
-0.00074244071
-0.0013056207
-0.0020382832
-0.0029562547
-0.0040834681
-0.0054284274
-0.0069988096
-0.0087835266
-0.010760231
-0.012884964
-0.015095264
-0.017307136
-0.01942054
-0.021324857
-0.022910475
-0.02408084
-0.024766021
-0.024932471
-0.024589448
-0.023785949
-0.022608436
-0.021159041
-0.019565833
-0.017924028
-0.016385207
-0.014965003
-0.013907935
-0.013016106
0.0017967537
-0.00049337961
0.0006783293
0.00022229178
0.00043969593
0.00025826899
0.00013298444
-0.00013746162
-0.0005383049
-0.0010636766
-0.0017337828
-0.0025852344
-0.0036459044
-0.0049279181
-0.0064451899
-0.0081937866
-0.01015959
-0.012307134
-0.014582606
-0.016909298
-0.019191578
-0.021318345
-0.023173019
-0.02464494
-0.025643563
-0.026110821
-0.026029962
-0.025429031
-0.024375132
-0.022969474
-0.021324032
-0.019571376
-0.017806549
-0.016177548
-0.014694369
-0.013595472
-0.01267565
0.0018761167
-0.00052406882
0.00072452694
0.00024994693
0.00050894669
0.00033676761
0.00023540915
-9.6416098e-06
-0.00033887792
-0.00082925403
-0.0014595052
-0.0022436786
-0.0032342284
-0.0044481354
-0.0059037856
-0.0076042861
-0.0095439064
-0.011695814
-0.014015265
-0.01643391
-0.018862526
-0.021192505
-0.023303981
-0.02507586
-0.026399926
-0.027194512
-0.027416648
-0.027068356
-0.02619751
-0.024888955
-0.023257333
-0.021422549
-0.019519623
-0.017641751
-0.015931934
-0.014393951
-0.013259353
-0.012316229
0.0019305823
-0.00054839293
0.00076260597
0.00027242001
0.00056991994
0.00041149995
0.00033642565
0.00010857614
-0.00018916588
-0.00060075022
-0.0011928077
-0.0019349538
-0.0028535635
-0.0039944162
-0.0053815478
-0.0070233655
-0.0089225029
-0.011061087
-0.01340375
-0.015891225
-0.018442193
-0.020952996
-0.023303889
-0.025367223
-0.02702063
-0.02816124
-0.028719881
-0.0286713
-0.028038137
-0.02688844
-0.025324011
-0.023471156
-0.02145563
-0.01941281
-0.01743248
-0.015651395
-0.014066696
-0.012902336
-0.011940393
0.0019582723
-0.00056530191
0.00079178631
0.00029025908
0.00062173883
0.00047582217
0.00043369574
0.00022793832
-4.6515594e-05
-0.0004316038
-0.00093231743
-0.0016334688
-0.0025082801
-0.0035728682
-0.0048848664
-0.0064591187
-0.0083048383
-0.010413321
-0.012759013
-0.015292294
-0.017940837
-0.020607869
-0.023176702
-0.025516889
-0.027495865
-0.028992742
-0.029913802
-0.030205508
-0.029862939
-0.028930516
-0.027496352
-0.025677847
-0.023610911
-0.021424916
-0.019253552
-0.017181774
-0.015339007
-0.013715501
-0.012527078
-0.011550562
-0.00057388509
0.0019582723
0.00081109389
0.00030366849
0.00066398947
0.00052979416
0.00051896778
0.00034310642
9.503229e-05
-0.0002666081
-0.00073887795
-0.0013385018
-0.0021698224
-0.0031889968
-0.0044209818
-0.0059190845
-0.0077002287
-0.0097631398
-0.012092435
-0.01464883
-0.017369841
-0.020167066
-0.022929282
-0.025526632
-0.027820368
-0.029675446
-0.030976266
-0.03164175
-0.03163728
-0.030980276
-0.029737651
-0.028016815
-0.025948989
-0.023677343
-0.021332588
-0.019044785
-0.016892806
-0.014997858
-0.013343191
-0.012136112
-0.011148989
0.00082038009
-0.00057388514
0.0019305824
0.00031223671
0.00069617493
0.00057358426
0.00059119497
0.00044324906
0.00023154608
-0.00010188508
-0.00054546342
-0.001119988
-0.0018375094
-0.0028111947
-0.0039967495
-0.0054117606
-0.0071174953
-0.0091211507
-0.011415814
-0.013973178
-0.016741524
-0.019642029
-0.022570866
-0.025401641
-0.027993211
-0.030200525
-0.031889686
-0.032954014
-0.033328869
-0.033001361
-0.032012848
-0.030452765
-0.028446509
-0.026136925
-0.023671929
-0.02118131
-0.018789705
-0.01656884
-0.014631004
-0.01295248
-0.011731823
-0.010737785
0.00031621837
0.00082038009
-0.00056530192
0.0018761168
0.00071718133
0.00060684647
0.00064998279
0.00052760901
0.0003506619
5.7530615e-05
-0.00035366205
-0.00089615513
-0.0015897439
-0.0024390262
-0.0035775674
-0.0049455606
-0.0065665576
-0.0084975668
-0.01074109
-0.01327828
-0.016069071
-0.019045464
-0.02211262
-0.025149996
-0.028017393
-0.030563849
-0.032641293
-0.034120549
-0.034907975
-0.03495885
-0.034284517
-0.032951202
-0.031070271
-0.028783242
-0.026242074
-0.023596812
-0.020974157
-0.018491705
-0.016213176
-0.014241434
-0.012545952
-0.01131645
-0.010318927
0.00072702985
0.00031621831
0.00081109376
-0.00054839306
0.0017967539
0.00062833858
0.00069475642
0.00059616093
0.00045131704
0.00019656222
-0.00016820449
-0.00067458681
-0.0013293098
-0.0021588952
-0.00316293
-0.0044827952
-0.0060576444
-0.0079038298
-0.010079941
-0.01257742
-0.015366493
-0.018391224
-0.021567349
-0.02478219
-0.027899342
-0.030765685
-0.033223268
-0.035124333
-0.036348649
-0.036819586
-0.036515673
-0.035474372
-0.033787089
-0.031585845
-0.02902596
-0.026265738
-0.023454736
-0.020714546
-0.018154313
-0.015829102
-0.013832019
-0.012126037
-0.010892095
-0.0098942601
0.00063820835
0.00072702977
0.00031223662
0.00079178617
-0.00052406892
0.0016954787
0.00072396461
0.00064816866
0.00053314662
0.00031382914
-6.3652644e-06
-0.00046022263
-0.0010731067
-0.0018565612
-0.0028460362
-0.0040229693
-0.0055499878
-0.0073521973
-0.0094454512
-0.011883783
-0.014648374
-0.017694257
-0.020949334
-0.024310773
-0.02764841
-0.030810263
-0.033632599
-0.035953423
-0.037629411
-0.038553527
-0.038670155
-0.037983902
-0.036559673
-0.034513597
-0.031996484
-0.029174714
-0.02621003
-0.023248965
-0.020406166
-0.017781133
-0.015419831
-0.013405489
-0.011695026
-0.01046073
-0.009465466
0.00073765179
0.00063820833
0.00071718124
0.00030366827
0.00076260569
-0.00049337982
0.001576065
0.00068169648
0.00059527611
0.0004090252
0.00013018153
-0.00027303953
-0.00082561199
-0.0015616011
-0.0024945665
-0.0036670565
-0.0050430277
-0.0067988757
-0.0088521663
-0.011212179
-0.01392942
-0.016970356
-0.020274255
-0.023750141
-0.027276471
-0.030705276
-0.033870752
-0.036601
-0.038733828
-0.040134649
-0.040714084
-0.040441202
-0.039349035
-0.037530496
-0.035125268
-0.032300512
-0.029230613
-0.026077809
-0.022983217
-0.020052902
-0.017375753
-0.014988438
-0.012964423
-0.011255095
-0.010024196
-0.0090340722
0.00069689174
0.00073765178
0.00062833839
0.00069617467
0.00029025883
0.00072452665
-0.0004579453
0.0014428395
0.00063558969
0.00048125881
0.00024103323
-0.00011516005
-0.00060937254
-0.0012770596
-0.0021549779
-0.0032608176
-0.0046440416
-0.0062432934
-0.0082533768
-0.010579652
-0.013226199
-0.016235698
-0.01955895
-0.023116436
-0.026797657
-0.030461443
-0.033943195
-0.037065183
-0.039650786
-0.041541762
-0.042616952
-0.042808959
-0.04211486
-0.040597788
-0.038378437
-0.035618167
-0.032497564
-0.029195752
-0.025872602
-0.022661569
-0.019658712
-0.016941643
-0.014537863
-0.012511332
-0.010808324
-0.0095841631
-0.0086015482
0.0006542625
0.00069689165
0.00072396439
0.00060684623
0.00066398918
0.00027241962
0.00067832888
-0.00041975126
0.0013003289
0.00052811269
0.0003251083
1.2925383e-05
-0.0004270465
-0.0010281613
-0.0018282681
-0.0028703365
-0.0041747078
-0.0057973127
-0.0076484273
-0.0099366574
-0.012558465
-0.015508594
-0.018820956
-0.022427305
-0.026228215
-0.030092174
-0.033858951
-0.037348615
-0.04037448
-0.04275903
-0.044352666
-0.045052397
-0.044816973
-0.043674246
-0.041718363
-0.03909675
-0.035989916
-0.032588533
-0.029073163
-0.025598513
-0.022288297
-0.019227471
-0.016482161
-0.014071055
-0.012048691
-0.010356553
-0.0091420528
-0.0081691617
0.00054980861
0.00065426239
0.00068169635
0.00069475617
0.00057358384
0.00062173837
0.00024994651
0.00062480898
-0.00038105534
0.0011535621
0.00037970467
0.0001100171
-0.00027921183
-0.00081833255
-0.0015422187
-0.0024957067
-0.0037261429
-0.0052562406
-0.0071512781
-0.0092825453
-0.011873979
-0.014811671
-0.018080252
-0.021701452
-0.025586277
-0.029613393
-0.033630191
-0.03745804
-0.040904115
-0.043776185
-0.045900337
-0.04714052
-0.047416707
-0.046717555
-0.04510382
-0.042700676
-0.039680446
-0.036239675
-0.032575544
-0.028866723
-0.025260015
-0.021867655
-0.018762997
-0.016000808
-0.013591013
-0.011578548
-0.0099011045
-0.0086991489
-0.0077374297
0.00040510817
0.0005498086
0.00063558957
0.00064816835
0.00064998234
0.00052979369
0.00056991944
0.00022229121
0.00056482421
-0.00034323354
0.001009489
0.00017309897
-0.00016723131
-0.00064829339
-0.0013010796
-0.0021674804
-0.0032971095
-0.0047420373
-0.0065287629
-0.0087302311
-0.011172075
-0.014090088
-0.017362455
-0.020960357
-0.024891436
-0.029043301
-0.033272007
-0.037403816
-0.041243535
-0.04458837
-0.047244742
-0.049047174
-0.049878327
-0.049685718
-0.0484912
-0.046389694
-0.043536528
-0.040126343
-0.036368151
-0.032461873
-0.028580888
-0.024861653
-0.021403926
-0.01826944
-0.015501252
-0.013100018
-0.011101964
-0.0094434104
-0.0082572939
-0.0073071342
0.00020253443
0.00040510818
0.00052811247
0.00059527576
0.00059616059
0.0005911945
0.00047582152
0.00050894601
0.00018887443
0.00050126857
-0.00030619056
0.0008755264
-9.4417874e-05
-0.00051958978
-0.0011057696
-0.0018907878
-0.0029209661
-0.0042517186
-0.0059403471
-0.0080159855
-0.010560685
-0.013343206
-0.016610209
-0.020232659
-0.024166407
-0.028402004
-0.032802164
-0.037199623
-0.04140066
-0.045195901
-0.04837637
-0.050751776
-0.052170347
-0.052538606
-0.051835902
-0.050119871
-0.047519905
-0.044219742
-0.040433136
-0.036377546
-0.032251655
-0.028220327
-0.024408132
-0.020901986
-0.01775127
-0.01498602
-0.012598765
-0.010620843
-0.0089872281
-0.007818411
-0.0068624027
-6.0303358e-05
0.0002025343
0.00037970441
0.00048125856
0.00053314627
0.00052760849
0.00051896712
0.00041149925
0.00043969521
0.00015289427
0.00043880004
-0.00027271038
0.00073503613
-0.00043584665
-0.0009580645
-0.0016668289
-0.0026038836
-0.0038215016
-0.0053809866
-0.007344254
-0.0097437514
-0.012669301
-0.015822986
-0.019458527
-0.02344279
-0.027713072
-0.032240794
-0.036862194
-0.041387119
-0.045603604
-0.049291363
-0.052239651
-0.054266539
-0.055239492
-0.055093943
-0.053844881
-0.05158737
-0.048484637
-0.044746314
-0.040601376
-0.036271233
-0.031949411
-0.027790049
-0.023905092
-0.020367232
-0.017211269
-0.014455266
-0.012089849
-0.010142374
-0.0085354149
-0.0073560843
-0.0063983778
-0.0003964714
-6.0303537e-05
0.0001730988
0.00032510805
0.00040902475
0.00045131646
0.00044324851
0.00043369505
0.00033676675
0.00036720223
0.00012023796
0.00037821754
-0.000245647
0.00058709179
-0.00086188949
-0.0014976139
-0.0023474138
-0.0034587771
-0.0048897784
-0.0067075327
-0.0089788034
-0.011738393
-0.015083676
-0.018637801
-0.02265827
-0.027010894
-0.031611824
-0.036411091
-0.041217933
-0.045820354
-0.049990811
-0.05350205
-0.056146633
-0.057756378
-0.058223656
-0.057517603
-0.055691889
-0.05287966
-0.049276477
-0.045114482
-0.040633114
-0.036053188
-0.031560234
-0.027296448
-0.02335896
-0.019802684
-0.016648853
-0.013912573
-0.011584871
-0.0096701554
-0.0080449892
-0.0068756972
-0.0059230896
-0.00081649285
-0.00039647144
-9.4418093e-05
0.00011001667
0.00024103272
0.00031382866
0.00035066129
0.00034310571
0.0003364248
0.00025826809
0.00029278604
8.4677613e-05
0.00030916269
-0.0002234806
0.00044027314
-0.0013873651
-0.002153816
-0.0031655652
-0.004475532
-0.0061478481
-0.0082556563
-0.01086982
-0.014027216
-0.01783102
-0.021813369
-0.026230571
-0.030952126
-0.035869962
-0.040911388
-0.045858722
-0.050480074
-0.054535739
-0.057796286
-0.060063028
-0.061187292
-0.061091932
-0.059784096
-0.057358203
-0.053985247
-0.049890597
-0.04532433
-0.040531245
-0.035728259
-0.031091179
-0.026747044
-0.022772937
-0.01920681
-0.016068829
-0.013375501
-0.011088242
-0.0091311096
-0.0075422113
-0.0063814755
-0.0054386161
-0.0013351426
-0.00081649305
-0.0004358471
-0.00016723189
1.2924905e-05
0.00013018104
0.00019656156
0.00023154526
0.00022793761
0.0002354083
0.00018227788
0.00021281045
2.9293541e-05
0.00023453618
-0.00019996281
0.0002998219
-0.0020276054
-0.0029444251
-0.0041408495
-0.0056756885
-0.0076193503
-0.010050606
-0.013044097
-0.016637474
-0.020938018
-0.025373615
-0.030194004
-0.03527771
-0.040490063
-0.045734912
-0.050768474
-0.055341813
-0.059207371
-0.062138973
-0.063952384
-0.064524603
-0.063814143
-0.061869713
-0.058827656
-0.054895485
-0.050324374
-0.045377
-0.040299882
-0.035303958
-0.030550864
-0.026145115
-0.022144295
-0.01858601
-0.015496326
-0.012849087
-0.010488457
-0.0085856951
-0.0070216221
-0.0058773089
-0.0049443678
-0.0019676122
-0.0013351429
-0.00086188986
-0.00051959032
-0.00027921245
-0.00011516077
-6.3659998e-06
5.7529933e-05
9.5031475e-05
0.0001085753
0.00013298349
9.5964488e-05
0.00011552224
-3.2644602e-05
0.00015023092
-0.00017848379
0.00017050055
-0.0028001839
-0.003888639
-0.0052943554
-0.0070822579
-0.0093289529
-0.012118594
-0.015528545
-0.019596087
-0.024429659
-0.029340373
-0.034563487
-0.039994276
-0.045469494
-0.050869272
-0.055925452
-0.060376027
-0.063970505
-0.066492114
-0.067776841
-0.067733687
-0.066361484
-0.063753171
-0.0600871
-0.055604229
-0.050576449
-0.045275209
-0.03994666
-0.034789925
-0.029942468
-0.025486393
-0.021481411
-0.017974599
-0.014936903
-0.012170633
-0.0098907652
-0.0080178434
-0.0064908978
-0.0053620503
-0.0044412079
-0.0027314076
-0.0019676123
-0.0013873655
-0.00095806526
-0.00064829434
-0.00042704747
-0.00027304028
-0.00016820519
-0.00010188593
-4.6516583e-05
-9.6424016e-06
2.0077511e-05
-2.2379996e-05
1.4700617e-05
-9.8890772e-05
5.3614241e-05
-0.00016663559
5.6631559e-05
-0.0037240646
-0.0050071615
-0.0066485788
-0.0087192712
-0.011302291
-0.014486143
-0.018349894
-0.022928759
-0.028329096
-0.033732118
-0.039349472
-0.045103419
-0.050799947
-0.056296074
-0.061302293
-0.065548274
-0.068786228
-0.070815289
-0.071497813
-0.070780742
-0.068707307
-0.06541625
-0.061126094
-0.056106763
-0.050647347
-0.045026226
-0.039482073
-0.034188951
-0.0292597
-0.024781638
-0.020829585
-0.017378745
-0.014164339
-0.011503702
-0.009263915
-0.0074399156
-0.0059480665
-0.0048370918
-0.00392932
-0.0036453884
-0.0027314076
-0.002027606
-0.0014976149
-0.0011057705
-0.00081833357
-0.00060937352
-0.00046022362
-0.00035366298
-0.00026660892
-0.0001891668
-0.00013746245
-0.00012663271
-0.00014402018
-9.502754e-05
-0.00017529345
-4.9030664e-05
-0.00016823404
-3.9060083e-05
-0.0048196812
-0.0063220652
-0.0082270319
-0.010611875
-0.013565486
-0.017179769
-0.021534212
-0.026659669
-0.032656259
-0.038563009
-0.044557604
-0.050601139
-0.056466873
-0.061990816
-0.066866134
-0.070819488
-0.073612402
-0.075066432
-0.075076831
-0.073633724
-0.070827942
-0.066843544
-0.061935665
-0.056400546
-0.050543279
-0.044641078
-0.038908071
-0.03349206
-0.028516119
-0.024089297
-0.020195745
-0.016493067
-0.013414479
-0.010799131
-0.0086279509
-0.0068494757
-0.0053951422
-0.0043026223
-0.0034092785
-0.0047298223
-0.0036453887
-0.0028001846
-0.0021538168
-0.0016668299
-0.0013010809
-0.0010281627
-0.00082561332
-0.00067458781
-0.00054546428
-0.00043160472
-0.0003388789
-0.00030957197
-0.0002757059
-0.00027158324
-0.0002205665
-0.00026329716
-0.00015504194
-0.00018427755
-0.00011593549
-0.0061088067
-0.0078565609
-0.010054397
-0.01278578
-0.016144696
-0.020225571
-0.025106158
-0.030810332
-0.037426869
-0.043842821
-0.050188117
-0.056477101
-0.062449198
-0.067922973
-0.072578785
-0.076146562
-0.078404518
-0.079202774
-0.078476592
-0.076263353
-0.07270252
-0.068021011
-0.0625092
-0.056489925
-0.050275346
-0.044120274
-0.038212086
-0.032716007
-0.027785883
-0.023417231
-0.019177385
-0.015642787
-0.012616058
-0.01008711
-0.0079791727
-0.0062490145
-0.0048321502
-0.003759492
-0.0028815254
-0.0060063196
-0.0047298226
-0.0037240651
-0.0029444259
-0.0023474151
-0.0018907894
-0.0015422202
-0.0012770611
-0.001073108
-0.00089615635
-0.00073887897
-0.00060075102
-0.00053830572
-0.00048525244
-0.00043280566
-0.00041479229
-0.00035926794
-0.00036323578
-0.00026381838
-0.0002144587
-0.00017536901
-0.0076144682
-0.0096349654
-0.012155964
-0.015266723
-0.019065867
-0.023648525
-0.029088374
-0.035399097
-0.042652853
-0.049576297
-0.0562349
-0.062714095
-0.068719425
-0.074056066
-0.078397107
-0.081483113
-0.083116415
-0.083182211
-0.08166223
-0.07864304
-0.074311275
-0.068936966
-0.062848311
-0.05638543
-0.049841792
-0.043446423
-0.037414455
-0.031953754
-0.027077977
-0.022243997
-0.018208673
-0.014730659
-0.011812352
-0.0093627391
-0.0073203799
-0.0056384475
-0.0042601937
-0.0032083474
-0.002346595
-0.0074978646
-0.0060063197
-0.0048196816
-0.0038886399
-0.0031655666
-0.0026038851
-0.0021674821
-0.0018282699
-0.0015616029
-0.0013293115
-0.0011199891
-0.00093231829
-0.00082925488
-0.00074244153
-0.00066789016
-0.00060971801
-0.00057400048
-0.00050949935
-0.0004750604
-0.00037494769
-0.00025767905
-0.00022029785
-0.0093607001
-0.011682181
-0.014557044
-0.018080339
-0.022354055
-0.027471913
-0.033501305
-0.040440938
-0.048341769
-0.055762068
-0.062684591
-0.069288229
-0.075243615
-0.080347806
-0.084273654
-0.086780278
-0.087701401
-0.086964707
-0.084601407
-0.080746863
-0.075636581
-0.069589299
-0.062962257
-0.056081957
-0.049218763
-0.042643705
-0.036630609
-0.03121567
-0.025725765
-0.021136596
-0.017161861
-0.013816371
-0.010997186
-0.0086288548
-0.006651758
-0.0050190317
-0.003680069
-0.002650043
-0.0018049259
-0.0092283498
-0.0074978646
-0.0061088073
-0.0050071625
-0.0041408507
-0.0034587786
-0.0029209681
-0.0024957089
-0.0021549798
-0.0018565631
-0.0015897454
-0.0013385031
-0.0011928087
-0.0010636773
-0.00095433742
-0.00087233987
-0.00080494429
-0.00074854344
-0.00067048116
-0.00059832148
-0.00048796913
-0.00031207352
-0.00025455212
-0.011372103
-0.014023064
-0.017282891
-0.021251554
-0.026032887
-0.031717019
-0.038361956
-0.045947172
-0.054495646
-0.062391239
-0.069516934
-0.076168996
-0.081981161
-0.086750707
-0.090157524
-0.091987717
-0.092114507
-0.090512612
-0.087261981
-0.082550577
-0.076671694
-0.069985284
-0.062841244
-0.055547092
-0.048434393
-0.041854442
-0.035872636
-0.029657936
-0.024457835
-0.019931149
-0.016117125
-0.012891899
-0.010173336
-0.0078857468
-0.0059744746
-0.0043917257
-0.0030928738
-0.0020847878
-0.0012572367
-0.011222204
-0.0092283499
-0.0076144688
-0.0063220659
-0.0052943564
-0.0044755336
-0.0038215037
-0.0032971117
-0.0028703388
-0.0024945688
-0.0021588974
-0.0018375112
-0.00163347
-0.001459506
-0.0013056214
-0.0011910741
-0.0010976837
-0.0010167614
-0.0009376509
-0.00084145516
-0.0007321801
-0.00060260952
-0.00037523421
-0.0002820819
-0.013673349
-0.016682531
-0.020358198
-0.024804028
-0.03012409
-0.036402107
-0.043683438
-0.051926359
-0.061108615
-0.069447991
-0.076705272
-0.083318398
-0.088885369
-0.093212932
-0.095995506
-0.097055664
-0.09631302
-0.093787812
-0.089612748
-0.084042124
-0.077421194
-0.070109015
-0.062441633
-0.054812852
-0.047663215
-0.041092891
-0.034080739
-0.028205767
-0.023067213
-0.01873341
-0.015063726
-0.011960006
-0.0093409929
-0.0071344835
-0.0052898314
-0.0037578631
-0.0024982706
-0.0015135542
-0.00070410373
-0.013504013
-0.011222204
-0.0093607003
-0.0078565614
-0.0066485799
-0.0056756901
-0.0048897801
-0.0042517207
-0.0037261455
-0.0032608203
-0.0028460385
-0.0024390283
-0.0021698241
-0.0019349551
-0.0017337838
-0.0015749839
-0.0014509988
-0.0013421724
-0.0012439492
-0.0011400609
-0.0010213741
-0.00087540134
-0.00071877736
-0.00044458626
-0.00030627766
-0.016289079
-0.019685055
-0.023806453
-0.028759645
-0.034646796
-0.041541746
-0.049476718
-0.058375613
-0.068167619
-0.076911171
-0.084214526
-0.090691539
-0.095904289
-0.099679347
-0.10173417
-0.10193691
-0.10025307
-0.096751698
-0.091635957
-0.085223009
-0.077861596
-0.069902319
-0.061799016
-0.054092296
-0.046922247
-0.039036413
-0.032419012
-0.026600424
-0.021691572
-0.017528891
-0.01400458
-0.011020652
-0.0085012328
-0.0063767293
-0.0045992264
-0.0031160926
-0.0018982232
-0.00093690637
-0.00014609551
-0.016098303
-0.013504013
-0.011372103
-0.0096349659
-0.0082270329
-0.007082259
-0.0061478496
-0.0053809888
-0.0047420399
-0.0041747105
-0.0036670592
-0.0031629325
-0.0028111971
-0.0025082821
-0.0022436799
-0.0020382841
-0.001869848
-0.0017317278
-0.0016042931
-0.0014850601
-0.0013542061
-0.0012090012
-0.0010264378
-0.00083644269
-0.00051775391
-0.00032943753
-0.019243435
-0.023053894
-0.027649487
-0.033137905
-0.03961675
-0.047148366
-0.055742497
-0.065285616
-0.075656643
-0.084750187
-0.092001876
-0.098237444
-0.10298186
-0.10609324
-0.107322
-0.10658405
-0.10388927
-0.09938034
-0.093330201
-0.086060817
-0.077916468
-0.069403594
-0.061172663
-0.053405959
-0.04456963
-0.037138696
-0.030566335
-0.025019319
-0.020311369
-0.016320774
-0.012939283
-0.01007487
-0.0076560606
-0.0056138822
-0.0038999973
-0.0024692542
-0.0012933859
-0.00035575924
0.00041624164
-0.019029083
-0.016098303
-0.013673349
-0.011682181
-0.010054397
-0.0087192721
-0.0076193518
-0.0067075347
-0.0059403493
-0.0052562432
-0.0046440446
-0.0040229724
-0.00357757
-0.0031889992