/*--------------------------------*- C++ -*----------------------------------*\
| =========                 |                                                 |
| \\      /  F ield         | OpenFOAM: The Open Source CFD Toolbox           |
|  \\    /   O peration     | Version:  5.0                                   |
|   \\  /    A nd           | Web:      www.OpenFOAM.org                      |
|    \\/     M anipulation  |                                                 |
\*---------------------------------------------------------------------------*/
FoamFile
{
    version     2.0;
    format      ascii;
    class       volScalarField;
    location    "180";
    object      pPrime2Mean;
}
// * * * * * * * * * * * * * * * * * * * * * * * * * * * * * * * * * * * * * //

dimensions      [0 4 -4 0 0 0 0];

internalField   nonuniform List<scalar> 
9200
(
2.4045406e-08
2.4221527e-08
1.2806089e-07
2.4149409e-08
1.3004236e-07
3.7088342e-07
2.4586313e-08
1.2979705e-07
3.7546993e-07
6.9270422e-07
2.4637518e-08
1.3147209e-07
3.7616491e-07
7.0220255e-07
1.1228318e-06
2.4832356e-08
1.3154139e-07
3.8140578e-07
7.054914e-07
1.1395496e-06
1.6218811e-06
2.4821004e-08
1.3199665e-07
3.8314359e-07
7.1696437e-07
1.1484526e-06
1.649497e-06
2.1920557e-06
2.4782016e-08
1.3141378e-07
3.8544175e-07
7.2302963e-07
1.171062e-06
1.668049e-06
2.2343225e-06
2.8094948e-06
2.4655312e-08
1.3037781e-07
3.8515281e-07
7.2994444e-07
1.1864162e-06
1.7081793e-06
2.2675731e-06
2.8712973e-06
3.4649089e-06
2.451858e-08
1.2858613e-07
3.8339233e-07
7.3232844e-07
1.2032941e-06
1.7399144e-06
2.3333481e-06
2.9259141e-06
3.5514449e-06
4.1406126e-06
2.442951e-08
1.2622181e-07
3.7951761e-07
7.3169264e-07
1.2132657e-06
1.7748519e-06
2.3906603e-06
3.0279804e-06
3.6344583e-06
4.257049e-06
4.8212264e-06
2.4488109e-08
1.2335212e-07
3.739473e-07
7.2680855e-07
1.2180613e-06
1.8007687e-06
2.4541687e-06
3.1234973e-06
3.7835744e-06
4.3760508e-06
4.9730722e-06
5.4915939e-06
2.4815651e-08
1.201243e-07
3.6693853e-07
7.1822604e-07
1.2154863e-06
1.8194914e-06
2.507038e-06
3.2303408e-06
3.9308807e-06
4.5845964e-06
5.1366315e-06
5.6835678e-06
6.1363967e-06
2.5549156e-08
1.1667657e-07
3.5897842e-07
7.0627027e-07
1.2061558e-06
1.8273964e-06
2.5509334e-06
3.3260255e-06
4.0978136e-06
4.7997153e-06
5.4180239e-06
5.8992427e-06
6.3729569e-06
6.7423166e-06
2.6807934e-08
1.1314903e-07
3.5058881e-07
6.9167198e-07
1.1904347e-06
1.8247052e-06
2.5800996e-06
3.411394e-06
4.2551958e-06
5.04591e-06
5.7175368e-06
6.265724e-06
6.6484621e-06
7.0266664e-06
7.2958135e-06
2.8741951e-08
1.0967637e-07
3.4232136e-07
6.7524111e-07
1.1694086e-06
1.8113929e-06
2.5939264e-06
3.47791e-06
4.4025537e-06
5.2869717e-06
6.0646834e-06
6.6669001e-06
7.112762e-06
7.3679426e-06
7.6305595e-06
7.7870945e-06
3.1331368e-08
1.0660135e-07
3.3460283e-07
6.5786921e-07
1.1443742e-06
1.7885797e-06
2.5916141e-06
3.5237342e-06
4.5277007e-06
5.5211272e-06
6.4153664e-06
7.1374884e-06
7.6330104e-06
7.9399037e-06
8.0429866e-06
8.1730706e-06
8.2076262e-06
3.4395527e-08
1.0421864e-07
3.279349e-07
6.4040775e-07
1.116777e-06
1.7578182e-06
2.574118e-06
3.5467251e-06
4.6268286e-06
5.7315951e-06
6.7658943e-06
7.6253568e-06
8.2501927e-06
8.5943437e-06
8.7317046e-06
8.6598248e-06
8.6440635e-06
8.5518975e-06
3.7645028e-08
1.0293022e-07
3.2238773e-07
6.2389515e-07
1.0880346e-06
1.7209853e-06
2.5431556e-06
3.5471845e-06
4.6956844e-06
5.9116809e-06
7.0941837e-06
8.1251213e-06
8.9049011e-06
9.3804243e-06
9.5351351e-06
9.4705872e-06
9.2062528e-06
9.0368042e-06
8.8163882e-06
4.0506176e-08
1.0340383e-07
3.1767733e-07
6.0903747e-07
1.0597024e-06
1.6800376e-06
2.501102e-06
3.5265793e-06
4.7332201e-06
6.0540491e-06
7.3898582e-06
8.6087151e-06
9.5901231e-06
1.0231425e-05
1.0510325e-05
1.0432797e-05
1.014231e-05
9.6729904e-06
9.3463619e-06
9.0001706e-06
4.2186896e-08
1.0615558e-07
3.135719e-07
5.9644843e-07
1.0328637e-06
1.637201e-06
2.4506344e-06
3.4874383e-06
4.7401076e-06
6.155352e-06
7.6413974e-06
9.0612485e-06
1.0271516e-05
1.1139521e-05
1.1586123e-05
1.1614255e-05
1.127114e-05
1.0733406e-05
1.0053133e-05
9.5705477e-06
9.1046229e-06
4.1841752e-08
1.1141213e-07
3.0970505e-07
5.868775e-07
1.0081051e-06
1.5944186e-06
2.3947241e-06
3.4329374e-06
4.7187019e-06
6.2145724e-06
7.8420465e-06
9.4658381e-06
1.0929089e-05
1.2064339e-05
1.2755057e-05
1.2940633e-05
1.2672256e-05
1.2030982e-05
1.123345e-05
1.0342488e-05
9.7096327e-06
9.1331688e-06
3.8887685e-08
1.1893895e-07
3.0574942e-07
5.8068343e-07
9.8606025e-07
1.5533085e-06
2.3360906e-06
3.3668008e-06
4.672513e-06
6.233129e-06
7.9879444e-06
9.8110626e-06
1.1539486e-05
1.2980516e-05
1.3971358e-05
1.4406386e-05
1.4270843e-05
1.3659269e-05
1.2698522e-05
1.1634616e-05
1.0539355e-05
9.7662249e-06
9.0909404e-06
3.3374331e-08
1.2801947e-07
3.0155699e-07
5.779411e-07
9.6704556e-07
1.5155045e-06
2.2769347e-06
3.2927378e-06
4.6059585e-06
6.2142186e-06
8.0786312e-06
1.0088825e-05
1.2085214e-05
1.3857381e-05
1.5204547e-05
1.5961952e-05
1.6066138e-05
1.5546095e-05
1.4556297e-05
1.3260252e-05
1.1932337e-05
1.0644821e-05
9.7449585e-06
8.9840819e-06
2.6241729e-08
1.3770827e-07
2.972537e-07
5.7846056e-07
9.5114079e-07
1.4822566e-06
2.2193923e-06
3.2141536e-06
4.5237651e-06
6.1625157e-06
8.1162572e-06
1.0295339e-05
1.2552367e-05
1.4670053e-05
1.6416168e-05
1.7572692e-05
1.8006956e-05
1.7697881e-05
1.6740471e-05
1.5342571e-05
1.3707486e-05
1.212514e-05
1.0662562e-05
9.6520442e-06
8.8196762e-06
1.9290768e-08
1.4739436e-07
2.9324508e-07
5.8178315e-07
9.3828738e-07
1.454261e-06
2.1653119e-06
3.134532e-06
4.4304435e-06
6.0835424e-06
8.1052282e-06
1.0430418e-05
1.2932152e-05
1.5397092e-05
1.7572874e-05
1.9192585e-05
2.0056267e-05
2.0065026e-05
1.9268526e-05
1.7825435e-05
1.6003464e-05
1.4033579e-05
1.2214269e-05
1.059802e-05
9.4946678e-06
8.6063605e-06
1.4794157e-08
1.5683824e-07
2.8968006e-07
5.8711138e-07
9.2835649e-07
1.4315887e-06
2.1161103e-06
3.0570502e-06
4.3306035e-06
5.9830351e-06
8.0515266e-06
1.0497094e-05
1.3220431e-05
1.602275e-05
1.8643999e-05
2.0779255e-05
2.2161523e-05
2.261082e-05
2.2096193e-05
2.0740384e-05
1.8777904e-05
1.6525453e-05
1.4236005e-05
1.2203253e-05
1.0458027e-05
9.2809807e-06
8.3534973e-06
1.5048021e-08
1.6519545e-07
2.8623777e-07
5.9345297e-07
9.2094646e-07
1.4137499e-06
2.0727563e-06
2.9842734e-06
4.2286677e-06
5.8671608e-06
7.9618952e-06
1.0500927e-05
1.3417474e-05
1.6536823e-05
1.9604736e-05
2.2291431e-05
2.4271496e-05
2.5278323e-05
2.5190755e-05
2.4053026e-05
2.2080307e-05
1.957593e-05
1.6900887e-05
1.4315226e-05
1.2098011e-05
1.0250808e-05
9.0202736e-06
8.0702873e-06
2.1937387e-08
1.709213e-07
2.8324609e-07
5.9966787e-07
9.1525454e-07
1.40024e-06
2.0356926e-06
2.9181506e-06
4.1285343e-06
5.7422305e-06
7.8439228e-06
1.0449113e-05
1.3527281e-05
1.693476e-05
2.0436443e-05
2.369316e-05
2.6333505e-05
2.8008678e-05
2.8494136e-05
2.7739168e-05
2.58909e-05
2.3255317e-05
2.0203701e-05
1.7125192e-05
1.4275466e-05
1.1906362e-05
9.9857094e-06
8.7221969e-06
7.7649778e-06
3.5898507e-08
1.7681845e-07
2.8147129e-07
6.0430293e-07
9.1051932e-07
1.3903693e-06
2.0047677e-06
2.8597865e-06
4.0335871e-06
5.6141867e-06
7.705695e-06
1.0350417e-05
1.3556638e-05
1.7217115e-05
2.1127283e-05
2.4954754e-05
2.8298717e-05
3.0737931e-05
3.1942371e-05
3.1744176e-05
3.019932e-05
2.7563463e-05
2.4238623e-05
2.0649312e-05
1.7199101e-05
1.4123647e-05
1.1637936e-05
9.6726599e-06
8.3960721e-06
7.4457057e-06
5.6619224e-08
1.8521926e-07
2.7668984e-07
6.0571369e-07
9.0648011e-07
1.3830589e-06
1.9793485e-06
2.8094082e-06
3.9464829e-06
5.488324e-06
7.5551693e-06
1.021484e-05
1.351485e-05
1.7388692e-05
2.1672004e-05
2.6054154e-05
3.0123825e-05
3.3403328e-05
3.5461626e-05
3.6002937e-05
3.4960038e-05
3.2509562e-05
2.9029782e-05
2.5007585e-05
2.0907259e-05
1.7127024e-05
1.386962e-05
1.1303922e-05
9.3219429e-06
8.0506385e-06
7.1203681e-06
8.6254543e-08
1.9081372e-07
2.6897028e-07
6.0616572e-07
9.0379216e-07
1.3768185e-06
1.958113e-06
2.7664688e-06
3.8687434e-06
5.3689161e-06
7.3999586e-06
1.0052878e-05
1.3413368e-05
1.745812e-05
2.2071338e-05
2.6977215e-05
3.1773377e-05
3.5945763e-05
3.89753e-05
4.0434732e-05
4.0112313e-05
3.8063913e-05
3.4611859e-05
3.0252668e-05
2.5547093e-05
2.0977155e-05
1.6917622e-05
1.3525202e-05
1.09163e-05
8.9436312e-06
7.6944457e-06
6.7955556e-06
1.243742e-07
1.9358038e-07
2.6368127e-07
6.149697e-07
8.9894185e-07
1.3695189e-06
1.9399846e-06
2.7300371e-06
3.8006473e-06
5.2589901e-06
7.2468955e-06
9.8750475e-06
1.3264989e-05
1.7437486e-05
2.2331478e-05
2.7717572e-05
3.3220844e-05
3.831324e-05
4.2407151e-05
4.4950753e-05
4.5573382e-05
4.4177133e-05
4.0978287e-05
3.6450302e-05
3.1203088e-05
2.5848533e-05
2.0864433e-05
1.6582656e-05
1.3103704e-05
1.048708e-05
8.5477232e-06
7.3355269e-06
6.4758288e-06
1.690563e-07
1.9557781e-07
2.6394788e-07
6.1651486e-07
8.9258069e-07
1.361759e-06
1.9244588e-06
2.6991072e-06
3.7413901e-06
5.1600157e-06
7.1014177e-06
9.691169e-06
1.3083253e-05
1.7341607e-05
2.2463681e-05
2.827626e-05
3.444913e-05
4.0462947e-05
4.5685947e-05
4.9457624e-05
5.1245801e-05
5.0771174e-05
4.8099283e-05
4.3624674e-05
3.7977018e-05
3.1859735e-05
2.5911078e-05
2.0579296e-05
1.613658e-05
1.2619171e-05
1.0028133e-05
8.1433962e-06
6.9804669e-06
6.1656037e-06
2.1753225e-07
1.9726322e-07
2.686065e-07
6.0614899e-07
8.8234317e-07
1.3563559e-06
1.9071486e-06
2.6719959e-06
3.6901134e-06
5.0720649e-06
6.9669767e-06
9.5096967e-06
1.2881593e-05
1.7187218e-05
2.2483676e-05
2.8661381e-05
3.5450597e-05
4.2362717e-05
4.8748775e-05
5.3863183e-05
5.7020965e-05
5.7745809e-05
5.5910149e-05
5.1774655e-05
4.5931044e-05
3.9152338e-05
3.2211095e-05
2.5740768e-05
2.0136344e-05
1.5595632e-05
1.2085916e-05
9.5505863e-06
7.7385483e-06
6.634278e-06
5.8690379e-06
2.6636023e-07
1.9886164e-07
2.7588739e-07
5.9841697e-07
8.7149783e-07
1.3442066e-06
1.8846127e-06
2.6413617e-06
3.6454194e-06
4.9950393e-06
6.8449806e-06
9.3368495e-06
1.2672308e-05
1.6991821e-05
2.2410767e-05
2.8887751e-05
3.6226986e-05
4.3991741e-05
5.1543713e-05
5.8081103e-05
6.2785734e-05
6.4981526e-05
6.4316157e-05
6.0859133e-05
5.5102064e-05
4.7832933e-05
3.9948279e-05
3.2255055e-05
2.5350389e-05
1.9553537e-05
1.4977158e-05
1.1517948e-05
9.0646175e-06
7.3399808e-06
6.3015979e-06
5.589539e-06
3.1164811e-07
2.0043644e-07
2.8434161e-07
5.9256514e-07
8.649648e-07
1.3275218e-06
1.8567642e-06
2.6042715e-06
3.5959607e-06
4.9274934e-06
6.736431e-06
9.1762069e-06
1.2465362e-05
1.6772318e-05
2.2266493e-05
2.8976076e-05
3.6789317e-05
4.5341041e-05
5.4031608e-05
6.2035026e-05
6.8428258e-05
7.2346432e-05
7.3193982e-05
7.079947e-05
6.5483863e-05
5.7985406e-05
4.9278583e-05
4.0348759e-05
3.1999128e-05
2.4758352e-05
1.8851347e-05
1.4298879e-05
1.0928578e-05
8.5793406e-06
6.9535684e-06
5.9862097e-06
5.3298086e-06
3.4954421e-07
2.0193093e-07
2.9307373e-07
5.8741123e-07
8.6325541e-07
1.3149194e-06
1.8301484e-06
2.5641252e-06
3.5424943e-06
4.8524206e-06
6.6406513e-06
9.030762e-06
1.2267582e-05
1.6543419e-05
2.207289e-05
2.8951415e-05
3.7157371e-05
4.6413819e-05
5.6187369e-05
6.5661734e-05
7.3843731e-05
7.9703025e-05
8.2398171e-05
8.1478646e-05
7.7026504e-05
6.9650137e-05
6.0340774e-05
5.0230361e-05
4.0350847e-05
3.1459592e-05
2.3987731e-05
1.8051784e-05
1.3578253e-05
1.0330144e-05
8.1027428e-06
6.5841453e-06
5.691156e-06
5.0916269e-06
3.7672092e-07
2.0321764e-07
3.0125394e-07
5.8293168e-07
8.6425439e-07
1.3059384e-06
1.8081844e-06
2.5255774e-06
3.4801548e-06
4.7744172e-06
6.5328854e-06
8.901231e-06
1.2084946e-05
1.6316295e-05
2.1850302e-05
2.8841024e-05
3.7358164e-05
4.7225465e-05
5.8001049e-05
6.8913659e-05
7.8939214e-05
8.6915455e-05
9.1768247e-05
9.2746305e-05
8.9632335e-05
8.2819878e-05
7.3233056e-05
6.2099547e-05
5.0667404e-05
3.996417e-05
3.0660435e-05
2.3065e-05
1.7177469e-05
1.2832004e-05
9.7337457e-06
7.6417003e-06
6.2356493e-06
5.4186422e-06
4.8761174e-06
3.9090211e-07
2.0417162e-07
3.0811153e-07
5.7926967e-07
8.6669096e-07
1.2985349e-06
1.7931722e-06
2.4892251e-06
3.4124778e-06
4.6860977e-06
6.4228108e-06
8.7526132e-06
1.1920737e-05
1.6101131e-05
2.1615407e-05
2.867145e-05
3.7423479e-05
4.7802314e-05
5.9478549e-05
7.1761066e-05
8.3637766e-05
9.3856161e-05
0.00010113711
0.00010442522
0.00010315839
9.7431845e-05
8.8005322e-05
7.6122169e-05
6.321305e-05
5.0585907e-05
3.921037e-05
2.9631967e-05
2.201879e-05
1.6250841e-05
1.2075643e-05
9.1491215e-06
7.2018522e-06
5.91107e-06
5.1701567e-06
4.6837901e-06
2.0464845e-07
3.9090216e-07
3.1287478e-07
5.765122e-07
8.6963322e-07
1.2923071e-06
1.7834615e-06
2.4622879e-06
3.3509801e-06
4.5861518e-06
6.2915534e-06
8.6015201e-06
1.1726431e-05
1.5905035e-05
2.1384214e-05
2.846596e-05
3.738628e-05
4.8179013e-05
6.0641124e-05
7.4193754e-05
8.7882066e-05
0.00010041193
0.00011033944
0.00011632026
0.00011742124
0.00011336652
0.00010464699
9.2419133e-05
7.8228782e-05
6.3654419e-05
4.9999398e-05
3.8121441e-05
2.8409096e-05
2.0878661e-05
1.5293378e-05
1.1323155e-05
8.584486e-06
6.7876376e-06
5.6125445e-06
4.9465181e-06
4.5147947e-06
3.1519544e-07
2.0464837e-07
3.7672097e-07
5.7461612e-07
8.7233702e-07
1.2874509e-06
1.7775592e-06
2.4428039e-06
3.3035732e-06
4.4910548e-06
6.1356375e-06
8.4178715e-06
1.1526556e-05
1.5662481e-05
2.1169642e-05
2.8247877e-05
3.7277259e-05
4.839427e-05
6.1522891e-05
7.6221682e-05
9.1637539e-05
0.00010648938
0.00011921982
0.00012822808
0.00013220528
0.00013044931
0.00012308101
0.00011104988
9.5918562e-05
7.949023e-05
6.3420296e-05
4.8937374e-05
3.673794e-05
2.7029727e-05
1.967391e-05
1.4325013e-05
1.058667e-05
8.0465256e-06
6.4023316e-06
5.3413897e-06
4.7480979e-06
4.3690073e-06
5.7363574e-07
3.1519544e-07
2.0417145e-07
3.4954436e-07
8.7403868e-07
1.2841759e-06
1.7742725e-06
2.4286234e-06
3.2683769e-06
4.4152638e-06
5.989748e-06
8.1917592e-06
1.1266967e-05
1.5409824e-05
2.0885082e-05
2.8037937e-05
3.712852e-05
4.8486123e-05
6.2166083e-05
7.7873159e-05
9.4894392e-05
0.0001120199
0.00012764034
0.00013994718
0.000147273
0.00014845689
0.00014316124
0.00013200119
0.00011642901
9.8389425e-05
7.9873873e-05
6.2530418e-05
4.7443466e-05
3.5106616e-05
2.5532897e-05
1.8432582e-05
1.3363536e-05
9.8763482e-06
7.5403896e-06
6.0482218e-06
5.0983342e-06
4.5748891e-06
4.2461256e-06
8.7455903e-07
5.736356e-07
3.1287473e-07
2.0321732e-07
3.1164825e-07
1.2823556e-06
1.7728837e-06
2.4190707e-06
3.2431621e-06
4.3588084e-06
5.8708908e-06
7.9779828e-06
1.0935353e-05
1.5049297e-05
2.0581131e-05
2.7722286e-05
3.6971292e-05
4.8496443e-05
6.2615266e-05
7.9189919e-05
9.7667281e-05
0.00011696354
0.00013548782
0.00015128787
0.00016237653
0.00016712679
0.00016467508
0.00015517877
0.00013983261
0.00012060048
9.9753427e-05
7.9378499e-05
6.1026231e-05
4.5572618e-05
3.3278082e-05
2.3957281e-05
1.718045e-05
1.2424249e-05
9.2002905e-06
7.0699021e-06
5.726745e-06
4.8835856e-06
4.4266066e-06
4.1455958e-06
1.2819606e-06
8.7455882e-07
5.7461572e-07
3.0811146e-07
2.0193053e-07
2.6636045e-07
1.772613e-06
2.4129777e-06
3.2258717e-06
4.3172482e-06
5.7804987e-06
7.8001025e-06
1.062483e-05
1.4573526e-05
2.0084193e-05
2.737198e-05
3.6658166e-05
4.846933e-05
6.2922331e-05
8.0220468e-05
9.9990741e-05
0.00012131071
0.00014267988
0.00016208184
0.00017726957
0.00018616946
0.00018735059
0.00018040465
0.0001661131
0.00014630264
0.00012342022
9.9972574e-05
7.8034262e-05
5.8967912e-05
4.3387994e-05
3.1304303e-05
2.2339511e-05
1.5940301e-05
1.1519742e-05
8.5647768e-06
6.6377302e-06
5.4386777e-06
4.6969632e-06
4.3026752e-06
4.0666274e-06
1.7729478e-06
1.2819603e-06
8.7403813e-07
5.7651151e-07
3.0125381e-07
2.004359e-07
2.1753246e-07
2.4089394e-06
3.2146684e-06
4.287509e-06
5.712983e-06
7.6637806e-06
1.0362842e-05
1.4136933e-05
1.9407111e-05
2.6725864e-05
3.628799e-05
4.8216327e-05
6.3146653e-05
8.1025152e-05
0.00010191202
0.00012507898
0.00014916917
0.00017219091
0.00019171956
0.00020528148
0.00021086774
0.00020741994
0.00019515588
0.00017558454
0.000151178
0.00012479248
9.9051583e-05
7.5900154e-05
5.6430639e-05
4.0957424e-05
2.9236264e-05
2.0712925e-05
1.4731405e-05
1.0660112e-05
7.9745147e-06
6.2455888e-06
5.1841326e-06
4.5379243e-06
4.2023268e-06
4.0082411e-06
2.4063619e-06
1.7729473e-06
1.2823546e-06
8.7233603e-07
5.7926872e-07
2.9307353e-07
1.9886102e-07
1.6905656e-07
3.2082468e-06
4.2676716e-06
5.6642612e-06
7.5610809e-06
1.016042e-05
1.3763983e-05
1.8799634e-05
2.5805078e-05
3.5464648e-05
4.7875135e-05
6.3050302e-05
8.1679931e-05
0.00010349679
0.00012830601
0.00015494283
0.0001815141
0.0002055189
0.00022415988
0.00023487158
0.00023589311
0.0002267444
0.00020842695
0.00018324593
0.00015427944
0.00012467651
9.7037026e-05
7.3059998e-05
5.3499866e-05
3.8349965e-05
2.712168e-05
1.9106494e-05
1.3569694e-05
9.8533059e-06
7.4328499e-06
5.894196e-06
4.962726e-06
4.4057368e-06
4.1246126e-06
3.9695425e-06
3.2057169e-06
2.4063613e-06
1.7726115e-06
1.2841743e-06
8.6963185e-07
5.829304e-07
2.843413e-07
1.9726247e-07
1.2437444e-07
4.25613e-06
5.6313137e-06
7.4860835e-06
1.0006753e-05
1.3473387e-05
1.8277425e-05
2.4970974e-05
3.422729e-05
4.6850528e-05
6.2822319e-05
8.1886731e-05
0.00010483791
0.00013105616
0.00016001651
0.00018999063
0.00021849543
0.00024251573
0.00025898778
0.00026543112
0.00026056309
0.00024469087
0.00021973302
0.00018880452
0.00015549409
0.00012308873
9.4013688e-05
6.9616693e-05
5.0266328e-05
3.5632362e-05
2.5003352e-05
1.7544897e-05
1.2468189e-05
9.1053576e-06
6.9416292e-06
5.5834703e-06
4.7738095e-06
4.2994773e-06
4.0685582e-06
3.9496736e-06
4.251473e-06
3.205716e-06
2.4089374e-06
1.7728812e-06
1.2874485e-06
8.6668911e-07
5.8740966e-07
2.7588696e-07
1.9557701e-07
8.6254818e-08
5.612129e-06
7.434914e-06
9.8938756e-06
1.3251445e-05
1.7867756e-05
2.4249555e-05
3.309667e-05
4.5217143e-05
6.1576528e-05
8.1904276e-05
0.00010556417
0.00013343681
0.00016444243
0.00019759712
0.00023051931
0.00026008752
0.00028283762
0.00029559489
0.0002962038
0.00028411253
0.00026061704
0.00022863598
0.00019204246
0.00015478306
0.00012010127
9.0098274e-05
6.5685466e-05
4.6820894e-05
3.2866338e-05
2.291856e-05
1.6048861e-05
1.1437242e-05
8.420087e-06
6.5014606e-06
5.3130477e-06
4.6166193e-06
4.2179853e-06
4.0331573e-06
3.9473976e-06
5.6046226e-06
4.2514717e-06
3.208244e-06
2.4129743e-06
1.774269e-06
1.292304e-06
8.6425208e-07
5.9256323e-07
2.686059e-07
1.9357946e-07
5.6619454e-08
7.4050919e-06
9.8163681e-06
1.3087665e-05
1.7553387e-05
2.3681723e-05
3.2114052e-05
4.3710914e-05
5.9454224e-05
8.0431043e-05
0.0001060265
0.00013498726
0.00016833677
0.00020435747
0.00024150564
0.00027665256
0.00030605368
0.00032591357
0.00033317915
0.0003263021
0.00030572902
0.00027390845
0.00023477472
0.00019283198
0.00015218392
0.00011583559
8.5430927e-05
6.1386419e-05
4.3250375e-05
3.0107239e-05
2.0899729e-05
1.4635527e-05
1.0484019e-05
7.7994234e-06
6.1126046e-06
5.0824579e-06
4.4896625e-06
4.1599033e-06
4.0173454e-06
3.9615828e-06
7.393554e-06
5.6046208e-06
4.2561262e-06
3.2146637e-06
2.4190658e-06
1.7775546e-06
1.2985309e-06
8.6325252e-07
5.9841473e-07
2.639471e-07
1.9081277e-07
3.5898737e-08
9.7710241e-06
1.2974696e-05
1.7320701e-05
2.3244718e-05
3.1338588e-05
4.2395789e-05
5.7475861e-05
7.7722748e-05
0.00010434058
0.00013618198
0.00017112974
0.00021038636
0.00025142756
0.00029203649
0.00032829535
0.00035590129
0.00037093284
0.00037075232
0.00035474129
0.0003245954
0.00028401962
0.00023789095
0.00019114472
0.0001478066
0.00011045306
8.0165242e-05
5.6838217e-05
3.9635032e-05
2.7404402e-05
1.8974348e-05
1.3317501e-05
9.6128289e-06
7.2448255e-06
5.7751562e-06
4.8898241e-06
4.390904e-06
4.1244645e-06
4.0202804e-06
3.9918939e-06
9.7534369e-06
7.3935519e-06
5.6121241e-06
4.2676652e-06
3.225865e-06
2.4286169e-06
1.7834557e-06
1.3059335e-06
8.6496135e-07
6.0614636e-07
2.6368027e-07
1.8521821e-07
2.1937528e-08
1.2908482e-05
1.7159598e-05
2.2920205e-05
3.0740392e-05
4.1355009e-05
5.5741727e-05
7.5166393e-05
0.00010094895
0.00013433293
0.00017345666
0.00021497916
0.00026038199
0.00030613191
0.00034926639
0.00038507546
0.00040885498
0.00041684039
0.00040716779
0.0003804854
0.00033994186
0.00029051302
0.00023784835
0.00018705255
0.00014182329
0.00010414207
7.4458886e-05
5.2154221e-05
3.6048324e-05
2.4800876e-05
1.7163744e-05
1.2103212e-05
8.8272393e-06
6.7574509e-06
5.4866671e-06
4.7322019e-06
4.3202408e-06
4.1112405e-06
4.0386232e-06
4.0397455e-06
1.2882859e-05
9.7534342e-06
7.4050852e-06
5.6313051e-06
4.2875e-06
3.2431532e-06
2.4427957e-06
1.7931651e-06
1.3149135e-06
8.7149371e-07
6.1651186e-07
2.6896905e-07
1.7681737e-07
1.5048074e-08
1.7064972e-05
2.2694813e-05
3.0294904e-05
4.0550127e-05
5.4366267e-05
7.291685e-05
9.7696937e-05
0.00013017394
0.000171542
0.00021897589
0.0002674968
0.00031899371
0.00036874098
0.00041298305
0.00044630113
0.00046383714
0.00046235434
0.00044116479
0.00040250612
0.00035109935
0.00029309215
0.00023464208
0.00018071907
0.00013445365
9.7105494e-05
6.8467397e-05
4.7441312e-05
3.2556175e-05
2.2331599e-05
1.548313e-05
1.0999796e-05
8.1302952e-06
6.3342034e-06
5.2427786e-06
4.6104388e-06
4.2780759e-06
4.1123881e-06
4.075157e-06
4.1052058e-06
1.7028337e-05
1.2882855e-05
9.7710151e-06
7.4349028e-06
5.664249e-06
4.3172361e-06
3.2683656e-06
2.4622778e-06
1.8081759e-06
1.3275149e-06
8.8233837e-07
6.1496627e-07
2.7668834e-07
1.7092015e-07
1.4794081e-08
2.2562211e-05
2.9984823e-05
3.9949098e-05
5.3299894e-05
7.112859e-05
9.4824183e-05
0.00012610684
0.00016656124
0.00021715921
0.0002738694
0.00032954087
0.00038669928
0.00043923433
0.00048262644
0.00051092447
0.00051947099
0.00050600158
0.00047143241
0.00041984964
0.00035754937
0.00029162334
0.00022839541
0.00017238359
0.00012594834
8.9550857e-05
6.2341943e-05
4.2798141e-05
2.9214066e-05
2.0022816e-05
1.3945629e-05
1.0013493e-05
7.5184154e-06
5.9686221e-06
5.0461052e-06
4.5259564e-06
4.247826e-06
4.1336755e-06
4.1307662e-06
4.1899814e-06
2.2510895e-05
1.7028333e-05
1.2908471e-05
9.8163535e-06
7.4860672e-06
5.7129667e-06
4.3587931e-06
3.3035593e-06
2.489213e-06
1.8301383e-06
1.3441987e-06
8.9257514e-07
6.0616181e-07
2.8146948e-07
1.6519432e-07
1.9290548e-08
2.9802135e-05
3.9529941e-05
5.2501452e-05
6.9738234e-05
9.2535887e-05
0.00012249888
0.00016156389
0.00021135729
0.00027239823
0.00033919372
0.00040179947
0.00046369235
0.00051722592
0.00055723435
0.00057752682
0.00057410344
0.00054618115
0.00049668972
0.00043170686
0.00035896395
0.00028614247
0.00021934442
0.00016234132
0.00011657557
8.1686031e-05
5.6226743e-05
3.8310834e-05
2.6065762e-05
1.7897266e-05
1.2562605e-05
9.1406457e-06
6.9823287e-06
5.6657303e-06
4.8992197e-06
4.4500979e-06
4.2428667e-06
4.1755931e-06
4.2066675e-06
4.2947132e-06
2.9731468e-05
2.251089e-05
1.7064958e-05
1.2974677e-05
9.8938541e-06
7.5610596e-06
5.7804782e-06
4.4152448e-06
3.3509634e-06
2.5255631e-06
1.8567524e-06
1.3563468e-06
8.9893545e-07
6.0570925e-07
2.8324388e-07
1.5683711e-07
2.6241384e-08
3.9282656e-05
5.1943612e-05
6.8694217e-05
9.0751826e-05
0.00011961967
0.00015710929
0.00020533502
0.00026585485
0.00033841723
0.00041586321
0.00048468989
0.00054979318
0.00060189207
0.00063540861
0.00064432291
0.00062586029
0.00058125089
0.00051577653
0.00043747919
0.00035522754
0.00027684454
0.00020781601
0.00015092557
0.00010661313
7.3715486e-05
5.0252557e-05
3.4050293e-05
2.3149301e-05
1.597451e-05
1.1331163e-05
8.3683211e-06
6.529513e-06
5.4297235e-06
4.7558322e-06
4.4088856e-06
4.2614621e-06
4.2393806e-06
4.3039344e-06
4.4202723e-06
3.91871e-05
2.9731461e-05
2.2562194e-05
1.7159574e-05
1.3087638e-05
1.0006725e-05
7.6637531e-06
5.8708652e-06
4.491032e-06
3.412458e-06
2.5641083e-06
1.8845991e-06
1.3617485e-06
9.0378484e-07
6.0429794e-07
2.8623514e-07
1.4739324e-07
3.3373872e-08
5.1613863e-05
6.7964018e-05
8.9408055e-05
0.00011737003
0.00015354929
0.00019993661
0.00025875398
0.000331332
0.00041625133
0.00050454411
0.0005782558
0.00064436077
0.0006919188
0.00071529586
0.00070920128
0.00067273103
0.00060963531
0.00052773579
0.00043681943
0.00034643731
0.00026406152
0.00019420582
0.00013849563
9.6343328e-05
6.5833089e-05
4.4531485e-05
3.0078065e-05
2.0496973e-05
1.4253749e-05
1.0233846e-05
7.7065102e-06
6.1670657e-06
5.1908259e-06
4.6628904e-06
4.3939021e-06
4.3054212e-06
4.3262689e-06
4.4235252e-06
4.5674475e-06
5.1486435e-05
3.9187091e-05
2.9802115e-05
2.2694785e-05
1.7320667e-05
1.3251408e-05
1.0160383e-05
7.8000687e-06
5.9897172e-06
4.5861244e-06
3.4801314e-06
2.6042521e-06
1.907133e-06
1.3695069e-06
9.0647178e-07
5.9966228e-07
2.8967699e-07
1.3770712e-07
3.8887163e-08
6.753166e-05
8.8467931e-05
0.00011566936
0.00015076143
0.00019561735
0.00025234962
0.00032317766
0.00040899466
0.00050671276
0.00060553964
0.00068206437
0.00074622465
0.00078545641
0.00079460572
0.00076980219
0.00071268232
0.00062993661
0.00053188702
0.00042964955
0.00033288566
0.00024823711
0.00017896114
0.00012543017
8.6044862e-05
5.8212437e-05
3.9161064e-05
2.6445926e-05
1.8112587e-05
1.2712346e-05
9.2832947e-06
7.1669283e-06
5.7941892e-06
5.0271448e-06
4.5985954e-06
4.4099182e-06
4.3762224e-06
4.4373752e-06
4.5665603e-06
4.7371613e-06
6.7365215e-05
5.1486426e-05
3.9282634e-05
2.9984788e-05
2.2920163e-05
1.7553341e-05
1.3473341e-05
1.0362797e-05
7.9779414e-06
6.1356004e-06
4.6860657e-06
3.5424674e-06
2.6413393e-06
1.9244411e-06
1.376805e-06
9.1050987e-07
5.9344672e-07
2.9324157e-07
1.2801829e-07
4.1841212e-08
8.7910796e-05
0.00011447702
0.00014864481
0.00019222413
0.00024722052
0.00031576395
0.00039992763
0.00049988417
0.00061027012
0.00071867528
0.00079512782
0.00085361258
0.0008801088
0.00087067554
0.00082363159
0.00074379879
0.00064104598
0.00052787236
0.00041615345
0.00031503362
0.00022990413
0.000162573
0.00011211997
7.5980105e-05
5.1005117e-05
3.4221545e-05
2.316623e-05
1.5967971e-05
1.1366113e-05
8.4980914e-06
6.6088541e-06
5.5338908e-06
4.8929555e-06
4.5738534e-06
4.4583657e-06
4.4752241e-06
4.5740962e-06
4.7340756e-06
4.9303476e-06
8.769834e-05
6.7365206e-05
5.1613836e-05
3.95299e-05
3.0294855e-05
2.3244663e-05
1.7867698e-05
1.3763924e-05
1.0624775e-05
8.1917098e-06
6.2915099e-06
4.7743799e-06
3.5959297e-06
2.6719705e-06
1.9399647e-06
1.3830437e-06
9.1524386e-07
5.8710442e-07
2.9724973e-07
1.189377e-07
4.2186363e-08
0.00011376955
0.00014715532
0.00018963545
0.00024317472
0.00030982112
0.0003915893
0.00049020641
0.00060475845
0.00072693799
0.00084321851
0.00091580526
0.00096410366
0.00097298229
0.00094057476
0.00086821146
0.00076442713
0.00064221471
0.00051567642
0.00039675563
0.00029348258
0.00020967505
0.00014557376
9.8950316e-05
6.6380676e-05
4.4332649e-05
2.9740184e-05
2.0206662e-05
1.408291e-05
1.0243803e-05
7.6863476e-06
6.2178769e-06
5.3020925e-06
4.8103474e-06
4.5897753e-06
4.5406334e-06
4.6038842e-06
4.7376392e-06
4.9271433e-06
5.1478814e-06
0.00011350266
8.7698328e-05
6.7531629e-05
5.1943567e-05
3.9949041e-05
3.0740325e-05
2.3681651e-05
1.8277352e-05
1.4136863e-05
1.0935288e-05
8.4178126e-06
6.42276e-06
4.852378e-06
3.6453843e-06
2.6990784e-06
1.9580905e-06
1.3903524e-06
9.2093451e-07
5.8177541e-07
3.0155259e-07
1.1141077e-07
4.0505705e-08
0.00014627125
0.00018780582
0.00024007005
0.00030510969
0.00038489919
0.00048115662
0.00059499277
0.00072398989
0.00085621562
0.00097775542
0.0010417099
0.0010746638
0.0010607725
0.0010012519
0.00090125096
0.00077329261
0.00063309236
0.00049561162
0.00037208852
0.00026896231
0.00018825072
0.00012851597
8.6267394e-05
5.7427834e-05
3.8247349e-05
2.5685262e-05
1.7592878e-05
1.2501097e-05
9.0874294e-06
7.12032e-06
5.8518894e-06
5.1391745e-06
4.7799727e-06
4.6479727e-06
4.6582918e-06
4.7635242e-06
4.9292463e-06
5.1465927e-06
5.3903849e-06
0.00014594197
0.00011350264
8.7910764e-05
6.7963968e-05
5.2501385e-05
4.0550047e-05
3.1338502e-05
2.4249466e-05
1.8799544e-05
1.457344e-05
1.1266889e-05
8.6014522e-06
6.5328276e-06
4.9274448e-06
3.6900736e-06
2.7300047e-06
1.9793233e-06
1.4002211e-06
9.2834315e-07
5.78452e-07
3.0574458e-07
1.0615409e-07
3.7644593e-08
0.00018672098
0.00023786641
0.00030146846
0.00037956109
0.00047388826
0.00058562284
0.00071493961
0.00085751064
0.00099696172
0.0011200398
0.0011697384
0.0011817178
0.0011398873
0.0010497287
0.00092080943
0.00076957119
0.0006137577
0.00046828324
0.00034297693
0.00024236
0.00016640237
0.0001119057
7.4337207e-05
4.9213436e-05
3.2727863e-05
2.2091934e-05
1.5388862e-05
1.0880391e-05
8.2886488e-06
6.5724874e-06
5.5794497e-06
5.0444459e-06
4.8034115e-06
4.7502333e-06
4.8127474e-06
4.9554026e-06
5.1497366e-06
5.3928316e-06
5.658102e-06
0.00018632396
0.00014594196
0.00011376952
8.8467874e-05
6.869414e-05
5.3299804e-05
4.1354907e-05
3.2113943e-05
2.4970863e-05
1.9407003e-05
1.5049196e-05
1.1526466e-05
8.7525351e-06
6.6405853e-06
4.9949847e-06
3.7413454e-06
2.7664325e-06
2.0047396e-06
1.413729e-06
9.3827264e-07
5.7793167e-07
3.0969978e-07
1.0340216e-07
3.4395172e-08
0.00023655818
0.00029887101
0.00037539767
0.00046803905
0.00057808771
0.00070587186
0.00085029876
0.0010048224
0.0011471596
0.0012670234
0.0012961477
0.0012812186
0.0012066507
0.0010833003
0.00092542395
0.00075294388
0.00058468745
0.00043455913
0.00031049406
0.00021471998
0.0001448557
9.6124283e-05
6.3312688e-05
4.1744624e-05
2.7825016e-05
1.9050258e-05
1.3145593e-05
9.7752517e-06
7.4971404e-06
6.1531048e-06
5.3965942e-06
5.0195254e-06
4.8824762e-06
4.8978689e-06
5.0050209e-06
5.1802612e-06
5.3993782e-06
5.6659043e-06
5.9505855e-06
0.0002360902
0.00018632395
0.00014627121
0.00011447696
8.9407972e-05
6.9738133e-05
5.4366148e-05
4.2395659e-05
3.3096537e-05
2.5804946e-05
2.0084064e-05
1.5409706e-05
1.1726327e-05
8.9011429e-06
6.736357e-06
5.0720034e-06
3.8005971e-06
2.8093679e-06
2.0356615e-06
1.4315656e-06
9.5112451e-07
5.8067311e-07
3.1356622e-07
1.029284e-07
3.1331036e-08
0.00029732456
0.00037240752
0.00046342048
0.00057195059
0.00069856915
0.00084243062
0.001000907
0.0011643404
0.0013039562
0.0014149745
0.0014165306
0.0013688497
0.0012575307
0.0010997071
0.0009142084
0.00072362474
0.00054670256
0.0003956532
0.00027600601
0.000187061
0.00012414585
8.1415175e-05
5.3261097e-05
3.509963e-05
2.3660658e-05
1.5975704e-05
1.1640505e-05
8.6605855e-06
6.8829176e-06
5.8522982e-06
5.3053875e-06
5.0660164e-06
5.0185267e-06
5.0917513e-06
5.2359568e-06
5.4381482e-06
5.6781523e-06
5.9653078e-06
6.2667285e-06
0.00029678706
0.00023609019
0.00018672094
0.00014715526
0.00011566928
9.0751711e-05
7.1128454e-05
5.5741579e-05
4.3710757e-05
3.4227128e-05
2.6725705e-05
2.0580983e-05
1.5662347e-05
1.192062e-05
9.0306626e-06
6.8448974e-06
5.1599472e-06
3.8686877e-06