/*--------------------------------*- C++ -*----------------------------------*\
| =========                 |                                                 |
| \\      /  F ield         | OpenFOAM: The Open Source CFD Toolbox           |
|  \\    /   O peration     | Version:  5.0                                   |
|   \\  /    A nd           | Web:      www.OpenFOAM.org                      |
|    \\/     M anipulation  |                                                 |
\*---------------------------------------------------------------------------*/
FoamFile
{
    version     2.0;
    format      ascii;
    class       volVectorField;
    location    "180";
    object      U;
}
// * * * * * * * * * * * * * * * * * * * * * * * * * * * * * * * * * * * * * //

dimensions      [0 1 -1 0 0 0 0];

internalField   nonuniform List<vector> 
9200
(
(1.0373305 -0.00066353504 -6.7720352e-24)
(1.0377292 -0.0019977837 -1.0831444e-20)
(1.0392186 -0.00065972403 0)
(1.0383323 -0.0031901443 5.5712375e-21)
(1.0396037 -0.0020035444 -8.2320242e-21)
(1.0400674 -0.00065578463 0)
(1.0390696 -0.004338353 5.5658402e-22)
(1.0401995 -0.0031888756 -3.8406029e-22)
(1.0404481 -0.0020081702 0)
(1.041307 -0.00065098655 0)
(1.0399472 -0.0053806346 -1.0662458e-20)
(1.0409303 -0.0043441471 -6.1451512e-21)
(1.0410426 -0.0031932055 -4.6018705e-21)
(1.0416806 -0.0020166194 -2.8223658e-22)
(1.0423114 -0.00064504601 -2.5414073e-25)
(1.0409064 -0.0063614406 -9.8592686e-21)
(1.0417949 -0.0053876999 7.4496565e-22)
(1.0417693 -0.0043567146 -1.4846968e-20)
(1.0422763 -0.0032001295 -5.6184136e-21)
(1.0426818 -0.0020229436 4.3304387e-23)
(1.0433675 -0.00063709261 1.1465341e-20)
(1.0419205 -0.0072599908 -9.2795912e-21)
(1.0427378 -0.0063756418 -1.017446e-20)
(1.0426289 -0.0054053971 8.961341e-21)
(1.0430033 -0.00437648 5.3595788e-22)
(1.04328 -0.0032053191 -5.6636583e-21)
(1.0437378 -0.0020273628 -5.5033293e-21)
(1.0443462 -0.00062674802 -8.5971337e-22)
(1.0429526 -0.0080907763 -4.112591e-21)
(1.0437281 -0.0072801243 -7.1220295e-21)
(1.0435638 -0.0064028473 -9.7732726e-21)
(1.0438621 -0.005435002 1.9676606e-22)
(1.0440085 -0.0043944467 1.3503241e-20)
(1.044344 -0.003206782 5.869293e-21)
(1.0447178 -0.002026763 6.9741157e-21)
(1.0453009 -0.0006134328 -1.0573642e-20)
(1.0439784 -0.0088508387 1.1257361e-20)
(1.0447306 -0.0081189716 -8.2103427e-21)
(1.0445433 -0.0073170628 2.7949877e-22)
(1.0447931 -0.0064492881 -4.9306606e-21)
(1.0448685 -0.0054636818 3.7349613e-22)
(1.0450821 -0.00440971 2.0685726e-20)
(1.0453326 -0.003200703 -3.8215486e-21)
(1.0456787 -0.0020198166 1.1601951e-20)
(1.0462079 -0.00059673565 2.2090094e-20)
(1.0449757 -0.0095455794 -8.5120264e-21)
(1.04572 -0.0088871272 4.036929e-21)
(1.0455315 -0.0081676855 2.3178179e-22)
(1.045765 -0.0073816976 -9.2482723e-22)
(1.0457979 -0.0064959258 1.7166228e-21)
(1.0459523 -0.00549155 4.7369883e-22)
(1.0460814 -0.004415807 -7.2162539e-21)
(1.0463092 -0.0031841943 -1.2407193e-20)
(1.0465939 -0.0020044968 -6.7333001e-21)
(1.0470723 -0.00057607463 -1.6865042e-21)
(1.0459276 -0.010177465 3.9102749e-21)
(1.0466751 -0.0095903556 -2.6628124e-22)
(1.0465035 -0.0089484383 -6.598847e-21)
(1.0467413 -0.0082541849 6.7502673e-21)
(1.0467653 -0.0074483205 -9.4551194e-21)
(1.0468905 -0.0065455379 2.0985119e-20)
(1.0469633 -0.0055095124 9.6181851e-23)
(1.047079 -0.0044091511 -2.0052649e-20)
(1.0472419 -0.0031542291 9.7312374e-21)
(1.0474701 -0.001978612 -2.0184971e-20)
(1.047889 -0.00055114896 2.9218677e-21)
(1.0468186 -0.010750758 -1.3586147e-22)
(1.0475798 -0.010230192 1.5030222e-21)
(1.0474378 -0.0096652954 5.6590069e-21)
(1.0476968 -0.0090586843 0)
(1.0477331 -0.0083448204 -1.2799581e-22)
(1.0478639 -0.0075231656 -2.634022e-22)
(1.0479118 -0.0065851951 4.2603467e-21)
(1.0479844 -0.0055137862 1.0127905e-20)
(1.0480335 -0.0043849739 4.9975698e-22)
(1.0481402 -0.0031079201 1.2000769e-20)
(1.0483016 -0.0019407522 7.9015001e-21)
(1.0486555 -0.00052168218 -1.7168917e-21)
(1.0476296 -0.011270244 -1.4506211e-22)
(1.0484206 -0.010810208 7.64203e-22)
(1.0483187 -0.010319436 0)
(1.0486102 -0.0098012151 0)
(1.048676 -0.0091755832 3.4048352e-21)
(1.0488342 -0.0084505695 -4.30817e-21)
(1.0488932 -0.0075887187 9.1695506e-21)
(1.0489567 -0.0066118549 -1.1423499e-20)
(1.0489636 -0.0054977439 -9.9024371e-22)
(1.0489652 -0.0043393242 -1.0183646e-23)
(1.0489975 -0.0030428917 -1.366638e-20)
(1.0490861 -0.0018894148 1.3966511e-20)
(1.0493687 -0.00048750867 -2.5976151e-20)
(1.0483255 -0.01174219 4.2417682e-22)
(1.0491827 -0.011334069 -1.6839285e-22)
(1.0491331 -0.010914483 3.0339873e-21)
(1.0494661 -0.010482119 -3.364657e-21)
(1.0495728 -0.0099465536 3.5927442e-21)
(1.0497755 -0.0093158588 -8.8610274e-22)
(1.0498681 -0.0085482503 -3.0275674e-21)
(1.0499605 -0.0076434607 3.7878776e-23)
(1.0499616 -0.0066162763 -1.1073547e-20)
(1.0499336 -0.0054561939 -1.0173963e-20)
(1.0498589 -0.0042687362 -3.8044041e-21)
(1.0498119 -0.0029564492 -1.0344476e-20)
(1.0498202 -0.0018235097 -6.7511911e-21)
(1.0500257 -0.00044854659 6.8201563e-21)
(1.0488343 -0.012175974 5.7096544e-21)
(1.0498396 -0.011806866 -3.3822353e-21)
(1.0498676 -0.011454075 1.4869333e-21)
(1.0502526 -0.011104516 4.0489517e-23)
(1.0504081 -0.010657231 4.3148294e-24)
(1.0506662 -0.010124803 8.3309443e-22)
(1.0508101 -0.0094497665 -2.9182446e-21)
(1.0509539 -0.0086389698 3.8686401e-21)
(1.0509898 -0.0076750235 -1.2951974e-22)
(1.0509715 -0.0065927591 1.0839498e-21)
(1.0508664 -0.0053848775 2.3381383e-22)
(1.0507165 -0.0041694904 1.2101674e-21)
(1.0505794 -0.0028470631 1.311729e-20)
(1.0505008 -0.0017421892 -6.0683751e-21)
(1.0506238 -0.00040480768 4.7729396e-21)
(1.0490158 -0.012581213 -1.930503e-21)
(1.0503335 -0.01223713 3.8144804e-21)
(1.0504988 -0.011943239 -1.3465321e-21)
(1.0509581 -0.011671314 3.0742866e-21)
(1.0511707 -0.01131027 -3.4044946e-21)
(1.0514911 -0.01087584 8.9033647e-21)
(1.051697 -0.010298705 -7.8361068e-21)
(1.0519101 -0.0095822613 1.5437771e-22)
(1.0520062 -0.0087064693 2.8422793e-21)
(1.0520394 -0.0076780131 2.835284e-23)
(1.051948 -0.006535617 2.6115821e-20)
(1.0517773 -0.0052784183 -6.5831963e-21)
(1.0515329 -0.0040391594 -4.3503284e-21)
(1.0512969 -0.0027132922 -2.1083423e-21)
(1.051125 -0.0016449364 -7.7520963e-22)
(1.051161 -0.00035639125 -4.9871344e-21)
(1.0486341 -0.012975601 0)
(1.0505452 -0.01263546 2.6781434e-21)
(1.0509756 -0.012389856 -2.5900021e-21)
(1.0515638 -0.012186778 0)
(1.0518504 -0.011908003 0)
(1.0522392 -0.011570888 0)
(1.0525136 -0.011092311 -4.5645148e-23)
(1.0528065 -0.010478396 -6.7385989e-21)
(1.0529821 -0.0096922285 1.6185258e-21)
(1.0530927 -0.0087465388 -8.0451946e-21)
(1.0530606 -0.0076444552 -1.7923644e-22)
(1.0529159 -0.0064379697 -5.5715131e-21)
(1.052649 -0.0051343773 1.5857365e-22)
(1.0523049 -0.003875234 4.8857525e-21)
(1.0519611 -0.0025543483 1.5561306e-21)
(1.0516903 -0.0015315338 2.6567216e-21)
(1.0516353 -0.00030348088 0)
(1.0473284 -0.013371853 7.3978691e-22)
(1.0502607 -0.013022168 -5.9178057e-21)
(1.0511895 -0.012803426 5.1859243e-21)
(1.0520268 -0.012657773 1.4199336e-21)
(1.0524316 -0.012454161 3.0247569e-21)
(1.0529015 -0.012211362 0)
(1.0532492 -0.011831696 3.213407e-21)
(1.0536275 -0.011323221 -2.1681081e-22)
(1.0538935 -0.01063687 -1.1803497e-20)
(1.0541016 -0.0097775786 1.4352739e-21)
(1.054158 -0.0087480229 4.7172268e-21)
(1.0540867 -0.0075667857 -4.6564605e-22)
(1.0538494 -0.0062966881 -1.0470314e-20)
(1.0534865 -0.004948247 1.700953e-20)
(1.0530285 -0.0036764733 4.8381623e-21)
(1.0525689 -0.0023698042 1.9128937e-20)
(1.0521944 -0.0014020801 7.0669387e-21)
(1.0520456 -0.00024633538 5.1033427e-21)
(1.044634 -0.013784053 9.8194618e-23)
(1.049135 -0.013417211 -2.2754027e-21)
(1.05094 -0.013201631 -1.8532891e-21)
(1.0522523 -0.013093453 3.4183507e-21)
(1.052878 -0.012954798 -3.0421466e-22)
(1.0534651 -0.012800039 4.6215205e-21)
(1.0538957 -0.012517385 2.9861162e-21)
(1.0543624 -0.012116825 -6.3952439e-21)
(1.0547244 -0.011534779 -2.3597262e-21)
(1.0550413 -0.01077519 7.9175867e-21)
(1.0552084 -0.0098234155 -1.5511802e-22)
(1.0552417 -0.0087034743 1.1174234e-20)
(1.0550858 -0.0074404177 -3.7090919e-21)
(1.054761 -0.0061054524 -1.1482245e-21)
(1.0542802 -0.0047188398 -2.1445281e-21)
(1.0537001 -0.0034417315 -3.2406208e-21)
(1.0531177 -0.0021597879 5.8740885e-21)
(1.0526358 -0.0012569673 1.921207e-22)
(1.0523911 -0.00018527943 3.8394299e-21)
(1.0400297 -0.01421828 1.0266269e-21)
(1.046701 -0.013844617 2.9322578e-21)
(1.0498959 -0.013601643 -1.3033178e-20)
(1.052057 -0.013510963 -7.1672928e-22)
(1.0531064 -0.01341845 2.5927338e-21)
(1.0539 -0.013341742 1.9533884e-21)
(1.0544427 -0.013151364 4.6609027e-22)
(1.0550038 -0.012858558 6.6644378e-21)
(1.055464 -0.01238496 -9.341028e-22)
(1.0558951 -0.011732178 -1.0603479e-20)
(1.0561852 -0.010874129 1.405024e-20)
(1.0563469 -0.0098229931 -2.3890784e-21)
(1.0563074 -0.0086060945 -5.2464437e-21)
(1.0560749 -0.0072577471 4.5744486e-22)
(1.0556333 -0.0058631908 -1.2599964e-21)
(1.0550283 -0.0044438886 -1.1485548e-20)
(1.0543165 -0.0031709563 9.5080509e-22)
(1.0536052 -0.0019248565 -9.6326841e-21)
(1.0530133 -0.0010968705 -2.2340142e-21)
(1.0526716 -0.00012069548 -3.3892726e-21)
(1.0330199 -0.014670628 -3.7018507e-22)
(1.0424087 -0.014322022 3.5664895e-21)
(1.0475972 -0.01402412 -1.6154121e-21)
(1.0511268 -0.013929265 3.3535631e-21)
(1.0529485 -0.013860563 1.6791399e-21)
(1.0541337 -0.013844058 -2.3857123e-21)
(1.0548655 -0.013737551 4.2669836e-21)
(1.0555432 -0.013549252 6.9363548e-21)
(1.0561053 -0.013185549 -9.3071853e-21)
(1.0566517 -0.012646327 0)
(1.0570706 -0.011891319 -9.2979193e-21)
(1.0573745 -0.010928263 4.58308e-22)
(1.0574779 -0.0097667991 1.0378132e-20)
(1.0573759 -0.0084474869 -4.8776531e-21)
(1.0570326 -0.0070168199 5.5710223e-21)
(1.0564707 -0.0055652615 -1.0139526e-20)
(1.0557257 -0.004123088 -2.5935856e-21)
(1.0548745 -0.0028644488 2.5143559e-21)
(1.0540297 -0.0016660049 -4.3344348e-21)
(1.0533262 -0.00092271464 -7.7171573e-22)
(1.0528876 -5.3026626e-05 -2.322625e-21)
(1.0232247 -0.015125949 -4.9477477e-21)
(1.0357052 -0.014855699 2.6092224e-21)
(1.043487 -0.014484111 6.4854809e-21)
(1.0490081 -0.014371743 -7.7919472e-21)
(1.0521073 -0.014299673 -4.2200081e-21)
(1.0540141 -0.014320962 1.9387953e-21)
(1.0551018 -0.014282786 0)
(1.0559603 -0.01419147 6.913735e-21)
(1.0566412 -0.013936275 1.6843908e-21)
(1.0573041 -0.013514318 -1.3191149e-20)
(1.0578528 -0.012871507 -4.0211709e-21)
(1.0583053 -0.01200878 1.2385341e-21)
(1.0585672 -0.010924951 4.4585852e-23)
(1.0586249 -0.0096460406 -4.5652637e-21)
(1.0584227 -0.0082241153 4.8062317e-21)
(1.0579658 -0.0067114876 -4.2922907e-21)
(1.0572615 -0.0052123732 1.3040228e-21)
(1.0563689 -0.0037564414 -6.815421e-21)
(1.0553716 -0.0025232679 -2.7098632e-21)
(1.0543898 -0.0013845999 -5.4053019e-22)
(1.0535745 -0.00073564901 -1.5595522e-21)
(1.05304 1.720471e-05 0)
(1.0104543 -0.015559593 -3.0956007e-21)
(1.026134 -0.015436347 -1.0248381e-21)
(1.0369896 -0.01498662 3.0689974e-22)
(1.045133 -0.014857851 -6.6821013e-21)
(1.0501395 -0.014758328 -2.1863467e-21)
(1.0532625 -0.014791309 2.6108114e-21)
(1.0550143 -0.014799762 -5.2535699e-21)
(1.0562022 -0.014790756 7.0948067e-21)
(1.0570559 -0.014638517 3.7219674e-21)
(1.0578466 -0.014334514 2.2519895e-22)
(1.0585248 -0.013809852 1.8506846e-23)
(1.0591266 -0.013059686 -1.7136564e-21)
(1.0595547 -0.012068434 1.2177942e-21)
(1.0597901 -0.010855372 -7.890275e-21)
(1.0597615 -0.009455107 -1.1201992e-20)
(1.0594565 -0.0079285892 -9.712867e-21)
(1.0588596 -0.0063419021 1.734693e-21)
(1.0580059 -0.0048020332 1.2596921e-20)
(1.056954 -0.0033450523 2.1502035e-23)
(1.0558058 -0.0021490147 -2.8603277e-21)
(1.0546852 -0.0010823247 0)
(1.0537588 -0.00053701323 2.3914396e-21)
(1.0531298 8.9326036e-05 2.1969007e-22)
(0.99474654 -0.015941508 1.5998721e-20)
(1.0134228 -0.01603875 -2.2555672e-21)
(1.0276103 -0.015522879 7.6006345e-21)
(1.0388921 -0.01539713 3.8748151e-21)
(1.0464726 -0.015256662 -8.4960918e-21)
(1.0514487 -0.015278448 0)
(1.0543428 -0.015306906 -1.0992089e-21)
(1.0561464 -0.015358184 5.1887004e-21)
(1.0573043 -0.015296679 3.7175809e-21)
(1.0582664 -0.015106781 -5.4963241e-22)
(1.0590815 -0.014703327 -7.359419e-21)
(1.0598308 -0.014074508 -4.5109879e-21)
(1.0604264 -0.013190978 6.1044834e-21)
(1.0608487 -0.012061823 -8.898843e-21)
(1.0610147 -0.010711484 1.2993869e-20)
(1.0608979 -0.0091855676 2.0776179e-20)
(1.0604602 -0.0075598566 2.2090827e-22)
(1.059715 -0.005904255 5.1488118e-21)
(1.0586954 -0.0043365871 -1.1620905e-20)
(1.0574784 -0.0028902962 3.191757e-22)
(1.0561756 -0.0017440307 4.4924485e-21)
(1.054916 -0.0007611905 -1.8076506e-21)
(1.0538802 -0.00032837293 -1.1987454e-22)
(1.0531589 0.00016198389 1.7231748e-22)
(0.97636196 -0.016241275 4.4090587e-21)
(0.99753833 -0.016625255 -1.1591557e-22)
(1.0150311 -0.016070004 1.4800072e-22)
(1.0297385 -0.015984267 -1.6185031e-20)
(1.0404731 -0.015805899 5.9853444e-21)
(1.0479987 -0.01580507 -1.0117333e-20)
(1.0526712 -0.01582732 -9.4697858e-22)
(1.055552 -0.015911468 -9.1007459e-21)
(1.057278 -0.015920413 4.3493592e-21)
(1.0585261 -0.015833987 2.8597394e-21)
(1.0595129 -0.015550328 -6.7934866e-21)
(1.0604133 -0.01504861 4.5450275e-21)
(1.0611741 -0.014284484 -5.7216052e-21)
(1.0617855 -0.013257744 -5.1451044e-23)
(1.0621576 -0.011978213 1.0535987e-20)
(1.0622531 -0.010483968 1.4032736e-21)
(1.062015 -0.0088346796 -1.5021832e-22)
(1.0614352 -0.0071128215 8.5228722e-21)
(1.0605213 -0.0054004926 0)
(1.0593284 -0.0038158063 1.6402408e-21)
(1.057939 -0.0023948859 4.0181489e-22)
(1.0564794 -0.001311873 -5.9299257e-22)
(1.0550826 -0.00042405254 -8.6261891e-22)
(1.0539398 -0.00011226293 -3.5438307e-23)
(1.053135 0.00023022252 9.855819e-22)
(0.95574207 -0.016432434 -1.5086964e-20)
(0.97869388 -0.017151448 -9.2057465e-22)
(0.99917345 -0.01659435 2.256949e-21)
(1.0172929 -0.016597618 1.7817544e-21)
(1.0315505 -0.016403028 1.6411057e-20)
(1.042256 -0.01638556 7.0643768e-23)
(1.0494268 -0.016384704 -9.0703567e-22)
(1.0540196 -0.016473713 6.871683e-22)
(1.0567547 -0.016526499 6.8686899e-21)
(1.0585306 -0.01652405 -4.1259277e-21)
(1.0597884 -0.016352217 4.7974225e-21)
(1.0608664 -0.015978697 -2.1343429e-22)
(1.0617933 -0.015342639 -1.9372922e-21)
(1.0625911 -0.014433311 2.6711427e-21)
(1.063173 -0.013246344 1.8977457e-22)
(1.0634951 -0.01180758 -1.4983203e-20)
(1.0634847 -0.010168036 -2.1773566e-20)
(1.0631148 -0.0083960622 -1.2590238e-20)
(1.0623687 -0.006588502 -1.6685144e-20)
(1.0612764 -0.0048294805 -4.0862732e-22)
(1.0598991 -0.0032433168 1.3357174e-20)
(1.0583341 -0.0018615327 1.3372575e-22)
(1.0567177 -0.00085450866 -1.2682258e-21)
(1.0551853 -7.5054777e-05 -1.227927e-22)
(1.0539397 0.00010895138 9.6904761e-22)
(1.0530534 0.00030968305 -1.2108446e-23)
(0.9334442 -0.016496075 6.7902057e-22)
(0.95731621 -0.017572225 -1.3274612e-21)
(0.98021425 -0.017057316 -9.7696329e-21)
(1.0014193 -0.01720223 9.7617633e-21)
(1.01927 -0.01702842 -1.4528654e-20)
(1.033586 -0.017019813 8.5916279e-21)
(1.0439339 -0.016995443 3.6960116e-21)
(1.0509815 -0.017070163 8.7829787e-21)
(1.0553526 -0.017137668 -9.7476134e-21)
(1.0580767 -0.017192442 -4.1126568e-21)
(1.0598249 -0.017115225 1.5812263e-21)
(1.061165 -0.01686434 -1.1749745e-20)
(1.0622778 -0.016360431 1.1643804e-20)
(1.0632607 -0.015580481 -1.475122e-21)
(1.0640503 -0.014504371 3.1108735e-21)
(1.0646046 -0.013146273 -4.6578571e-22)
(1.0648396 -0.01154283 -5.3390056e-21)
(1.064712 -0.0097559845 5.1984856e-21)
(1.0641827 -0.007869336 -6.1218701e-21)
(1.063258 -0.0059847131 -7.940596e-22)
(1.0619725 -0.0041946973 0)
(1.0604054 -0.0026210483 4.3693646e-21)
(1.0586618 -0.0012939989 1.7800289e-21)
(1.0568899 -0.0003754406 0)
(1.0552263 0.00028712609 4.4772406e-22)
(1.053883 0.00034004648 -5.9732613e-22)
(1.0529198 0.00038722696 -2.1118227e-21)
(0.91007133 -0.016427597 5.1936831e-21)
(0.93397998 -0.017849258 -2.0304261e-22)
(0.95855854 -0.017422472 -8.3573313e-21)
(0.98225166 -0.017755445 1.0208776e-21)
(1.003441 -0.017647993 -2.4780837e-21)
(1.0214942 -0.017690212 -9.6111792e-21)
(1.0355166 -0.017661841 -4.9160693e-22)
(1.0457464 -0.017719925 -7.0706772e-21)
(1.0525117 -0.017780003 -2.6510221e-23)
(1.0568019 -0.017861338 8.2942917e-21)
(1.0594376 -0.017853327 -4.0464816e-21)
(1.0612377 -0.017709831 9.8709986e-22)
(1.0626074 -0.017335603 -3.0178425e-21)
(1.0637891 -0.016692346 3.3068641e-21)
(1.0647839 -0.015742507 -1.0522958e-21)
(1.0655694 -0.014486934 4.0391472e-21)
(1.0660581 -0.012947944 3.9725129e-21)
(1.0661943 -0.011174926 2.8424714e-20)
(1.0659191 -0.0092456591 9.8112092e-21)
(1.0652157 -0.0072511019 1.0493076e-20)
(1.0640937 -0.0053043195 7.957509e-21)
(1.0626064 -0.0034976085 -2.7498857e-21)
(1.0608434 -0.0019535518 -5.5114071e-22)
(1.0589214 -0.00069571485 0)
(1.056997 0.00012234808 0)
(1.0552073 0.00065915469 6.3358234e-23)
(1.0537729 0.0005740775 3.4964398e-21)
(1.052737 0.00046424402 4.8732487e-21)
(0.88622101 -0.016224265 0)
(0.90931802 -0.017972584 -7.8013738e-22)
(0.9347841 -0.017658968 7.3871668e-21)
(0.96017192 -0.018214038 3.4004318e-21)
(0.98415167 -0.018218227 1.0343173e-20)
(1.0057235 -0.018362236 4.7088536e-22)
(1.0236247 -0.018367942 -6.3240827e-21)
(1.0375987 -0.018428407 -1.1158605e-20)
(1.0475286 -0.018474587 1.3394765e-20)
(1.0541567 -0.018557596 -4.013917e-21)
(1.058284 -0.018587862 5.2357783e-22)
(1.0609176 -0.018527312 4.0991296e-21)
(1.0627212 -0.018270482 -1.061866e-20)
(1.0641604 -0.017764642 6.0586802e-21)
(1.0653692 -0.016951942 3.880322e-21)
(1.0663829 -0.015818024 -3.0309901e-22)
(1.0671262 -0.014368809 3.8727448e-21)
(1.0675377 -0.01264103 -3.2396115e-21)
(1.0675422 -0.010699641 1.4618449e-20)
(1.0671023 -0.0086322478 1.5006175e-21)
(1.0662022 -0.0065431622 6.8957792e-21)
(1.0648712 -0.0045481254 4.2941008e-21)
(1.0631726 -0.0027429686 -8.3245968e-22)
(1.0612117 -0.0012443475 -8.0018608e-21)
(1.0591125 -7.079268e-05 -3.5954986e-21)
(1.0570405 0.00063596901 1.355317e-21)
(1.0551312 0.0010384738 -3.1238313e-21)
(1.0536117 0.00081162681 3.0574323e-21)
(1.0525079 0.00054050062 -8.849384e-21)
(0.86245283 -0.01588907 -1.5933426e-20)
(0.88396311 -0.017912304 0)
(0.90958272 -0.017722834 0)
(0.93574993 -0.018539816 0)
(0.96175861 -0.018695231 -2.7210583e-21)
(0.98631433 -0.018991801 9.2018417e-21)
(1.0079437 -0.019080576 -1.0302638e-21)
(1.0259289 -0.019182003 -1.5176914e-21)
(1.0396517 -0.019229346 1.74158e-20)
(1.0494288 -0.019304454 -1.650927e-20)
(1.0558273 -0.019346025 1.0156132e-20)
(1.0598832 -0.019337006 -3.5244062e-21)
(1.0624693 -0.019175188 1.7455376e-21)
(1.0643228 -0.018797532 -8.3979598e-21)
(1.0657936 -0.018126339 4.3279075e-21)
(1.0670404 -0.017128766 4.9012327e-21)
(1.0680354 -0.01579222 6.2729388e-22)
(1.0687256 -0.014138466 -1.018727e-20)
(1.0690255 -0.012218987 -3.9913149e-21)
(1.0688795 -0.010110572 -8.5595804e-21)
(1.0682487 -0.0079160827 -8.2842024e-21)
(1.0671366 -0.0057454009 3.1347696e-21)
(1.0655832 -0.003720672 8.4837748e-21)
(1.0636682 -0.0019343952 -3.1867735e-21)
(1.0615083 -0.00049864564 -1.8802147e-21)
(1.0592357 0.00057667038 -2.5974079e-22)
(1.0570223 0.0011613503 -2.2786794e-21)
(1.0550007 0.0014225101 2.2722074e-21)
(1.0534029 0.0010497807 -1.3280628e-20)
(1.0522374 0.00061528079 -6.0315171e-21)
(0.83727523 -0.015386156 -1.2730405e-21)
(0.85863086 -0.017662291 -1.1432206e-21)
(0.88366298 -0.017653942 0)
(0.90966352 -0.018704847 0)
(0.93683067 -0.019039306 0)
(0.96359262 -0.019531108 0)
(0.98845749 -0.01975397 0)
(1.0103555 -0.019947736 3.3350168e-22)
(1.0282153 -0.020032785 -8.5149689e-21)
(1.0418323 -0.020112679 1.8484288e-20)
(1.05135 -0.020152799 -9.6857442e-22)
(1.057613 -0.020166191 1.14009e-20)
(1.0615515 -0.020068579 -1.4912047e-20)
(1.0641431 -0.019798825 2.0822271e-21)
(1.0660135 -0.019263627 -9.192878e-23)
(1.0675316 -0.01841069 5.4473819e-21)
(1.0687809 -0.017205481 -1.0363878e-20)
(1.0697481 -0.015652496 -8.7738289e-22)
(1.0703498 -0.013786893 1.3963645e-20)
(1.0705178 -0.011673697 6.2591269e-21)
(1.0701918 -0.0094062176 1.1127098e-21)
(1.0693514 -0.007095819 9.6698927e-21)
(1.0680098 -0.0048617201 5.286134e-22)
(1.0662253 -0.0028254235 -3.2200447e-21)
(1.0640898 -0.0010776565 4.533764e-21)
(1.0617328 0.00027888329 4.7186668e-21)
(1.0592921 0.0012420749 1.0951029e-21)
(1.0569447 0.0016952635 9.6589673e-22)
(1.054819 0.0018084052 2.3770969e-22)
(1.0531497 0.0012872787 1.0718397e-20)
(1.0519279 0.00068878036 4.0294609e-21)
(0.81021941 -0.014641004 1.7468005e-20)
(0.83177393 -0.017218748 -6.3838634e-22)
(0.85753374 -0.017418812 5.5799059e-21)
(0.88262693 -0.018697522 5.3109966e-21)
(0.91007072 -0.019210659 0)
(0.93811669 -0.019934674 0)
(0.96545474 -0.020337947 -4.2638812e-22)
(0.99080396 -0.020678468 1.0126398e-20)
(1.0127719 -0.020852814 -1.666429e-20)
(1.0306441 -0.020973162 1.957113e-20)
(1.0440358 -0.021021548 2.3941189e-21)
(1.0533874 -0.021041498 -1.0473823e-20)
(1.0594634 -0.020977643 -4.1032699e-22)
(1.0633426 -0.020785704 -6.4925255e-22)
(1.0659111 -0.020369146 -4.562245e-21)
(1.0678204 -0.019659319 1.263943e-21)
(1.0693539 -0.01859795 1.8307194e-21)
(1.0705991 -0.017168563 -4.8177372e-22)
(1.071503 -0.015387286 4.4830058e-21)
(1.0719954 -0.013304176 2.8429011e-20)
(1.0719991 -0.011001507 8.2250776e-21)
(1.0714713 -0.0085836998 -7.3628155e-21)
(1.0703994 -0.0061742921 1.1020949e-20)
(1.0688157 -0.0038951149 9.467316e-21)
(1.0667922 -0.0018683766 2.9269162e-21)
(1.0644355 -0.000177996 3.1132126e-21)
(1.061885 0.0010825405 1.4773071e-21)
(1.0592834 0.0019209545 -1.6674133e-21)
(1.0568106 0.0022338954 2.3660717e-21)
(1.0545892 0.0021938938 -1.0506869e-21)
(1.0528557 0.0015229115 6.3172103e-21)
(1.0515843 0.00076044479 4.5353103e-22)
(0.78324131 -0.013659656 -5.8556733e-21)
(0.802898 -0.016518836 1.8628545e-21)
(0.82995473 -0.01697312 -7.858656e-21)
(0.85537365 -0.018484428 -5.2689944e-21)
(0.88222944 -0.01922106 0)
(0.91059528 -0.020163709 0)
(0.93948177 -0.020783943 0)
(0.96752296 -0.021321096 -1.7749789e-21)
(0.99318504 -0.021641268 1.2923201e-20)
(1.0153476 -0.021854667 1.4384568e-20)
(1.0331062 -0.021945551 2.5398118e-21)
(1.0463617 -0.021978955 -2.2138365e-21)
(1.0554868 -0.021930335 2.0989358e-20)
(1.061436 -0.021784531 -1.6309125e-20)
(1.0652292 -0.021458143 5.0601745e-21)
(1.0678033 -0.020877338 0)
(1.0697244 -0.019962713 1.3805141e-21)
(1.0712708 -0.01867388 1.2381092e-21)
(1.0724774 -0.017003899 1.2607245e-20)
(1.0732973 -0.014984869 -1.0478389e-21)
(1.0736459 -0.012684261 -1.404576e-20)
(1.0734609 -0.010197726 -4.6626626e-21)
(1.072705 -0.007644368 -1.1426538e-20)
(1.0713849 -0.0051536612 -1.1294978e-20)
(1.0695469 -0.0028514302 8.5269993e-22)
(1.0672804 -0.00085510714 2.3981476e-21)
(1.0647038 0.00075808972 -1.4045572e-21)
(1.0619659 0.0019069892 -1.5549026e-22)
(1.0592117 0.0026086694 3.7579087e-21)
(1.0566229 0.0027739569 8.934101e-22)
(1.0543148 0.0025766857 1.1032672e-21)
(1.0525245 0.0017552841 -1.9002268e-20)
(1.0512092 0.0008302541 7.2635003e-21)
(0.75713882 -0.012445152 -5.3118545e-21)
(0.77391358 -0.015542773 3.7591078e-22)
(0.80032346 -0.016278821 -1.3940826e-20)
(0.82657018 -0.018060504 -7.4931569e-21)
(0.85398988 -0.019050887 3.6217608e-21)
(0.8817969 -0.020217104 -3.1723424e-23)
(0.91126072 -0.021045458 1.5909767e-20)
(0.94104212 -0.021822626 -8.4897133e-21)
(0.96965781 -0.022342366 -3.4651217e-23)
(0.99574012 -0.022707929 -3.1400239e-20)
(1.0179751 -0.022894619 1.4062148e-20)
(1.0357029 -0.022974387 1.7111243e-20)
(1.0487523 -0.022945187 -1.7191352e-21)
(1.0577093 -0.022824352 -5.265585e-21)
(1.063503 -0.022555992 -6.8181323e-21)
(1.0672444 -0.022077732 -4.6775228e-21)
(1.0698023 -0.021299719 6.3689901e-22)
(1.0717382 -0.02015902 1.463115e-20)
(1.0732657 -0.018621885 -3.2575131e-22)
(1.0744143 -0.016698002 -2.6914033e-21)
(1.0751145 -0.014436612 -3.8006845e-21)
(1.0752924 -0.011920416 -1.9255917e-20)
(1.0748885 -0.009261819 2.9241835e-21)
(1.0738836 -0.0065891573 -2.549825e-21)
(1.0722985 -0.0040392063 -1.4254812e-20)
(1.0701982 -0.0017362821 -3.7820556e-21)
(1.0676868 0.00020726113 -2.2984688e-21)
(1.0648942 0.0017243996 -3.294123e-21)
(1.0619765 0.0027464695 2.6514694e-22)
(1.0590797 0.003300861 -7.9347082e-22)
(1.0563849 0.0033122182 1.8910163e-21)
(1.0539996 0.0029548042 -9.8503005e-23)
(1.0521598 0.0019835746 8.0221169e-21)
(1.0508069 0.00089790567 -1.4114462e-20)
(0.73273472 -0.011001589 5.5362482e-21)
(0.74567496 -0.014274711 -5.3084292e-22)
(0.77039837 -0.015310612 1.6099933e-20)
(0.79558028 -0.017371642 4.3371738e-21)
(0.82418707 -0.018630653 -1.2315543e-20)
(0.8525112 -0.020083304 -1.6106295e-20)
(0.881595 -0.021129884 -2.088126e-21)
(0.91209077 -0.022131702 0)
(0.9426989 -0.022899266 -9.1169487e-21)
(0.97197545 -0.023474297 -3.4515364e-20)
(0.99837068 -0.023818533 2.3835059e-21)
(1.020753 -0.023998761 -6.454529e-21)
(1.0383744 -0.024020593 0)
(1.0512719 -0.023926146 -3.3182228e-21)
(1.0600263 -0.023692497 1.3104431e-20)
(1.0657009 -0.023284545 6.8245255e-21)
(1.0693722 -0.022619392 -6.2861841e-21)
(1.0719232 -0.021621087 0)
(1.0738465 -0.020229334 -7.1948703e-21)
(1.0753383 -0.018426798 -9.4353869e-21)
(1.0763931 -0.016239559 -1.9823859e-20)
(1.0769452 -0.013733569 -5.3987489e-21)
(1.076919 -0.011009866 0)
(1.0762712 -0.0081931118 -1.3842432e-20)
(1.0749956 -0.0054223412 9.0215147e-22)
(1.0731328 -0.002836226 8.531874e-23)
(1.0707643 -0.00055713669 -5.8703772e-21)
(1.0680093 0.0013117582 2.2669357e-21)
(1.065007 0.0027141283 4.3213894e-22)
(1.061919 0.0035955496 4.8017593e-21)
(1.0588903 0.0039932737 -8.4593106e-21)
(1.0561002 0.0038457363 -4.0764876e-21)
(1.053647 0.0033265079 0)
(1.0517652 0.0022067362 -3.0774352e-22)
(1.0503806 0.00096328844 -4.3757335e-21)
(0.71085044 -0.0093416183 4.0249728e-21)
(0.71909996 -0.012711269 8.6039522e-22)
(0.74110517 -0.014055058 1.4837566e-20)
(0.76415743 -0.016384827 1.3848318e-21)
(0.79217213 -0.017939148 -3.5462296e-21)
(0.82157678 -0.019651418 -8.0577656e-22)
(0.85128892 -0.021021551 -1.355545e-20)
(0.88150042 -0.022258976 5.0475481e-22)
(0.91304217 -0.023255314 0)
(0.94453754 -0.024092651 1.1103077e-20)
(0.97439253 -0.024655832 -1.2016446e-20)
(1.0011672 -0.02500088 2.9466014e-21)
(1.0236228 -0.025128801 -6.6943251e-21)
(1.0411867 -0.025090985 8.9404465e-21)
(1.0538902 -0.024890904 1.1310137e-22)
(1.062477 -0.02452803 1.4580052e-20)
(1.0680145 -0.023944133 -9.7945725e-21)
(1.0716307 -0.023067678 3.8607747e-21)
(1.0741527 -0.021820449 1.4489986e-20)
(1.076051 -0.020156945 -7.6617894e-21)
(1.0774726 -0.018074617 1.4462807e-20)
(1.0784049 -0.015617308 1.0094011e-21)
(1.0787728 -0.012870432 0)
(1.0785136 -0.0099499635 -3.7740286e-21)
(1.0775953 -0.0069944167 2.2299005e-22)
(1.0760316 -0.0041484916 5.5555374e-21)
(1.0738807 -0.0015521806 4.5543368e-21)
(1.0712416 0.00067848331 2.3710011e-21)
(1.0682467 0.0024506309 7.7604591e-22)
(1.0650432 0.0037207259 0)
(1.0617959 0.0044488169 -3.0794204e-21)
(1.0586468 0.0046819839 -8.996386e-21)
(1.0557723 0.0043718726 1.7801309e-20)
(1.0532608 0.0036902182 -5.9746246e-21)
(1.0513443 0.0024240832 4.7596609e-22)
(1.0499336 0.0010262513 1.5455958e-20)
(0.69226238 -0.0074879332 -3.7392785e-21)
(0.69512905 -0.010861637 -1.751293e-22)
(0.71343303 -0.012511336 -4.4685986e-21)
(0.73325746 -0.015081981 3.6209949e-23)
(0.75949475 -0.016946571 1.4479339e-20)
(0.78828097 -0.018963435 1.1756905e-20)
(0.81924765 -0.020597702 -1.8535492e-22)
(0.8501377 -0.022170169 -1.0953937e-20)
(0.88154508 -0.023424844 5.2702025e-22)
(0.91416238 -0.024500578 -9.596391e-21)
(0.94649546 -0.025341146 -4.5546914e-22)
(0.97698666 -0.025916271 5.8730632e-21)
(1.0040763 -0.026217693 -1.020221e-21)
(1.0266496 -0.026292529 1.0646556e-20)
(1.0441087 -0.026154973 -3.1230066e-20)
(1.0566492 -0.025833587 6.6091186e-21)
(1.0650468 -0.025304305 9.2740913e-22)
(1.0704649 -0.024519203 5.9735463e-21)
(1.0740083 -0.023399815 -3.3602538e-21)
(1.0764946 -0.021879719 -1.0163273e-21)
(1.0783367 -0.019925214 1.1248982e-20)
(1.0796605 -0.017551719 -1.0069072e-20)
(1.0804323 -0.014823182 5.2796154e-21)
(1.080584 -0.011842259 0)
(1.0800607 -0.0087416182 1.7079378e-20)
(1.0788494 -0.0056691374 1.3895608e-20)
(1.0769818 -0.0027746469 -2.444699e-21)
(1.0745361 -0.00019484833 7.3477814e-21)
(1.071627 0.001962037 5.7056362e-22)
(1.0683989 0.0036162212 -6.3867161e-22)
(1.0650045 0.0047375719 4.5443569e-21)
(1.0616099 0.00530121 -8.7509207e-21)
(1.058353 0.0053633533 -2.3163737e-22)
(1.0554052 0.0048882407 1.8158644e-20)
(1.0528447 0.0040446354 -1.1573129e-21)
(1.0509004 0.0026349256 -5.410102e-22)
(1.0494691 0.0010866989 5.6272746e-21)
(0.67765736 -0.0054724251 3.9091585e-22)
(0.67466727 -0.0087511146 -1.0461052e-21)
(0.6883951 -0.010688087 -5.6724003e-21)
(0.70393795 -0.01345999 -7.445225e-22)
(0.72718932 -0.015619557 -6.1837605e-24)
(0.7541797 -0.017941709 2.0678639e-22)
(0.78477882 -0.019896949 -7.3681589e-21)
(0.81694104 -0.021741748 4.2957439e-21)
(0.84910977 -0.02335897 0)
(0.88173383 -0.024715967 1.9861694e-21)
(0.91541385 -0.025805916 0)
(0.94863311 -0.026674988 0)
(0.97971313 -0.02721971 6.1783775e-21)
(1.0071595 -0.027477736 -5.8918939e-22)
(1.0298033 -0.027459878 -5.2589131e-21)
(1.0471844 -0.027207769 -6.7867151e-21)
(1.0595347 -0.026727279 1.7338165e-20)
(1.0677595 -0.026005789 -8.8455324e-21)
(1.0730421 -0.024985533 1.2472201e-21)
(1.0765115 -0.023596535 1.0314604e-21)
(1.0789355 -0.021779764 -1.4697812e-20)
(1.0806966 -0.01951819 -5.3984174e-21)
(1.0818844 -0.016847136 4.4827523e-21)
(1.0824615 -0.013849688 1.0842097e-20)
(1.0823617 -0.01064765 2.1197394e-21)
(1.0815468 -0.0073866139 1.9623681e-21)
(1.0800213 -0.0042234274 -4.6067046e-21)
(1.0778382 -0.0013084713 -5.0060124e-21)
(1.0750939 0.0012266497 -6.8592511e-22)
(1.0719188 0.0032848943 -3.6931572e-21)
(1.0684664 0.0048006755 -5.0314969e-21)
(1.0648932 0.0057583651 -2.6740022e-21)
(1.0613647 0.0061479493 1.0872089e-21)
(1.0580126 0.0060340992 1.3376292e-20)
(1.0550026 0.0053927874 -3.5052336e-20)
(1.0524023 0.0043886216 -5.7910943e-21)
(1.0504369 0.0028387488 -5.4758318e-21)
(1.0489902 0.0011445624 0)
(0.66759206 -0.0033345883 3.2490519e-21)
(0.65852569 -0.0064200581 -1.545879e-22)
(0.66697005 -0.0086099924 -1.4684852e-21)
(0.6773033 -0.011524575 -6.4151832e-22)
(0.69640181 -0.013957256 -6.6674091e-21)
(0.72033239 -0.01655996 -5.0178005e-21)
(0.74927536 -0.018856529 -6.7427311e-22)
(0.7812083 -0.021028524 2.1640928e-20)