/*--------------------------------*- C++ -*----------------------------------*\
| =========                 |                                                 |
| \\      /  F ield         | OpenFOAM: The Open Source CFD Toolbox           |
|  \\    /   O peration     | Version:  5.0                                   |
|   \\  /    A nd           | Web:      www.OpenFOAM.org                      |
|    \\/     M anipulation  |                                                 |
\*---------------------------------------------------------------------------*/
FoamFile
{
    version     2.0;
    format      ascii;
    class       volVectorField;
    location    "180";
    object      UMean;
}
// * * * * * * * * * * * * * * * * * * * * * * * * * * * * * * * * * * * * * //

dimensions      [0 1 -1 0 0 0 0];

internalField   nonuniform List<vector> 
9200
(
(1.0237763 -0.00058019096 -1.4986309e-23)
(1.0241378 -0.0017104894 -8.9939847e-21)
(1.025397 -0.00058550613 0)
(1.0244801 -0.0027426211 4.6045519e-21)
(1.025743 -0.0017307016 -6.8579723e-21)
(1.0261434 -0.000588793 0)
(1.0248164 -0.003712631 4.6145274e-22)
(1.0260716 -0.002769293 -3.9559481e-22)
(1.0264841 -0.0017479458 0)
(1.0272315 -0.00059474366 0)
(1.0251831 -0.0045958662 -8.654426e-21)
(1.0263899 -0.0037532634 -4.7385913e-21)
(1.0268072 -0.0027956241 -3.8111611e-21)
(1.0275632 -0.0017770505 -2.3718219e-22)
(1.0281273 -0.00059970712 9.9590939e-25)
(1.0255559 -0.0054163938 -7.9693055e-21)
(1.0267351 -0.004646789 7.1241557e-22)
(1.027117 -0.0037935736 -1.2160974e-20)
(1.027881 -0.0028383374 -4.497245e-21)
(1.0284534 -0.0018055915 1.309014e-22)
(1.0290868 -0.0006048213 9.8865165e-21)
(1.0259203 -0.0061646157 -7.2132695e-21)
(1.0270825 -0.0054810186 -8.2991585e-21)
(1.0274529 -0.0046986136 7.3576604e-21)
(1.0281831 -0.0038588824 4.0728322e-22)
(1.0287678 -0.0028809886 -4.7883636e-21)
(1.0294089 -0.0018383595 -4.6066263e-21)
(1.0299836 -0.00060845737 -6.6345743e-22)
(1.0262516 -0.0068506475 -2.8860967e-21)
(1.0274163 -0.0062418079 -5.5354354e-21)
(1.0277886 -0.0055470009 -7.8013872e-21)
(1.0285106 -0.0047838086 3.7939957e-22)
(1.0290645 -0.0039246257 1.1031149e-20)
(1.029724 -0.002929819 4.7784263e-21)
(1.030303 -0.0018691414 6.2220804e-21)
(1.0308854 -0.00061070698 -9.4095337e-21)
(1.0265311 -0.0074744559 8.5425133e-21)
(1.0277129 -0.0069415145 -6.6627436e-21)
(1.0281085 -0.0063216249 4.1213224e-22)
(1.0288349 -0.0056564571 -4.032575e-21)
(1.0293862 -0.0048703279 8.2059693e-22)
(1.0300215 -0.0040009557 1.718712e-20)
(1.0306199 -0.0029755434 -4.1788981e-21)
(1.0312054 -0.0018988849 1.0444325e-20)
(1.0317502 -0.00061058187 1.986868e-20)
(1.0267404 -0.0080412704 -6.2702583e-21)
(1.0279538 -0.0075787326 3.5867931e-21)
(1.028389 -0.0070361664 1.2750432e-22)
(1.0291408 -0.0064555836 -1.4259209e-21)
(1.0297023 -0.0057682158 1.3045483e-21)
(1.0303444 -0.0049723703 1.2952603e-21)
(1.0309193 -0.0040738114 -5.9981158e-21)
(1.0315295 -0.0030195484 -1.068458e-20)
(1.0320722 -0.0019235875 -5.7047078e-21)
(1.0326019 -0.00060787106 -1.413419e-21)
(1.0268633 -0.0085544088 2.8896325e-21)
(1.0281217 -0.0081590746 2.1060986e-22)
(1.0286119 -0.0076883312 -5.3841417e-21)
(1.0294042 -0.0071965821 5.2152558e-21)
(1.0299975 -0.0065930838 -8.4656537e-21)
(1.0306598 -0.0059019739 1.7800795e-20)
(1.0312448 -0.0050709523 3.9507539e-22)
(1.0318388 -0.0041462045 -1.7702155e-20)
(1.0324049 -0.0030555255 8.7717928e-21)
(1.0329292 -0.0019428238 -1.7961582e-20)
(1.0334207 -0.00060194314 2.8340747e-21)
(1.0268835 -0.0090183594 -1.5979161e-22)
(1.0282012 -0.0086854184 4.651295e-22)
(1.0287603 -0.0082839013 4.1735496e-21)
(1.0296073 -0.0078758306 0)
(1.0302475 -0.0073618091 -5.6412427e-23)
(1.0309521 -0.0067600804 -1.1053771e-21)
(1.0315611 -0.0060326772 3.6470105e-21)
(1.0321759 -0.0051712699 8.8497672e-21)
(1.0327262 -0.0042085245 -7.9839171e-22)
(1.033276 -0.0030829385 1.0826043e-20)
(1.0337554 -0.0019538438 7.3096106e-21)
(1.0342151 -0.00059252009 -1.5367801e-21)
(1.0267826 -0.0094376361 -1.1864708e-22)
(1.028178 -0.0091621178 8.4519808e-22)
(1.0288194 -0.0088255083 0)
(1.0297337 -0.0084991715 0)
(1.030435 -0.0080694284 2.9449611e-21)
(1.0311962 -0.0075651553 -4.8170814e-21)
(1.0318521 -0.0069247787 8.5796868e-21)
(1.032503 -0.0061688539 -9.559448e-21)
(1.0330773 -0.0052602045 -7.5221976e-22)
(1.0336176 -0.0042606048 6.6202108e-24)
(1.0341186 -0.003097414 -1.3054855e-20)
(1.0345604 -0.0019556439 1.4250849e-20)
(1.0349747 -0.00057924119 -2.5666342e-20)
(1.0265345 -0.0098173582 5.3399925e-22)
(1.0280359 -0.0095933981 -1.5805287e-22)
(1.0287754 -0.009317509 2.6067879e-21)
(1.0297693 -0.0090686711 -2.9837348e-21)
(1.0305436 -0.0087217357 3.233951e-21)
(1.0313747 -0.0083105455 -1.1481672e-21)
(1.0320922 -0.0077672566 -2.3992435e-21)
(1.0328028 -0.0070999688 1.0513152e-22)
(1.033418 -0.0062930519 -8.4869731e-21)
(1.0339922 -0.0053383266 -7.6660188e-21)
(1.0344838 -0.0042958503 -3.4417795e-21)
(1.0349449 -0.0030973904 -9.3593976e-21)
(1.0353329 -0.0019464378 -6.2455755e-21)
(1.0357009 -0.00056189169 6.8822378e-21)
(1.0260969 -0.010163483 3.6322515e-21)
(1.027753 -0.009984223 -3.4682403e-21)
(1.0286134 -0.0097640698 9.487413e-22)
(1.0297013 -0.0095884043 1.0647011e-22)
(1.0305601 -0.0093201954 -7.584157e-23)
(1.0314717 -0.0090019183 1.2365348e-21)
(1.0322644 -0.0085518877 -2.2648695e-21)
(1.0330487 -0.0079861879 3.0372735e-21)
(1.0337301 -0.007263317 -6.2346351e-22)
(1.0343568 -0.006407332 7.1562154e-22)
(1.0348855 -0.0053967886 2.0770752e-22)
(1.0353413 -0.0043123388 2.7175795e-22)
(1.0357417 -0.0030800586 1.2711208e-20)
(1.0360749 -0.0019252089 -6.287403e-21)
(1.036388 -0.00054031474 5.1294102e-21)
(1.0253979 -0.010482271 -1.7503373e-21)
(1.0272932 -0.010340714 3.0805029e-21)
(1.0283132 -0.010170015 -1.4260816e-21)
(1.029516 -0.010062139 2.7272896e-21)
(1.0304722 -0.0098686092 -3.0458069e-21)
(1.0314742 -0.009639897 7.1594091e-21)
(1.0323524 -0.0092840395 -7.4394633e-21)
(1.0332231 -0.0088173384 2.7333228e-22)
(1.0339858 -0.0081940976 2.3805183e-21)
(1.0346914 -0.0074190575 -1.5696091e-21)
(1.0352789 -0.0065000604 2.273171e-20)
(1.0357798 -0.0054333587 -7.3667443e-21)
(1.0361738 -0.0043058094 -4.2021525e-21)
(1.0365123 -0.0030437722 -1.6563085e-21)
(1.0367801 -0.0018909073 -2.0813932e-22)
(1.0370343 -0.00051443565 -5.4831809e-21)
(1.0243243 -0.010782008 0)
(1.0265933 -0.010670275 2.5275412e-21)
(1.0278419 -0.010541056 -1.6621131e-21)
(1.0291956 -0.010494398 0)
(1.0302677 -0.010370449 0)
(1.0313708 -0.010227759 0)
(1.0323439 -0.0099634314 1.7866208e-22)
(1.0333099 -0.0095983583 -5.26039e-21)
(1.0341672 -0.0090733304 3.4095572e-21)
(1.0349669 -0.0083981144 -6.6078146e-21)
(1.0356418 -0.007552356 4.5974784e-22)
(1.036212 -0.0065690722 -4.7591451e-21)
(1.0366535 -0.0054424606 4.8313884e-22)
(1.0369867 -0.0042738764 4.649369e-21)
(1.0372491 -0.0029868667 1.084334e-21)
(1.0374469 -0.0018428545 2.8706017e-21)
(1.0376366 -0.00048425463 0)
(1.0227115 -0.011069242 -2.4307753e-22)
(1.0255485 -0.010983347 -4.7825627e-21)
(1.0271411 -0.010883842 5.3343607e-21)
(1.0287111 -0.01089062 2.0980869e-21)
(1.0299306 -0.010829928 3.247769e-21)
(1.0311502 -0.010768355 0)
(1.0322278 -0.010592759 3.9973027e-21)
(1.033297 -0.01032782 -8.9896017e-22)
(1.0342577 -0.0099054537 -1.121528e-20)
(1.0351645 -0.0093303183 4.0648883e-21)
(1.0359437 -0.0085798012 3.8395697e-21)
(1.0366136 -0.0076616111 4.2104959e-22)
(1.0371308 -0.0066070584 -1.0312369e-20)
(1.0375165 -0.0054207798 1.538384e-20)
(1.0377706 -0.0042139607 3.3158763e-21)
(1.0379511 -0.0029081862 2.0480076e-20)
(1.0380717 -0.0017806019 7.4657271e-21)
(1.0381928 -0.00044983503 6.1818213e-21)
(1.020351 -0.011349902 1.5368384e-22)
(1.0239993 -0.011290736 -2.0132151e-21)
(1.0261118 -0.011207391 -1.4001459e-21)
(1.0280101 -0.011257389 3.3744609e-21)
(1.0294349 -0.01125211 -3.6841286e-22)
(1.0307982 -0.011265376 3.1497986e-21)
(1.0319939 -0.01117425 -4.8392409e-22)
(1.0331737 -0.011007626 -8.3772161e-21)
(1.0342451 -0.010687828 -3.2432983e-21)
(1.0352671 -0.010219485 5.7958137e-21)
(1.0361646 -0.0095661787 -8.5479514e-22)
(1.0369522 -0.0087386152 9.5457705e-21)
(1.0375785 -0.0077374545 -4.8559768e-21)
(1.0380488 -0.0066099414 -4.4917111e-22)
(1.0383559 -0.0053649647 -1.0864754e-21)
(1.0385254 -0.0041241451 -3.3725635e-21)
(1.0386139 -0.002806989 6.5701409e-21)
(1.0386522 -0.0017039198 -1.3191115e-22)
(1.0387008 -0.00041132257 5.2618206e-21)
(1.0170119 -0.011625978 1.4022373e-21)
(1.0217332 -0.011603912 2.4252973e-21)
(1.0246002 -0.011520832 -1.2056321e-20)
(1.027001 -0.011603805 -1.0738148e-21)
(1.0287334 -0.011643252 2.0331702e-21)
(1.0302921 -0.011723354 1.2938833e-21)
(1.0316295 -0.011711106 6.8402999e-22)
(1.0329307 -0.011639159 5.2745652e-21)
(1.0341193 -0.011421473 -1.3105169e-21)
(1.0352625 -0.011061573 -1.1443174e-20)
(1.0362865 -0.010514643 1.117592e-20)
(1.0372063 -0.0097817551 -1.2280023e-21)
(1.0379623 -0.0088628105 -3.9566747e-21)
(1.038553 -0.0077753752 3.200061e-22)
(1.0389498 -0.0065733443 -2.6867963e-22)
(1.0391736 -0.0052721227 -1.1825515e-20)
(1.0392454 -0.0040031351 2.4551011e-21)
(1.0392349 -0.0026828694 -1.054366e-20)
(1.0391861 -0.0016128695 -2.5153259e-21)
(1.0391592 -0.00036892175 -5.0367137e-21)
(1.012477 -0.011894401 -1.5283606e-22)
(1.0185023 -0.011931017 3.1176499e-21)
(1.0223961 -0.011833853 -5.3235772e-22)
(1.0255366 -0.01194024 3.1718761e-21)
(1.0277409 -0.012011889 7.9643585e-22)
(1.0295896 -0.01214813 -2.4438798e-21)
(1.0311146 -0.012207353 5.6650844e-21)
(1.0325568 -0.012224904 1.0591174e-20)
(1.0338715 -0.012106852 -6.3330633e-21)
(1.0351406 -0.011856531 0)
(1.0362968 -0.011419664 -7.2210081e-21)
(1.0373572 -0.010793439 2.7369349e-21)
(1.0382589 -0.0099628193 9.8792603e-21)
(1.0389927 -0.008947756 -6.8311305e-21)
(1.0395188 -0.0077695346 4.4984597e-21)
(1.0398386 -0.0064931131 -9.7873638e-21)
(1.0399618 -0.005140392 -1.0270214e-21)
(1.0399281 -0.0038500231 3.5417398e-21)
(1.0398113 -0.0025358731 -5.7486625e-21)
(1.0396714 -0.0015077517 -6.0915313e-22)
(1.0395669 -0.00032289428 -4.1749598e-21)
(1.0065832 -0.012146551 -4.2590049e-21)
(1.0140584 -0.012274264 2.3187062e-21)
(1.0192472 -0.012153207 5.8266014e-21)
(1.0234082 -0.012277801 -6.7749188e-21)
(1.0263168 -0.012367912 -4.3022567e-21)
(1.0286128 -0.01254787 1.332241e-21)
(1.0304114 -0.012668366 0)
(1.0320345 -0.012768204 4.4327356e-21)
(1.0334917 -0.012745675 -6.9258949e-22)
(1.0348934 -0.012603695 -1.2297383e-20)
(1.0361856 -0.012280035 -2.2168442e-21)
(1.0373916 -0.011766522 2.1301541e-21)
(1.038448 -0.011039164 -4.297198e-22)
(1.0393426 -0.010104858 -3.6347786e-21)
(1.0400241 -0.0089858325 5.312255e-21)
(1.0404823 -0.0077148645 -4.9459612e-21)
(1.0407041 -0.0063669249 1.2408364e-21)
(1.0407186 -0.0049680777 -7.2405292e-21)
(1.0405696 -0.0036646056 -1.7029455e-21)
(1.0403407 -0.0023663797 -3.3508278e-22)
(1.0401068 -0.0013891029 -2.5584356e-21)
(1.0399233 -0.00027355284 0)
(0.99925491 -0.012369166 -2.3277114e-21)
(1.008197 -0.012627825 -9.9389678e-22)
(1.0148931 -0.012480464 1.4088884e-22)
(1.0203564 -0.012625603 -6.3006354e-21)
(1.0242564 -0.012722329 -2.6912837e-21)
(1.0272288 -0.012932719 2.5323331e-21)
(1.0294486 -0.013101801 -3.3069053e-21)
(1.0313307 -0.013273857 7.630722e-21)
(1.0329648 -0.013340552 3.2161221e-21)
(1.0345119 -0.013303792 5.3478328e-22)
(1.035945 -0.013093843 -1.0339851e-22)
(1.0372993 -0.012698477 -4.1831226e-21)
(1.0385156 -0.012083052 9.7384087e-22)
(1.0395811 -0.011247631 -2.3972904e-21)
(1.0404379 -0.010198334 -8.6397137e-21)
(1.0410641 -0.008971201 -8.7203404e-21)
(1.0414312 -0.0076078762 8.6401503e-22)
(1.0415465 -0.0061916768 1.2871425e-20)
(1.0414386 -0.0047546676 3.9543788e-22)
(1.041167 -0.0034470742 -3.5432321e-21)
(1.0408212 -0.0021751605 0)
(1.0404913 -0.0012576602 4.9514077e-21)
(1.0402283 -0.00022126294 1.5589088e-22)
(0.99052133 -0.012546368 1.2674109e-20)
(1.0007981 -0.012977593 -2.0958838e-21)
(1.0091092 -0.012810094 6.4033008e-21)
(1.0161017 -0.012987599 3.149731e-21)
(1.0212967 -0.013084473 -7.5909317e-21)
(1.0252375 -0.01331415 0)
(1.0281008 -0.013517564 -6.689316e-22)
(1.0303807 -0.013748952 4.1900975e-21)
(1.0322616 -0.013895607 4.8811988e-21)
(1.0339832 -0.013958519 3.8007261e-21)
(1.0355672 -0.013860711 -6.2108654e-21)
(1.0370727 -0.013585965 -5.034943e-21)
(1.0384511 -0.013090564 6.6198446e-21)
(1.0396928 -0.012365596 -7.5290637e-21)
(1.0407367 -0.01140735 1.1887302e-20)
(1.0415534 -0.010236747 1.6889722e-20)
(1.0420993 -0.0088988801 -3.1740837e-21)
(1.0423658 -0.0074444493 5.077557e-21)
(1.0423577 -0.0059666899 -1.3991873e-20)
(1.0421189 -0.004499885 2.8466992e-21)
(1.0417177 -0.0031982375 6.7656565e-21)
(1.0412514 -0.0019632969 -4.7557234e-21)
(1.0408245 -0.0011143453 2.2408263e-21)
(1.0404822 -0.00016647968 1.2448044e-22)
(0.98051358 -0.012662076 2.9132437e-21)
(0.99185112 -0.013302734 -6.3994801e-22)
(1.0017509 -0.01312923 -4.2059742e-22)
(1.0103908 -0.013360139 -1.4361356e-20)
(1.0171456 -0.013459093 5.0226633e-21)
(1.0223735 -0.013702837 -9.1454912e-21)
(1.0261735 -0.013927323 -5.5568336e-22)
(1.0290675 -0.014203215 -9.2072545e-21)
(1.0313238 -0.014417278 3.186574e-21)
(1.0332819 -0.014571183 3.2573978e-21)
(1.0350409 -0.014581302 -4.7643124e-21)
(1.0367047 -0.014427307 7.0590924e-21)
(1.0382467 -0.014056814 -4.6158623e-21)
(1.0396663 -0.01345335 -3.760145e-22)
(1.0409037 -0.012600767 6.9818725e-21)
(1.0419247 -0.011511266 1.5810554e-21)
(1.0426754 -0.010213431 -7.0931177e-22)
(1.0431308 -0.0087636845 8.1371737e-21)
(1.0432769 -0.0072229405 0)
(1.0431353 -0.0056905102 1.4477659e-21)
(1.0427553 -0.0042044973 3.901741e-22)
(1.0422193 -0.0029193832 -6.562276e-22)
(1.0416303 -0.0017321993 -3.5167934e-22)
(1.0411063 -0.00096027104 -3.1449925e-21)
(1.0406859 -0.00011000238 -8.0624146e-22)
(0.96944301 -0.01270259 -1.1089865e-20)
(0.9814597 -0.013578292 -2.736156e-22)
(0.99278275 -0.013419327 1.93581e-21)
(1.0030444 -0.013731029 1.5737404e-21)
(1.011527 -0.013843578 1.4495038e-20)
(1.0183315 -0.014105111 5.1732065e-22)
(1.0234009 -0.014342352 -5.1155558e-22)
(1.0272033 -0.014648508 6.4412222e-22)
(1.0300425 -0.014914866 7.2037816e-21)
(1.032356 -0.01514745 -2.3971755e-21)
(1.0343444 -0.015257973 4.8201707e-21)
(1.0361857 -0.015221938 -6.7403911e-22)
(1.037896 -0.014978687 -3.4757619e-21)
(1.0394938 -0.014504318 1.7852043e-21)
(1.0409264 -0.013771689 -1.2318775e-21)
(1.0421594 -0.012781093 -9.7208985e-21)
(1.0431315 -0.011550928 -1.1654171e-20)
(1.0438053 -0.010122101 -1.1667113e-20)
(1.0441483 -0.0085626653 -1.6359996e-20)
(1.044162 -0.0069409764 -2.1573596e-22)
(1.0438733 -0.0053639082 1.4582559e-20)
(1.0433451 -0.0038695872 1.9046624e-21)
(1.0426701 -0.002612276 -4.2713954e-21)
(1.0419573 -0.0014836692 3.0403126e-21)
(1.0413372 -0.00079686815 -1.5741244e-21)
(1.040841 -5.172822e-05 9.7011509e-23)
(0.95756872 -0.012658919 4.8177997e-22)
(0.96982692 -0.013779078 -7.1701197e-22)
(0.98228617 -0.013659487 -7.6665759e-21)
(0.99399437 -0.014080778 8.1407108e-21)
(1.0042321 -0.014226794 -1.2014692e-20)
(1.0128108 -0.01452006 7.9025681e-21)
(1.0194676 -0.014770184 4.4935969e-21)
(1.0245235 -0.015096953 7.578948e-21)
(1.0282372 -0.015400224 -1.0281916e-20)
(1.0311052 -0.015696095 -4.458645e-21)
(1.0334313 -0.01589549 8.3426191e-22)
(1.0354972 -0.015971091 -1.2162082e-20)
(1.0373907 -0.015854237 1.1663736e-20)
(1.039169 -0.015513785 -3.2993455e-21)
(1.0407965 -0.014911784 2.2932183e-21)
(1.0422438 -0.014037844 7.1637924e-22)
(1.0434468 -0.012896329 -6.1158722e-21)
(1.0443588 -0.011518933 6.5389662e-21)
(1.0449323 -0.0099582423 -6.6406159e-21)
(1.0451487 -0.0082923438 2.1098346e-22)
(1.0450135 -0.0065985924 0)
(1.0445685 -0.0049872165 5.3371257e-21)
(1.0438851 -0.0034970801 1.1834435e-21)
(1.0430687 -0.0022789374 0)
(1.0422323 -0.001219504 -3.344512e-21)
(1.0415181 -0.00062504232 -4.4504901e-22)
(1.0409485 8.3706689e-06 -2.4452677e-22)
(0.94516407 -0.012528484 3.6610689e-21)
(0.95722098 -0.013884205 -1.0748596e-22)
(0.97044836 -0.013829301 -6.3747919e-21)
(0.98329793 -0.01438545 7.2430678e-22)
(0.99516095 -0.014589958 -2.3058672e-21)
(1.0055698 -0.014937659 -8.6865752e-21)
(1.0140516 -0.015211182 -4.6340343e-22)
(1.0207033 -0.015557409 -6.6685721e-21)
(1.025646 -0.015886067 5.8353548e-22)
(1.0293572 -0.01622884 7.9410569e-21)
(1.0322096 -0.016501911 -6.3744351e-21)
(1.0345984 -0.016678473 -1.4241458e-21)
(1.036715 -0.016683405 -4.598169e-21)
(1.0386848 -0.016478235 2.4310374e-21)
(1.0405077 -0.016014616 -3.495053e-21)
(1.0421685 -0.015271375 3.0836064e-21)
(1.0436059 -0.014239847 -2.3303334e-21)
(1.0447683 -0.012937985 2.4685121e-20)
(1.0455958 -0.01140902 8.2380336e-21)
(1.0460531 -0.0097171029 4.9058848e-21)
(1.0461237 -0.0079516614 8.3033707e-21)
(1.0458274 -0.0061954457 -1.6455267e-21)
(1.0452162 -0.0045625087 -5.3626311e-22)
(1.0443732 -0.003089153 0)
(1.0434144 -0.0019217705 0)
(1.0424558 -0.00094148147 3.0134468e-22)
(1.0416502 -0.00044598461 -5.4375049e-23)
(1.0410105 6.9455554e-05 1.2678782e-21)
(0.93249449 -0.01231266 0)
(0.94393116 -0.013883507 -5.9639524e-22)
(0.95753827 -0.013910017 5.6021599e-21)
(0.97112856 -0.014620518 2.9484837e-21)
(0.98434259 -0.014909059 8.6968618e-21)
(0.99647304 -0.015338904 7.5387121e-22)
(1.006881 -0.015656387 -5.6101596e-21)
(1.0153993 -0.016031833 -1.0546031e-20)
(1.021937 -0.016382422 1.2021677e-20)
(1.0268538 -0.016758926 -3.0363957e-21)
(1.0305158 -0.017088639 6.1938534e-22)
(1.0334056 -0.017351258 2.9688725e-21)
(1.0358336 -0.017468676 -1.3896436e-20)
(1.0380279 -0.017396126 4.3390359e-21)
(1.0400536 -0.017074953 3.1112208e-21)
(1.0419271 -0.016473423 -3.1188983e-21)
(1.0435985 -0.015569554 3.1665869e-21)
(1.0450164 -0.014368202 -4.8304873e-21)
(1.0461133 -0.012897952 1.5431584e-20)
(1.0468392 -0.011215013 -2.0490036e-21)
(1.0471584 -0.0093962062 6.9240122e-21)
(1.0470683 -0.0075393281 4.4451543e-21)
(1.0465978 -0.0057331648 -5.2194361e-22)
(1.0458134 -0.0040917209 -1.1549781e-20)
(1.0448075 -0.0026486352 -3.7166691e-21)
(1.0437067 -0.0015433142 9.9482077e-22)
(1.0426287 -0.00065160184 9.4824263e-22)
(1.0417353 -0.00026107717 6.5503798e-22)
(1.041029 0.00013122858 -3.373696e-21)
(0.91978941 -0.012011926 -1.0994086e-20)
(0.93024921 -0.013765336 0)
(0.94387577 -0.013882089 0)
(0.95774798 -0.014763666 0)
(0.97193213 -0.015159054 -2.2030673e-21)
(0.98552051 -0.015699097 7.7363877e-21)
(0.99778635 -0.016087527 -5.9796657e-22)
(1.0083078 -0.016512446 -7.61918e-22)
(1.0167481 -0.016892665 1.6077015e-20)
(1.0232579 -0.017297553 -1.6195583e-20)
(1.0280969 -0.017669231 8.3432746e-21)
(1.0317647 -0.018000362 -3.0250161e-21)
(1.0346704 -0.018216148 3.7757597e-21)
(1.0371678 -0.018268532 -5.8553315e-21)
(1.0394231 -0.01808959 8.1105082e-21)
(1.0415135 -0.017636885 3.9737388e-21)
(1.0434172 -0.016875312 -2.9700352e-21)
(1.0450912 -0.015795938 -8.5029871e-21)
(1.0464651 -0.01441293 1.2094908e-22)
(1.0474787 -0.012768532 -5.6007639e-21)
(1.0480791 -0.010932742 -8.0441314e-21)
(1.0482426 -0.0089930401 1.6792146e-21)
(1.0479752 -0.00705617 9.7083641e-21)
(1.0473204 -0.005213366 -5.1332382e-21)
(1.0463568 -0.0035780146 -1.0331653e-21)
(1.0451868 -0.0021785145 -1.3079357e-21)
(1.0439458 -0.0011463877 1.5007304e-21)
(1.0427521 -0.00035193041 1.7485144e-21)
(1.0417752 -7.1593947e-05 -4.1031648e-21)
(1.0410062 0.00019337104 -2.7509957e-21)
(0.90620742 -0.011597755 -7.2758667e-22)
(0.91647211 -0.013521875 -8.3321018e-22)
(0.92976844 -0.013758728 0)
(0.94346752 -0.01479616 0)
(0.95818628 -0.015316384 0)
(0.97284763 -0.01599111 0)
(0.98673448 -0.01647927 0)
(0.99922249 -0.016981355 1.5882095e-22)
(1.0097456 -0.017410336 -7.1052597e-21)
(1.0181892 -0.017849561 1.7754229e-20)
(1.0246123 -0.0182559 -5.6442448e-22)
(1.029429 -0.018639492 9.2794995e-21)
(1.0330811 -0.018936035 -1.5378192e-20)
(1.0360363 -0.019100266 5.7242398e-21)
(1.0385901 -0.019058 -5.3088128e-22)
(1.0409186 -0.018756716 5.8624346e-21)
(1.0430563 -0.018148041 -9.5916306e-21)
(1.0449842 -0.017209171 1.1854139e-21)
(1.0466372 -0.015938745 1.013033e-20)
(1.0479494 -0.014364775 4.9037717e-21)
(1.0488544 -0.012543653 1.048548e-21)
(1.0493091 -0.010558203 7.2517601e-21)
(1.0492969 -0.0085072582 3.0267979e-22)
(1.0488388 -0.0065031674 -3.6937904e-21)
(1.0479905 -0.0046391222 3.2725301e-21)
(1.046844 -0.0030246064 8.2024459e-21)
(1.0455103 -0.0016822343 1.9606071e-21)
(1.0441323 -0.000733863 -6.0917088e-22)
(1.0428278 -4.4595612e-05 1.8609014e-22)
(1.0417721 0.00012117771 4.1778952e-21)
(1.0409446 0.00025543649 1.965334e-21)
(0.89150336 -0.011010502 1.2526023e-20)
(0.90171668 -0.013142883 -3.3836718e-22)
(0.91545806 -0.013525937 3.5514688e-21)
(0.92861279 -0.014713944 3.9510116e-21)
(0.94342547 -0.015358141 0)
(0.95870174 -0.016188388 0)
(0.97383578 -0.016803165 -1.6885396e-22)
(0.98807587 -0.01741255 8.8480512e-21)
(1.0006863 -0.017918067 -1.4514894e-20)
(1.0112834 -0.018409771 1.7496701e-20)
(1.0196656 -0.018854962 1.3444785e-21)
(1.0260561 -0.019281791 -1.1011347e-20)
(1.0308265 -0.019641974 1.0182493e-21)
(1.0344989 -0.019900627 -1.0198793e-21)
(1.0374937 -0.019983497 -6.7186837e-21)
(1.0401198 -0.019830582 9.1657262e-22)
(1.0425077 -0.019380702 8.0508872e-21)
(1.0446896 -0.018596771 -6.4889869e-22)
(1.0466201 -0.017461562 -2.3820944e-21)
(1.048235 -0.01598719 2.5229791e-20)
(1.0494592 -0.014215626 2.4862388e-21)
(1.0502335 -0.012217588 -6.7914284e-21)
(1.0505196 -0.01008952 1.296479e-20)
(1.0503147 -0.0079388646 7.8064693e-21)
(1.0496529 -0.0058829679 3.5931671e-22)
(1.0486044 -0.0040137193 4.9023086e-21)
(1.0472732 -0.0024354895 2.3801901e-21)
(1.0457779 -0.0011633266 -2.5296844e-22)
(1.0442675 -0.000308572 6.2092288e-23)
(1.0428576 0.00026836329 -7.5825521e-22)
(1.0417283 0.00031597154 3.1124806e-21)
(1.0408469 0.00031712351 2.4013893e-22)
(0.87673149 -0.01025822 -4.2454847e-21)
(0.88571196 -0.012581368 1.28068e-21)
(0.90018689 -0.013151863 -5.008142e-21)
(0.91350813 -0.014501653 -3.8087438e-21)
(0.92798851 -0.015290081 0)
(0.94340425 -0.016266653 0)
(0.95932621 -0.017030392 0)
(0.97495224 -0.017775989 -1.3022186e-21)
(0.98946576 -0.018389467 1.2531477e-20)
(1.0022592 -0.01896146 1.3451884e-20)
(1.0128634 -0.019462614 1.3713169e-21)
(1.0212346 -0.019935 -2.1409562e-21)
(1.027564 -0.020347851 2.2347077e-20)
(1.0323249 -0.020682956 -1.4921111e-20)
(1.0360094 -0.020874224 3.4057037e-21)
(1.0390637 -0.020860077 0)
(1.0417525 -0.020568964 2.8134653e-21)
(1.0441999 -0.019949576 -1.0949168e-21)
(1.0464068 -0.018968185 8.1576593e-21)
(1.0483242 -0.017620255 1.6572834e-22)
(1.049875 -0.015931072 -1.183997e-20)
(1.0509878 -0.013957859 -1.7789198e-21)
(1.0516056 -0.011786614 -1.0361296e-20)
(1.0517025 -0.0095253619 -1.1559953e-20)
(1.0512881 -0.0072896964 2.6232885e-21)
(1.0504123 -0.0051986243 1.6280778e-21)
(1.0491588 -0.0033414283 -1.0049336e-21)
(1.0476432 -0.0018147608 -2.4627042e-23)
(1.0459898 -0.00062552099 4.0107653e-22)
(1.0443526 0.00012653906 -6.302198e-22)
(1.0428437 0.00058492679 8.8497897e-22)
(1.0416464 0.00051160103 -1.0240535e-20)
(1.0407158 0.00037821707 4.2916632e-21)
(0.8623282 -0.0093398919 -3.8458468e-21)
(0.86950003 -0.011823272 1.9351502e-22)
(0.88361018 -0.012590521 -9.2166383e-21)
(0.89734454 -0.014123614 -5.5060946e-21)
(0.91218796 -0.015099231 2.4936601e-21)
(0.92730756 -0.016227158 1.3879216e-22)
(0.94352972 -0.017132461 1.2955173e-20)
(0.960073 -0.018040602 -7.2172646e-21)
(0.97613852 -0.018793105 -6.28736e-22)
(0.99097359 -0.019477819 -2.827356e-20)
(1.0038862 -0.02006281 1.2590083e-20)
(1.0145424 -0.020596685 1.7062795e-20)
(1.0228695 -0.021062772 -1.0090956e-21)
(1.0291732 -0.021461714 -7.6834086e-21)
(1.033916 -0.021742969 -8.7302814e-21)
(1.0376356 -0.021851921 -3.2172059e-21)
(1.0407436 -0.021712484 1.2776782e-21)
(1.0434993 -0.021261082 1.1076633e-20)
(1.0459905 -0.020447249 -8.9856981e-22)
(1.048209 -0.019248764 -1.9207493e-21)
(1.050088 -0.017673001 -2.2009293e-22)
(1.0515506 -0.015760763 -1.7637814e-20)
(1.0525242 -0.013585636 1.2990279e-21)
(1.0529618 -0.011247713 1.2925089e-21)
(1.0528486 -0.0088663462 -1.4786317e-20)
(1.0522103 -0.0065622191 -4.4985773e-21)
(1.0511121 -0.0044544045 -3.4760072e-21)
(1.0496511 -0.0026267788 -2.4163378e-21)
(1.0479531 -0.00116692 -1.1760345e-21)
(1.0461469 -7.2543395e-05 -3.6785822e-22)
(1.0443895 0.00056861845 6.9195727e-22)
(1.0427884 0.00090334548 -1.5214782e-22)
(1.041529 0.00070717071 4.5960034e-21)
(1.0405538 0.00043891642 -8.7615431e-21)
(0.84876143 -0.0082551656 4.1278354e-21)
(0.85355569 -0.010853032 -2.8233279e-22)
(0.86668437 -0.011831899 1.065762e-20)
(0.87975942 -0.013559156 2.9296699e-21)
(0.89530495 -0.01473185 -8.485604e-21)
(0.91077214 -0.016056892 -1.1420244e-20)
(0.92681179 -0.0171154 -1.6465699e-21)
(0.943761 -0.018174421 0)
(0.96090881 -0.019095358 -8.0758431e-21)
(0.97744907 -0.01992593 -3.1376504e-20)
(0.99255037 -0.020628392 4.8598094e-22)
(1.005621 -0.021251551 -6.3138454e-21)
(1.0162931 -0.021785741 0)
(1.0246083 -0.022247292 -1.3975042e-21)
(1.0308754 -0.022604539 1.6105207e-20)
(1.0356243 -0.022818089 4.5663371e-21)
(1.0393763 -0.022816287 -1.1229452e-20)
(1.0425466 -0.022528782 0)
(1.0453575 -0.021889934 -2.2663596e-21)
(1.0478822 -0.020859112 -2.3154814e-21)
(1.0500887 -0.019424323 -1.6534555e-20)
(1.0519056 -0.017608143 -1.0835161e-21)
(1.0532509 -0.015468123 0)
(1.0540588 -0.01309394 -1.3779223e-20)
(1.0542913 -0.010599877 3.2862266e-21)
(1.0539494 -0.0081139484 -1.4462524e-22)
(1.0530747 -0.0057603423 -6.0033417e-21)
(1.0517482 -0.0036550384 3.6742172e-21)
(1.0500794 -0.0018748816 3.2422639e-22)
(1.048203 -0.00049651379 -5.2943756e-22)
(1.0462506 0.00049186113 -1.6968787e-21)
(1.0443804 0.0010149121 -1.2019989e-21)
(1.0426943 0.0012217915 0)
(1.0413788 0.00090162844 -1.8029891e-22)
(1.0403638 0.00049829593 -2.8491003e-21)
(0.83651145 -0.0070107413 2.959585e-21)
(0.83841607 -0.0096644608 7.8706677e-22)
(0.84993654 -0.010860899 9.6853562e-21)
(0.86172125 -0.012776463 1.0381194e-21)
(0.87695256 -0.014159023 -2.2778755e-21)
(0.89305511 -0.015679624 -9.3918961e-22)
(0.90954331 -0.016962627 -1.04024e-20)
(0.92639425 -0.018185674 1.718198e-22)
(0.94409618 -0.019260708 0)
(0.96186981 -0.02026982 9.8941158e-21)
(0.9788437 -0.021125061 -1.0659185e-20)
(0.99424431 -0.021872103 1.8815525e-21)
(1.007437 -0.022502238 -6.7752819e-21)
(1.0181536 -0.023040124 9.6333037e-21)
(1.0264425 -0.023470489 3.4489554e-21)
(1.0326964 -0.023773492 1.4564177e-20)
(1.03745 -0.023891247 -2.1459468e-20)
(1.0412466 -0.023755738 -3.7815799e-21)
(1.0444721 -0.023291368 1.3518283e-20)
(1.0473318 -0.022440061 -1.3625326e-20)
(1.0498692 -0.021169239 1.4624688e-20)
(1.0520412 -0.019481233 -5.4616477e-21)
(1.0537664 -0.017415131 0)
(1.0549657 -0.015045883 -3.6489341e-21)
(1.0555797 -0.012479753 7.5873818e-22)
(1.0555843 -0.0098431649 6.2849453e-21)
(1.0549965 -0.0072713069 3.1752213e-21)
(1.0538753 -0.0048886801 1.6672617e-21)
(1.0523171 -0.0028060547 2.1425657e-21)
(1.0504425 -0.0010910254 0)
(1.0483934 0.00019179034 8.9915015e-22)
(1.0463024 0.0010640576 -1.8930762e-21)
(1.0443276 0.0014628069 9.5431265e-21)
(1.0425642 0.0015386341 -3.7842641e-21)
(1.0411985 0.0010939838 2.4697395e-22)
(1.0401483 0.00055631116 1.028293e-20)
(0.82604342 -0.0056214589 -2.8101141e-21)
(0.82464782 -0.0082612371 -9.6243638e-23)
(0.83395554 -0.0096726092 -2.968904e-21)
(0.84377316 -0.011758281 -1.3451239e-23)
(0.85796903 -0.013367537 1.012375e-20)
(0.8737319 -0.015103604 8.7623067e-21)
(0.89102898 -0.016587586 -3.9336212e-23)
(0.90837515 -0.018048514 -8.244071e-21)
(0.92608788 -0.019299994 1.920098e-22)
(0.94454981 -0.020470054 -8.3532477e-21)
(0.96292741 -0.021514355 -2.0555666e-22)
(0.98036286 -0.022422571 5.579007e-21)
(0.99603133 -0.023184449 -1.2579101e-22)
(1.0093715 -0.023826517 9.3413856e-21)
(1.0201154 -0.024342678 -3.5296911e-20)
(1.0283993 -0.024730701 3.4852885e-21)
(1.0346375 -0.02495211 5.9355797e-21)
(1.0394103 -0.024951413 1.0295656e-20)
(1.0432484 -0.024652377 -9.1942223e-21)
(1.046527 -0.023984198 -2.8866156e-21)
(1.0494185 -0.022894042 9.1365302e-21)
(1.0519483 -0.021362153 -1.3451314e-20)
(1.0540567 -0.019406526 9.4510399e-21)
(1.0556604 -0.017084267 0)
(1.0566826 -0.014488675 1.2900514e-20)
(1.0570756 -0.011741287 1.4036117e-20)
(1.0568303 -0.0089794885 -4.2369016e-21)
(1.055982 -0.0063425311 9.651797e-21)
(1.0546068 -0.0039528961 4.1269363e-22)
(1.0528162 -0.0019133444 -2.2349328e-21)
(1.05074 -0.00028075107 -4.5796868e-23)
(1.0485254 0.00089339621 -4.5244088e-21)
(1.0463044 0.0016405309 -2.7934922e-22)
(1.0442337 0.0019098427 1.0203138e-20)
(1.0424007 0.0018523127 -1.0677612e-21)
(1.0409909 0.0012834089 -3.7996954e-22)
(1.0399101 0.0006127462 3.8573023e-21)
(0.8177772 -0.0041098412 3.2810464e-22)
(0.81281083 -0.0066597378 -8.2130099e-22)
(0.8193625 -0.0082698352 -3.835594e-21)
(0.82655254 -0.010498067 -6.6724236e-22)
(0.83895284 -0.012323749 6.1355904e-23)
(0.85366031 -0.014284113 2.980297e-23)
(0.87082899 -0.015994472 -5.4184464e-21)
(0.88901073 -0.017667689 2.86566e-21)
(0.90730365 -0.019180229 0)
(0.92588552 -0.020540283 1.7055458e-21)
(0.94510726 -0.021752673 0)
(0.9641122 -0.022861897 0)
(0.98198667 -0.023795092 6.0603639e-21)
(0.99794621 -0.024578306 -7.6203297e-22)
(1.0114163 -0.025208283 -5.6195892e-21)
(1.0222062 -0.025692978 -9.2805402e-21)
(1.0304803 -0.026012279 2.0489475e-20)
(1.0367176 -0.026130101 3.297913e-23)
(1.0415087 -0.0259807 6.7737466e-21)
(1.0453905 -0.02548986 3.2434256e-21)
(1.0487098 -0.024588649 -1.3985251e-20)
(1.0516162 -0.023234752 1.9787788e-21)
(1.054111 -0.02142255 3.2591912e-21)
(1.0561258 -0.019187983 3.3029989e-21)
(1.0575746 -0.016607572 9.4288663e-22)
(1.0583891 -0.013792473 2.4661003e-21)
(1.0585344 -0.010878759 -2.9567908e-21)
(1.0580195 -0.0080120021 -6.1059277e-21)
(1.0568985 -0.0053330544 -6.5785192e-22)
(1.055265 -0.0029592499 -7.4481613e-21)
(1.0532435 -0.00098323305 -3.8780729e-21)
(1.0509718 0.00055038029 -1.871394e-21)
(1.0486005 0.0016037928 -2.0039341e-21)
(1.0462592 0.0022179616 7.2523342e-21)
(1.0441015 0.0023537509 -2.0097931e-20)
(1.0422067 0.0021614714 -3.3921711e-21)
(1.0407587 0.0014691645 -3.6294145e-21)
(1.0396518 0.00066751415 0)
(0.81205869 -0.0025050411 2.4695887e-21)
(0.80341784 -0.0048886699 -8.8930088e-23)
(0.80677465 -0.0066683448 -1.0079676e-21)
(0.8107484 -0.0089959424 -5.4022359e-22)
(0.82060584 -0.011021472 -4.8956277e-21)