/*--------------------------------*- C++ -*----------------------------------*\
| =========                 |                                                 |
| \\      /  F ield         | OpenFOAM: The Open Source CFD Toolbox           |
|  \\    /   O peration     | Version:  5.0                                   |
|   \\  /    A nd           | Web:      www.OpenFOAM.org                      |
|    \\/     M anipulation  |                                                 |
\*---------------------------------------------------------------------------*/
FoamFile
{
    version     2.0;
    format      ascii;
    class       volSymmTensorField;
    location    "180";
    object      UPrime2Mean;
}
// * * * * * * * * * * * * * * * * * * * * * * * * * * * * * * * * * * * * * //

dimensions      [0 2 -2 0 0 0 0];

internalField   nonuniform List<symmTensor> 
9200
(
(5.9109085e-05 -7.2493733e-07 1.8902742e-26 1.79721e-08 -2.0443544e-28 3.1017136e-47)
(5.9480756e-05 -2.3300336e-06 -1.5067848e-23 1.7013882e-07 9.2377287e-25 5.4453329e-42)
(6.3589801e-05 -7.4546588e-07 0 1.7599494e-08 0 0)
(6.282531e-05 -3.7845168e-06 8.0329782e-24 4.3000529e-07 -7.5964643e-25 1.4520263e-42)
(6.4003213e-05 -2.4538329e-06 -1.236911e-23 1.7086265e-07 6.9884976e-25 3.2415446e-42)
(6.5584802e-05 -7.4242847e-07 0 1.7122226e-08 0 0)
(6.8256628e-05 -5.4045027e-06 8.3310054e-25 8.0085725e-07 -1.0331151e-25 1.4445549e-44)
(6.7500386e-05 -3.9551689e-06 -3.6972188e-25 4.2851072e-07 3.485719e-26 7.8993182e-45)
(6.6019991e-05 -2.4937158e-06 0 1.6980727e-07 0 0)
(6.8633981e-05 -7.364663e-07 0 1.6527874e-08 0 0)
(7.5567681e-05 -7.0324741e-06 -1.7269514e-23 1.2361406e-06 2.522744e-24 5.5056936e-42)
(7.315271e-05 -5.6578561e-06 -1.1015474e-23 8.014467e-07 1.2455207e-24 2.1232994e-42)
(6.9598798e-05 -4.0085145e-06 -7.3202156e-24 4.2485881e-07 6.2126511e-25 1.0149246e-42)
(6.9103781e-05 -2.5447009e-06 -4.4461651e-25 1.6837137e-07 2.3640607e-26 3.7533723e-45)
(7.1109293e-05 -7.209652e-07 -4.3264153e-27 1.5876378e-08 4.2394597e-29 7.0727335e-49)
(8.4514461e-05 -8.7798762e-06 -1.6953432e-23 1.7357991e-06 2.7814587e-24 4.7575705e-42)
(8.0675973e-05 -7.3441902e-06 9.902725e-25 1.2375947e-06 -1.3603461e-25 2.6760973e-44)
(7.5344598e-05 -5.7466907e-06 -2.4973203e-23 7.973734e-07 2.7909389e-24 1.0800775e-41)
(7.2814768e-05 -4.0727659e-06 -9.7966055e-24 4.1974972e-07 7.8450467e-25 1.6461944e-42)
(7.1618456e-05 -2.566572e-06 -2.3306488e-25 1.6601012e-07 7.4031016e-27 4.3596642e-45)
(7.3690024e-05 -6.9487139e-07 1.823792e-23 1.5122178e-08 -2.6794646e-25 5.9306834e-42)
(9.5123737e-05 -1.0581409e-05 -1.7552585e-23 2.2702116e-06 3.1208153e-24 4.5505267e-42)
(8.983848e-05 -9.1601545e-06 -1.8701794e-23 1.7419304e-06 2.8394378e-24 5.1736202e-42)
(8.2966788e-05 -7.4592552e-06 1.574946e-23 1.2328301e-06 -2.0896471e-24 3.9270788e-42)
(7.872574e-05 -5.8605111e-06 1.0384414e-24 7.9199096e-07 -1.0892348e-25 1.6904056e-44)
(7.5446126e-05 -4.094283e-06 -9.3471025e-24 4.1290443e-07 7.3481266e-25 1.499049e-42)
(7.4258364e-05 -2.5663759e-06 -9.2811704e-24 1.6259802e-07 4.5324329e-25 1.4517522e-42)
(7.6105994e-05 -6.5911275e-07 -1.6733313e-24 1.4327258e-08 2.0813227e-26 4.276127e-44)
(0.00010741546 -1.2457179e-05 -8.8569846e-24 2.8304153e-06 1.6848247e-24 1.197507e-42)
(0.00010062775 -1.1019205e-05 -1.4643689e-23 2.2821002e-06 2.4124063e-24 2.7781281e-42)
(9.2220202e-05 -9.3120423e-06 -1.876136e-23 1.7394179e-06 2.8012609e-24 4.9363952e-42)
(8.6527423e-05 -7.6135627e-06 -3.2528199e-25 1.2279406e-06 2.4200878e-26 2.6869652e-44)
(8.1500021e-05 -5.9168272e-06 2.4443111e-23 7.8337716e-07 -2.5218759e-24 9.1458834e-42)
(7.823215e-05 -4.0792531e-06 1.0622179e-23 4.0360256e-07 -7.8043261e-25 1.7562562e-42)
(7.6737193e-05 -2.5403415e-06 1.0789345e-23 1.583094e-07 -5.2618895e-25 2.0849544e-42)
(7.8355081e-05 -6.1035694e-07 -1.6773789e-23 1.3471488e-08 2.1734862e-25 4.8144033e-42)
(0.00012149291 -1.437847e-05 2.4256793e-23 3.3993179e-06 -4.7669186e-24 7.0810858e-42)
(0.00011305635 -1.2950651e-05 -1.7074051e-23 2.8509292e-06 2.9588037e-24 3.4592861e-42)
(0.00010308473 -1.120857e-05 2.3919855e-26 2.283776e-06 -7.5631375e-27 2.4981494e-44)
(9.5960274e-05 -9.5254338e-06 -9.5435669e-24 1.7401419e-06 1.3823288e-24 1.223421e-42)
(8.9458575e-05 -7.699885e-06 -9.7884822e-25 1.2186646e-06 6.598179e-26 1.3957293e-43)
(8.447364e-05 -5.9289884e-06 3.7716454e-23 7.7070997e-07 -3.7592076e-24 2.0991084e-41)
(8.0854506e-05 -4.0236553e-06 -3.4208999e-24 3.9244414e-07 3.4497596e-25 7.1339263e-43)
(7.9076602e-05 -2.479273e-06 1.8138134e-23 1.52737e-07 -8.4994691e-25 5.7198082e-42)
(8.0493092e-05 -5.5031432e-07 3.5260397e-23 1.2617363e-08 -4.2185888e-25 2.0806627e-41)
(0.00013749254 -1.6337678e-05 -1.9711377e-23 3.9665993e-06 4.0081183e-24 4.3657553e-42)
(0.00012720579 -1.4918297e-05 8.1307326e-24 3.4301838e-06 -1.4160657e-24 8.5745292e-43)
(0.00011556066 -1.3183319e-05 6.561291e-25 2.8599067e-06 -1.1381836e-25 6.8148889e-45)
(0.00010699066 -1.1486387e-05 1.753213e-25 2.2943903e-06 1.1973517e-26 2.9496923e-43)
(9.9048798e-05 -9.6625925e-06 3.7443504e-24 1.7354217e-06 -5.1551161e-25 1.7374711e-43)
(9.2644902e-05 -7.7379033e-06 -2.189166e-24 1.2043248e-06 1.3847785e-25 4.0566909e-43)
(8.7283004e-05 -5.8873503e-06 -1.3551753e-23 7.5451606e-07 1.2915027e-24 2.5807469e-42)
(8.3369375e-05 -3.9115358e-06 -2.1735811e-23 3.7835604e-07 1.4904728e-24 7.1424624e-42)
(8.130954e-05 -2.3859607e-06 -1.2117408e-23 1.4622126e-07 5.0624464e-25 2.1882334e-42)
(8.2381192e-05 -4.7640919e-07 -3.1410278e-24 1.178686e-08 3.0267028e-26 1.418352e-43)
(0.0001556068 -1.8320126e-05 9.534248e-24 4.5222911e-06 -1.9782387e-24 9.1543351e-43)
(0.00014320268 -1.6913622e-05 -1.6486358e-24 4.0093643e-06 3.8580766e-25 1.7145839e-43)
(0.00012971911 -1.5197398e-05 -1.4682545e-23 3.449189e-06 2.628425e-24 2.2525565e-42)
(0.00011960393 -1.3538327e-05 1.5546518e-23 2.8864539e-06 -2.6061708e-24 2.5798038e-42)
(0.00011022537 -1.1683866e-05 -1.7510649e-23 2.2991433e-06 2.7748743e-24 4.255378e-42)
(0.00010246195 -9.7541257e-06 4.0999645e-23 1.7256417e-06 -5.6677259e-24 2.1367953e-41)
(9.5667428e-05 -7.7114817e-06 -9.4061989e-25 1.1849389e-06 5.7006189e-26 4.7060498e-44)
(9.0034128e-05 -5.7709965e-06 -3.5019488e-23 7.3268155e-07 3.3296836e-24 1.8098385e-41)
(8.5775567e-05 -3.7463927e-06 1.6057285e-23 3.6218003e-07 -1.0868671e-24 4.0859887e-42)
(8.33128e-05 -2.2505082e-06 -3.4071775e-23 1.3863434e-07 1.3978827e-24 1.8024028e-41)
(8.4106639e-05 -3.9000353e-07 4.138266e-24 1.1047257e-08 -4.5890783e-26 3.3186321e-43)
(0.00017607031 -2.0318381e-05 -2.3957341e-25 5.0597009e-06 4.6209743e-26 7.40861e-45)
(0.00016123459 -1.8916017e-05 5.4013433e-24 4.5772686e-06 -1.2065221e-24 6.857174e-43)
(0.00014567538 -1.7243312e-05 1.4493697e-23 4.0411828e-06 -2.7056624e-24 1.966419e-42)
(0.00013385765 -1.5638633e-05 0 3.4973923e-06 0 0)
(0.00012295887 -1.3812494e-05 -4.393865e-25 2.9073955e-06 6.8325857e-26 2.9429207e-45)
(0.00011386673 -1.1845451e-05 2.5053962e-24 2.3005816e-06 -2.4520702e-25 4.4675814e-43)
(0.00010571444 -9.7727641e-06 8.4542811e-24 1.7091966e-06 -1.1374257e-24 8.788766e-43)
(9.8695674e-05 -7.5963052e-06 1.8950178e-23 1.1573618e-06 -2.1562941e-24 4.7800164e-42)
(9.2670215e-05 -5.5808535e-06 5.5866019e-24 7.0628984e-07 -2.710094e-25 7.1439126e-43)
(8.7977574e-05 -3.5141373e-06 2.031979e-23 3.4371221e-07 -1.2876767e-24 6.278757e-42)
(8.5162826e-05 -2.0759162e-06 1.2624103e-23 1.3041812e-07 -5.0667384e-25 2.6111892e-42)
(8.5558234e-05 -2.9033922e-07 -2.9710481e-24 1.0455439e-08 2.3463885e-26 1.3177564e-43)
(0.00019912147 -2.2329175e-05 -3.5728581e-25 5.5752068e-06 7.8927776e-26 1.3746107e-45)
(0.00018154935 -2.0911394e-05 1.6720795e-24 5.125734e-06 -2.1158291e-25 8.5783445e-44)
(0.00016360723 -1.9300256e-05 0 4.6242432e-06 0 0)
(0.0001498545 -1.7780586e-05 0 4.1168877e-06 0 0)
(0.00013729346 -1.6002563e-05 7.546424e-24 3.5410823e-06 -1.3162832e-24 5.9900485e-43)
(0.00012681602 -1.4069596e-05 -5.4702231e-24 2.9291711e-06 1.0640219e-24 1.515369e-42)
(0.00011735331 -1.1928407e-05 1.6606883e-23 2.2940991e-06 -2.6166125e-24 4.006838e-42)
(0.00010905458 -9.6938074e-06 -2.4209494e-23 1.6820639e-06 3.0901028e-24 6.6544209e-42)
(0.00010160504 -7.3883385e-06 -2.3436016e-24 1.1224727e-06 2.28743e-25 6.1567956e-44)
(9.516157e-05 -5.2978133e-06 -7.9623975e-26 6.7471366e-07 3.5670123e-27 1.1687619e-46)
(9.0028252e-05 -3.2176441e-06 -2.0932017e-23 3.2400645e-07 1.346262e-24 7.5728135e-42)
(8.6752182e-05 -1.8566033e-06 1.7798576e-23 1.218345e-07 -8.0370489e-25 7.4303877e-42)
(8.6783138e-05 -1.7855905e-07 -3.6854963e-23 1.0086518e-08 3.2257028e-25 2.6333825e-41)
(0.00022487744 -2.4353136e-05 3.5417063e-25 6.0691718e-06 -1.7364621e-25 1.0727543e-43)
(0.00020443123 -2.2886842e-05 -4.6485551e-25 5.6489583e-06 7.023445e-26 2.3257023e-45)
(0.00018375646 -2.1355784e-05 7.9043359e-24 5.1897799e-06 -1.4350711e-24 5.4690623e-43)
(0.00016776315 -1.994128e-05 -8.1661736e-24 4.7325658e-06 1.4720334e-24 6.6263308e-43)
(0.00015331845 -1.8248262e-05 8.1341072e-24 4.1900708e-06 -1.4618514e-24 7.192701e-43)
(0.00014134015 -1.6378339e-05 -7.2768748e-25 3.5928374e-06 1.751166e-25 1.3058581e-43)
(0.00013052597 -1.4244574e-05 -7.471599e-24 2.942106e-06 1.1633356e-24 5.2231242e-43)
(0.00012102564 -1.1911195e-05 -1.9908468e-25 2.2754131e-06 1.1142914e-26 2.5278871e-45)
(0.00011227807 -9.5040568e-06 -2.7256974e-23 1.6439234e-06 3.1338853e-24 7.5979008e-42)
(0.00010444436 -7.0642596e-06 -2.5027008e-23 1.0791667e-06 2.2607219e-24 6.7286804e-42)
(9.7495486e-05 -4.922117e-06 -6.8574309e-24 6.3953639e-07 5.5961369e-25 6.4540554e-43)
(9.1831405e-05 -2.8484588e-06 -1.8281131e-23 3.038179e-07 9.7964669e-25 4.7649291e-42)
(8.8123271e-05 -1.5949577e-06 -1.1287074e-23 1.1348075e-07 3.7540351e-25 1.9614061e-42)
(8.7721021e-05 -5.5344029e-08 9.3616689e-24 1.0014793e-08 -7.3594336e-26 1.8070639e-42)
(0.00025305893 -2.6391807e-05 1.8094318e-23 6.5482101e-06 -3.9909608e-24 3.1113763e-42)
(0.00023010712 -2.4832519e-05 -1.028491e-23 6.1448603e-06 1.1979316e-24 1.5271233e-42)
(0.00020641081 -2.340009e-05 4.7436189e-24 5.7313315e-06 -9.6339566e-25 1.9352801e-43)
(0.00018782382 -2.2106575e-05 -5.8417188e-26 5.334848e-06 2.546112e-26 5.027384e-45)
(0.0001711911 -2.0525404e-05 2.3729636e-25 4.8413822e-06 -4.6415221e-26 5.0550385e-45)
(0.00015751241 -1.8767253e-05 3.2137558e-25 4.2819023e-06 -1.0676402e-25 2.2131148e-43)
(0.00014524604 -1.6669821e-05 -7.7935358e-24 3.6350117e-06 1.2841597e-24 5.1197753e-43)
(0.00013453176 -1.4325253e-05 9.9856196e-24 2.9430634e-06 -1.5000361e-24 8.8740316e-43)
(0.0001245908 -1.1767513e-05 1.7944766e-24 2.2417473e-06 -1.0632131e-25 1.1859749e-43)
(0.00011551877 -9.1783177e-06 3.2247876e-24 1.5933118e-06 -3.2031396e-25 1.0199086e-43)
(0.0001071114 -6.6198382e-06 4.6032695e-25 1.0292768e-06 -4.5005851e-26 2.5705704e-45)
(9.9617439e-05 -4.4425188e-06 5.569166e-24 6.0194505e-07 -2.1906334e-25 3.9462108e-43)
(9.3418427e-05 -2.4093577e-06 2.0378168e-23 2.8463942e-07 -1.129086e-24 7.0013803e-42)
(8.9213473e-05 -1.290394e-06 -7.7874421e-24 1.0596032e-07 3.0888714e-25 1.4197688e-42)
(8.8388533e-05 7.7902169e-08 5.5501912e-24 1.0315909e-08 -4.933538e-26 8.8331208e-43)
(0.00028251568 -2.8421112e-05 -2.412732e-24 7.0215385e-06 1.2844335e-24 4.3717377e-43)
(0.00025851099 -2.6741641e-05 1.3300052e-23 6.6176933e-06 -2.1279083e-24 9.8385798e-43)
(0.00023182552 -2.5428984e-05 -3.6467726e-24 6.2460771e-06 5.2487376e-25 2.6364128e-43)
(0.00021033948 -2.4264579e-05 8.7045254e-24 5.9158782e-06 -1.5322429e-24 6.3361377e-43)
(0.00019114302 -2.2819096e-05 -8.9989217e-24 5.4844855e-06 1.6336307e-24 7.2909183e-43)
(0.00017547669 -2.1210942e-05 2.4952001e-23 4.9829534e-06 -4.5494608e-24 4.6650975e-42)
(0.00016157102 -1.920134e-05 -1.721647e-23 4.3639136e-06 3.1820895e-24 3.5912183e-42)
(0.00014957361 -1.6884127e-05 -1.7685681e-25 3.6684934e-06 -5.9585339e-27 1.1046672e-44)
(0.00013845851 -1.426684e-05 6.957186e-24 2.924837e-06 -1.0466872e-24 4.387028e-43)
(0.00012827565 -1.1473473e-05 6.8415302e-24 2.1917726e-06 -4.0569253e-25 1.1231499e-42)
(0.00011859673 -8.704341e-06 5.6473671e-23 1.5312291e-06 -6.3768657e-24 3.4012695e-41)
(0.00010964374 -6.0396352e-06 -6.8745994e-24 9.7428183e-07 1.0672248e-24 1.9865003e-42)
(0.00010152459 -3.8595213e-06 -7.1267935e-24 5.6447768e-07 5.5166756e-25 7.8837731e-43)
(9.472616e-05 -1.8993368e-06 -4.8665335e-24 2.6804111e-07 1.5559689e-25 2.7288823e-43)
(9.0037477e-05 -9.4606624e-07 -3.2549534e-24 1.0002546e-07 1.9505612e-26 1.3568505e-43)
(8.876382e-05 2.1964506e-07 -5.5048109e-24 1.1059154e-08 4.6052533e-26 9.8969944e-43)
(0.00031062482 -3.040693e-05 0 7.5127167e-06 0 0)
(0.00028884162 -2.8594867e-05 1.0884231e-23 7.0763574e-06 -1.1306805e-24 9.1162353e-43)
(0.00026000969 -2.7442088e-05 -9.0189976e-24 6.7366593e-06 1.8529932e-24 5.7998145e-43)
(0.00023560852 -2.6406712e-05 0 6.4706575e-06 0 0)
(0.00021347717 -2.5116209e-05 0 6.1100081e-06 0 0)
(0.00019545373 -2.3693418e-05 0 5.6845369e-06 0 0)
(0.00017963054 -2.181238e-05 -8.9547637e-25 5.1151039e-06 1.3650736e-25 3.1130526e-44)
(0.00016619363 -1.9588007e-05 -1.9596203e-23 4.4442926e-06 3.3343604e-24 2.8319839e-42)
(0.00015386181 -1.6949174e-05 -4.4154849e-24 3.6785856e-06 9.9176346e-26 2.0076258e-42)
(0.00014261615 -1.405054e-05 -2.0864783e-23 2.887102e-06 2.9759036e-24 3.6934215e-42)
(0.00013182433 -1.1003688e-05 -3.1349042e-24 2.1240916e-06 1.8135306e-25 1.6909076e-43)
(0.00012161288 -8.0618358e-06 -1.2754424e-23 1.4594975e-06 1.3081781e-24 1.6237336e-42)
(0.00011194128 -5.3216661e-06 -1.1410023e-24 9.1782265e-07 -1.2283724e-26 3.7447511e-44)
(0.00010316579 -3.170555e-06 8.4675827e-24 5.2994542e-07 -5.6926953e-25 1.023252e-42)
(9.5764231e-05 -1.3229359e-06 4.1754829e-24 2.5595687e-07 -8.370674e-26 1.9124535e-43)
(9.0567741e-05 -5.6494521e-07 3.1336074e-24 9.6433028e-08 -1.1609281e-25 2.7954024e-43)
(8.8852322e-05 3.6800167e-07 0 1.2307212e-08 0 0)
(0.0003326767 -3.221081e-05 9.7654993e-24 8.0398673e-06 -8.1193518e-25 8.338444e-43)
(0.0003189129 -3.0379085e-05 -2.5580828e-23 7.5447925e-06 3.3972224e-24 2.9587635e-42)
(0.00029031123 -2.9425893e-05 1.7222933e-23 7.2098535e-06 -2.3223483e-24 3.8595473e-42)
(0.00026375234 -2.8528664e-05 3.7922965e-24 6.9989375e-06 -1.1946925e-25 1.1868095e-42)
(0.00023852192 -2.7410564e-05 8.2067448e-24 6.7115935e-06 -1.2657339e-24 1.2148764e-42)
(0.00021774623 -2.6200101e-05 0 6.3757815e-06 0 0)
(0.00019963466 -2.448629e-05 5.0042253e-24 5.8763724e-06 -1.0229088e-24 1.7268753e-42)
(0.00018450459 -2.2409411e-05 2.1811171e-24 5.2570258e-06 -2.4729508e-25 3.0104526e-43)
(0.00017082224 -1.981778e-05 -2.700357e-23 4.4974539e-06 5.0375705e-24 7.8942256e-42)
(0.00015850628 -1.6857431e-05 -8.911085e-24 3.6675689e-06 3.8375697e-25 3.6084499e-42)
(0.00014668486 -1.3632365e-05 1.2749464e-23 2.8240309e-06 -1.7180267e-24 1.3136501e-42)
(0.0001353954 -1.0335112e-05 -4.879904e-24 2.0411454e-06 2.6510969e-25 3.1784227e-43)
(0.00012440333 -7.243485e-06 -1.8372987e-23 1.3820814e-06 2.1991506e-24 4.8108626e-42)
(0.00011402244 -4.4588064e-06 3.4629624e-23 8.6389518e-07 -2.6174116e-24 1.3694166e-41)
(0.00010453399 -2.3797688e-06 1.3842999e-23 5.0196483e-07 -4.2684396e-25 1.9251176e-42)
(9.6499323e-05 -6.8484084e-07 2.3964254e-23 2.5036172e-07 -1.2948562e-24 1.4638835e-41)
(9.0809163e-05 -1.5186178e-07 9.1492469e-24 9.5981882e-08 -2.6228133e-25 2.0045502e-42)
(8.8653309e-05 5.2086453e-07 3.9550964e-24 1.4108341e-08 -5.214382e-26 1.2341896e-42)
(0.00034201507 -3.3595932e-05 -8.2041717e-25 8.6281105e-06 -5.9564701e-26 9.5042829e-45)
(0.00034440992 -3.2020022e-05 -1.2009086e-23 8.0481632e-06 1.0681845e-24 7.5313147e-43)
(0.00032078139 -3.1364272e-05 -6.912771e-24 7.6853406e-06 1.2805749e-24 2.3636064e-43)
(0.00029433399 -3.0619868e-05 1.2327307e-23 7.5059845e-06 -1.6540942e-24 1.4194395e-42)
(0.00026647617 -2.9701345e-05 -8.5344308e-25 7.287162e-06 1.0170746e-25 2.1891627e-44)
(0.00024270372 -2.8722894e-05 1.7115416e-23 7.0480372e-06 -3.3055602e-24 1.7077243e-42)
(0.00022188201 -2.7207398e-05 1.9255201e-23 6.635515e-06 -3.6172236e-24 6.8549298e-42)
(0.00020469996 -2.5330635e-05 -7.8513252e-24 6.0940258e-06 1.9657817e-24 7.5419112e-42)
(0.000189435 -2.2844806e-05 -1.55383e-24 5.3687745e-06 6.3918402e-25 1.0329651e-42)
(0.00017595106 -1.9902423e-05 2.6363938e-23 4.5304353e-06 -4.1240779e-24 4.5978375e-42)
(0.00016312643 -1.654076e-05 2.9783494e-24 3.6229365e-06 -1.5706005e-25 2.2365622e-43)
(0.00015087699 -1.2989117e-05 2.8918853e-23 2.7389376e-06 -3.8395601e-24 6.9016527e-42)
(0.00013877441 -9.4507776e-06 -1.2893447e-24 1.9460554e-06 8.2594012e-25 1.1136627e-42)
(0.00012703292 -6.2358768e-06 -5.1774961e-24 1.3044189e-06 2.3767748e-25 2.4348847e-43)
(0.00011581511 -3.4549488e-06 -8.1654484e-24 8.1824757e-07 2.4097145e-25 6.2420872e-43)
(0.00010559368 -1.4921096e-06 -4.6293415e-24 4.8436333e-07 3.1923956e-25 4.2663502e-43)
(9.6932154e-05 7.4422158e-09 6.4487112e-24 2.5331406e-07 -3.831918e-25 1.4319618e-42)
(9.0756263e-05 2.8751601e-07 1.4374595e-24 9.9410018e-08 2.435334e-26 3.2117503e-44)
(8.817576e-05 6.7607593e-07 1.0785583e-24 1.6494359e-08 -6.4344162e-26 1.011782e-42)
(0.00033127552 -3.4144916e-05 -6.1878635e-24 9.2960202e-06 -6.0124923e-25 5.6871492e-43)
(0.00035873263 -3.338076e-05 1.6348419e-23 8.6212681e-06 -1.6293302e-24 1.1464798e-42)
(0.00034739228 -3.3178322e-05 -5.127831e-23 8.1852042e-06 7.4311066e-24 1.7231205e-41)
(0.00032572087 -3.2671161e-05 -3.015649e-24 8.0098363e-06 1.1475236e-26 3.7402203e-43)
(0.00029706081 -3.1982417e-05 9.822948e-24 7.8397406e-06 -1.7667242e-24 4.6891659e-43)
(0.00027059474 -3.1259142e-05 7.7007769e-24 7.6961914e-06 -1.5092874e-24 3.2620637e-43)
(0.000246736 -2.9966756e-05 6.6193508e-25 7.3818501e-06 -9.7041176e-26 8.0261978e-44)
(0.00022706802 -2.8333995e-05 2.2796334e-23 6.9417084e-06 -4.2927736e-24 2.980844e-42)
(0.00020987729 -2.6012121e-05 -6.8538841e-25 6.279933e-06 2.6159875e-25 1.8893511e-43)
(0.00019502582 -2.3158333e-05 -2.0385013e-23 5.4647253e-06 4.5403228e-24 8.254035e-42)
(0.00018113445 -1.9743248e-05 4.4092482e-23 4.5215104e-06 -6.9321515e-24 1.2794271e-41)
(0.00016799099 -1.5978729e-05 -1.0590939e-23 3.5491936e-06 1.1739148e-24 7.9029581e-43)
(0.00015493135 -1.2089036e-05 -1.65078e-23 2.6325816e-06 1.8027493e-24 1.9467009e-42)
(0.00014205459 -8.3312204e-06 1.5063541e-24 1.8456693e-06 -1.1798082e-25 1.7124965e-44)
(0.00012936821 -5.0419999e-06 -6.8067024e-24 1.234034e-06 1.8550705e-25 4.3168054e-43)
(0.00011730894 -2.3134565e-06 -1.7855266e-23 7.8672986e-07 1.496728e-24 5.4987662e-42)
(0.00010633625 -5.1698687e-07 -4.5565499e-24 4.8129219e-07 -3.0390836e-25 6.6502224e-43)
(9.705264e-05 7.4500764e-07 -1.1689921e-23 2.667054e-07 5.1567958e-25 3.8352591e-42)
(9.0415252e-05 7.4671944e-07 -2.4420151e-24 1.0737535e-07 7.1212508e-26 2.1365209e-43)
(8.7431259e-05 8.3142696e-07 1.5297806e-25 1.9477532e-08 7.623628e-26 1.0719641e-42)
(0.00029509571 -3.322748e-05 -1.2735339e-24 1.0052623e-05 4.3556431e-25 3.0173143e-44)
(0.00035388177 -3.4166922e-05 2.3562989e-23 9.2970332e-06 -1.7801683e-24 2.747085e-42)
(0.00036373135 -3.4713185e-05 -5.8458512e-24 8.7392509e-06 1.8785792e-24 7.4772348e-43)
(0.00035425003 -3.4620158e-05 1.4968494e-23 8.5331261e-06 -1.8358436e-24 1.3871342e-42)
(0.00032890559 -3.4242964e-05 7.162976e-24 8.3836886e-06 -1.6479065e-24 4.6290139e-43)
(0.00030129482 -3.3803554e-05 -8.2663483e-24 8.320262e-06 1.2450101e-24 6.8073813e-43)
(0.00027452106 -3.2762073e-05 9.4601834e-24 8.1077835e-06 -1.3237138e-24 4.8952118e-42)
(0.00025197814 -3.1408538e-05 6.722965e-24 7.7871309e-06 -1.4011024e-24 1.8205696e-41)
(0.00023242528 -2.930058e-05 -3.7206923e-23 7.216422e-06 6.7920393e-24 7.4317964e-42)
(0.00021588744 -2.6607335e-05 0 6.4587693e-06 0 0)
(0.0002007637 -2.3214323e-05 -3.1818454e-23 5.5113137e-06 5.2709278e-24 5.9892256e-42)
(0.00018670564 -1.9326604e-05 -1.0585213e-23 4.4769513e-06 5.2276071e-25 2.3141057e-42)
(0.00017279368 -1.512013e-05 2.4149478e-23 3.4430155e-06 -3.849102e-24 5.5628929e-42)
(0.00015896999 -1.0907244e-05 2.8169041e-25 2.5128541e-06 1.2784435e-24 2.5371482e-42)
(0.0001450647 -6.973676e-06 1.574377e-23 1.7488471e-06 -1.2540524e-24 1.9192055e-42)
(0.00013143934 -3.6573815e-06 -1.9787711e-23 1.1795578e-06 1.6514047e-24 4.6092882e-42)
(0.00011846649 -1.04442e-06 -1.1253598e-23 7.7636579e-07 7.5576539e-27 1.1744612e-42)
(0.00010674298 5.3415303e-07 6.2392521e-27 4.9669244e-07 -3.6566627e-25 4.8945001e-43)
(9.6863407e-05 1.5173759e-06 -1.6892132e-24 2.9224344e-07 3.8202008e-25 1.1622349e-42)
(8.9794821e-05 1.2188243e-06 -1.7205764e-24 1.2038605e-07 -1.4056546e-26 3.5026591e-44)
(8.643607e-05 9.8474742e-07 2.2110939e-24 2.3049375e-08 9.6269545e-26 1.0380808e-42)
(0.00023378187 -3.0014561e-05 1.7172952e-25 1.0892242e-05 3.8251697e-24 2.1993689e-42)
(0.00032297936 -3.3844011e-05 1.8774375e-23 1.0102472e-05 -1.3881859e-24 1.9666197e-42)
(0.00036169565 -3.5657604e-05 2.8129534e-23 9.376037e-06 -4.1592621e-24 4.0854286e-42)
(0.00037374354 -3.6339642e-05 -3.6671845e-23 9.1094961e-06 5.0669323e-24 6.108424e-42)
(0.00035869545 -3.6427476e-05 -1.8158534e-23 8.9410864e-06 2.1711534e-24 2.5401849e-42)
(0.00033370109 -3.6345963e-05 8.3608628e-24 8.9310498e-06 -1.6208717e-24 3.1412505e-43)
(0.0003052446 -3.559193e-05 0 8.8108277e-06 0 0)
(0.00027979759 -3.454988e-05 3.0364361e-23 8.6194376e-06 -5.8708336e-24 4.5648924e-42)
(0.00025744847 -3.2697684e-05 1.4685993e-23 8.1634775e-06 -2.5434724e-24 2.9305642e-42)
(0.00023879434 -3.0228548e-05 -3.9529039e-23 7.4977028e-06 7.9281458e-24 1.1603934e-41)
(0.00022215044 -2.6937524e-05 -1.9112553e-23 6.5825117e-06 2.991529e-24 2.0456371e-42)
(0.00020705442 -2.3010947e-05 -1.7349637e-24 5.5175542e-06 -2.5725029e-25 5.0495901e-43)
(0.0001923128 -1.8577047e-05 2.6314659e-24 4.3872819e-06 -1.4151262e-25 9.3285967e-44)
(0.00017768834 -1.3935234e-05 -1.4646898e-23 3.312819e-06 1.7310614e-24 1.3768966e-42)
(0.00016278463 -9.4302189e-06 7.0399155e-24 2.389186e-06 -1.3454449e-24 1.1616687e-42)
(0.00014784485 -5.3668129e-06 -4.9370602e-24 1.6669455e-06 9.7037303e-25 9.1225454e-43)
(0.00013314831 -2.0973655e-06 2.6621414e-24 1.1509775e-06 -1.7966471e-25 7.7559931e-44)
(0.00011926885 3.3901362e-07 -9.9121727e-24 7.9365422e-07 7.1236973e-25 1.933071e-42)
(0.00010681046 1.6471971e-06 -8.4098662e-24 5.3430279e-07 -1.2315575e-25 6.8012436e-43)
(9.6368335e-05 2.3130925e-06 -1.5813862e-24 3.3125198e-07 -3.9699743e-26 2.6622873e-44)
(8.8908829e-05 1.6966792e-06 8.3501466e-25 1.3877715e-07 1.5066115e-25 3.3271887e-43)
(8.5209438e-05 1.1339213e-06 0 2.7178515e-08 0 0)
(0.00015660788 -2.3582224e-05 -1.8112635e-24 1.17906e-05 2.7023866e-24 7.5159151e-43)
(0.00026414261 -3.1578712e-05 -8.5224831e-24 1.1052935e-05 5.5062606e-25 5.539103e-43)
(0.00033381719 -3.5472127e-05 9.6074786e-25 1.0118283e-05 -3.5370444e-25 1.6439026e-44)
(0.00037591844 -3.7553998e-05 -3.5321618e-23 9.7732397e-06 3.9651295e-24 6.4193209e-42)
(0.00038053023 -3.84059e-05 -1.0738932e-23 9.5433957e-06 6.5711876e-25 1.5022471e-42)
(0.0003648615 -3.8836373e-05 1.1280796e-23 9.5490969e-06 -1.5637306e-24 7.7219279e-43)
(0.00033803947 -3.8448542e-05 -2.431599e-23 9.4985368e-06 4.8446342e-24 2.7276662e-42)
(0.00031064841 -3.7756142e-05 2.2818086e-23 9.4322181e-06 -3.9246616e-24 5.9988172e-42)
(0.00028534586 -3.6197984e-05 1.3766443e-23 9.1074989e-06 -2.6677943e-24 9.9751005e-43)
(0.00026410907 -3.4007426e-05 -7.7621294e-25 8.5653444e-06 6.2503174e-26 6.6467039e-44)
(0.00024553336 -3.0891111e-05 6.6683647e-25 7.720809e-06 -7.7956513e-26 7.2715727e-45)
(0.00022914979 -2.7017934e-05 8.8598256e-24 6.6642285e-06 -1.7628475e-25 3.2725544e-42)
(0.00021350121 -2.2443851e-05 4.2804768e-24 5.4655671e-06 -6.6344977e-25 1.0165782e-43)
(0.00019814719 -1.7461082e-05 -4.8612474e-23 4.2608902e-06 4.3069256e-24 1.4918474e-41)
(0.00018243018 -1.2395083e-05 -3.8315121e-23 3.1673321e-06 3.9299799e-24 8.9050933e-42)
(0.0001664245 -7.6389227e-06 -2.5173307e-23 2.275301e-06 2.4728507e-24 4.9652388e-42)
(0.00015026524 -3.5239792e-06 7.760412e-24 1.6134241e-06 -1.7076156e-25 4.2945236e-43)
(0.00013450289 -3.6786822e-07 2.1801512e-23 1.1587562e-06 -1.6291007e-24 6.778223e-42)
(0.00011969688 1.8191196e-06 -1.5656718e-24 8.4524562e-07 -1.1383266e-25 4.1289323e-44)
(0.00010653611 2.8062986e-06 -2.0671453e-24 5.9722205e-07 2.8130427e-25 4.1854183e-43)
(9.5578355e-05 3.1202234e-06 0 3.8462826e-07 0 0)
(8.7774849e-05 2.1731083e-06 -4.3377876e-24 1.6268248e-07 -4.093894e-25 1.8464423e-42)
(8.3772917e-05 1.2768309e-06 4.9989852e-25 3.1805884e-08 7.6126542e-27 3.0363171e-45)
(8.311391e-05 -1.3106653e-05 5.754582e-24 1.2703509e-05 -1.298423e-23 1.4200435e-41)
(0.00018449797 -2.6274131e-05 -1.5915516e-23 1.2144775e-05 1.9949217e-24 2.8588389e-42)
(0.00027712031 -3.334436e-05 3.140288e-23 1.0977185e-05 -5.8026106e-24 5.1196634e-42)
(0.00035248133 -3.7752732e-05 1.8758062e-23 1.0554666e-05 -3.0740547e-24 1.4735135e-42)
(0.0003861061 -3.9903505e-05 -4.1583809e-23 1.0226015e-05 5.7607842e-24 7.3853575e-42)
(0.00038920144 -4.1154294e-05 0 1.020766e-05 0 0)
(0.00037029661 -4.1287072e-05 -5.3391715e-24 1.0189692e-05 1.0892493e-24 1.285117e-43)
(0.0003438891 -4.1020537e-05 2.2625445e-23 1.0228715e-05 -4.1965464e-24 2.0844669e-42)
(0.00031633534 -3.9800887e-05 8.3214063e-24 1.0038758e-05 -1.4880938e-24 2.9909454e-42)
(0.00029225115 -3.7936139e-05 -2.1641832e-23 9.6452769e-06 3.4800063e-24 1.0369649e-41)
(0.00027126293 -3.5058994e-05 -2.7458948e-23 8.909413e-06 5.3703234e-24 3.7949661e-42)
(0.00025320739 -3.1326173e-05 -9.5479853e-24 7.9045944e-06 2.4183344e-24 1.6902634e-42)
(0.00023644774 -2.6711415e-05 1.2891127e-23 6.6754312e-06 -3.1095097e-24 2.5767049e-42)
(0.00022033901 -2.1477589e-05 -2.9778379e-23 5.363244e-06 4.589095e-24 5.0410319e-42)
(0.00020392835 -1.5929758e-05 3.6583178e-23 4.1040682e-06 -5.3165296e-24 9.3776308e-42)
(0.00018707925 -1.0471561e-05 6.7666578e-23 3.0219868e-06 -6.4991361e-24 2.7906906e-41)
(0.00016972749 -5.539896e-06 1.8876154e-23 2.1881539e-06 4.9313481e-25 4.0248785e-42)
(0.00015233103 -1.4468034e-06 1.0444242e-23 1.6030007e-06 -8.2014e-25 1.1906298e-42)
(0.00013543904 1.5044931e-06 -1.032499e-23 1.2130933e-06 1.9367824e-24 6.6536282e-42)
(0.00011974103 3.3757448e-06 -1.0152168e-23 9.3668653e-07 -9.3296574e-25 1.8473978e-42)
(0.00010592598 3.9940205e-06 -1.2460872e-24 6.8777341e-07 -8.1518689e-25 2.0116187e-42)
(9.4509105e-05 3.9267913e-06 7.0650051e-24 4.5274946e-07 8.1476904e-25 2.3506472e-42)
(8.6413618e-05 2.6411466e-06 -7.2222284e-24 1.9202032e-07 -4.3601915e-25 1.4289294e-42)
(8.2148579e-05 1.4108103e-06 3.7334377e-25 3.6815301e-08 6.415683e-27 1.7293125e-45)
(4.1375712e-05 1.9014083e-06 -3.0273068e-24 1.3569232e-05 -4.516216e-24 1.7001305e-42)
(0.00010249578 -1.6749459e-05 -8.3813425e-24 1.3347333e-05 2.1138903e-25 1.7499557e-42)
(0.00019741935 -2.8227773e-05 -2.2681942e-24 1.1945951e-05 -7.7973018e-25 3.1334259e-43)
(0.00029899377 -3.611853e-05 -8.4213419e-23 1.1473791e-05 1.2153786e-23 3.5051666e-41)
(0.00036654922 -4.0407832e-05 2.9194019e-23 1.1021106e-05 -4.6351593e-24 3.3313936e-42)
(0.00039845932 -4.3029029e-05 -5.0698157e-23 1.094544e-05 7.183662e-24 1.0597929e-41)
(0.00039678149 -4.3984188e-05 -4.7502186e-24 1.0915986e-05 1.009456e-24 1.030311e-43)
(0.00037725387 -4.4301558e-05 -3.7712384e-23 1.1024629e-05 5.8785462e-24 9.1801523e-42)
(0.00034997296 -4.3501847e-05 2.0637075e-23 1.0956392e-05 -3.9884888e-24 1.5961137e-42)
(0.00032351884 -4.2013306e-05 8.0787814e-24 1.0723753e-05 -1.660142e-24 9.9201423e-43)
(0.00029976951 -3.9431566e-05 -3.1970028e-23 1.0129895e-05 6.0541746e-24 4.1430447e-42)
(0.00027955959 -3.5918219e-05 -4.4369025e-25 9.2223362e-06 -1.4796147e-24 5.5505713e-42)
(0.00026134306 -3.1360248e-05 -2.2444682e-23 8.0077861e-06 3.9927816e-24 2.3658764e-42)
(0.00024432826 -2.5983053e-05 1.8190551e-24 6.6232369e-06 -8.009995e-26 4.5474686e-44)
(0.00022725393 -2.0038957e-05 4.7870199e-23 5.2123619e-06 -5.5526768e-24 1.0931626e-41)
(0.00020973069 -1.3944473e-05 2.2468544e-24 3.9329431e-06 -5.3045424e-25 1.1263337e-43)
(0.00019144023 -8.1595453e-06 2.9110402e-24 2.8966525e-06 1.1501008e-25 1.1207856e-43)
(0.00017269308 -3.1284735e-06 2.0008225e-23 2.1470405e-06 -1.6903371e-24 3.4812965e-42)
(0.00015395065 8.364258e-07 0 1.6507861e-06 0 0)
(0.00013595672 3.5026136e-06 3.9292872e-24 1.3239323e-06 -3.5308186e-26 1.3596163e-43)
(0.00011939699 4.9855108e-06 7.4496983e-25 1.0725918e-06 -3.0172076e-27 6.9007779e-45)
(0.00010499002 5.1915547e-06 -7.2886872e-25 8.0711689e-07 1.7449371e-26 1.4663488e-44)
(9.3180631e-05 4.7207754e-06 -2.9808204e-24 5.3537619e-07 -1.8784242e-25 1.0538655e-43)
(8.4847786e-05 3.0937335e-06 8.8298039e-24 2.2642914e-07 6.1375046e-25 2.4491121e-42)
(8.0366645e-05 1.5297806e-06 6.1402541e-24 4.1865764e-08 1.5989279e-25 8.5559584e-43)
(6.3454704e-05 2.1411785e-05 2.4718288e-23 1.4315834e-05 1.4177271e-23 1.4600073e-41)
(4.7025e-05 -2.0422221e-06 4.0712631e-24 1.4595985e-05 7.2648142e-25 5.9980478e-43)
(0.00011219221 -1.9002974e-05 6.9261598e-24 1.2995171e-05 -1.8717074e-24 5.2332075e-43)
(0.00021949612 -3.1537707e-05 8.566105e-24 1.2533371e-05 -1.4657872e-24 4.482755e-43)
(0.00031618339 -3.9094096e-05 8.0766633e-23 1.1951703e-05 -1.2464106e-23 2.8825034e-41)
(0.00038323801 -4.394993e-05 1.3474169e-24 1.1800819e-05 5.1620819e-25 2.1699115e-43)
(0.0004093457 -4.6268859e-05 -4.5777923e-24 1.1718532e-05 1.0426193e-24 1.0251322e-43)
(0.00040588196 -4.7477668e-05 3.2148562e-24 1.1850699e-05 -5.1032227e-25 4.5764887e-44)
(0.00038431181 -4.726467e-05 2.7253029e-23 1.1872865e-05 -4.5188209e-24 5.3686865e-42)
(0.00035764977 -4.6235632e-05 -2.3012252e-23 1.17949e-05 4.5200534e-24 2.0623771e-42)
(0.00033141434 -4.4007154e-05 1.6476581e-23 1.1365126e-05 -3.4755971e-24 1.9410429e-42)
(0.00030863818 -4.0782369e-05 1.8968235e-24 1.0597837e-05 -1.5967228e-25 1.1848268e-43)
(0.00028849764 -3.6372928e-05 3.3716557e-24 9.4482817e-06 4.4782779e-25 1.5583516e-42)
(0.0002702784 -3.0962069e-05 1.3093683e-23 8.0368206e-06 -2.0009696e-24 7.0913324e-43)
(0.0002524485 -2.4731604e-05 9.5144864e-24 6.502598e-06 -4.675499e-25 8.3211878e-43)
(0.00023433949 -1.8077874e-05 -7.1283575e-23 5.0284283e-06 7.207364e-24 2.323349e-41)
(0.00021532589 -1.1483415e-05 -1.147339e-22 3.7691188e-06 6.9765513e-24 6.5621717e-41)