/*--------------------------------*- C++ -*----------------------------------*\
| =========                 |                                                 |
| \\      /  F ield         | OpenFOAM: The Open Source CFD Toolbox           |
|  \\    /   O peration     | Version:  5.0                                   |
|   \\  /    A nd           | Web:      www.OpenFOAM.org                      |
|    \\/     M anipulation  |                                                 |
\*---------------------------------------------------------------------------*/
FoamFile
{
    version     2.0;
    format      ascii;
    class       volScalarField;
    location    "160";
    object      p;
}
// * * * * * * * * * * * * * * * * * * * * * * * * * * * * * * * * * * * * * //

dimensions      [0 2 -2 0 0 0 0];

internalField   nonuniform List<scalar> 
9200
(
0.0010853361
0.0011027665
0.0028278306
0.0011178273
0.0028680394
0.004699239
0.0011495427
0.0029140662
0.0047602589
0.006393927
0.0011815581
0.0029977563
0.004837166
0.006469884
0.0080496499
0.0012190389
0.0030981798
0.004967175
0.0065703384
0.0081384404
0.009588144
0.0012535171
0.0032254514
0.0051262783
0.0067345823
0.0082583436
0.0096864302
0.011032242
0.0012841182
0.0033726155
0.0053246742
0.0069391022
0.0084501834
0.0098203935
0.011136764
0.012377291
0.0013115972
0.0035381597
0.0055583699
0.0071944295
0.0086889754
0.010030325
0.011279617
0.012486245
0.013630293
0.0013314075
0.0037052221
0.0058300624
0.0075009324
0.008984128
0.010287882
0.011499284
0.012635451
0.013742422
0.014795782
0.0013361167
0.0038586839
0.0061303475
0.0078650474
0.0093372341
0.010599228
0.011764958
0.012861478
0.0138964
0.0149101
0.015879246
0.001268088
0.0040439038
0.0064552524
0.0082939639
0.0097546392
0.010963182
0.0120788
0.013133187
0.014127138
0.015067796
0.015994912
0.016885811
0.0010865771
0.0042494766
0.0068114312
0.0088131265
0.010248145
0.011380533
0.012434274
0.013448476
0.014404033
0.015302151
0.016155824
0.017001983
0.017820558
0.00077265315
0.0044146979
0.0072089806
0.0094294144
0.010837599
0.011864053
0.012827411
0.013797278
0.014719289
0.015582673
0.016393636
0.017165753
0.017936265
0.018688492
0.00033104349
0.0044994328
0.0076279502
0.010142273
0.011532984
0.012435024
0.013269292
0.014173407
0.015059429
0.015897774
0.016678224
0.017406919
0.018102125
0.018802563
0.019494616
-0.00024780161
0.0044575769
0.0080306922
0.010963815
0.0123556
0.013100207
0.013720319
0.014560882
0.015407634
0.016232692
0.016999392
0.017698016
0.018345847
0.018969209
0.019605689
0.020243882
-0.00094911708
0.004218453
0.0083571978
0.011893533
0.013330781
0.013866761
0.014217468
0.014903687
0.01573296
0.01656711
0.017342071
0.018029277
0.018644416
0.019213668
0.019771408
0.020350488
0.020941107
-0.0016870061
0.0037321145
0.0085455811
0.012929427
0.014487354
0.014764371
0.014788814
0.015191815
0.016028431
0.016870915
0.017686016
0.018390092
0.018987514
0.019517395
0.02001386
0.020513319
0.021041783
0.02159096
-0.0024520055
0.0029104731
0.008521038
0.014074742
0.015857853
0.015822654
0.015417917
0.015457384
0.016254145
0.017139909
0.018008231
0.018761757
0.019370191
0.019871387
0.020319133
0.020750501
0.02119964
0.02168429
0.022197985
-0.006221686
0.0016746339
0.0081772658
0.015340835
0.017458397
0.017071555
0.016118486
0.015692932
0.016343918
0.017346868
0.018308976
0.019138171
0.019780325
0.020273716
0.020679244
0.021052897
0.021428137
0.02183507
0.022282622
0.022766503
-0.008095574
-0.00017151192
0.0074117223
0.016657384
0.019257913
0.018524291
0.016902515
0.015863731
0.016270698
0.01741971
0.018552681
0.019516912
0.020221316
0.020718941
0.021094723
0.021412471
0.021722998
0.022051542
0.02242433
0.022841232
0.02330047
-0.010716214
-0.0028954172
0.0060095288
0.017873445
0.021241746
0.020177505
0.017779708
0.015936047
0.015992047
0.017301567
0.018699936
0.019867234
0.020683611
0.021209682
0.021562165
0.021831756
0.022075544
0.022334442
0.022625731
0.022972046
0.023364192
0.023803545
-0.014424532
-0.0068396336
0.0034062239
0.018884367
0.023510617
0.02201261
0.018751282
0.015875088
0.01544001
0.016925499
0.018701433
0.020170046
0.021161095
0.021743462
0.022085271
0.022308197
0.022489623
0.022674096
0.022892709
0.023155631
0.02348234
0.023855263
0.024279261
-0.018138704
-0.010974049
-0.00016408714
0.01978763
0.026143681
0.024014023
0.019817763
0.015645985
0.014523899
0.01620488
0.018499627
0.020398019
0.021649669
0.022327789
0.022668258
0.02284577
0.022962244
0.02307532
0.023214414
0.023403018
0.023645337
0.023958985
0.024318541
0.024731042
-0.021327548
-0.015019738
-0.0040395278
0.020739859
0.029140313
0.026099618
0.02096521
0.015200168
0.013125565
0.015019555
0.018033653
0.020527116
0.022147806
0.022970001
0.023320126
0.023448418
0.023496042
0.023534061
0.023596481
0.023702255
0.023869484
0.024098755
0.02440633
0.024757911
0.025161925
-0.023738713
-0.01923874
-0.0078097411
0.021104343
0.032302288
0.028143113
0.022138732
0.014448742
0.011066599
0.013218798
0.017229874
0.020514379
0.022656796
0.023682528
0.024052443
0.024123755
0.024092337
0.024050697
0.024034183
0.024060336
0.024142559
0.024296661
0.024521273
0.024828565
0.025175601
0.025574235
-0.025414799
-0.023264196
-0.011193772
0.020795686
0.035114024
0.02987701
0.023232103
0.013256168
0.0081412795
0.010644797
0.015984611
0.020305375
0.023163354
0.024471683
0.024878971
0.024881778
0.02475486
0.024622998
0.024525661
0.024472722
0.024472572
0.024541748
0.024691015
0.024917507
0.025228003
0.025573642
0.025970097
-0.02649148
-0.02683022
-0.014202155
0.02011893
0.037197573
0.031044152
0.024128884
0.011527201
0.0041754964
0.007215222
0.014143589
0.019805772
0.023641797
0.025346101
0.025812361
0.02573364
0.0254884
0.025249123
0.025065245
0.02493557
0.024857239
0.024842104
0.024904601
0.025056578
0.025288633
0.02560677
0.025955001
0.026351539
-0.027104775
-0.029823114
-0.016819179
0.018985792
0.03846515
0.031421418
0.024806699
0.0093245724
-0.00087777857
0.0029026325
0.011511008
0.018881684
0.024050183
0.026307393
0.026865366
0.026690174
0.026296653
0.025925862
0.025644708
0.025440851
0.025290921
0.025192447
0.025172247
0.025232613
0.025392353
0.025636338
0.02596811
0.026322345
0.026720407
-0.027381656
-0.03223356
-0.019007487
0.017426211
0.038551501
0.031231706
0.025188371
0.0066449042
-0.0070809067
-0.0027318125
0.0078520444
0.017348623
0.024340188
0.027343223
0.028041564
0.027758681
0.027181548
0.02664667
0.026252265
0.025974912
0.025764999
0.025597041
0.025487725
0.025460073
0.025525686
0.025701477
0.025965783
0.026315302
0.026677674
0.02707845
-0.027318257
-0.034044568
-0.020745725
0.015526651
0.037419961
0.030836441
0.024873355
0.0031691418
-0.015235831
-0.010544104
0.0030380203
0.01488953
0.024406176
0.028426965
0.029330253
0.028936456
0.028142247
0.027402862
0.026870736
0.026518768
0.026263288
0.026045191
0.025860907
0.025742891
0.025710306
0.025791691
0.025992999
0.026281948
0.02665067
0.027022597
0.02742702
-0.027039946
-0.035485515
-0.022170787
0.01333705
0.035284117
0.030203637
0.023428295
-0.0010367194
-0.024834278
-0.020587177
-0.0032812109
0.011470817
0.023989003
0.02949064
0.030699795
0.030206279
0.029166954
0.028179754
0.027478045
0.027045869
0.02676248
0.026520968
0.026286231
0.026083636
0.025953173
0.025930324
0.026038083
0.026269989
0.026586036
0.026975573
0.027358523
0.027767169
-0.026292778
-0.036536949
-0.023725255
0.010870824
0.032356581
0.029077441
0.020877515
-0.0058881471
-0.0347075
-0.032384321
-0.011598791
0.0066341473
0.022929501
0.030414371
0.032072461
0.031528999
0.030231281
0.02895385
0.028044507
0.027520887
0.027228861
0.027000759
0.026749889
0.026485338
0.026258481
0.026124575
0.026124994
0.026266444
0.026532359
0.026879133
0.027291802
0.027686718
0.028099781
-0.024919259
-0.036620052
-0.025255073
0.0076511423
0.029074478
0.027174474
0.017585146
-0.011154846
-0.044592543
-0.045378252
-0.022322449
-0.00085063813
0.020968823
0.03105899
0.03335619
0.0328389
0.03129081
0.029690622
0.028531987
0.027898097
0.027619235
0.027447106
0.027231096
0.026941738
0.026633118
0.026385362
0.026264177
0.026296877
0.026478779
0.026784624
0.027164864
0.027601333
0.028008228
0.028425616
-0.023135809
-0.035817208
-0.026287923
0.0041519781
0.024481385
0.02481318
0.013928829
-0.016685645
-0.054498692
-0.058766357
-0.034377441
-0.010425225
0.017812346
0.031726389
0.034406837
0.03401329
0.032280676
0.030339345
0.028891179
0.028120778
0.027872006
0.027819634
0.027695283
0.027441113
0.027080926
0.026725917
0.026470747
0.026373864
0.026449097
0.026679192
0.027029492
0.027444638
0.02790498
0.028323774
0.028745153
-0.021026157
-0.034181928
-0.026773511
0.00033512664
0.019377067
0.021345123
0.0098927136
-0.022219368
-0.064056858
-0.072183122
-0.047244764
-0.020394769
0.013705583
0.032204658
0.035231669
0.034914914
0.033101632
0.030826132
0.029048914
0.028107637
0.027903296
0.028039072
0.028122728
0.027963188
0.027601881
0.027156694
0.026763456
0.026515699
0.026457517
0.026586314
0.026871334
0.027268809
0.027719647
0.028203604
0.028634022
0.029058827
-0.018625274
-0.03182875
-0.026792817
-0.0036662134
0.013302132
0.017208096
0.0058344655
-0.027797535
-0.072881564
-0.085023317
-0.060326074
-0.029985244
0.0089413911
0.031426752
0.035338918
0.035353087
0.033641852
0.031055401
0.028916344
0.027760527
0.027606502
0.028016831
0.02840988
0.028478332
0.028187344
0.027688503
0.027160328
0.026746241
0.026525551
0.026521552
0.02671344
0.027058222
0.027504888
0.027991832
0.028498358
0.028939424
0.02936697
-0.015943948
-0.028813159
-0.026347326
-0.00791841
0.006389574
0.011767901
0.0022694626
-0.031828561
-0.081160978
-0.096776366
-0.072818686
-0.039050835
0.0038869302
0.028728821
0.034642189
0.034965545
0.033743181
0.030922052
0.028392863
0.026974041
0.026863928
0.027634649
0.02849327
0.028925705
0.028820899
0.028326333
0.027682052
0.027089942
0.026680228
0.026507145
0.026571296
0.026834981
0.027242794
0.027739579
0.028261975
0.028789535
0.029240251
0.029669654
-0.013021855
-0.025161527
-0.025325508
-0.012362862
-0.0012678763
0.0049318947
-0.0015840269
-0.035069827
-0.086730594
-0.10837085
-0.085006533
-0.047743458
-0.0016600753
0.024672178
0.033268617
0.033723621
0.033205617
0.030330791
0.027370347
0.025629525
0.025523747
0.026735776
0.028243769
0.029238616
0.029470585
0.029070735
0.028345838
0.027574655
0.026949369
0.026570754
0.026465171
0.026610807
0.026953571
0.027427913
0.027974517
0.028530542
0.029077503
0.029536726
0.029967109
-0.0099650229
-0.021011928
-0.023759449
-0.016802385
-0.0095397303
-0.0030842398
-0.0060823933
-0.038091593
-0.091945884
-0.11743641
-0.096405185
-0.055974522
-0.0076418501
0.020041583
0.031199477
0.031920499
0.031877627
0.029186455
0.025733045
0.023595729
0.023400447
0.025121216
0.027493304
0.029306974
0.030089665
0.029912443
0.029167252
0.028227272
0.027366525
0.026742521
0.026423476
0.026406069
0.026646145
0.027073024
0.027616031
0.028210832
0.028798385
0.029362652
0.029828923
0.030259298
-0.016421267
-0.0068599319
-0.021677674
-0.021172273
-0.018337267
-0.012103883
-0.011335087
-0.040939527
-0.096015077
-0.12785711
-0.10705928
-0.062811622
-0.013567987
0.014861819
0.028229343
0.029482931
0.029678044
0.027367717
0.023387742
0.0207229
0.020273701
0.022522171
0.026031198
0.028985447
0.030605702
0.030831215
0.030154984
0.029075174
0.027965943
0.027060898
0.026478084
0.026248948
0.026339551
0.02668411
0.027198034
0.027808166
0.028448993
0.029065713
0.029644943
0.03011686
0.030546223
-0.019052633
-0.011434137
-0.0037844967
-0.025514816
-0.027514757
-0.021726227
-0.017352408
-0.043799473
-0.098650664
-0.13557482
-0.11972896
-0.069370742
-0.019384865
0.0095336247
0.023902545
0.026031106
0.026556614
0.024747539
0.020258854
0.016882817
0.015901226
0.018591107
0.023543921
0.028080826
0.030910933
0.031788834
0.03130946
0.03014118
0.028783502
0.027564557
0.026669011
0.026170069
0.026059441
0.026274969
0.026729568
0.027330555
0.028005057
0.028689479
0.029332466
0.029924435
0.030400497
0.030827898
-0.029614848
-0.016083743
-0.0063019543
-0.00078830816
-0.036860873
-0.031654329
-0.023779706
-0.046664988
-0.099674864
-0.14108772
-0.13036842
-0.077466365
-0.027860354
0.0040073362
0.018619713
0.021636957
0.022414766
0.021250947
0.016317407
0.011974524
0.010061579
0.012910039
0.019594353
0.026301592
0.030838802
0.032717932
0.032616394
0.031439467
0.029850548
0.028294338
0.027036726
0.026208422
0.025833786
0.025867837
0.026218584
0.026785058
0.02747227
0.028208267
0.028932565
0.029598883
0.03020107
0.030679748
0.031104179
-0.046152944
-0.03320902
-0.01302236
-0.0013090594
0.0020781033
-0.041811248
-0.030167705
-0.04934016
-0.098773656
-0.14353703
-0.13865501
-0.085378321
-0.037015051
-0.0054289817
0.013020798
0.016141172
0.017331698
0.016823539
0.011576189
0.006012399
0.0025120373
0.0049458067
0.013612643
0.023218046
0.030143766
0.033501216
0.034036176
0.032970395
0.031191407
0.02928731
0.027624702
0.026405482
0.025699282
0.025486748
0.025683558
0.026174858
0.026853845
0.027625179
0.02841865
0.029178502
0.029864767
0.03047469
0.030954492
0.031375056
-0.051973678
-0.055198292
-0.036200165
-0.0098688763
0.0033785614
0.0047873386
-0.036492075
-0.051595037
-0.096055836
-0.14164603
-0.14249535
-0.092351319
-0.046429002
-0.014612694
0.0033777103
0.010512267
0.011235061
0.011513653
0.0061063403
-0.0010483497
-0.0069325976
-0.0061966912
0.0047051582
0.018304302
0.028496013
0.033957149
0.035489694
0.034708972
0.032815167
0.030571535
0.028472595
0.026803833
0.025697095
0.025165409
0.025143682
0.025513423
0.026148669
0.02693893
0.02779025
0.028636254
0.029427199
0.030129963
0.030745138
0.03122459
0.031640408
-0.042885512
-0.061720512
-0.063618164
-0.038612992
-0.0067061373
0.0076469974
0.0073090344
-0.053131648
-0.091938261
-0.13579928
-0.14185141
-0.097477106
-0.05539096
-0.025165534
-0.0064062442
0.0021913192
0.0046743691
0.0052911936
-1.4280252e-05
-0.0091404718
-0.018456781
-0.021281964
-0.0082049412
0.010842727
0.025341597
0.033835926
0.036839447
0.036591362
0.034704699
0.03216359
0.02960911
0.027443309
0.025866112
0.02494038
0.024627831
0.024814842
0.025364872
0.026144661
0.027041966
0.027967892
0.028861016
0.029678387
0.030394212
0.031012177
0.031489896
0.031900175
-0.05370402
-0.048857476
-0.070553305
-0.071181957
-0.04047701
-0.0036262055
0.011443309
0.0096496177
-0.086591103
-0.1276088
-0.13827503
-0.10031268
-0.063606096
-0.036055045
-0.018691108
-0.0056083908
-0.003698732
-0.0014207435
-0.006742525
-0.018304566
-0.031722611
-0.039522776
-0.023667804
0.0013601658
0.019564249
0.032467997
0.037855948
0.038497929
0.036803064
0.034051394
0.031056684
0.02834881
0.026249788
0.02484563
0.024165776
0.024101745
0.02451023
0.025244762
0.026165533
0.027164261
0.028158214
0.029092583
0.029931718
0.03065712
0.0312756
0.031750324
0.032154293
-0.08008515
-0.053168965
-0.053767175
-0.07814322
-0.077567041
-0.041733335
-0.00070548743
0.014779628
0.011749878
-0.11754049
-0.13211791
-0.10043806
-0.070686084
-0.047287611
-0.031875227
-0.016911961
-0.011158505
-0.0091463555
-0.013773776
-0.028053613
-0.046608222
-0.059352421
-0.041375203
-0.010364707
0.01116242
0.029317131
0.038051088
0.040223189
0.039002555
0.03618419
0.032806855
0.02955311
0.026839791
0.024916786
0.023786996
0.023395923
0.023601119
0.024240008
0.025157752
0.026213364
0.027306401
0.02836091
0.029330293
0.030186544
0.030918414
0.031535326
0.032005758
0.032402594
-0.10587412
-0.072404441
-0.05138779
-0.057659333
-0.084202154
-0.082624843
-0.042361999
0.0020349383
0.017606751
0.013598182
-0.12328342
-0.097945232
-0.076142152
-0.05839165
-0.045917974
-0.03030412
-0.020994496
-0.015906629
-0.020741781
-0.038573195
-0.061811644
-0.080015437
-0.062139095
-0.027074684
-0.00054014059
0.024572126
0.037265939
0.041405113
0.041122775
0.038463249
0.03481495
0.031045401
0.027722971
0.025171799
0.023520811
0.022722102
0.022651579
0.023140736
0.02401182
0.025106893
0.026289641
0.027468255
0.028575094
0.029573419
0.030442592
0.031178065
0.031791167
0.03225583
0.032644952
-0.11206918
-0.092804279
-0.063857812
-0.048516395
-0.060343816
-0.088483405
-0.086359673
-0.042348227
0.004583627
0.019860737
0.015169678
-0.0934916
-0.079356854
-0.069016989
-0.060630503
-0.046050061
-0.033960556
-0.024212966
-0.026500065
-0.046454534
-0.078194381
-0.10010927
-0.085441757
-0.048624351
-0.016148842
0.016827522
0.035111648
0.041818654
0.042866299
0.040724341
0.036991288
0.03278746
0.028854458
0.025650807
0.023387379
0.022101623
0.02167888
0.021952947
0.022732469
0.023831262
0.025094872
0.026394585
0.027648823
0.028799809
0.029821764
0.030699993
0.031435711
0.032042304
0.032500067
0.032881567
-0.087395593
-0.098744503
-0.079105865
-0.054578121
-0.044853221
-0.061608878
-0.090987534
-0.08822208
-0.041721867
0.0069074974
0.021566831
0.01641491
-0.080272513
-0.079018225
-0.075849669
-0.063831447
-0.049451806
-0.034896393
-0.033400396
-0.052111516
-0.088395461
-0.12127947
-0.10988809
-0.072680798
-0.034493229
0.0057933811
0.030040722
0.041081786
0.043936628
0.042717848
0.039189466
0.034700024
0.030207992
0.026333971
0.023411877
0.021551935
0.020696597
0.020685164
0.021317209
0.0223847
0.023702306
0.025122945
0.026527308
0.027846811
0.029035026
0.030075558
0.030957886
0.031689582
0.032287761
0.032739038
0.033124175
-0.079076968
-0.07973045
-0.084310006
-0.065150501
-0.045160577
-0.040575902
-0.061555144
-0.091694618
-0.087905089
-0.040513833
0.0090513758
0.022740386
0.017308519
-0.088058002
-0.091358159
-0.08310748
-0.06722532
-0.047729232
-0.04182305
-0.057958113
-0.09728852
-0.13479839
-0.13721224
-0.10007963
-0.054591465
-0.0074711797
0.022433081
0.037826813
0.044073702
0.044194587
0.041210665
0.036658651
0.031714355
0.027195646
0.023581999
0.021084733
0.0197159
0.019342891
0.019765316
0.020756838
0.022103856
0.023627373
0.025189771
0.02668623
0.028062222
0.029281194
0.030333234
0.031213007
0.031937872
0.032529045
0.032985383
0.033376882
-0.095515701
-0.076141136
-0.070650046
-0.069560998
-0.05136589
-0.035886419
-0.035795159
-0.060281707
-0.090010189
-0.085832426
-0.038820996
0.011188567
0.023385478
0.018005643
-0.10661154
-0.10333887
-0.086968295
-0.062413272
-0.051577596
-0.064590332
-0.1044549
-0.15185376
-0.15990416
-0.13041912
-0.077722516
-0.023360078
0.013265889
0.032304519
0.042410124
0.044847816
0.042839992
0.038494077
0.033268018
0.028175062
0.023870306
0.020692994
0.018738912
0.017928893
0.01807351
0.01893746
0.020281231
0.02189412
0.023607127
0.025293755
0.026871611
0.028295917
0.029535808
0.030589411
0.031462559
0.032183919
0.03278162
0.033240783
0.03363288
-0.12081722
-0.10110038
-0.071976472
-0.06052422
-0.055133302
-0.038068399
-0.026713011
-0.030688672
-0.057884857
-0.086085052
-0.082076806
-0.036679775
0.013278954
0.023627732
0.018422208
-0.12414157
-0.10819958
-0.078820018
-0.062226289
-0.072245499
-0.11068444
-0.16417103
-0.19134491
-0.15922429
-0.10254207
-0.04160674
0.0019861241
0.025587854
0.038670721
0.044097782
0.043724648
0.039988273
0.034720556
0.029179976
0.024224648
0.020348011
0.017756204
0.016437863
0.016236029
0.016914557
0.018215483
0.019897295
0.021756531
0.023639471
0.025436558
0.027085107
0.028544399
0.029790675
0.030840244
0.03171291
0.032449627
0.033041063
0.033501198
0.033891916
-0.14482437
-0.13359694
-0.10451072
-0.066838123
-0.050117038
-0.041451086
-0.025556437
-0.017734236
-0.025424323
-0.054591212
-0.080611937
-0.077734779
-0.033655891
0.014970389
0.02340941
0.018546261
-0.13041532
-0.096934699
-0.073291553
-0.080301726
-0.11707732
-0.17353162
-0.21393697
-0.19933758
-0.12477531
-0.06085674
-0.010458106
0.01688793
0.033414563
0.041892204
0.043395201
0.040863309
0.035881116
0.030079841
0.024563512
0.020002149
0.016738968
0.014853689
0.01423881
0.014673215
0.01588608
0.017609674
0.019607392
0.021689148
0.023723196
0.025620249
0.027322203
0.028795726
0.030040418
0.031096369
0.031996054
0.03272018
0.033307741
0.033765718
0.034153953
-0.15262849
-0.16464345
-0.14414411
-0.10581349
-0.061001618
-0.039947423
-0.028846253
-0.0140468
-0.0091736576
-0.020022517
-0.050790715
-0.075091087
-0.071677054
-0.030362876
0.016026434
0.022762377
0.018454917
-0.11564209
-0.084276879
-0.088142158
-0.12325202
-0.18076448
-0.23330536
-0.23484972
-0.15837939
-0.084629068
-0.02359581
0.0071375648
0.026560314
0.037981106
0.041870694
0.040918881
0.03653829
0.030710372
0.024771448
0.01958277
0.015640912
0.013145284
0.012058614
0.012190408
0.013269378
0.015002997
0.017124544
0.019409848
0.021692871
0.023862868
0.025839068
0.027565955
0.029042191
0.030301621
0.031404144
0.032281855
0.033000653
0.033579377
0.034034463
0.034418748
-0.1331334
-0.17362778
-0.18205057
-0.15237294
-0.10543829
-0.05513175
-0.030406701
-0.017521555
-0.003757402
-0.0011305237
-0.014759727
-0.047741532
-0.068748392
-0.064953496
-0.026763457
0.016350037
0.021710677
0.018098295
-0.094994759
-0.095475837
-0.12859342
-0.18516599
-0.24732989
-0.2686212
-0.19728965
-0.11226782
-0.043831086
-0.0033950803
0.018138775
0.032053892
0.038943992
0.03966499
0.036415098
0.030880989
0.024707701
0.018987396
0.014395716
0.011265667
0.0096594153
0.0094348779
0.010332657
0.012044974
0.014272416
0.016759104
0.019306427
0.021774137
0.024053427
0.026069786
0.027805052
0.029308215
0.030641229
0.031712171
0.032580645
0.033286721
0.033856434
0.034306831
0.034686199
-0.10497909
-0.14839805
-0.19132625
-0.19642887
-0.15798641
-0.10362799
-0.049604673
-0.021963895
-0.0076950221
0.0050799712
0.0059394218
-0.0098386461
-0.044703203
-0.061718436
-0.057591011
-0.023032793
0.015905187
0.020279782
0.017425707
-0.1020959
-0.13230326
-0.18610105
-0.25526752
-0.2940323
-0.23564966
-0.14061071
-0.065485056
-0.021427722
0.0084652836
0.024671909
0.034257671
0.036581561
0.035356049
0.030360129
0.024201705
0.018095487
0.012911435
0.0091515101
0.0069911552
0.0063638793
0.0070360075
0.0086934742
0.011009654
0.013694367
0.016516631
0.019306535
0.021925042
0.024263151
0.026295964
0.028074186
0.029689046
0.030978846
0.032036968
0.032885556
0.033579536
0.034137978
0.034582781
0.034956036
-0.10727031
-0.11293895
-0.15955715
-0.20454799
-0.20720932
-0.16040257
-0.10052379
-0.044546069
-0.015012337
-9.9533737e-05
0.012001125
0.012626001
-0.0063419217
-0.040608281
-0.054051103
-0.04987861
-0.019207823
0.014691281
0.018459191
0.016465562
-0.13328583
-0.18321523
-0.25540748
-0.31130566
-0.27111239
-0.16901137
-0.091063452
-0.037508758
-0.0092403568
0.016906077
0.027234139
0.03359209
0.032867003
0.028933079
0.023059604
0.01675666
0.011084879
0.0067179733
0.0039898506
0.0029221366
0.003329142
0.0048997458
0.0072852419
0.010164664
0.013274631
0.016409535
0.019403004
0.022103187
0.024468329
0.026565614
0.028507482
0.030065605
0.031337684
0.03236826
0.03319857
0.033877884
0.034423925
0.034861746
0.035228106
-0.13113897
-0.1098568
-0.11864822
-0.16517579
-0.21292088
-0.21222185
-0.15926878
-0.096635808
-0.04022407
-0.0096432332
0.0055069372
0.018269234
0.016910006
-0.0030795411
-0.035864243
-0.045631644
-0.041962998
-0.015312503
0.012850821
0.016273102
0.01514034
-0.17640882
-0.24650517
-0.31527265
-0.29765937
-0.19601078
-0.11694904
-0.058944357
-0.023148141
-0.00031842588
0.020298785
0.026338635
0.028995032
0.026307046
0.021088062
0.014811037
0.0087834925
0.0038748459
0.00057354936
-0.00095834782
-0.0008498177
0.00060597213
0.0030438641
0.0061134477
0.0095230025
0.01303193
0.016426319
0.019538925
0.022276634
0.024734567
0.027065365
0.028934281
0.03046898
0.031703088
0.032709124
0.033518027
0.034181576
0.034713479
0.035143553
0.03550215
-0.16619659
-0.12571575
-0.10961224
-0.12186716
-0.1646126
-0.21583274
-0.20983648
-0.15513201
-0.092234491
-0.036313926
-0.0050984912
0.011124609
0.022092791
0.020745913
-3.3250091e-05
-0.030736528
-0.036746118
-0.034137654
-0.011575168
0.010994488
0.013961163
0.013297498
-0.2315202
-0.30262018
-0.30682998
-0.21826537
-0.14203241
-0.080721601
-0.042791081
-0.013691397
0.0056031096
0.019200359
0.022629073
0.022379391
0.018017561
0.012098489
0.0058819258
0.00050194053
-0.0033413333
-0.0053608968
-0.0055753539
-0.0042569752
-0.0017801241
0.0014788763
0.0051998576
0.0091104997
0.012951662
0.016492696
0.019664511
0.022533352
0.025318546
0.027555921
0.029394854
0.030878495
0.032079502
0.033057374
0.033843695
0.034489682
0.035006364
0.035427697
0.035778019
-0.21203354
-0.15259618
-0.11740854
-0.10603181
-0.12133513
-0.15951338
-0.21066726
-0.20187564
-0.14887002
-0.086798759
-0.03235522
0.00045976748
0.015290345
0.025587669
0.024163116
0.0027814442
-0.025228184
-0.027848423
-0.026254433
-0.0081749355
0.0093519531
0.01178818
0.01092817
-0.28005067
-0.30071762
-0.2340353
-0.16211729
-0.10233356
-0.06302461
-0.032476224
-0.007592498
0.0055238829
0.0152263
0.01639508
0.013797672
0.0084198626
0.0022398189
-0.0034948023
-0.0078698776
-0.010369861
-0.010935628
-0.0097711973
-0.0072631639
-0.0038121543
0.00023651812
0.0045779418
0.0089055307
0.012934015
0.016554312
0.01990077
0.023223762
0.025888956
0.028089268
0.029860382
0.031300522
0.032464196
0.033412867
0.034174538
0.034801805
0.035301931
0.035714116
0.036055371
-0.25187117
-0.18829561
-0.13670683
-0.10659931
-0.098869573
-0.11642569
-0.15134152
-0.19735955
-0.19019997
-0.14040837
-0.080643749
-0.027082647
0.0057845882
0.01922849
0.02817207
0.026984243
0.0053993828
-0.019401878
-0.019725674
-0.018906491
-0.005113935
0.0080757076
0.0098494703
0.0085082339
-0.28343305
-0.24038966
-0.17389192
-0.12121354
-0.083730134
-0.052352366
-0.027166853
-0.0057639534
0.0030106278
0.0094782478
0.0078806187
0.0037259547
-0.002277717
-0.008247375
-0.013082059
-0.016102278
-0.017022418
-0.016031695
-0.013494535
-0.0098423085
-0.0054453084
-0.00063836205
0.0042174617
0.0087781335
0.012908745
0.016771892
0.020725138
0.023892949
0.026514292
0.028625192
0.030339932
0.031731661
0.032857139
0.033774465
0.034509922
0.035117252
0.035600258
0.036002163
0.036333983
-0.25677351
-0.21894238
-0.16261034
-0.11919571
-0.094094984
-0.088639753
-0.10693984
-0.13953144
-0.1791441
-0.17583272
-0.1289843
-0.073879666
-0.019836161
0.010481369
0.022439715
0.029832313
0.029035567
0.0079322128
-0.012975606
-0.012700215
-0.012571476
-0.0028354789
0.0070745507
0.008114755
0.006528346
-0.23425742
-0.17762846
-0.1356849
-0.10321754
-0.073579906
-0.047815759
-0.024367112
-0.0085598219
-0.0009952036
0.0013657805
-0.002401371
-0.0077106727
-0.013830132
-0.019119982
-0.022615564
-0.023959665
-0.023142034
-0.020576541
-0.016706334
-0.011932549
-0.0066200862
-0.0011877518
0.0039499077
0.008638627
0.013092508
0.017770561
0.021516608
0.024632691
0.027138631
0.029176487
0.030829259
0.032172147
0.033257003
0.034141257
0.034849151
0.035436369
0.035900272
0.03629156
0.036613566
-0.21720442
-0.22349526
-0.18480349
-0.13622462
-0.10074851
-0.080207281
-0.076250548
-0.093948112
-0.12479366
-0.15850303
-0.15314363
-0.11898014
-0.063041771
-0.012913116
0.014461279
0.024955688
0.030883668
0.029905735
0.010158924
-0.0061959349
-0.0072930418
-0.0079687312
-0.00086641926
0.0062225702
0.006604654
0.0049831162
-0.17485839
-0.14434827
-0.11994472
-0.094442319
-0.070318133
-0.048295061
-0.025741604
-0.011185841
-0.0073755605
-0.0090110325
-0.01434277
-0.020309618
-0.025991504
-0.030079748
-0.031806785
-0.031234856
-0.028625833
-0.024513291
-0.019323701
-0.013456295
-0.0073934854
-0.0016283259
0.0036641897
0.008771515
0.014300985
0.018712148
0.022398643
0.025366546
0.027778842
0.029738207
0.03132896
0.032620302
0.033662655
0.034512745
0.035193046
0.035757449
0.036201684
0.036581779
0.036893874
-0.16527134
-0.1925679
-0.18840721
-0.15134427
-0.11066704
-0.082125586
-0.065450486
-0.062601054
-0.079242815
-0.10906579
-0.13536209
-0.13724899
-0.10418674
-0.052572524
-0.0064208704
0.017651516
0.026707596
0.031085728
0.029332579
0.011928374
-0.00080607149
-0.0033481121
-0.0041855358
0.00076365267
0.0055011557
0.0053465248
0.0037926798
-0.1464565
-0.13152075
-0.11320025
-0.093841123
-0.074867345
-0.049693189
-0.02859335
-0.014551084
-0.016639048
-0.02147536
-0.027822025
-0.033842419
-0.038436694
-0.040774161
-0.040386518
-0.037782924
-0.033390142
-0.027731944
-0.021247347
-0.014489467
-0.0080418996
-0.0020965224
0.0037318089
0.010246362
0.015421121
0.019770578
0.023267178
0.026116592
0.0284299
0.03031104
0.031837016
0.033074873
0.034073849
0.034890253
0.035539233
0.036080217
0.036503806
0.036872456
0.037174649
-0.14253243
-0.14975549
-0.16430406
-0.15395678
-0.12030563
-0.086793994
-0.06401293
-0.050671377
-0.04859706
-0.063828292
-0.093749174
-0.11720053
-0.1176417
-0.089223097
-0.041928347
-0.00078476977
0.020016418
0.027761133
0.030308007
0.027414194
0.013365941
0.0026566018
-0.00036961643
-0.0012497649
0.0019957965
0.0049059214
0.004341451
0.0028875714
-0.13688254
-0.12843567
-0.11698215
-0.10274109
-0.079578184
-0.052967967
-0.028738706
-0.021395432
-0.028454829
-0.03592778
-0.042616266
-0.047975959
-0.050750632
-0.050849566
-0.048152928
-0.043482494
-0.037286793
-0.030103727
-0.022572907
-0.015380198
-0.0087319125
-0.0021110661
0.0055361136
0.011581743
0.016695477
0.020803112
0.024152555
0.026877228
0.029092605
0.030893101
0.032352117
0.033536032
0.034492678
0.035270394
0.035887499
0.036403737
0.036806233
0.037163179
0.037455651
-0.13740319
-0.13363464
-0.13109002
-0.13482309
-0.12197609
-0.092272736
-0.064931567
-0.04696021
-0.036777406
-0.034638078
-0.049342597
-0.081737343
-0.098202023
-0.098364954
-0.073695129
-0.031358771
0.0040203546
0.021550997
0.028031646
0.028956211
0.025025025
0.014098209
0.005032557
0.001911439
0.0010522502
0.0028665271
0.004434136
0.0035645603
0.0022206536
-0.13958273
-0.13820458
-0.13141706
-0.11427374
-0.083243512
-0.052210082
-0.031072597
-0.031963868
-0.042608407
-0.052254435
-0.058350051
-0.062210213
-0.062481683
-0.060017197
-0.054930134
-0.048135051
-0.04014995
-0.031746963
-0.023736302
-0.016332791
-0.0088463085
9.8059262e-05
0.0071274793
0.013120377
0.017926911
0.021852802
0.025047512
0.027649899
0.029764997
0.03148278
0.032874876
0.03400677
0.034914658
0.035653049
0.036236664
0.036727534
0.03710852
0.0374536
0.037736481
-0.14588219
-0.1339361
-0.12147319
-0.11154035
-0.1071127
-0.09352092
-0.068073063
-0.045384019
-0.031541452
-0.023592423
-0.023101752
-0.036486051
-0.069627719
-0.079791131
-0.078585859
-0.058073357
-0.021246436
0.0080053156
0.022368711
0.027501031
0.027301258