/*--------------------------------*- C++ -*----------------------------------*\
| =========                 |                                                 |
| \\      /  F ield         | OpenFOAM: The Open Source CFD Toolbox           |
|  \\    /   O peration     | Version:  5.0                                   |
|   \\  /    A nd           | Web:      www.OpenFOAM.org                      |
|    \\/     M anipulation  |                                                 |
\*---------------------------------------------------------------------------*/
FoamFile
{
    version     2.0;
    format      ascii;
    class       surfaceScalarField;
    location    "160";
    object      phi;
}
// * * * * * * * * * * * * * * * * * * * * * * * * * * * * * * * * * * * * * //

dimensions      [0 3 -1 0 0 0 0];

internalField   nonuniform List<scalar> 
18180
(
-0.0019644286
-1.3908392
-0.0038309897
-1.3007999
-0.0019098587
-1.3889294
-0.0055906017
-1.2167311
-0.0037253082
-1.2989845
-0.0018091803
-1.3871202
-0.0072700437
-1.138211
-0.0054521593
-1.2150043
-0.003528545
-1.2972651
-0.0016783405
-1.3854418
-0.0088534756
-1.0648504
-0.0071145631
-1.1365486
-0.0051701384
-1.2133627
-0.0032724828
-1.295671
-0.0015450895
-1.3838968
-0.010328472
-0.99631011
-0.008724381
-1.0632406
-0.0067577715
-1.134961
-0.0047929107
-1.2118423
-0.0030068749
-1.2942092
-0.0014191922
-1.3824776
-0.01166428
-0.93226993
-0.010295607
-0.99473888
-0.0083143257
-1.0616841
-0.0062614714
-1.1334924
-0.0043944893
-1.2104547
-0.0027541846
-1.2928742
-0.0013122931
-1.3811653
-0.012835734
-0.87245071
-0.011841441
-0.9307241
-0.00987089
-0.99318232
-0.0076999934
-1.0602455
-0.0057204729
-1.1321664
-0.0040138003
-1.209195
-0.0025400762
-1.2916464
-0.0012241862
-1.3799411
-0.01383186
-0.81658731
-0.013381385
-0.87091077
-0.011476381
-0.92911861
-0.0091419346
-0.99174038
-0.0069958574
-1.0589702
-0.0052012
-1.130979
-0.003694294
-1.2080408
-0.0023674152
-1.2905032
-0.0011497303
-1.3787914
-0.014588073
-0.76446439
-0.014928657
-0.81504004
-0.01319823
-0.86918892
-0.010641185
-0.92761936
-0.0082358095
-0.99050043
-0.0063166417
-1.0578547
-0.0047725351
-1.1299008
-0.0034436301
-1.2069646
-0.0022265786
-1.2894263
-0.0010817471
-1.3777096
-0.015013881
-0.71582375
-0.016573966
-0.76281909
-0.015154213
-0.81308406
-0.012259579
-0.86757053
-0.0094605957
-0.92639457
-0.0073540606
-0.98946301
-0.0057712944
-1.056856
-0.0044506928
-1.1288937
-0.0032455927
-1.2059456
-0.0021008051
-1.2884073
-0.0010142545
-1.3766954
-0.015072583
-0.67052623
-0.018485135
-0.71391259
-0.017497132
-0.76047617
-0.014081269
-0.81126237
-0.010689744
-0.86634138
-0.0083003418
-0.92544829
-0.0066723219
-0.98856198
-0.0053868322
-1.0559198
-0.0042092179
-1.1279301
-0.0030706799
-1.2049757
-0.0019747378
-1.2874468
-0.00094281658
-1.3757525
-0.014694244
-0.62844372
-0.020821303
-0.66819006
-0.020270986
-0.71113873
-0.016150465
-0.75840697
-0.011931926
-0.81002018
-0.0091348971
-0.86550682
-0.0074439707
-0.92467664
-0.0062338226
-0.98771499
-0.0051189682
-1.0550101
-0.0039998354
-1.1270009
-0.0028929042
-1.2040576
-0.0018376918
-1.2865519
-0.00086490719
-1.3748876
-0.013836778
-0.58932768
-0.023710113
-0.6255549
-0.023581888
-0.66487915
-0.018547265
-0.70874193
-0.013180214
-0.75715868
-0.0098140784
-0.809341
-0.0080395476
-0.86491125
-0.0069587483
-0.92395171
-0.0059644987
-0.98686946
-0.0048943853
-1.0541155
-0.0037821466
-1.1261117
-0.0026951477
-1.2032001
-0.0016850651
-1.2857318
-0.00078075931
-1.3741069
-0.012474569
-0.55293803
-0.02724671
-0.58579108
-0.027696201
-0.62144059
-0.021431694
-0.66199473
-0.014469999
-0.70745215
-0.010241363
-0.7567314
-0.0083855771
-0.80899497
-0.0075120827
-0.86435791
-0.006721599
-0.92319461
-0.005756551
-0.98600729
-0.0046567859
-1.0532409
-0.0035305619
-1.1252763
-0.0024702174
-1.2024149
-0.0015186253
-1.2849939
-0.00069357023
-1.3734133
-0.010657644
-0.51894807
-0.031547985
-0.54863676
-0.032874471
-0.58061281
-0.024957642
-0.61791464
-0.015824888
-0.66063984
-0.010347131
-0.70734638
-0.008349681
-0.75676729
-0.0077984439
-0.80870861
-0.0073430859
-0.86373642
-0.0065817565
-0.92236941
-0.0055316775
-0.9851324
-0.0043656785
-1.0524058
-0.0032349271
-1.1245116
-0.0022212955
-1.2017123
-0.0013454142
-1.2843421
-0.00060820648
-1.3728051
-0.0083649153
-0.48711793
-0.036725879
-0.51377018
-0.039350914
-0.54216031
-0.02929269
-0.57627776
-0.017267434
-0.6164721
-0.010051916
-0.66093505
-0.0077786567
-0.7079174
-0.0077404453
-0.75682529
-0.0077599032
-0.80829179
-0.0073541502
-0.86296403
-0.0064308786
-0.92147021
-0.0052252682
-0.98427281
-0.0040012639
-1.0516394
-0.0029001972
-1.1238327
-0.0019601133
-1.2010976
-0.0011752163
-1.283775
-0.00052928439
-1.3722758
-0.0054229053
-0.45775886
-0.042852891
-0.48099092
-0.047317249
-0.50580384
-0.034592099
-0.53686091
-0.018830606
-0.57471459
-0.0092441971
-0.61727982
-0.006532244
-0.66218146
-0.0071838543
-0.70847399
-0.0080176169
-0.75656758
-0.0080994427
-0.8075465
-0.0073914403
-0.86200347
-0.0061526521
-0.92054282
-0.0047988207
-0.98347525
-0.0035714777
-1.0509681
-0.0025438637
-1.1232489
-0.0017025531
-1.2005702
-0.001017545
-1.2832868
-0.00046007021
-1.3718157
-0.0012249958
-0.4316493
-0.049712746
-0.45089901
-0.056847046
-0.47146112
-0.040947442
-0.4994485
-0.020543778
-0.53514773
-0.0077956994
-0.57616309
-0.0044237457
-0.61938831
-0.0059421221
-0.6634232
-0.0080447205
-0.70844689
-0.0088619999
-0.75580502
-0.0084963875
-0.80644155
-0.0072147348
-0.86094139
-0.005670632
-0.91967101
-0.0042597395
-0.98278699
-0.0031052157
-1.0504068
-0.0021899567
-1.1227615
-0.0014637996
-1.200124
-0.00087942767
-1.2828674
-0.00040249655
-1.3714132
0.0044913594
-0.40826161
-0.056849055
-0.42451299
-0.068068446
-0.43967761
-0.048492254
-0.46391631
-0.022395656
-0.49759662
-0.0055623062
-0.53738113
-0.0012377002
-0.57934913
-0.0038223363
-0.6215081
-0.0076610392
-0.66380688
-0.0096505575
-0.70765833
-0.0097808516
-0.75452056
-0.008495591
-0.8051607
-0.006680195
-0.85993182
-0.0049980887
-0.91893266
-0.0036566044
-0.9822356
-0.002638535
-1.0499582
-0.0018615952
-1.1223637
-0.0012549864
-1.1997484
-0.00076462196
-1.2825053
-0.00035737875
-1.3710559
0.011222628
-0.38422871
-0.063548787
-0.40156188
-0.081369495
-0.41121194
-0.057726097
-0.43044377
-0.02440551
-0.46190646
-0.0024126804
-0.50074625
0.0032600113
-0.54187884
-0.00059580671
-0.58257566
-0.0067109992
-0.62245814
-0.010472911
-0.66298453
-0.011331361
-0.70610782
-0.010061104
-0.75295505
-0.0078960447
-0.80394485
-0.005830446
-0.85909947
-0.0042168979
-0.91837237
-0.0030490776
-0.98182506
-0.0022062257
-1.0496136
-0.0015759165
-1.1220428
-0.0010820071
-1.199431
-0.00067388055
-1.2821888
-0.00032413494
-1.3707317
0.018283562
-0.35891692
-0.069065255
-0.37871224
-0.097363005
-0.38556837
-0.069581233
-0.3993568
-0.026922365
-0.42792691
0.0017886832
-0.46610782
0.009311743
-0.50679798
0.0039983393
-0.54647298
-0.0050264767
-0.58426019
-0.011306432
-0.62162462
-0.0132925
-0.66102339
-0.012063041
-0.70410589
-0.0094067832
-0.75144431
-0.0068048679
-0.80297043
-0.0048058493
-0.85851052
-0.0034246701
-0.91799678
-0.002489852
-0.98154143
-0.001834176
-1.0493553
-0.0013421738
-1.1217826
-0.00094600526
-1.1991589
-0.00060558741
-1.2819073
-0.00030056486
-1.3704312
0.024563927
-0.33291214
-0.074975119
-0.35300706
-0.11520355
-0.3608717
-0.084888144
-0.37026146
-0.030762892
-0.39551628
0.0071437795
-0.43328201
0.017131645
-0.47392772
0.010222524
-0.51302216
-0.0024156751
-0.54908379
-0.012128121
-0.5834385
-0.015813419
-0.6191037
-0.014693472
-0.65839296
-0.011353116
-0.70215955
-0.0079899585
-0.75025922
-0.0054443747
-0.8023319
-0.0037614649
-0.85817372
-0.0027012354
-0.91778539
-0.0020163377
-0.98135927
-0.0015361319
-1.0491614
-0.00116188
-1.1215667
-0.00084459811
-1.1989199
-0.00055653474
-1.2816514
-0.00028358047
-1.3701476
0.030270578
-0.3068115
-0.082424868
-0.32546239
-0.13339102
-0.33481958
-0.10334429
-0.34241555
-0.03645476
-0.36456959
0.013683592
-0.40205609
0.026952946
-0.44310331
0.018344908
-0.48205011
0.0013394479
-0.51677729
-0.012913773
-0.54829813
-0.01907519
-0.58017673
-0.018187203
-0.61560997
-0.013905907
-0.65584016
-0.0094699223
-0.70067959
-0.006158505
-0.74954509
-0.0040502486
-0.80204312
-0.0028178613
-0.85805709
-0.0021017089
-0.91770002
-0.0016471972
-0.98124821
-0.0013136882
-1.0490096
-0.0010304405
-1.1213809
-0.00077308294
-1.1987034
-0.0005227007
-1.2814123
-0.00027067269
-1.3698769
0.035591693
-0.28149837
-0.090309525
-0.29892684
-0.15048925
-0.30836417
-0.12212203
-0.31604184
-0.043642159
-0.33522815
0.021436554
-0.37232255
0.039028224
-0.41413137
0.028586106
-0.45334451
0.0064778286
-0.48718849
-0.013617536
-0.51607352
-0.023294704
-0.54407862
-0.022821463
-0.57554247
-0.017275981
-0.6122399
-0.011350254
-0.65395983
-0.0069736481
-0.69986445
-0.0042760332
-0.7493193
-0.0028065368
-0.80205444
-0.0020564181
-0.85810239
-0.0016517602
-0.91769546
-0.0013835153
-0.98117838
-0.0011585784
-1.0488814
-0.00093992007
-1.1212141
-0.00072530385
-1.1985008
-0.00050000526
-1.2811829
-0.00026068913
-1.3696162
0.040399378
-0.2571103
-0.097902226
-0.27390566
-0.16616877
-0.28324732
-0.13926193
-0.29122426
-0.051746837
-0.30793717
0.030334604
-0.3441262
0.053452504
-0.38674683
0.041037045
-0.42658231
0.013147809
-0.46001449
-0.014221373
-0.48658465
-0.028732115
-0.51063611
-0.028916216
-0.53798387
-0.021693598
-0.57112485
-0.013752674
-0.60983748
-0.0079183191
-0.65301516
-0.0044143787
-0.6997261
-0.0026210686
-0.74950477
-0.0018331473
-0.80227771
-0.0015128158
-0.85824133
-0.0013498759
-0.9177291
-0.0012127425
-0.98112422
-0.0010569329
-1.0487644
-0.00088133985
-1.121058
-0.00069465173
-1.1983061
-0.0004850967
-1.2809585
-0.0002535921
-1.3693626
0.044708186
-0.23422437
-0.10504828
-0.24996424
-0.18097599
-0.25909844
-0.15491325
-0.267596
-0.060265461
-0.28270564
0.039822836
-0.3174254
0.069995317
-0.36066901
0.055627898
-0.40133769
0.021274778
-0.43470927
-0.014837745
-0.45939811
-0.035711378
-0.47960539
-0.036831012
-0.50272132
-0.027413731
-0.53226373
-0.016804945
-0.56807258
-0.00901755
-0.60873825
-0.0044299077
-0.65299963
-0.0021995981
-0.70014757
-0.001367144
-0.74997077
-0.0011788837
-0.80261164
-0.0011803934
-0.85841081
-0.0011754616
-0.91776638
-0.0011136799
-0.98106747
-0.00099381644
-1.0486519
-0.00084588676
-1.1209068
-0.0006754238
-1.1981158
-0.00047564858
-1.2807365
-0.00024925681
-1.3691134
0.048557133
-0.21303421
-0.11160945
-0.22766321
-0.19478263
-0.2361576
-0.16934561
-0.24466609
-0.068699034
-0.25916243
0.049338218
-0.29222102
0.088342669
-0.33577275
0.072301785
-0.3773429
0.030872555
-0.41093546
-0.015708187
-0.43383883
-0.04468574
-0.45042375
-0.046951619
-0.46948478
-0.034710247
-0.4954248
-0.020637783
-0.5284309
-0.010294358
-0.56679577
-0.0042745457
-0.60889361
-0.0014627897
-0.65373644
-0.00057448613
-0.70094023
-0.00058007193
-0.75056958
-0.00082891626
-0.80296312
-0.0010244376
-0.85856183
-0.0010971165
-0.91778294
-0.0010604
-0.98100088
-0.00095657977
-1.0485412
-0.00082548213
-1.1207567
-0.00066362361
-1.1979278
-0.00046969754
-1.280516
-0.00024666526
-1.3688667
0.05201123
-0.19361513
-0.11750152
-0.20714214
-0.20756739
-0.21487845
-0.18231665
-0.22318655
-0.076205734
-0.23715939
0.058663438
-0.26848765
0.10819123
-0.31206958
0.091197302
-0.35466827
0.042522728
-0.38899307
-0.016578147
-0.4100655
-0.056031345
-0.42249323
-0.059619499
-0.43775587
-0.04383876
-0.46035627
-0.025374116
-0.49068847
-0.011758012
-0.52696724
-0.0038895294
-0.56718078
-0.00031479703
-0.6100416
0.00064907696
-0.65496
0.00037379243
-0.70189409
-0.00023234978
-0.75116615
-0.00072688162
-0.80326068
-0.0009965946
-0.85866236
-0.0010771266
-0.91776621
-0.001031589
-0.98092588
-0.00093717414
-1.0484295
-0.00081411445
-1.1206062
-0.00065605491
-1.1977414
-0.00046515516
-1.2802975
-0.00024448813
-1.3686222
0.055116901
-0.1759202
-0.12267773
-0.18843892
-0.21935163
-0.1953579
-0.19391294
-0.20328217
-0.082510501
-0.21688179
0.067867358
-0.24636331
0.12884872
-0.28914514
0.11230466
-0.33317694
0.057075007
-0.36922055
-0.016066694
-0.38950453
-0.069175168
-0.39692168
-0.0749447
-0.40716803
-0.054889723
-0.42670491
-0.031096047
-0.45463434
-0.013392213
-0.48905427
-0.0032016731
-0.5276551
0.0013548559
-0.56885044
0.0024278315
-0.61182035
0.0017953581
-0.65638157
0.00069105446
-0.7028175
-0.00023633301
-0.7516567
-0.00079753978
-0.80345973
-0.0010436466
-0.85869584
-0.0010817351
-0.91771607
-0.0010233619
-0.98083969
-0.00093166611
-1.048312
-0.00080728437
-1.120455
-0.00064961863
-1.197557
-0.00046044057
-1.2800816
-0.00024190069
-1.3683803
0.057149228
-0.18769576
-0.12716473
-0.1714332
-0.23017594
-0.17761461
-0.20424652
-0.18502432
-0.087612037
-0.19818063
0.076960783
-0.22597521
0.14961951
-0.2671341
0.134083
-0.31092348
0.073502522
-0.34960445
-0.012817948
-0.37246929
-0.082641452
-0.37603824
-0.092633803
-0.37923258
-0.067826357
-0.39423139
-0.037741323
-0.42005963
-0.015142296
-0.45288425
-0.002116699
-0.49013924
0.003668602
-0.52996885
0.0049018154
-0.57132442
0.0038171236
-0.61384212
0.0020444689
-0.65773498
0.00050852929
-0.70356236
-0.00047685994
-0.75197738
-0.00096241525
-0.80354096
-0.0011163236
-0.85866125
-0.001101168
-0.91763826
-0.0010286042
-0.98074275
-0.00092832374
-1.048191
-0.00079891833
-1.1203057
-0.0006421489
-1.1973753
-0.00045489477
-1.2798686
-0.00023868415
-1.3681416
0.059525716
-0.18181631
-0.13100114
-0.18385935
-0.24003548
-0.16157366
-0.21340814
-0.16845299
-0.091615648
-0.18102071
0.085929399
-0.20714925
0.16983414
-0.24618985
0.15584099
-0.28889209
0.090063554
-0.32748451
-0.007124223
-0.35529818
-0.095656816
-0.35945393
-0.11230873
-0.35636332
-0.083198985
-0.36385995
-0.045187954
-0.38678476
-0.016879247
-0.41832268
-0.00051817613
-0.45448278
0.0067540258
-0.49322466
0.0082196865
-0.53328672
0.0065906613
-0.57409796
0.0039523867
-0.61575004
0.0015863921
-0.65881284
-2.3100837e-06
-0.70403691
-0.0008358784
-0.75210391
-0.0011506659
-0.80350662
-0.0011894557
-0.85857296
-0.0011241231
-0.91754274
-0.0010301708
-0.9806409
-0.00091728634
-1.0480726
-0.00078802349
-1.1201598
-0.00063343884
-1.1971967
-0.00044839521
-1.2796589
-0.00023488964
-1.3679067
0.062086778
-0.17565047
-0.13380871
-0.17900875
-0.24952721
-0.17436761
-0.22145295
-0.15352885
-0.094716117
-0.16535252
0.094623986
-0.18971529
0.18905159
-0.22636669
0.17693787
-0.26728673
0.10635713
-0.30518566
-0.0003785937
-0.33423014
-0.10774325
-0.34321174
-0.13405978
-0.33770287
-0.10217039
-0.33739191
-0.054085374
-0.35496253
-0.018398825
-0.38526518
0.0017311504
-0.42057201
0.01073895
-0.4584677
0.012530701
-0.49753568
0.010280208
-0.53697626
0.0065602995
-0.57670587
0.0030960354
-0.61725968
0.00066966352
-0.65948482
-0.00066333463
-0.70420945
-0.0012091565
-0.75204542
-0.0013169221
-0.80337915
-0.0012459583
-0.85845112
-0.0011326507
-0.91744026
-0.0010171385
-0.98054105
-0.00090185673
-1.0479588
-0.00077583885
-1.1200174
-0.00062350659
-1.1970216
-0.00044090233
-1.2794529
-0.00023065396
-1.3676761
0.064818869
-0.16938671
-0.13570305
-0.17375613
-0.25799908
-0.17053688
-0.23107519
-0.16474537
-0.097055371
-0.1511896
0.10289583
-0.17362436
0.20710351
-0.20776722
0.19679019
-0.24621901
0.12222903
-0.28315863
0.0053293598
-0.31089362
-0.11889381
-0.32307957
-0.15776195
-0.31950958
-0.12509563
-0.31477764
-0.06619992
-0.32527736
-0.019756983
-0.35360437
0.0048006558
-0.38833469
0.015743571
-0.42557663
0.017974937
-0.46391194
0.015053567
-0.50230904
0.010032139
-0.5404481
0.0051567361
-0.57876657
0.0015970286
-0.61818705
-0.00044216239
-0.65970599
-0.0013213704
-0.70409724
-0.0015215712
-0.75184077
-0.001429593
-0.80319552
-0.0012655781
-0.8583182
-0.0011161678
-0.91734123
-0.00099366153
-0.98044924
-0.00088323898
-1.0478514
-0.00076092816
-1.11988
-0.00061185874
-1.1968507
-0.00043260188
-1.2792509
-0.00022613824
-1.36745
0.067696644
-0.16341994
-0.1366787
-0.16841106
-0.26520337
-0.16655184
-0.23955049
-0.16206158
-0.10477835
-0.15702239
0.11067552
-0.15896929
0.22389198
-0.19041283
0.21515594
-0.22613297
0.13725983
-0.26124981
0.0095239557
-0.28735323
-0.1306019
-0.29918553
-0.18139591
-0.29944561
-0.15061908
-0.29398613
-0.082580443
-0.29839711
-0.021691442
-0.3233429
0.0088933061
-0.35769702
0.021868122
-0.39445924
0.024673312
-0.43227501
0.021072659
-0.46993103
0.014544183
-0.50682108
0.0079101735
-0.54320154
0.0028518854
-0.58002143
-0.00016851275
-0.6184607
-0.0015244133
-0.65950295
-0.0018570215
-0.70376179
-0.0017252777
-0.75154509
-0.0014699692
-0.80299113
-0.0012429806
-0.85819138
-0.0010795252
-0.91725537
-0.00096289432
-0.98036959
-0.00086017533
-1.0477521
-0.00074372649
-1.1197481
-0.00059924489
-1.196684
-0.0004238665
-1.2790532
-0.0002215282
-1.3672284
0.07066715
-0.15794543
-0.13677808
-0.16332056
-0.2709632
-0.16265123
-0.24678219
-0.15932014
-0.11163041
-0.15520953
0.11064565
-0.15699252
0.23936616
-0.17444347
0.23196459
-0.20722148
0.15114589
-0.24001903
0.012948628
-0.26467448
-0.14288921
-0.27506592
-0.20302865
-0.27755279
-0.17585231
-0.27421238
-0.10186337
-0.2747032
-0.025339819
-0.29474874
0.014182854
-0.32863245
0.029221026
-0.36504992
0.03270995
-0.40249588
0.028478241
-0.43968059
0.020277223
-0.47566407
0.0115202
-0.51043111
0.0045278354
-0.54487749
0.00017239426
-0.58036234
-0.0018620312
-0.61812308
-0.0023931432
-0.65896683
-0.0022024386
-0.70328463
-0.0018022053
-0.75121285
-0.0014386346
-0.80279547
-0.001185142
-0.85808577
-0.0010287077
-0.91718956
-0.000926262
-0.9803035
-0.00083461206
-1.0476612
-0.00072574471
-1.1196216
-0.00058628072
-1.1965216
-0.00041504457
-1.2788597
-0.00021698448
-1.3670114
0.073698701
-0.15305746
-0.13605235
-0.15867117
-0.27530432
-0.15897943
-0.25274665
-0.15668677
-0.11759305
-0.15335749
0.11084995
-0.15541383
0.24940117
-0.16702752
0.24708935
-0.18956823
0.1636704
-0.21974599
0.015636358
-0.24270675
-0.15502584
-0.25253785
-0.22268028
-0.25541428
-0.19848029
-0.25492481
-0.12193061
-0.25414513
-0.0312786
-0.26876442
0.020346511
-0.30091239
0.037914866
-0.33732629
0.042113945
-0.37445392
0.03736881
-0.41138645
0.027401037
-0.4468044
0.016169543
-0.48031341
0.0067444976
-0.51264777
0.00060300506
-0.5453081
-0.0023874224
-0.57983695
-0.0032159113
-0.61730031
-0.0029490466
-0.65822022
-0.0023357376
-0.7027511
-0.0017577727
-0.75089371
-0.001346606
-0.80263401
-0.0011013562
-0.85801312
-0.00096829162
-0.91714753
-0.00088632923
-0.98025178
-0.00080825041
-1.0475787
-0.00070747973
-1.1195004
-0.00057335739
-1.1963633
-0.00040642943
-1.2786702
-0.00021266689
-1.3667988
0.076771782
-0.14886463
-0.13455817
-0.15455163
-0.27827921
-0.15569628
-0.25744037
-0.15428572
-0.12262422
-0.1516556
0.1112396
-0.15374714
0.25934741
-0.16536007
0.26069514
-0.18063331
0.1747526
-0.20065044
0.017581509
-0.22169114
-0.16680594
-0.23092666
-0.2412224
-0.23399574
-0.21867855
-0.23521603
-0.1415368
-0.23531862
-0.039729937
-0.2456938
0.026515826
-0.27493374
0.048148432
-0.31114596
0.052825625
-0.34803797
0.04779221
-0.38487732
0.036063052
-0.42004846
0.022057039
-0.4526919
0.0096498196
-0.48321873
0.0011595001
-0.51320427
-0.0031588373
-0.54453669
-0.0044320157
-0.57862084
-0.0040759112
-0.61617345
-0.0031643409
-0.65739162
-0.0022708258
-0.70223804
-0.0016122597
-0.75062806
-0.0012103631
-0.802525
-0.0010018919
-0.85797952
-0.00090374979
-0.91713011
-0.00084595683
-0.98021408
-0.00078229404
-1.0475039
-0.0006897895
-1.119384
-0.00056102191
-1.1962087
-0.00039837577
-1.2784845
-0.000208698
-1.3665901
0.07990412
-0.14554456
-0.13223933
-0.15118348
-0.27989017
-0.15294068
-0.2608821
-0.15225455
-0.12665174
-0.1502582
0.11182938
-0.15224538
0.26890979
-0.16330952
0.27383054
-0.17849547
0.19018727
-0.19606798
0.019070997
-0.20213993
-0.17790412
-0.21059296
-0.25860477
-0.21354429
-0.23712256
-0.21555173
-0.15963183
-0.217121
-0.050185659
-0.2248629
0.031690282
-0.25086825
0.059698236
-0.28648354
0.064845923
-0.32316626
0.059726762
-0.35997252
0.046383863
-0.39519813
0.029392248
-0.42738367
0.013428872
-0.45647095
0.0019042693
-0.4839635
-0.004235291
-0.51212781
-0.0061703281
-0.54279837
-0.0057203618
-0.57697639
-0.0044054734
-0.61493231
-0.0030669886
-0.65659545
-0.0020440748
-0.70180623
-0.0013951698
-0.75044325
-0.0010491693
-0.80247772
-0.00089723754
-0.85798603
-0.00084010413
-0.91713596
-0.00080766981
-0.9801887
-0.00075821673
-1.0474355
-0.00067356688
-1.1192715
-0.00054982167
-1.1960573
-0.00039108213
-1.2783021
-0.00020514981
-1.3663849
-0.1432313
0.083094461
-0.12910353
-0.14868036
-0.28022034
-0.1508533
-0.26313178
-0.150691
-0.12971669
-0.1491896
0.11279939
-0.15122821
0.27782296
-0.16115856
0.28623151
-0.17571049
0.20503422
-0.19334243
0.031806731
-0.20880371
-0.18804986
-0.19199418
-0.27469502
-0.1945027
-0.25381305
-0.19685379
-0.17581066
-0.1993729
-0.061304367
-0.20600229
0.035518025
-0.22869065
0.072111217
-0.26328123
0.078125712
-0.29976333
0.073091724
-0.33653122
0.058453642
-0.3720423
0.03839052
-0.4041964
0.018308185
-0.43226298
0.0029360991
-0.45750278
-0.0056792082
-0.48251958
-0.0085856743
-0.50971246
-0.0080503545
-0.54046838
-0.0062025218
-0.57517934
-0.0042556432
-0.61374366
-0.0027186885
-0.65592084
-0.0017048055
-0.70149659
-0.0011383623
-0.75035406
-0.00088028831
-0.80249467
-0.00079540432
-0.85803073
-0.00078090813
-0.91716272
-0.00077300671
-0.98017391
-0.00073690544
-1.0473721
-0.00065928611
-1.119162
-0.00053993479
-1.1959084
-0.00038468875
-1.2781226
-0.00020205944
-1.3661829
-0.14704698
-0.12528785
-0.14196901
0.086349462
-0.27942585
-0.14947485
-0.26431753
-0.14966755
-0.13193361
-0.14847407
0.1141947
-0.15058491
0.28596025
-0.15936549
0.29753281
-0.17245986
0.21896294
-0.1896392
0.044469241
-0.20600494
-0.18591711
-0.21093646
-0.28963588
-0.17705333
-0.26874753
-0.17956823
-0.19010172
-0.18256273
-0.071962998
-0.18871426
0.037986778
-0.20847105
0.084949231
-0.24152866
0.092574224
-0.27772974
0.087740953
-0.31441256
0.072290272
-0.35036785
0.049261053
-0.38291284
0.024557676
-0.41044589
0.0043910642
-0.43371795
-0.0075635619
-0.45561842
-0.011858316
-0.47924694
-0.01126978
-0.50649304
-0.0087276561
-0.53794325
-0.005966516
-0.57346847
-0.0037276676
-0.61273468
-0.002198497
-0.65542715
-0.0013037577
-0.7013312
-0.00086948101
-0.75036487
-0.00071649924
-0.80257358
-0.00070077927
-0.85811086
-0.00072798506
-0.91720774
-0.00074300613
-0.98016781
-0.00071863254
-1.0473128
-0.00064727823
-1.1190547
-0.0005316209
-1.1957615
-0.00037927492
-1.2779454
-0.00019943204
-1.3659834
-0.14876176
-0.27771107
-0.14640724
-0.12084962
-0.1419181
0.089494424
-0.26471346
-0.14907892
-0.13333267
-0.14826849
0.11593143
-0.1502108
0.29334727
-0.15797193
0.30728019
-0.16911288
0.23154026
-0.18503717
0.05649137
-0.20166133
-0.18243799
-0.20948406
-0.29939095
-0.20118139
-0.28207295
-0.16372791
-0.20265947
-0.16701048
-0.081632977
-0.17289275
0.039426069
-0.19015356
0.097757524
-0.22127934
0.10803768
-0.25699212
0.10351283
-0.29350162
0.087841021
-0.32996331
0.062196867
-0.36330366
0.032483738
-0.3908389
0.0064587603
-0.41251359
-0.0099213401
-0.43136017
-0.016192963
-0.45128378
-0.015624062
-0.47489266
-0.012184997
-0.5030357
-0.0083502061
-0.53555956
-0.0051760354
-0.5720201
-0.0029448779
-0.6119883
-0.0015854934
-0.65514541
-0.00088451891
-0.70131616
-0.00060948272
-0.75047188
-0.00056522454
-0.80270913
-0.00061704559
-0.8582218
-0.00068348128
-0.91726727
-0.00071888724
-0.98016756
-0.00070429202
-1.0472558
-0.00063786165
-1.1189484
-0.00052495743
-1.1956158
-0.00037482277
-1.27777
-0.00019723207
-1.3657862
-0.14920818
-0.26426704
-0.14927101
-0.27484731
-0.14654633
-0.1162214
-0.14265338
0.092557246
-0.13378183
-0.14862976
0.11802164
-0.1503587
0.29999878
-0.15686231
0.31530961
-0.16600135
0.24244267
-0.18001529
0.067556928
-0.19610273
-0.17815471
-0.20594461
-0.30793798
-0.20093702
-0.29688495
-0.18636939
-0.21371785
-0.15266953
-0.090162113
-0.15848134
0.040139279
-0.17360596
0.11020212
-0.20259815
0.12424731
-0.23748897
0.12022949
-0.27370878
0.10497132
-0.31063192
0.077332272
-0.34509872
0.042421718
-0.37324164
0.0093972095
-0.39377735
-0.012789193
-0.40964574
-0.021848446
-0.42570469
-0.021405262
-0.44550258
-0.016813018
-0.47026464
-0.011577786
-0.49980812
-0.0071794156
-0.53355618
-0.0040195512
-0.57094543
-0.002028083
-0.61154571
-0.00094695147
-0.65508298
-0.00048045362
-0.70144519
-0.00037125719
-0.75066585
-0.00043260828
-0.80289357
-0.00054863081
-0.85835665
-0.00064978453
-0.91733637
-0.00070153952
-0.98017031
-0.00069431778
-1.0471993
-0.00063111534
-1.1188423
-0.00051987186
-1.1954707
-0.00037127242
-1.2775959
-0.00019541654
-1.3655908
-0.14993713
-0.13305288
-0.15091536
-0.26262269
-0.1503358
-0.27105784
-0.1474412
-0.11143358
-0.14424406
0.095320828
0.12069595
-0.15130407
0.30582274
-0.15618267
0.3217509
-0.16330359
0.25129613
-0.17485481
0.077425968
-0.18988433
-0.17295618
-0.20130127
-0.31509836
-0.19878423
-0.31027637
-0.1875456
-0.23285529
-0.16723195
-0.097602263
-0.14522938
0.040406771
-0.15874883
0.1220187
-0.18542254
0.14085451
-0.21920535
0.13765313
-0.2549126
0.12341521
-0.29215267
0.094546101
-0.32784575
0.054538803
-0.3572158
0.01348251
-0.37732694
-0.016155101
-0.39041144
-0.029112404
-0.40238178
-0.028964688
-0.41814526
-0.022885276
-0.43943032
-0.015836448
-0.46600598
-0.0098606954
-0.49712684
-0.0055010629
-0.53207466
-0.0026770407
-0.57029647
-0.0010784959
-0.61141416
-0.0003343251
-0.65522911
-0.00011303511
-0.70170341
-0.00016405725
-0.7509344
-0.00032541325
-0.80311679
-0.00049820348
-0.85850823
-0.0006272375
-0.91741067
-0.00069121286
-0.98017341
-0.00068859164
-1.0471418
-0.00062683514
-1.1187353
-0.00051626727
-1.1953258
-0.0003685189
-1.2774228
-0.00019391814
-1.3653969
-0.15312024
0.12387906
-0.15255706
-0.13141118
-0.1531811
-0.25977738
-0.15210855
-0.26639049
-0.14899025
-0.10668739
-0.14651221
0.097597163
0.31063611
-0.15611744
0.32665411
-0.16108589
0.25790553
-0.16991299
0.085707633
-0.18313648
-0.16731809
-0.19552241
-0.32082665
-0.19557298
-0.32204201
-0.18701859
-0.25043341
-0.16996748
-0.11918758
-0.14564664
0.04059436
-0.14541697
0.13295954
-0.16968968
0.15755281
-0.20212084
0.15546865
-0.23702087
0.14266801
-0.2741654
0.11324339
-0.31084996
0.06840603
-0.34171297
0.018517488
-0.36225078
-0.020164995
-0.37331705
-0.038294224
-0.38122962
-0.038710017
-0.39263645
-0.0307143
-0.41031624
-0.021322713
-0.43394405
-0.013343905
-0.46252277
-0.0074640025
-0.4951639
-0.0035759526
-0.53117575
-0.0012973852
-0.57007758
-0.00017264
-0.61157585
0.00021832796
-0.65556047
0.00020379576
-0.70207126
2.9224069e-06
-0.75126274
-0.00024731284
-0.80336768
-0.00046598566
-0.85866948
-0.00061571775
-0.91748617
-0.00068751465
-0.98017449
-0.00068675048
-1.0470819
-0.00062487386
-1.1186267
-0.00051394726
-1.1951803
-0.00036642416
-1.2772503
-0.000192668
-1.3652042
-0.15673241
0.31424828
-0.15546506
0.12678706
-0.15608919
-0.12850309
-0.15626066
-0.25562527
-0.15461158
-0.26076916
-0.15113702
-0.10206258
-0.14937651
0.099399145
0.32996755
-0.15943087
0.26226238
-0.16544274
0.092113299
-0.17631865
-0.16166516
-0.18878941
-0.32512914
-0.19121992
-0.33219161
-0.18542339
-0.26644259
-0.1710094
-0.13953316
-0.1496219
0.024147397
-0.12919968
0.1434458
-0.15590323
0.17398395
-0.18612083
0.17332907
-0.21998126
0.16211199
-0.25646485
0.13227149
-0.2931935
0.082725948
-0.32516987
0.023426993
-0.34662248
-0.025907022
-0.35650875
-0.04999683
-0.36161444
-0.051124033
-0.3688156
-0.040652356
-0.3826984
-0.028233269
-0.40340568
-0.017741906
-0.42954605
-0.0099737179
-0.46001305
-0.0047596328
-0.49398022
-0.0016160033
-0.53085713
8.785966e-06
-0.57025901
0.00063848435
-0.61199601
0.00069137722
-0.65604805
0.00045883415
-0.70252717
0.00012424239
-0.75163429
-0.00019827581
-0.80363539
-0.00045125847
-0.85883394
-0.00061457082
-0.91755911
-0.00068987007
-0.98017137
-0.00068846892
-1.0470183
-0.00062490121
-1.1185157
-0.00051268003
-1.1950341
-0.00036484118
-1.2770782
-0.00019159406
-1.3650126
-0.15843899
0.33167412
-0.15737176
0.31615498
-0.15909201
0.12978988
-0.1604679
-0.12429585
-0.16014334
-0.2500935
-0.15785508
-0.2540511
-0.15397387
-0.097465219
-0.15270377
0.10070586
0.26445069
-0.16161918
0.096449847
-0.16977928
-0.15622431
-0.1817595
-0.32774923
-0.18616932
-0.34050148
-0.18291005
-0.28073438
-0.1711316
-0.15837294
-0.15216963
0.0070284234
-0.13250292
0.14084994
-0.12660381
0.18991036
-0.17182964
0.19087187
-0.20366362
0.18114509
-0.23901436
0.15078053
-0.27497389
0.096157027
-0.30662458
0.027454664
-0.32919754
-0.035499132
-0.33703037
-0.065728109
-0.34077747
-0.066814768
-0.34592371
-0.053107036
-0.35636092
-0.036761645
-0.37417002
-0.023141831
-0.39800576
-0.01307784
-0.42644193
-0.0062465517
-0.45852613
-0.0020383708
-0.49355785
0.0002220644
-0.53107041
0.0011698408
-0.57079036
0.001327976
-0.6126326
0.0010711786
-0.6566604
0.00064414347
-0.70304708
0.00020017122
-0.75203274
-0.00017672782
-0.80390992
-0.00045275167
-0.85899576
-0.00062276679
-0.91762621
-0.00069758045
-0.98016226
-0.00069313672
-1.0469501
-0.0006264806
-1.1184019
-0.00051220932
-1.1948867
-0.0003636153
-1.2769061
-0.00019062443
-1.364822
-0.15853899
0.2645507
-0.15739464
0.33169701
-0.15962593
0.3166889
-0.16335328
0.13267525
-0.16550021
-0.11893898
-0.16473902
-0.24320957
-0.16167876
-0.24634622
-0.15731562
-0.092853374
-0.15643074
0.10141958
0.098594389
-0.16376373
-0.15124704
-0.17475656
-0.32874478
-0.18076396
-0.34687591
-0.17979489
-0.2931662
-0.17047822
-0.17556048
-0.15394406
-0.0097994225
-0.13534178
0.13709757
-0.12875056
0.19776541
-0.13445886
0.20780671
-0.18876448
0.1993558
-0.22187434
0.16837546
-0.2566093
0.10871175
-0.28752861
0.030697026
-0.30986695
-0.048977024
-0.31571965
-0.086919811
-0.31583867
-0.086325644
-0.3212666
-0.068299279
-0.33073147
-0.047091902
-0.34603067
-0.029592553
-0.3677193
-0.016792643
-0.39429095
-0.0080383948
-0.42465009
-0.00254985
-0.45801465
0.0004904806
-0.49382627
0.0018426504
-0.53174322
0.0021471721
-0.57160956
0.0018759413
-0.61343737
0.0013466028
-0.65736286
0.00076025785
-0.70360716
0.00023389269
-0.75244336
-0.00018031754
-0.80418235
-0.00046865542
-0.85914987
-0.00063906177
-0.91768473
-0.00070972578
-0.98014567
-0.00070012507
-1.0468765
-0.00062926079
-1.1182849
-0.00051229154
-1.194738
-0.00036259776
-1.2767342