/*--------------------------------*- C++ -*----------------------------------*\
| =========                 |                                                 |
| \\      /  F ield         | OpenFOAM: The Open Source CFD Toolbox           |
|  \\    /   O peration     | Version:  5.0                                   |
|   \\  /    A nd           | Web:      www.OpenFOAM.org                      |
|    \\/     M anipulation  |                                                 |
\*---------------------------------------------------------------------------*/
FoamFile
{
    version     2.0;
    format      ascii;
    class       surfaceScalarField;
    location    "160";
    object      phi_0;
}
// * * * * * * * * * * * * * * * * * * * * * * * * * * * * * * * * * * * * * //

dimensions      [0 3 -1 0 0 0 0];

internalField   nonuniform List<scalar> 
18180
(
-0.0019626985
-1.3908112
-0.0038274057
-1.3007736
-0.0019091907
-1.388902
-0.0055850017
-1.2167059
-0.0037236692
-1.2989591
-0.0018095124
-1.3870925
-0.0072619628
-1.1381865
-0.005449124
-1.2149805
-0.0035290105
-1.2972396
-0.0016794556
-1.3854131
-0.008841983
-1.0648262
-0.0071092304
-1.1365264
-0.0051704246
-1.213339
-0.0032746898
-1.2956444
-0.0015461071
-1.3838669
-0.010311861
-0.9962854
-0.0087150733
-1.0632203
-0.0067573802
-1.1349395
-0.0047961424
-1.2118176
-0.0030091158
-1.2941814
-0.0014194993
-1.3824474
-0.011639753
-0.93224396
-0.010279345
-0.99472113
-0.0083123686
-1.0616654
-0.0062658082
-1.1334698
-0.004398101
-1.2104286
-0.0027551138
-1.2928457
-0.0013116728
-1.3811358
-0.01279897
-0.87242302
-0.011813179
-0.93071013
-0.0098657654
-0.99316773
-0.0077057855
-1.0602254
-0.005725938
-1.132142
-0.0040154774
-1.2091682
-0.0025390413
-1.2916184
-0.0012227989
-1.379913
-0.01377625
-0.81655763
-0.013333438
-0.87090277
-0.011465354
-0.92911054
-0.0091499312
-0.99172359
-0.0070041446
-1.0589472
-0.0052040921
-1.1309534
-0.0036927875
-1.2080145
-0.0023645683
-1.2904766
-0.001147977
-1.378765
-0.014502264
-0.76443379
-0.014848629
-0.81504244
-0.013177612
-0.86919051
-0.010652932
-0.92760754
-0.0082488861
-0.99047885
-0.0063214903
-1.0578298
-0.0047705808
-1.1298756
-0.0034390651
-1.20694
-0.0022227567
-1.2894018
-0.0010800579
-1.3776849
-0.014882895
-0.71579596
-0.016444726
-0.76283769
-0.015120022
-0.81310003
-0.012277779
-0.86756566
-0.0094820844
-0.92637434
-0.0073624505
-0.98943789
-0.0057688774
-1.0568315
-0.0044439299
-1.1288707
-0.0032393993
-1.2059234
-0.0020970684
-1.2883848
-0.0010130159
-1.3766719
-0.014875715
-0.67050669
-0.018291131
-0.71394955
-0.017446778
-0.76051094
-0.014111482
-0.81126632
-0.010725289
-0.86632245
-0.0083151773
-0.92542161
-0.0066696987
-0.98853706
-0.0053772551
-1.0558982
-0.0041999678
-1.1279101
-0.0030646713
-1.2049558
-0.0019720421
-1.2874258
-0.00094235056
-1.3757296
-0.014405112
-0.62843489
-0.020545127
-0.6682527
-0.020199801
-0.71119653
-0.016201071
-0.75842135
-0.011990223
-0.81000139
-0.009160896
-0.86547673
-0.0074419412
-0.92464937
-0.0062205726
-0.98769375
-0.005105854
-1.0549923
-0.0039909366
-1.1269839
-0.0028886235
-1.2040392
-0.0018367142
-1.2865314
-0.00086539547
-1.3748642
-0.013424467
-0.58933104
-0.023324067
-0.62565595
-0.023485304
-0.6649672
-0.01862711
-0.70877049
-0.013274666
-0.7571369
-0.0098580046
-0.80930428
-0.0080397902
-0.86487889
-0.0069407792
-0.92392916
-0.0059461719
-0.98685343
-0.004881665
-1.0541015
-0.0037758671
-1.1260966
-0.0026936392
-1.2031822
-0.001686089
-1.2857107
-0.00078215376
-1.374082
-0.011902691
-0.55295769
-0.026712491
-0.58594261
-0.027572341
-0.62156891
-0.021553016
-0.66204129
-0.014618537
-0.70742662
-0.010313245
-0.75668166
-0.0083910538
-0.80895302
-0.0074883418
-0.86433132
-0.0066961096
-0.92317922
-0.0057383661
-0.98599673
-0.0046475612
-1.0532298
-0.0035284103
-1.1252619
-0.0024719005
-1.2023964
-0.001521488
-1.2849714
-0.00069560252
-1.3733864
-0.0098863048
-0.51898992
-0.030819466
-0.54885072
-0.032722924
-0.58079203
-0.025139053
-0.61798287
-0.016051016
-0.66060881
-0.010463194
-0.70727667
-0.0083633976
-0.75670932
-0.0077682769
-0.80867308
-0.007308021
-0.86371941
-0.0065550877
-0.9223625
-0.0055179526
-0.98512634
-0.0043624412
-1.0523958
-0.0032374592
-1.1244963
-0.0022258775
-1.201692
-0.0013495752
-1.2843174
-0.00061050971
-1.3727759
-0.0073506032
-0.48718532
-0.035751835
-0.51405755
-0.039173635
-0.54240001
-0.029558695
-0.57637239
-0.017601406
-0.61643248
-0.010232432
-0.66083957
-0.0078068605
-0.70783321
-0.0076980078
-0.75677959
-0.007709533
-0.80827157
-0.0073133265
-0.86296117
-0.0064094833
-0.92147097
-0.0052200027
-0.98426877
-0.004005028
-1.0516282
-0.002906979
-1.1238152
-0.0019667118
-1.2010749
-0.00117994
-1.283748
-0.00053151905
-1.3722444
-0.0041134335
-0.457839
-0.04158531
-0.48135184
-0.047121873
-0.50610931
-0.034972906
-0.5369858
-0.019310725
-0.57466307
-0.0095144979
-0.61715042
-0.0065836799
-0.66206275
-0.0071203617
-0.70841086
-0.007941984
-0.75654714
-0.0080339347
-0.80755096
-0.007356383
-0.86201427
-0.0061438287
-0.92054715
-0.0048040856
-0.98346972
-0.0035814088
-1.0509538
-0.0025535854
-1.1232283
-0.0017099984
-1.2005448
-0.0010221116
-1.2832574
-0.00046196668
-1.3717824
0.00045615987
-0.43171845
-0.048100953
-0.45132336
-0.056641212
-0.47183251
-0.041477447
-0.49960477
-0.021216115
-0.53508041
-0.0081875106
-0.57599006
-0.0045094354
-0.61922466
-0.0058519855
-0.66333113
-0.0079267619
-0.70842608
-0.0087617438
-0.75581933
-0.008439892
-0.80646746
-0.007199924
-0.86095818
-0.0056780043
-0.91967323
-0.0042744041
-0.98277672
-0.0031192957
-1.0503881
-0.0022008727
-1.1227374
-0.0014709596
-1.200096
-0.00088327762
-1.2828361
-0.00040384672
-1.3713786
0.0065053268
-0.40826637
-0.0548215
-0.4249979
-0.067840772
-0.4401238
-0.049203336
-0.46410662
-0.02331167
-0.49750922
-0.006114538
-0.53715338
-0.0013713928
-0.5791281
-0.0036992119
-0.62137744
-0.0074784796
-0.66377941
-0.00950212
-0.7076857
-0.0096942458
-0.75456497
-0.0084727248
-0.80519465
-0.0066911089
-0.85994507
-0.0050197603
-0.91892787
-0.003677137
-0.98221888
-0.0026541766
-1.0499348
-0.0018719987
-1.1223364
-0.0012609882
-1.1997183
-0.00076740831
-1.2824725
-0.00035806394
-1.3710205
0.013482916
-0.38421165
-0.060952998
-0.40213488
-0.081067465
-0.41177121
-0.058639011
-0.43068812
-0.025623751
-0.46179454
-0.0031710169
-0.50045274
0.0030617723
-0.54158654
-0.00043225137
-0.58239506
-0.006438468
-0.62241745
-0.010251625
-0.66302991
-0.011201327
-0.70617862
-0.010026122
-0.75301158
-0.0079128716
-0.80397289
-0.0058628614
-0.85910197
-0.0042470601
-0.91835795
-0.0030714485
-0.98180161
-0.0022208771
-1.0495859
-0.0015844651
-1.1220129
-0.0010863198
-1.1993994
-0.0006754689
-1.2821551
-0.00032419457
-1.3706963
0.02081261
-0.35892404
-0.065819431
-0.37934521
-0.096908436
-0.38629391
-0.070706295
-0.39970393
-0.028518261
-0.42779361
0.00077302282
-0.46573858
0.0090300463
-0.50642101
0.004211064
-0.54622986
-0.0046334507
-0.58420008
-0.010976956
-0.62169212
-0.013099731
-0.6611315
-0.012009812
-0.70419493
-0.0094318875
-0.75149256
-0.006853375
-0.80298238
-0.0048505429
-0.85849849
-0.0034569794
-0.91797242
-0.0025103111
-0.98151218
-0.001845833
-1.0493246
-0.0013480621
-1.1217512
-0.00094842085
-1.1991264
-0.0006060324
-1.2818733
-0.00030020191
-1.3703961
0.027479949
-0.33302525
-0.07101212
-0.35373135
-0.1144805
-0.36177315
-0.086245326
-0.37075487
-0.032844159
-0.39537803
0.0058053759
-0.43282597
0.016743827
-0.47345236
0.010492162
-0.51270211
-0.0018658074
-0.5489975
-0.011643911
-0.58353312
-0.015529894
-0.61926195
-0.01461455
-0.65852676
-0.01139122
-0.7022356
-0.008062289
-0.75028365
-0.0055106654
-0.80232226
-0.0038085821
-0.85814689
-0.0027300975
-0.91775263
-0.0020320558
-0.98132595
-0.0015436308
-1.049129
-0.0011648813
-1.1215347
-0.00084517745
-1.1988873
-0.00055603264
-1.2816175
-0.00028304027
-1.3701131
0.03354447
-0.30697109
-0.077766719
-0.32627065
-0.13243902
-0.33577283
-0.10498129
-0.34303719
-0.039161599
-0.36443743
0.011928894
-0.40150155
0.026434961
-0.4425171
0.018678386
-0.48163858
0.0020888409
-0.51665676
-0.012215527
-0.54842589
-0.018661665
-0.58040135
-0.018072816
-0.61580369
-0.01396446
-0.65595352
-0.0095777931
-0.70072009
-0.0062565119
-0.7495378
-0.0041192139
-0.80201162
-0.0028590358
-0.85801795
-0.0021230228
-0.91766167
-0.0016566102
-0.98121297
-0.0013167981
-1.0489771
-0.0010307827
-1.1213491
-0.00077210705
-1.1986712
-0.00052152505
-1.281379
-0.00027009595
-1.369843
0.039184965
-0.28167386
-0.085020877
-0.29971693
-0.14949015
-0.30921952
-0.12405149
-0.31670264
-0.047097974
-0.33510081
0.019153864
-0.3716624
0.038359394
-0.41342598
0.028993673
-0.45283239
0.0074773994
-0.48702714
-0.012629765
-0.51624252
-0.022698886
-0.54438867
-0.02266079
-0.57581338
-0.017366141
-0.61240201
-0.011510337
-0.65402098
-0.0071173752
-0.69985923
-0.004376703
-0.74928031
-0.0028655807
-0.80200508
-0.0020856174
-0.85805535
-0.0016634454
-0.91765483
-0.0013863438
-0.98114343
-0.0011578577
-1.04885
-0.00093808181
-1.1211831
-0.00072321256
-1.1984695
-0.00049842976
-1.2811506
-0.00026007776
-1.3695829
0.044273068
-0.25729746
-0.092015943
-0.27467879
-0.16518576
-0.28402132
-0.14139913
-0.29187187
-0.055963865
-0.30783675
0.027422203
-0.34336915
0.052622594
-0.3859256
0.041541621
-0.42597393
0.014458622
-0.45981361
-0.012849888
-0.48680702
-0.027887503
-0.5110539
-0.028697728
-0.53835173
-0.021831938
-0.57134758
-0.013988139
-0.6099242
-0.0081269272
-0.65301143
-0.0045600283
-0.69967591
-0.0027057112
-0.74944018
-0.0018734955
-0.8022172
-0.0015272269
-0.85819157
-0.001351764
-0.91768941
-0.0012098173
-0.98109147
-0.001053362
-1.0487347
-0.00087793038
-1.1210284
-0.00069192983
-1.198276
-0.00048333665
-1.2809274
-0.00025290015
-1.36933
0.048824095
-0.23441698
-0.098614578
-0.25069883
-0.18003205
-0.25983251
-0.15719768
-0.26822277
-0.065182388
-0.28265335
0.036178769
-0.31659331
0.068998744
-0.3597453
0.056256869
-0.40064085
0.022963752
-0.43447906
-0.01296285
-0.45970065
-0.034534965
-0.48015955
-0.036544315
-0.50320732
-0.027623363
-0.5325603
-0.017145804
-0.56818992
-0.0093162489
-0.60873488
-0.0046379401
-0.65293352
-0.0023201638
-0.70006145
-0.0014231792
-0.7498905
-0.0011966896
-0.80254774
-0.0011801689
-0.85836317
-0.0011688299
-0.9177304
-0.0011065858
-0.98103824
-0.00098845612
-1.0486242
-0.00084157038
-1.1208788
-0.00067247577
-1.1980869
-0.00047387511
-1.2807064
-0.00024851903
-1.3690815
0.052879136
-0.21322505
-0.10468363
-0.22834793
-0.19389415
-0.23683673
-0.17178577
-0.24524441
-0.074250992
-0.25915417
0.044855032
-0.29132961
0.087156988
-0.33475156
0.073055542
-0.37654398
0.032983306
-0.41066041
-0.013192356
-0.43424955
-0.043084559
-0.45115105
-0.046591098
-0.47011277
-0.035022041
-0.49580864
-0.021122592
-0.52858351
-0.010714956
-0.56679121
-0.0045669688
-0.60880585
-0.0016325685
-0.65362111
-0.00065227892
-0.70083235
-0.00060222854
-0.75048496
-0.0008247953
-0.80290311
-0.0010118305
-0.85852017
-0.001084399
-0.91775258
-0.0010515293
-0.98097517
-0.00095022014
-1.0485155
-0.0008208948
-1.1207304
-0.00066076229
-1.1979
-0.00046810066
-1.2804868
-0.00024600588
-1.3688355
0.05650725
-0.19379709
-0.11013701
-0.20777167
-0.20674093
-0.21550114
-0.18492119
-0.2237013
-0.082335093
-0.23716031
0.053258892
-0.26755803
0.10677627
-0.3109489
0.092038658
-0.35373467
0.045041337
-0.38860201
-0.013316501
-0.41053626
-0.053931887
-0.42340222
-0.059198116
-0.43854404
-0.044295432
-0.46083938
-0.026051624
-0.49087961
-0.012339528
-0.52695894
-0.0042933096
-0.56706487
-0.00055031647
-0.60988811
0.00054161057
-0.654815
0.00034595884
-0.70178054
-0.00022185671
-0.75108789
-0.00070456143
-0.80321038
-0.0009751582
-0.85862941
-0.0010619599
-0.91774215
-0.0010219309
-0.98090346
-0.00093031215
-1.0484061
-0.00080978379
-1.1205813
-0.0006536024
-1.1977145
-0.00046391579
-1.2802689
-0.00024402366
-1.3685915
0.059759102
-0.17609025
-0.11491988
-0.18901423
-0.21858734
-0.19592526
-0.19669051
-0.20373183
-0.089168687
-0.21686771
0.061526348
-0.24542777
0.12721004
-0.2879918
0.11321542
-0.33212566
0.059950995
-0.36864433
-0.012014936
-0.38990357
-0.06653755
-0.3979306
-0.074497325
-0.40810301
-0.055550133
-0.42728933
-0.032026592
-0.45486441
-0.014181212
-0.48903792
-0.0037486127
-0.52750364
0.0010336016
-0.56864879
0.0022808355
-0.61162733
0.0017600615
-0.6562291
0.00071120953
-0.7027136
-0.00019899725
-0.75159346
-0.00076252787
-0.80342301
-0.0010181384
-0.85867323
-0.0010661279
-0.91769795
-0.0010131837
-0.98082059
-0.00092516017
-1.0482907
-0.00080381116
-1.1204311
-0.00064784646
-1.1975306
-0.00045966095
-1.2800533
-0.00024168131
-1.3683498
0.061887217
-0.18783934
-0.11904869
-0.17196144
-0.2294729
-0.17812866
-0.20720049
-0.18541528
-0.094766567
-0.19813395
0.069736345
-0.22507771
0.14777435
-0.26599208
0.13509707
-0.30987345
0.076796859
-0.34897152
-0.0079394756
-0.37271979
-0.079383022
-0.3770581
-0.092152288
-0.38027563
-0.068749429
-0.39490372
-0.03899404
-0.42032189
-0.016192289
-0.45285333
-0.0028424766
-0.48994406
0.0032385814
-0.52970862
0.0047032873
-0.57107124
0.0037717833
-0.61363905
0.0020784467
-0.65759634
0.00056805906
-0.70348066
-0.00042117072
-0.75193482
-0.00092135422
-0.80351979
-0.0010907708
-0.85864858
-0.0010857917
-0.91762535
-0.0010191593
-0.98072659
-0.00092354136
-1.048171
-0.00079664488
-1.1202823
-0.00064113602
-1.1973491
-0.00045459965
-1.2798404
-0.00023870675
-1.3681111
0.064335727
-0.18195303
-0.12252131
-0.18436672
-0.23939669
-0.16203765
-0.21654254
-0.16878661
-0.099238761
-0.18094309
0.077913869
-0.20631148
0.16778932
-0.24509268
0.15697734
-0.28787235
0.093813415
-0.32689
-0.00141741
-0.35549359
-0.091590655
-0.36051216
-0.1116798
-0.35753059
-0.084386929
-0.36463813
-0.046832865
-0.38706489
-0.018246486
-0.41826769
-0.0014607473
-0.45423506
0.0061899934
-0.49289547
0.007955274
-0.5329606
0.0065316593
-0.57383111
0.0040050422
-0.61556565
0.0016774219
-0.6587057
8.3807817e-05
-0.70398564
-0.00077156747
-0.7520846
-0.001109774
-0.80350079
-0.0011657082
-0.85856867
-0.0011105659
-0.91753394
-0.001023472
-0.98062666
-0.0009144355
-1.0480532
-0.0007868236
-1.1201367
-0.00063317153
-1.1971705
-0.00044857713
-1.2796305
-0.00023512816
-1.3678759
0.066951254
-0.17578491
-0.12497427
-0.17950007
-0.24889172
-0.1748717
-0.22476355
-0.15381664
-0.10277095
-0.16525442
0.085908591
-0.18893781
0.18681497
-0.22533712
0.17822171
-0.26633705
0.11055886
-0.3046178
0.0060948368
-0.33440225
-0.10272612
-0.34435812
-0.13312915
-0.33906281
-0.1035478
-0.33836972
-0.056196508
-0.35527449
-0.020139036
-0.38517234
0.00053431427
-0.42026275
0.01001475
-0.45805982
0.012183888
-0.49712409
0.010202458
-0.5366314
0.0066369353
-0.57646301
0.0032303141
-0.61711854
0.00079935501
-0.65942125
-0.00056495903
-0.70419225
-0.0011455986
-0.75204878
-0.0012802787
-0.80338622
-0.0012263903
-0.85845284
-0.0011233455
-0.91743407
-0.0010135499
-0.98052754
-0.00090066787
-1.0479394
-0.00077583727
-1.119994
-0.00062402855
-1.1969951
-0.000441523
-1.2794241
-0.00023107328
-1.3676449
0.069720951
-0.16951911
-0.1265419
-0.17421728
-0.25737867
-0.17101311
-0.23444833
-0.16518692
-0.10551113
-0.15107646
0.093563847
-0.17290968
0.20469288
-0.20681572
0.19821325
-0.24532866
0.12686214
-0.28264033
0.012662436
-0.3111854
-0.11282155
-0.32430682
-0.15640688
-0.3210804
-0.12658063
-0.31602998
-0.068863052
-0.32570317
-0.021950338
-0.35346319
0.0033171129
-0.38795514
0.014833617
-0.42508162
0.01752736
-0.46340329
0.014949926
-0.50187155
0.010137926
-0.54013239
0.0053482651
-0.57858096
0.0017873816
-0.61810657
-0.00029520655
-0.659691
-0.0012249394
-0.70411291
-0.0014659689
-0.75186309
-0.0014009761
-0.80321163
-0.0012526947
-0.85832349
-0.0011116564
-0.91733596
-0.00099284525
-0.98043537
-0.00088388829
-1.0478313
-0.0007621388
-1.1198559
-0.00061307764
-1.1968235
-0.00043358869
-1.2792216
-0.00022669671
-1.3674182
0.072617581
-0.16354242
-0.12723707
-0.16882394
-0.26460962
-0.16698634
-0.24298531
-0.16247613
-0.11349775
-0.15720029
0.10079426
-0.15830687
0.22132165
-0.18953845
0.21671624
-0.22531871
0.14233579
-0.26080231
0.017746216
-0.28772411
-0.12351776
-0.30048919
-0.17961327
-0.30110043
-0.15224092
-0.29542011
-0.085856317
-0.29903672
-0.024494185
-0.32315932
0.0070897495
-0.35723583
0.020749399
-0.39387092
0.024105032
-0.43165929
0.020933155
-0.46938652
0.014683208
-0.50641684
0.0081751395
-0.54295927
0.0031239192
-0.5799175
4.6156352e-05
-0.61844793
-0.0013809284
-0.65953501
-0.0017739066
-0.70380497
-0.0016830603
-0.751581
-0.0014517558
-0.80301257
-0.0012372718
-0.85819788
-0.0010793951
-0.91724941
-0.00096473072
-0.98035452
-0.00086252798
-1.0477309
-0.00074591356
-1.119723
-0.00060102079
-1.1966561
-0.00042513405
-1.2790231
-0.00022218116
-1.367196
0.075589833
-0.15805124
-0.12710383
-0.16367566
-0.27039736
-0.1630362
-0.25026921
-0.15970244
-0.12058719
-0.1553867
0.10016304
-0.15656907
0.23667086
-0.17365608
0.23366978
-0.20649199
0.15664351
-0.23962642
0.02203177
-0.26508786
-0.1348814
-0.27636047
-0.20104512
-0.27905734
-0.17766102
-0.27568032
-0.10573442
-0.275542
-0.028955964
-0.29457494
0.012004738
-0.32807431
0.027877941
-0.36436437
0.032000905
-0.4017668
0.028290615
-0.43901675
0.020451609
-0.47515492
0.01187587
-0.51011757
0.0049076234
-0.54474297
0.0004810245
-0.58035237
-0.001652127
-0.61817673
-0.002270734
-0.65903819
-0.002140489
-0.70334754
-0.0017761953
-0.75125656
-0.0014313745
-0.80281847
-0.0011862408
-0.85809103
-0.0010325967
-0.91718154
-0.00093050301
-0.98028655
-0.00083835778
-1.0476385
-0.00072874768
-1.1195953
-0.00058849565
-1.1964927
-0.0004165038
-1.2788288
-0.00021768536
-1.3669783
0.078608642
-0.15314177
-0.12619238
-0.15896268
-0.27476096
-0.15931206
-0.25627694
-0.15702847
-0.12676084
-0.15352878
0.099796546
-0.15502021
0.24636274
-0.16626095
0.24893974
-0.18892603
0.1695664
-0.21941488
0.02555579
-0.24315044
-0.14618727
-0.253782
-0.22064014
-0.25676544
-0.20040615
-0.25631221
-0.12631086
-0.25510389
-0.035831106
-0.26866686
0.017678598
-0.3002488
0.036348129
-0.3365445
0.041246652
-0.37361012
0.037118199
-0.41059438
0.027609253
-0.44617439
0.016633037
-0.47991209
0.0072628321
-0.51247278
0.0010380435
-0.54529999
-0.0020857807
-0.57991871
-0.0030383513
-0.61740911
-0.0028593144
-0.65831936
-0.0022987942
-0.70282494
-0.0017485877
-0.75093935
-0.0013498198
-0.80265489
-0.0011085384
-0.85801509
-0.00097564195
-0.9171364
-0.00089255493
-0.98023235
-0.0008131377
-1.0475541
-0.00071111015
-1.1194727
-0.00057586129
-1.1963334
-0.00040798231
-1.2786385
-0.00021337053
-1.3667649
0.081652489
-0.14891836
-0.12456273
-0.15477142
-0.27775104
-0.1559726
-0.26100603
-0.15458297
-0.13197327
-0.15181605
0.099653536
-0.15338577
0.25597391
-0.16463138
0.26244514
-0.17976635
0.18101891
-0.20037855
0.028283089
-0.22214218
-0.15720315
-0.23213456
-0.23915318
-0.23526896
-0.22069273
-0.23647886
-0.14627032
-0.23635275
-0.045242292
-0.24569271
0.023209882
-0.27419814
0.046359489
-0.31026016
0.051787484
-0.34708533
0.047460146
-0.38395206
0.036297546
-0.41928267
0.022642476
-0.45218383
0.010341571
-0.48299083
0.0017618568
-0.51319659
-0.0027317229
-0.54465405
-0.0041783258
-0.57877874
-0.0039478901
-0.61632054
-0.0031125623
-0.65750559
-0.0022593955
-0.70231413
-0.001618843
-0.75067033
-0.0012225395
-0.80254089
-0.0010139663
-0.85797677
-0.00091377746
-0.91711518
-0.00085369579
-0.98019179
-0.00078798805
-1.0474772
-0.00069379494
-1.1193548
-0.00056365391
-1.1961777
-0.00039993118
-1.278452
-0.00020936503
-1.3665556
0.084741032
-0.1455627
-0.12215171
-0.15132938
-0.27936722
-0.15315524
-0.26447205
-0.15250658
-0.13615854
-0.1503977
0.09976176
-0.15192427
0.26522185
-0.16263371
0.27548931
-0.17767556
0.1964831
-0.19523053
0.030467459
-0.20256292
-0.1676126
-0.21173273
-0.25655554
-0.21473219
-0.23923353
-0.21672816
-0.16460873
-0.21814045
-0.056593304
-0.22500174
0.027628748
-0.25011157
0.057658587
-0.28549724
0.06363879
-0.32211146
0.059287836
-0.35891302
0.046628556
-0.39428307
0.030107658
-0.42674786
0.014331906
-0.45617417
0.0027244599
-0.48395343
-0.0036383892
-0.51228992
-0.0058126309
-0.54301975
-0.0055406138
-0.57718601
-0.0043342434
-0.61509886
-0.0030532721
-0.65671172
-0.0020560057
-0.70187697
-0.0014148527
-0.75047801
-0.0010682652
-0.80248659
-0.00091290973
-0.85797763
-0.00085208991
-0.91711679
-0.0008164251
-0.98016336
-0.00076435412
-1.0474067
-0.00067773113
-1.1192407
-0.00055244767
-1.1960252
-0.00039256136
-1.2782688
-0.00020574731
-1.3663498
-0.1432149
0.087878059
-0.11895872
-0.14875569
-0.27968224
-0.15101436
-0.26673016
-0.15089713
-0.13935774
-0.14930738
0.1003028
-0.15093874
0.2738593
-0.16056173
0.28780874
-0.17495313
0.21136368
-0.19255614
0.043659062
-0.20842213
-0.1771291
-0.19304643
-0.27269789
-0.19559039
-0.25603929
-0.19792643
-0.18102475
-0.20031214
-0.068451186
-0.20628257
0.03058247
-0.22795546
0.069753154
-0.26220614
0.076759057
-0.29861751
0.072519203
-0.33534283
0.058682532
-0.370967
0.039234348
-0.40340976
0.019460427
-0.43187638
0.0040366677
-0.45748638
-0.004855397
-0.48273642
-0.0080874266
-0.51001513
-0.0078018763
-0.54075848
-0.00610674
-0.57541352
-0.0042403275
-0.6139118
-0.0027391434
-0.65602858
-0.0017357881
-0.70155604
-0.0011680071
-0.75037827
-0.00090443014
-0.80249507
-0.00081371012
-0.85801601
-0.00079423524
-0.91713898
-0.00078237891
-0.98014533
-0.00074324095
-1.0473412
-0.00066342339
-1.1191297
-0.00054243233
-1.1958753
-0.00038602313
-1.2780885
-0.00020256123
-1.3661473
-0.14704949
-0.11512413
-0.14191697
0.091070777
-0.27884742
-0.14959051
-0.2679163
-0.14982822
-0.14168211
-0.14857276
0.10130896
-0.15031353
0.28178912
-0.15886856
0.29903794
-0.17179093
0.22532057
-0.18891002
0.056695707
-0.20559279
-0.17408518
-0.21146604
-0.2876958
-0.17804852
-0.27109721
-0.18053248
-0.19554727
-0.18340391
-0.079716506
-0.18904681
0.032089379
-0.20778948
0.082180688
-0.240383
0.091056439
-0.27650352
0.087008417
-0.31310672
0.072465617
-0.34912592
0.050219235
-0.38195188
0.025994628
-0.40994396
0.005845767
-0.43368547
-0.0064409806
-0.45590079
-0.011171125
-0.47965272
-0.010931429
-0.50688557
-0.0086020844
-0.53826314
-0.0059516959
-0.57370215
-0.0037615865
-0.61288936
-0.0022463359
-0.65551803
-0.0013489727
-0.70137507
-0.00090616849
-0.75037653
-0.00074420334
-0.80256458
-0.00072092786
-0.85808932
-0.00074210629
-0.91717925
-0.00075257981
-0.98013599
-0.00072494721
-1.0472796
-0.00065120715
-1.1190209
-0.00053388043
-1.1957274
-0.00038041113
-1.2779106
-0.00019981977
-1.3659474
-0.14883072
-0.27706619
-0.14634652
-0.11069458
-0.14184248
0.094151913
-0.26829779
-0.14920902
-0.14317613
-0.1483342
0.10269904
-0.14996285
0.28904497
-0.15756938
0.30872881
-0.16855942
0.23793565
-0.18440601
0.069032047
-0.20124636
-0.16976919
-0.20990878
-0.2969773
-0.20218454
-0.28455333
-0.1645924
-0.20832281
-0.16775694
-0.089879281
-0.17324114
0.032577234
-0.18953467
0.094482531
-0.22009132
0.10637026
-0.25569682
0.10259841
-0.29209351
0.087911612
-0.32855272
0.063237248
-0.36214393
0.034233819
-0.39019108
0.0083549629
-0.41245316
-0.0084037416
-0.43172271
-0.015252695
-0.45181922
-0.015169823
-0.47541433
-0.012024991
-0.50346267
-0.0083404827
-0.53587435
-0.0052308726
-0.57223286
-0.0030175253
-0.61211817
-0.0016532966
-0.65521371
-0.00093941076
-0.70134183
-0.00065080027
-0.75046994
-0.00059524277
-0.80269026
-0.00063805381
-0.85819337
-0.00069769753
-0.91723413
-0.00072827865
-0.98013266
-0.00071027378
-1.0472206
-0.00064142723
-1.1189134
-0.00052689918
-1.195581
-0.00037572256
-1.2777347
-0.0001974939
-1.3657499
-0.14929655
-0.26783196
-0.14928869
-0.27412402
-0.14643419
-0.10610286
-0.14256259
0.097156316
-0.14372485
-0.1486603
0.10449782
-0.15013297
0.29562753
-0.15654541
0.31673775
-0.16557833
0.24888343
-0.1795072
0.080318625
-0.19569259
-0.16474013
-0.20627542
-0.30500408
-0.20188201
-0.29910809
-0.18762978
-0.21957994
-0.15333527
-0.098816781
-0.15881944
0.032391029
-0.17305493
0.10634641
-0.20139855
0.1224197
-0.23614076
0.11911944
-0.27221785
0.10488097
-0.30906287
0.078410364
-0.34372583
0.044505777
-0.37241589
0.011834023
-0.39367014
-0.010752837
-0.41010406
-0.020572509
-0.4264029
-0.020803595
-0.44618545
-0.016616016
-0.4708233
-0.011581585
-0.50022156
-0.007266379
-0.53383884
-0.0041281295
-0.57112226
-0.0021281213
-0.61164334
-0.0010277384
-0.65512538
-0.00054118445
-0.70145144
-0.00041528275
-0.7506499
-0.00046347073
-0.80286484
-0.00056946382
-0.85832161
-0.00066350709
-0.9172989
-0.00071036054
-0.98013257
-0.0006997388
-1.0471623
-0.0006342047
-1.1188061
-0.00052143581
-1.1954352
-0.00037191032
-1.2775603
-0.0001955465
-1.3655544
-0.14992351
-0.14309789
-0.15094868
-0.26617197
-0.15029898
-0.27025923
-0.14728603
-0.10137943
-0.14414455
0.099866293
0.10693082
-0.1510933
0.30144713
-0.15595257
0.32320031
-0.16300797
0.25777205
-0.17446695
0.090323561
-0.18951214
-0.15890625
-0.20152647
-0.31163537
-0.19964413
-0.31224228
-0.18874781
-0.23851689
-0.16869283
-0.10661465
-0.1455374
0.031840064
-0.15826847
0.11752808
-0.1842366
0.13884801
-0.21782686
0.13634749
-0.2533688
0.12312164
-0.29045853
0.095641478
-0.32629398
0.057002069
-0.35622212
0.01658717
-0.37716903
-0.01344391
-0.39097906
-0.027395938
-0.40328063
-0.028178245
-0.41902825
-0.02265293
-0.44014854
-0.015868085
-0.4665368
-0.0099963836
-0.49749156
-0.0056605975
-0.53230638
-0.0028223054
-0.57042807
-0.0011954683
-0.61147561
-0.0004221892
-0.65524437
-0.00017663527
-0.70169009
-0.00020874504
-0.75090462
-0.00035561653
-0.80307869
-0.0005180828
-0.85846703
-0.00064002478
-0.91736924
-0.00069918744
-0.98013312
-0.0006933008
-1.0471032
-0.00062936228
-1.1186982
-0.000517413
-1.1952897
-0.0003688823
-1.277387
-0.0001939156
-1.3653605
-0.15294126
0.10994857
-0.15253068
-0.14151589
-0.15314799
-0.26332296
-0.1520105
-0.26553476
-0.14878684
-0.096737133
-0.14640739
0.10208702
0.30633264
-0.15597882
0.32815921
-0.16091146
0.26440675
-0.16964266
0.09865343
-0.18279682
-0.15273782
-0.19568056
-0.31682386
-0.19633799
-0.32374777
-0.18813864
-0.25589729
-0.17136741
-0.12823982
-0.14706766
0.031267096
-0.14496443
0.1278089
-0.16854929
0.15534599
-0.20073458
0.1539831
-0.23546247
0.14217661
-0.27242377
0.1144242
-0.30924125
0.071363967
-0.34065588
0.022501932
-0.36213689
-0.016556158
-0.37405679
-0.036000493
-0.38237451
-0.037695327
-0.39376355
-0.030456212
-0.41122497
-0.021405468
-0.43461115
-0.013551864
-0.46298132
-0.0076947537
-0.4954574
-0.0037833966
-0.53134528
-0.0014639546
-0.57015959
-0.00029771869
-0.61160009
0.00012787198
-0.65554888
0.00014008523
-0.70203892
-4.0294255e-05
-0.75121994
-0.00027578474
-0.80332099
-0.00048434604
-0.85862271
-0.00062723066
-0.9174412
-0.00069444878
-0.98013198
-0.00069063228
-1.0470419
-0.00062677675
-1.1185888
-0.00051465535
-1.195144
-0.00036651088
-1.2772144
-0.00019253612
-1.3651679
-0.15668366
0.31007504
-0.15536664
0.11278454
-0.15602786
-0.13863602
-0.15615422
-0.25917924
-0.15443968
-0.25988193
-0.15087504
-0.092269479
-0.14926208
0.10383754
0.33154993
-0.15936954
0.26879536
-0.16530007
0.10504247
-0.17603171
-0.14669326
-0.18884138
-0.32063581
-0.19186861
-0.33363954
-0.18644622
-0.27170225
-0.17233368
-0.1485548
-0.15105243
0.013994523
-0.12979508
0.13765769
-0.15481323
0.17155
-0.1847533
0.17169553
-0.21844701
0.16147295
-0.2547588
0.13366716
-0.29166673
0.086401872
-0.32427916
0.028581752
-0.3467357
-0.021013288
-0.35767976
-0.046928942
-0.36312834
-0.049826405
-0.37024343
-0.040388853
-0.38383091
-0.028403603
-0.40422683
-0.018054587
-0.43010843
-0.010302637
-0.46037344
-0.005050341
-0.49419046
-0.0018493763
-0.53095986
-0.00016612836
-0.57029118
0.0005116234
-0.61198384
0.00060191511
-0.65601071
0.00039795405
-0.70247717
8.4013325e-05
-0.75157974
-0.00022428696
-0.80358105
-0.00046765837
-0.85878228
-0.00062456067
-0.91751108
-0.00069561991
-0.98012699
-0.00069145013
-1.0469772
-0.00062615739
-1.1184773
-0.00051294746
-1.1949975
-0.0003646576
-1.2770423
-0.0001913394
-1.3649766
-0.15848088
0.33334715
-0.15742306
0.31213146
-0.15906899
0.11582567
-0.16037639
-0.13441385
-0.15996118
-0.25365774
-0.15760455
-0.25315242
-0.15365549
-0.087876062
-0.15257774
0.10508292
0.27103455
-0.16160873
0.10930957
-0.16956717
-0.14102093
-0.18170404
-0.3227901
-0.18668709
-0.34170022
-0.18380793
-0.28579085
-0.17235762
-0.16733712
-0.15355136
-0.0038096036
-0.1332483
0.13401205
-0.12614944
0.18724157
-0.1705048
0.18912507
-0.20218283
0.18042544
-0.23739951
0.15248508
-0.27357673
0.10062339
-0.30588824
0.033916616
-0.32961402
-0.028818259
-0.33893073
-0.061697474
-0.34291122
-0.065198526
-0.34775622
-0.052876514
-0.35775577
-0.037073985
-0.37516053
-0.023602962
-0.39867846
-0.013538903
-0.42687216
-0.0066470844
-0.4587767
-0.0023585765
-0.49368126
-1.7641714e-05
-0.53110835
0.00099515193
-0.57077471
0.001204892
-0.61258681
0.00098690289
-0.65659966
0.00058823404
-0.70298139
0.00016386671
-0.7519679
-0.00019972615
-0.80384898
-0.00046688581
-0.85893995
-0.00063106304
-0.91757564
-0.00070205899
-0.98011638
-0.00069519298
-1.0469082
-0.0006270874
-1.1183632
-0.00051204635
-1.1948501
-0.00036317454
-1.2768704
-0.00019025577
-1.3647864
-0.15865519
0.27120886
-0.15753963
0.33346372
-0.15976097
0.31282344
-0.16341531
0.11886459
-0.1653828
-0.12899223
-0.16449171
-0.24677058
-0.16135843
-0.24544948
-0.1569419
-0.083511903
-0.15629708
0.1057286
0.11135125
-0.1636504
-0.13598749
-0.17460062
-0.32333773
-0.18115641
-0.34783969
-0.18054762
-0.29800053
-0.17159825
-0.18445127
-0.15524348
-0.021206
-0.13615496
0.12912015
-0.12835641
0.19459218
-0.13350004
0.20599601
-0.18737575
0.19860901
-0.2203664
0.17042092
-0.25533535
0.11393231
-0.28688566
0.038459307
-0.31043093
-0.040390551
-0.31804173
-0.081982058
-0.31864615
-0.08450036
-0.32360939
-0.068202386
-0.33243035
-0.047627765
-0.34720199
-0.030259732
-0.36850376
-0.017427307
-0.39479005
-0.0085806019
-0.42493865
-0.0029813776
-0.4581539
0.00016538459
-0.49386429
0.0016060112
-0.53171921
0.0019804779
-0.57155029
0.0017613469
-0.61336126
0.0012702381
-0.65728167
0.00071051092
-0.70352804
0.00020219279
-0.75236981
-0.0001999407
-0.80411592
-0.00048033681
-0.85909068
-0.0006455668
-0.91763213
-0.00071290277
-0.98009867
-0.00070125752
-1.046834
-0.00062923363
-1.118246
-0.00051171927
-1.1947016
-0.0003619177
-1.2766988
-0.00018921532