/*--------------------------------*- C++ -*----------------------------------*\
| =========                 |                                                 |
| \\      /  F ield         | OpenFOAM: The Open Source CFD Toolbox           |
|  \\    /   O peration     | Version:  5.0                                   |
|   \\  /    A nd           | Web:      www.OpenFOAM.org                      |
|    \\/     M anipulation  |                                                 |
\*---------------------------------------------------------------------------*/
FoamFile
{
    version     2.0;
    format      ascii;
    class       volScalarField;
    location    "160";
    object      pMean;
}
// * * * * * * * * * * * * * * * * * * * * * * * * * * * * * * * * * * * * * //

dimensions      [0 2 -2 0 0 0 0];

internalField   nonuniform List<scalar> 
9200
(
0.00027816176
0.00030272847
0.00070945178
0.00033465146
0.00076347172
0.0011166628
0.00038629492
0.0008335693
0.0011964014
0.0014312255
0.00045548316
0.0009409174
0.0013102955
0.0015322339
0.0016764874
0.0005392124
0.0010784424
0.0014774171
0.0016812355
0.0017945233
0.0018386018
0.00064406371
0.0012348506
0.0016887177
0.0018933151
0.0019728062
0.0019681107
0.00191875
0.00076377469
0.0014152597
0.0019254279
0.0021612392
0.002221777
0.0021698824
0.0020568705
0.001923713
0.00089168184
0.0016051328
0.0021893981
0.002461049
0.0025356625
0.0024477795
0.0022777163
0.002066291
0.001856906
0.0010167104
0.0017983886
0.0024596032
0.0027930222
0.0028840712
0.0027994911
0.0025779845
0.002301132
0.0020007912
0.0017261583
0.001117516
0.0019754612
0.0027250958
0.0031307929
0.0032660154
0.0031894172
0.0029599277
0.0026175872
0.0022452166
0.0018675843
0.0015373211
0.0011183036
0.0020991307
0.0029554251
0.0034562633
0.0036514401
0.00361745
0.0033840328
0.0030240231
0.0025715535
0.0021166701
0.0016727754
0.0012990144
0.00092912671
0.0021150599
0.0031065276
0.0037358357
0.0040219878
0.004051841
0.003851871
0.0034774492
0.0029955212
0.0024461341
0.0019214071
0.0014245861
0.0010180561
0.00055123586
0.0019812035
0.0031306689
0.0039296996
0.0043456347
0.0044749653
0.0043302991
0.0039813546
0.0034709934
0.0028805809
0.0022468793
0.0016671796
0.0011299922
0.00070399969
6.3426181e-05
0.001673388
0.0029935341
0.0039902729
0.0045860313
0.004853799
0.0048033258
0.0045027336
0.00400523
0.003371376
0.0026834475
0.0019808128
0.0013608648
0.00079830808
0.00036337916
-0.00042524542
0.0011556354
0.0026368937
0.0038677864
0.0046934971
0.0051531517
0.0052382427
0.005026464
0.0045657583
0.0039294305
0.0031805448
0.0024102594
0.0016545581
0.0010113175
0.00043644879
5.9586079e-06
-0.0008995907
0.00046778414
0.0019933218
0.0035064281
0.0046145862
0.005324992
0.0056022638
0.0055215869
0.0051383713
0.0045230336
0.0037536703
0.0029039646
0.002066943
0.001276294
0.0006258211
5.4257793e-05
-0.0003621037
-0.0013684991
-0.00030403969
0.0011223478
0.0028528714
0.0042924907
0.0053133595
0.005849096
0.0059566758
0.0056940663
0.0051403939
0.0043732982
0.0034819789
0.0025458552
0.0016608081
0.00085353586
0.00021408701
-0.00034193559
-0.00073180149
-0.0017959864
-0.0010605601
0.00016516004
0.0019420774
0.0036800715
0.0050604641
0.0059226276
0.006287345
0.0062017143
0.0057544442
0.0050290823
0.004116511
0.0031164661
0.0021124559
0.001199261
0.0003957376
-0.00021704595
-0.00074261331
-0.0010972838
-0.0021516517
-0.0017203641
-0.00079902121
0.00090422998
0.0027883295
0.0045258893
0.0057626259
0.0064578924
0.0066211579
0.006335925
0.0056960586
0.0048006689
0.0037537182
0.0026617874
0.0016104454
0.00069126783
-8.9339181e-05
-0.00065764623
-0.0011415869
-0.0014513223
-0.0024311631
-0.0022738504
-0.00168654
-0.00017384609
0.0017173168
0.0036954577
0.0053236954
0.0064089693
0.0068970508
0.0068466401
0.0063476675
0.0055122464
0.0044539753
0.0032865969
0.0021233535
0.0010482285
0.00014517228
-0.0005914615
-0.0011011614
-0.0015310072
-0.0017887529
-0.0025569278
-0.002682933
-0.0024528174
-0.0012022735
0.00057437007
0.0026363937
0.0045804618
0.0060737195
0.0069685532
0.007234325
0.0069482216
0.0062269949
0.0051983208
0.0039872756
0.0027190456
0.0015083815
0.00043439332
-0.00042857151
-0.001103345
-0.0015387457
-0.0019053234
-0.0021043898
-0.0025149823
-0.0029109881
-0.0030907664
-0.0021228576
-0.0005520969
0.0014661261
0.003573182
0.0054337477
0.0067596583
0.0074338644
0.0074488602
0.0069121848
0.0059651033
0.0047481201
0.0034021931
0.0020565437
0.0008254715
-0.0002204701
-0.0010213144
-0.0016148703
-0.0019643088
-0.0022586631
-0.0023942219
-0.0023765922
-0.0029761156
-0.0035997819
-0.0029473002
-0.0015951982
0.00027183955
0.0024091809
0.0045126791
0.0062421602
0.0073763278
0.0077827676
0.0075222502
0.0067243863
0.0055515937
0.0041607686
0.0027015288
0.0013068466
8.4936394e-05
-0.00090652216
-0.0016220009
-0.0021191679
-0.0023708969
-0.002586637
-0.0026548395
-0.0022075104
-0.0029604212
-0.0039540773
-0.0036924538
-0.002552615
-0.00087444728
0.0011705068
0.0033785751
0.005419559
0.0069971593
0.0078849106
0.0079949306
0.00743661
0.0063712329
0.0049812493
0.0034356663
0.0018917968
0.00047982778
-0.0007023535
-0.0016118474
-0.0022225589
-0.0026076378
-0.0027533898
-0.0028853762
-0.0028837914
-0.0020390525
-0.002959374
-0.0042103754
-0.0042917572
-0.0034609067
-0.0019501416
-5.6876452e-05
0.00212086
0.0043352161
0.0062825532
0.0076653254
0.0082573223
0.008043435
0.00717136
0.0058416379
0.0042496988
0.0025774014
0.00098189505
-0.00041301396
-0.0015235592
-0.0023264466
-0.002812517
-0.0030742585
-0.0031068989
-0.0031519511
-0.0030793716
-0.0018952907
-0.0029708605
-0.004439278
-0.0047787419
-0.0042825366
-0.0030026824
-0.0012452292
0.00082273382
0.0030771236
0.005275381
0.0070919035
0.0082278277
0.0084676804
0.007900914
0.0067097591
0.0051257656
0.0033582898
0.0015925222
-1.666637e-05
-0.0013580491
-0.00236672
-0.0030382397
-0.0033846719
-0.0035125758
-0.003427729
-0.0033841915
-0.0032403558
-0.001786012
-0.0030337528
-0.0046771508
-0.0052199776
-0.0049856707
-0.0040274116
-0.0024417225
-0.00047025414
0.001722687
0.0040421109
0.0061965222
0.0078369561
0.0086387377
0.0084842828
0.0075418219
0.0060375578
0.0042217504
0.0023110126
0.00049215945
-0.0010898662
-0.0023415151
-0.0032180733
-0.0037380384
-0.0039303604
-0.0039178521
-0.0037129356
-0.0035806086
-0.003365895
-0.0017154342
-0.0031533918
-0.004948279
-0.0056699329
-0.0056211886
-0.0049344829
-0.0036503238
-0.0018003518
0.00032627352
0.002653202
0.0050228227
0.0070751899
0.0084546746
0.0088427885
0.0082709984
0.0069456469
0.0051461718
0.0031298822
0.0011178521
-0.00070946411
-0.0022222931
-0.0033477808
-0.0040659503
-0.0044149415
-0.0044436815
-0.0042857583
-0.0039603734
-0.0037403006
-0.0034562865
-0.0016798198
-0.0033260624
-0.0052544801
-0.0061346806
-0.0062708871
-0.005767764
-0.0047726699
-0.0031763402
-0.0011389496
0.0011616848
0.0036387909
0.005992916
0.0078657448
0.0088892539
0.0088081349
0.0077930776
0.0060985151
0.0040324781
0.0018579328
-0.00020768559
-0.0019956171
-0.0033963383
-0.0043623963
-0.0048971843
-0.0050614454
-0.0049184845
-0.0046132231
-0.0041686572
-0.0038630847
-0.0035133394
-0.0016827521
-0.0035357762
-0.0055768834
-0.0066148898
-0.006930534
-0.0066153949
-0.0058236176
-0.00452994
-0.0026941267
-0.00043442549
0.0020823899
0.0046511445
0.0069193194
0.0085249805
0.0090814206
0.0084950242
0.0070300121
0.004992056
0.0027007261
0.00041756473
-0.0016482207
-0.0033468538
-0.0045946245
-0.0053696145
-0.0057015513
-0.0056687875
-0.0053505602
-0.0048979855
-0.0043371999
-0.0039495371
-0.0035386127
-0.0017093001
-0.0037696207
-0.0059180613
-0.0071042599
-0.0075948522
-0.0074753424
-0.0068796049
-0.005822488
-0.004293831
-0.0021651696
0.00038143177
0.0030723809
0.0056553817
0.0077496612
0.0089685825
0.0089624704
0.0078663384
0.0059663511
0.0036253066
0.0011603163
-0.0011732556
-0.0031826339
-0.0047431067
-0.0057985658
-0.0063560213
-0.0064678591
-0.0062313128
-0.0057360026
-0.0051385931
-0.0044660635
-0.0040005932
-0.0035312688
-0.0017219953
-0.0040310872
-0.0062783728
-0.0076111962
-0.0082654498
-0.0083371447
-0.0079493268
-0.0070981023
-0.0058521026
-0.00400426
-0.0014952516
0.0013062352
0.0041041478
0.0065944258
0.0084018157
0.0091088336
0.0085056046
0.0068932918
0.0045968612
0.0020050738
-0.000571803
-0.0028924441
-0.0047880139
-0.0061624029
-0.0069912212
-0.0073077264
-0.0071882144
-0.0067430249
-0.0060724092
-0.0053344362
-0.0045558098
-0.0040171527
-0.0034910011
-0.0016968793
-0.0042721654
-0.0066798437
-0.0081383435
-0.0089493268
-0.0092005397
-0.009016295
-0.0083844018
-0.0073844689
-0.0058526168
-0.0035499124
-0.00067968875
0.0023151411
0.0051116023
0.007398882
0.0087968509
0.0088747732
0.0076750492
0.0055620587
0.0029238813
0.00014711743
-0.0024725938
-0.0047143223
-0.0064390339
-0.0075839727
-0.0081553056
-0.0082137409
-0.0078542615
-0.007200516
-0.0063582124
-0.0054856148
-0.0046073646
-0.004000558
-0.003419443
-0.0016541283
-0.0044713149
-0.0070593008
-0.0087068517
-0.0096540119
-0.01007122
-0.010075985
-0.0096658412
-0.008913168
-0.0076731829
-0.0056851822
-0.0029130357
0.00025078018
0.0033419523
0.0060101323
0.0079873494
0.0088411062
0.0082151708
0.0064386262
0.0038716755
0.00096077057
-0.0019264765
-0.0045141143
-0.0066102969
-0.0081107717
-0.0089866291
-0.0092761309
-0.0090630795
-0.0084607864
-0.0076004544
-0.0065928344
-0.0055928392
-0.0046219388
-0.0039521731
-0.0033209338
-0.0016188858
-0.004645038
-0.0073866494
-0.0092759146
-0.010414322
-0.010968857
-0.011135152
-0.010932868
-0.010433991
-0.0094669684
-0.0077901814
-0.0052848327
-0.0020996074
0.0012535833
0.004288014
0.006720498
0.0082691371
0.0084354284
0.0071159339
0.0047811515
0.0018326339
-0.0012710253
-0.0041859531
-0.0066644594
-0.0085508627
-0.0097774938
-0.010351492
-0.01033951
-0.0098478181
-0.0090024929
-0.0079415408
-0.0067763714
-0.0056573885
-0.0046013053
-0.0038728498
-0.0032001009
-0.0015972333
-0.0048106378
-0.0076659554
-0.0097990238
-0.011182094
-0.011929158
-0.012222375
-0.012188296
-0.011929726
-0.011255205
-0.0098669187
-0.0076585597
-0.0046424964
-0.0011602446
0.0022144387
0.0050665103
0.0071701671
0.0081398323
0.0075104863
0.0055484792
0.0027060817
-0.00053534559
-0.0037406201
-0.0065957211
-0.0088893902
-0.010505333
-0.01141557
-0.011660366
-0.01133425
-0.010560527
-0.0094768515
-0.0082228081
-0.0069097109
-0.0056809295
-0.0045480951
-0.0037656322
-0.0030592809
-0.0015953998
-0.0049629388
-0.007934474
-0.010259812
-0.011916973
-0.012907678
-0.013376259
-0.01346774
-0.013402863
-0.013011387
-0.011931147
-0.010004393
-0.0072414826
-0.0038193387
-0.00022288302
0.0030258911
0.0056072181
0.0072492441
0.0074862915
0.0060524119
0.0034912602
0.00023132865
-0.0032012935
-0.0064098372
-0.0091171959
-0.011153166
-0.012444851
-0.013002199
-0.012898197
-0.012250203
-0.011196619
-0.0098814601
-0.0084447863
-0.0069943103
-0.0056653988
-0.0044645478
-0.0036337524
-0.002901434
-0.0016112173
-0.0051098517
-0.0081838813
-0.010686718
-0.012581661
-0.013870937
-0.014551677
-0.014813692
-0.014888846
-0.014734182
-0.013960402
-0.012327024
-0.0098220565
-0.006590832
-0.0029535349
0.000588798
0.0036098819
0.0058186515
0.0068523506
0.0062186879
0.0040609142
0.00095499183
-0.0026090409
-0.0061242268
-0.0092351254
-0.011708641
-0.01342077
-0.01434112
-0.014517648
-0.014051392
-0.013080134
-0.011752168
-0.010216168
-0.0086084119
-0.0070323314
-0.0056132452
-0.0043529756
-0.0034796679
-0.0027283599
-0.001647278
-0.005248864
-0.0084086248
-0.011078382
-0.013184176
-0.014759767
-0.015733976
-0.016186215
-0.016444123
-0.016446521
-0.015947655
-0.014614616
-0.012378779
-0.0093867348
-0.0058579343
-0.0021911079
0.0011908518
0.0038848974
0.0055980479
0.005846078
0.0043130369
0.0015238319
-0.0020269202
-0.0057718632
-0.009254824
-0.01216857
-0.014328574
-0.015657768
-0.016169104
-0.015944081
-0.015109496
-0.013818074
-0.012225685
-0.010481117
-0.0087156565
-0.0070260908
-0.0055270893
-0.0042158215
-0.003306008
-0.0025402845
-0.005384467
-0.0017146143
-0.0086049745
-0.011425216
-0.013745002
-0.01556209
-0.016843001
-0.017573432
-0.018015302
-0.01823785
-0.017912036
-0.016850325
-0.014908682
-0.012169007
-0.0088444333
-0.0051990325
-0.0016186923
0.0014931679
0.0037507016
0.0048028892
0.0041299998
0.0017947496
-0.001549792
-0.0054081931
-0.0092040988
-0.012540057
-0.01516171
-0.016935604
-0.01783302
-0.017905927
-0.01726718
-0.016063858
-0.014460752
-0.012616485
-0.0106781
-0.008768678
-0.00697828
-0.0054096013
-0.0040554642
-0.0031151178
-0.0023379963
-0.0087704878
-0.0055077774
-0.0018188468
-0.011720953
-0.014248176
-0.016315851
-0.017853571
-0.018892548
-0.019600676
-0.020026815
-0.01997211
-0.019057501
-0.017381426
-0.014917832
-0.011831667
-0.0083248915
-0.004707704
-0.0013298822
0.0013913576
0.0030766799
0.0033099108
0.0016814246
-0.0013201411
-0.0051146092
-0.0091294111
-0.012844802
-0.015923216
-0.0181657
-0.019491752
-0.019917733
-0.019532661
-0.018475004
-0.016908848
-0.015006096
-0.012925663
-0.010808977
-0.0087705203
-0.0068918598
-0.0052635405
-0.0038742392
-0.002909004
-0.0021232666
-0.011946562
-0.0088877884
-0.0056082274
-0.0019471172
-0.014673352
-0.016991731
-0.018791995
-0.02010804
-0.021127345
-0.021823938
-0.022003669
-0.021377045
-0.019833802
-0.017610256
-0.01479264
-0.011499306
-0.0079528361
-0.004484079
-0.0014376435
0.00075942279
0.0017304073
0.0010292114
-0.0014701376
-0.0050136486
-0.0091029059
-0.013122944
-0.016629562
-0.019347156
-0.021134437
-0.021961428
-0.021887494
-0.021033046
-0.01955892
-0.017640566
-0.015454083
-0.013154637
-0.0108769
-0.0087242794
-0.0067699149
-0.0050916506
-0.0036744786
-0.0026893463
-0.001897853
-0.01499605
-0.012080886
-0.0089415133
-0.0056835778
-0.0020976628
-0.01757274
-0.019638887
-0.021224451
-0.022532539
-0.02355315
-0.024038635
-0.023658846
-0.022404317
-0.020298758
-0.017697329
-0.014664994
-0.011291391
-0.0078382556
-0.0046532141
-0.0020726527
-0.0005394974
-0.00040879352
-0.002087922
-0.0052681065
-0.0092282829
-0.013438175
-0.017315358
-0.0204923
-0.022757131
-0.024024679
-0.024313796
-0.02372113
-0.022394836
-0.020512555
-0.01825759
-0.015805897
-0.013306494
-0.010885113
-0.0086334509
-0.0066154998
-0.0048966298
-0.0034585699
-0.0024581698
-0.0016634349
-0.018025591
-0.015195737
-0.012114754
-0.0089391426
-0.0057271359
-0.002257966
-0.020367905
-0.022223272
-0.023791209
-0.025124853
-0.025992127
-0.025935203
-0.024939198
-0.023119918
-0.020613651
-0.017759716
-0.014645688
-0.011312243
-0.0081086181
-0.005353312
-0.0033871739
-0.0026306466
-0.0034041202
-0.0059835116
-0.0096598591
-0.013880604
-0.018036172
-0.021630052
-0.024368296
-0.026101294
-0.026798389
-0.026522058
-0.02540211
-0.023608798
-0.021332633
-0.018760212
-0.016064039
-0.013384686
-0.010837561
-0.0085015126
-0.0064317188
-0.0046811214
-0.0032286632
-0.0022173649
-0.0014218052
-0.020943027
-0.018322703
-0.015263741
-0.012049677
-0.0088794877
-0.0057295197
-0.0024200197
-0.023083043
-0.024913528
-0.026509669
-0.027734777
-0.028125175
-0.027456783
-0.025905662
-0.023670002
-0.020886237
-0.017928224
-0.014840797
-0.011711235
-0.008920161
-0.0067444003
-0.0055220754
-0.0055826489
-0.0072998981
-0.010564027
-0.014584573
-0.018872823
-0.022809404
-0.025991771
-0.028195785
-0.029333144
-0.029422141
-0.028564509
-0.026917432
-0.024669164
-0.022018039
-0.01915026
-0.016232053
-0.013393478
-0.010738136
-0.0083321408
-0.0062217115
-0.0044477531
-0.0029868311
-0.001968624
-0.0011745156
-0.02375668
-0.021324858
-0.018448991
-0.015194252
-0.011882137
-0.0087562973
-0.0056807896
-0.0025535596
-0.025863335
-0.027725279
-0.029237951
-0.030062929
-0.029879283
-0.028667514
-0.026699823
-0.02414523
-0.021242373
-0.018294789
-0.015390831
-0.012658455
-0.010445374
-0.0090032099
-0.0085534469
-0.0094555811
-0.01203953
-0.015733837
-0.019942857
-0.024102444
-0.027669325
-0.030327504
-0.031919302
-0.032411749
-0.031868355
-0.030423728
-0.028258294
-0.025572852
-0.022569769
-0.019430995
-0.016314434
-0.013337291
-0.010591077
-0.0081290234
-0.005988715
-0.0041990867
-0.002734881
-0.0017133888
-0.00092297381
-0.026590677
-0.024196814
-0.021491491
-0.01839487
-0.014981009
-0.011611507
-0.0085539571
-0.005568678
-0.0026388733
-0.028730022
-0.030532895
-0.031702156
-0.03202783
-0.03132719
-0.029708727
-0.027405237
-0.024670281
-0.021785056
-0.019029663
-0.016496736
-0.014353274
-0.012891672
-0.012200126
-0.012504605
-0.01424876
-0.017470786
-0.021414813
-0.02561426
-0.029467979
-0.032532022
-0.034571431
-0.03548923
-0.035302983
-0.034114554
-0.032087235
-0.029419136
-0.02631949
-0.022990504
-0.019607082
-0.016316081
-0.013220899
-0.0104008
-0.0078961586
-0.0057357434
-0.0039371379
-0.0024742895
-0.0014531092
-0.00066849817
-0.029470091
-0.027037469
-0.024373704
-0.021438441
-0.018155994
-0.014626823
-0.011226208
-0.0082614174
-0.0053799104
-0.002621005
-0.031573698
-0.033098185
-0.033820283
-0.03369309
-0.032603048
-0.030650949
-0.028121332
-0.025346115
-0.022672305
-0.020327886
-0.018383112
-0.017027669
-0.016340824
-0.016338746
-0.017393264
-0.019890257
-0.023476305
-0.027491016
-0.031479802
-0.034869444
-0.037319834
-0.038664852
-0.038864113
-0.03797857
-0.036143859
-0.033546488
-0.030397541
-0.026911047
-0.023284468
-0.019683708
-0.016242276
-0.013049508
-0.010172173
-0.0076371555
-0.0054650305
-0.0036634029
-0.0022068249
-0.0011896934
-0.0004123811
-0.032302903
-0.029882369
-0.02717454
-0.024285229
-0.021162729
-0.017730745
-0.014123914
-0.01071934
-0.0078542206
-0.0050546651
-0.0024752297
-0.034189953
-0.035330566
-0.035681809
-0.035190121
-0.033777302
-0.031582018
-0.028950245
-0.026315002
-0.024128636
-0.022437777
-0.02130378
-0.020787149
-0.02078505
-0.021426455
-0.023185258
-0.026242491
-0.029936402
-0.033837207
-0.03742401
-0.040216714
-0.041963161
-0.042557747
-0.042009174
-0.040416648
-0.037944135
-0.03479661
-0.03119437
-0.027351242
-0.023457163
-0.019666769
-0.016099057
-0.012828908
-0.0099094974
-0.0073545123
-0.0051781205
-0.0033801988
-0.001935412
-0.00092499578
-0.00015527135
-0.034915181
-0.032651981
-0.029934486
-0.027000633
-0.023935313
-0.020650783
-0.017117173
-0.0134677
-0.010058635
-0.0072788448
-0.004570045
-0.0022537351
-0.036489746
-0.037335141
-0.037385754
-0.036587574
-0.034921142
-0.03258279
-0.03002811
-0.027820398
-0.026413475
-0.025625178
-0.025396305
-0.025631596
-0.026209297
-0.027461235
-0.029807282
-0.033119224
-0.036727335
-0.040313947
-0.043338747
-0.045429008
-0.04640313
-0.046208581
-0.044897276
-0.042600996
-0.039507892
-0.035836639
-0.0318127
-0.027645187
-0.023515024
-0.019563099
-0.015893251
-0.01256433
-0.0096155121
-0.0070498211
-0.0048781653
-0.0030921642
-0.0016626544
-0.00065856995
0.00011555339
-0.037231761
-0.035209826
-0.032592454
-0.029629547
-0.026525397
-0.023307553
-0.019914655
-0.016294553
-0.012599495
-0.009213963
-0.006533421
-0.0039939448
-0.0019954484
-0.038595973
-0.039202661
-0.03898525
-0.0379445
-0.036106809
-0.033794629
-0.031598187
-0.030144135
-0.029787836
-0.03007825
-0.030678846
-0.031524798
-0.032582879
-0.034367193
-0.03710008
-0.040351741
-0.04370441
-0.046792392
-0.049129721
-0.050437241
-0.050590301
-0.049584149
-0.047507534
-0.044520886
-0.040831759
-0.036668542
-0.032257114
-0.027799583
-0.023465753
-0.019380789
-0.015631146
-0.012258734
-0.0092919085
-0.0067274189
-0.0045721321
-0.002803036
-0.0013861514
-0.00037185296
0.00040408852
-0.039387149
-0.037487797
-0.035042537
-0.032128889
-0.028979387
-0.025729834
-0.022396643
-0.018886604
-0.01520405
-0.011518845
-0.0082028661
-0.0057085421
-0.0033734102
-0.0016964031
-0.04059325
-0.040976213
-0.040531784
-0.039319278
-0.037456951
-0.035452828
-0.033958944
-0.033558807
-0.034458476
-0.035837398
-0.037110568
-0.03839075
-0.039850942
-0.042017866
-0.044822285
-0.04781041
-0.050723014
-0.053163182
-0.054718669
-0.055184286
-0.054485692
-0.052658989
-0.049825736
-0.046170426
-0.041915907
-0.037296298
-0.032534093
-0.027823062
-0.023318522
-0.01912704
-0.015315936
-0.011914005
-0.0089446894
-0.0063972969
-0.0042651013
-0.0025069163
-0.0010782683
-6.7325507e-05
0.00070295049
-0.041462355
-0.039636386
-0.037228631
-0.034422243
-0.031280713
-0.027986772
-0.024590113
-0.021127232
-0.017545646
-0.013873029
-0.010274778
-0.0071414702
-0.0048351747
-0.0026907066
-0.0013636651
-0.042517553
-0.042689459
-0.042065417
-0.040816284
-0.039219786
-0.037864132
-0.037429842
-0.038326553
-0.040525104
-0.042858574
-0.044587335
-0.046136372
-0.047912351
-0.050213638
-0.052791719
-0.055341014
-0.057657206
-0.059334391
-0.060039711
-0.059624233
-0.058058507
-0.055414647
-0.051842657
-0.047547581
-0.042763235
-0.037725833
-0.032652801
-0.027726025
-0.023081792
-0.018805434
-0.014949764
-0.01153813
-0.0085875993
-0.0060658778
-0.0039464309
-0.0021597545
-0.00075386843
0.00024932604
0.0010117641
-0.043492267
-0.041730668
-0.039312376
-0.036474521
-0.0333773
-0.030050316
-0.026568663
-0.023041529
-0.019506417
-0.015958325
-0.012364504
-0.0089842733
-0.0060243204
-0.0038825661
-0.0019568331
-0.0010112226
-0.044390717
-0.044364597
-0.043676235
-0.042690533
-0.04170926
-0.041385358
-0.042279212
-0.044564659
-0.04795405
-0.051038638
-0.052944764
-0.05469853
-0.056590865
-0.058707618
-0.060836344
-0.062804978
-0.064399199
-0.065231679
-0.065039771
-0.063721396
-0.061286439
-0.057838975
-0.053554093
-0.04865358
-0.043379166
-0.037966533
-0.032624835
-0.02751795
-0.022759419
-0.018418285
-0.014542948
-0.011149392
-0.0082285951
-0.0057166313
-0.0035500438
-0.001795953
-0.00041475757
0.00057660495
0.0013305466
-0.045485836
-0.043808658
-0.041373357
-0.038449671
-0.035260488
-0.031928294
-0.028356543
-0.024714123
-0.021125791
-0.017651041
-0.014185225
-0.010819788
-0.0076095725
-0.0048138975
-0.002848529
-0.0011982209
-0.00065504248
-0.046208137
-0.046079773
-0.045638924
-0.045281904
-0.045298557
-0.046323128
-0.048685145
-0.052231755
-0.056629673
-0.060144355
-0.062083287
-0.063928809
-0.065630994
-0.067292143
-0.068811662
-0.070082489
-0.070863587
-0.070796043
-0.069678077
-0.067449445
-0.064154178
-0.059925216
-0.054959374
-0.049492729
-0.043772616
-0.038030872
-0.032460701
-0.027202841
-0.022353784
-0.017978688
-0.014119224
-0.010757512
-0.007843606
-0.0052550653
-0.0031363373
-0.0014143415
-6.5105114e-05
0.00091476489
0.0016588525
-0.047408683
-0.045867644
-0.043444667
-0.040429926
-0.037091437
-0.033611857
-0.029955899
-0.02618174
-0.022475856
-0.018980851
-0.01561243
-0.012388661
-0.0091671154
-0.0061218673
-0.0035136078
-0.0017596059
-0.00044447389
-0.00030116982
-0.0480209
-0.04810917
-0.048303623
-0.048954216
-0.050330414
-0.052915012
-0.056619727
-0.061230961
-0.066337953
-0.07002538
-0.071889589
-0.073557485
-0.074773016
-0.07579456
-0.076589474
-0.077084117
-0.07698298
-0.075981702
-0.073925195
-0.070790091
-0.066652285
-0.06167023
-0.056061231
-0.050073755
-0.043956937
-0.037930274
-0.032164546
-0.026783161
-0.021881048
-0.017516777
-0.013690524
-0.010329262
-0.0073015798
-0.004774922
-0.0027008918
-0.001023047
0.00029632885
0.0012629523
0.0019964343
-0.049293749
-0.047837953
-0.045508511
-0.042447507
-0.038952133
-0.035244904
-0.031380603
-0.027461956
-0.023631019
-0.020029732
-0.016653359
-0.013559575
-0.010474707
-0.0073908912
-0.0045278271
-0.0021485087
-0.00064886567
0.00029097573
6.2043388e-05
-0.050115277
-0.050813853
-0.052042211
-0.054073918
-0.057102826
-0.061159906
-0.065973061
-0.071407142
-0.076822024
-0.080528182
-0.082123907
-0.083288489
-0.083796588
-0.084077923
-0.084081116
-0.083732517
-0.082707559
-0.080755468
-0.077759944
-0.073731644
-0.068775394
-0.063074891
-0.056867482
-0.050409914
-0.043944048
-0.03766848
-0.031738447
-0.02627877
-0.021379018
-0.017047129
-0.013212317
-0.0096886571
-0.0067384957
-0.0042679098
-0.0022571597
-0.00061926698
0.00066817167
0.0016210319
0.0023428002
-0.051431357
-0.049736193
-0.047469162
-0.044472993
-0.04087455
-0.036928421
-0.032774559
-0.028599518
-0.024617098
-0.020885983
-0.017417091
-0.014329012
-0.011385385
-0.0084197064
-0.0054963633
-0.0028611704
-0.00075850334
0.00044744927
0.00097810678
0.00043558263
-0.052864976
-0.054556984
-0.05722515
-0.060993036
-0.065654711
-0.070907763
-0.076634922
-0.082453025
-0.087863964
-0.091423735
-0.092466024
-0.0928983
-0.092570278
-0.092056376
-0.091213526
-0.089972691
-0.088002168
-0.085093898
-0.081168388
-0.076266261
-0.070522171
-0.064146083
-0.057391353
-0.050513628
-0.043736812
-0.037247206
-0.031206124
-0.025736261
-0.020865412
-0.01651163
-0.012452663
-0.0090238195
-0.0061425135
-0.0037546866
-0.0018005811
-0.00020513844
0.0010502679
0.0019882171
0.0026976205
-0.054193362
-0.051858797
-0.049328646
-0.046376255
-0.042826444
-0.038700082
-0.034236775
-0.029723529
-0.025468515
-0.021583457
-0.017987178
-0.014812997
-0.011899268
-0.0090681444
-0.0062350233
-0.0035209628
-0.0011698861
0.00060026353
0.0015015741
0.0015957776
0.00082281812
-0.056631072
-0.059771422
-0.064252711
-0.069804265
-0.075821159
-0.082062154
-0.088305451
-0.094054565
-0.099195932
-0.10239224
-0.10265727
-0.10220757
-0.1010035
-0.099644912
-0.097925526
-0.095764491
-0.0928406
-0.088981897
-0.084140989
-0.0783907
-0.071898037
-0.064896841
-0.05764508
-0.05038616
-0.043335777
-0.036694425
-0.030624787
-0.025176954
-0.020265685
-0.015610193
-0.011664158
-0.0083184466
-0.0055433473
-0.0032286251
-0.0013340264
0.00021933076
0.0014416454
0.00236416
0.0030604348
-0.057948317
-0.054571609
-0.051378181
-0.048158174
-0.044641074
-0.040507361
-0.035798373
-0.030942523
-0.026338085
-0.022176662
-0.018424084
-0.015119156
-0.012131459
-0.0093191938
-0.0066168533
-0.0039706544
-0.0015196569
0.0004894366
0.0018957659
0.0024678712
0.0021541641
0.0011939688
-0.061846244
-0.066828225
-0.073245912
-0.080343306
-0.087473827
-0.094358221
-0.10059547
-0.10589852
-0.11057383
-0.1131801
-0.11250458
-0.11109723
-0.10903746
-0.10677764
-0.10417276
-0.10108345
-0.097207485
-0.092408683
-0.086672764
-0.080109318
-0.072916013
-0.065337976
-0.057627441
-0.050025857
-0.042773843
-0.03607944
-0.030020303
-0.024506617
-0.019196518
-0.014674035
-0.010826078
-0.0076140165
-0.0049318251
-0.0026932397
-0.00085753342
0.00065304661
0.0018417874
0.0027481068
0.003430936
-0.06313132
-0.058253927
-0.053983067
-0.050111884
-0.046317746
-0.042153713
-0.037390059
-0.032273633
-0.027317425
-0.022804926
-0.018776683
-0.015297426
-0.01219424
-0.0092976353
-0.0066142544
-0.004089755
-0.0016834975
0.00043483812
0.002066785
0.0030927407
0.0033050761
0.0026367395
0.0014762733
-0.068884783
-0.07589063
-0.084069131
-0.092445858
-0.10036555
-0.10736833
-0.11309921
-0.11769791
-0.12180704
-0.12357779
-0.12188789
-0.11953984
-0.11658405
-0.11342716
-0.1099316
-0.10591266
-0.10109157
-0.095367935
-0.088767054
-0.081434519
-0.073585368
-0.065465117
-0.057333943
-0.049470761
-0.042134195
-0.035432772
-0.02927449
-0.023241112
-0.0180851
-0.013677125
-0.0099945579
-0.0068980015
-0.0043121919
-0.0021484591
-0.00037228252
0.001095327
0.0022499018
0.0031399061
0.0038083932
-0.070089182
-0.063327795
-0.057544382
-0.052580103
-0.048149451
-0.04365625
-0.038800812
-0.033614379
-0.028402978
-0.023543068
-0.019162977
-0.015397771
-0.01212883
-0.0091155425
-0.0063438304
-0.0038401362
-0.001545583
0.00054583823
0.0022882806
0.0035234856
0.004139324
0.0039650423
0.0029903209
0.0016286517
-0.077921583
-0.086864847
-0.096548712
-0.10589586
-0.11410647
-0.12064999
-0.12549732
-0.12932339
-0.13267907
-0.1334575
-0.13072884
-0.12746347
-0.1236089
-0.1195714
-0.11518682
-0.11024203
-0.10448657
-0.097862529
-0.090436402
-0.082374383
-0.07389666
-0.065269627
-0.056807476
-0.048820399
-0.041452771
-0.034607612
-0.027780814
-0.0219241
-0.016899442
-0.012694097
-0.0091528125
-0.0061755606
-0.003684152
-0.0015956031
0.00012089316
0.0015454778
0.0026661484
0.003538659
0.0041924006
-0.079028462
-0.070120625
-0.062426695
-0.055946152
-0.050443316
-0.045289741
-0.040081171
-0.034777196
-0.029480177
-0.02438521
-0.019666291
-0.015557935
-0.012002667
-0.008814497
-0.0059291094
-0.0033391518
-0.0010659936
0.00092092991
0.0026482076
0.0039887276
0.0047732037
0.0049565354
0.0044091887
0.0031573056
0.0016576771
-0.088908017
-0.09955891
-0.11048349
-0.12030562
-0.12821565
-0.13379771
-0.13763514
-0.14064528
-0.14302231
-0.14274069
-0.13895919
-0.13483774
-0.13010066
-0.1251982
-0.119928
-0.11406544
-0.1073958
-0.099906262
-0.091687362
-0.082912403
-0.073835556
-0.064799728
-0.056166139
-0.048116779
-0.04054835
-0.032851449
-0.026224359
-0.020516331
-0.015737166
-0.011702691
-0.008307049
-0.0054460457
-0.0030491609
-0.0010355937
0.00062149704
0.0020041499
0.0030889942
0.0039437206
0.0045823991
-0.089954056
-0.078855489
-0.068965241
-0.060578881
-0.05359467
-0.04737811
-0.041483793
-0.035829865
-0.03038688
-0.025200888
-0.020244054
-0.015829377
-0.011921459
-0.0084529312
-0.00540403
-0.0027105574
-0.00036340364
0.0016038613
0.0032275686
0.004553918
0.0054192537
0.0057280957
0.0055007437
0.0046213583
0.0031602424
0.0015799341
-0.10168214
-0.11380508
-0.12549824
-0.13519331
-0.14221306
-0.14659766
-0.14940773
-0.15149941
-0.15273938
-0.15139189
-0.14660074
-0.14164823
-0.13604936
-0.13029846
-0.12415076
-0.11738774
-0.10983488
-0.10150526
-0.092496491
-0.083026757
-0.073456067
-0.064194038
-0.055459394
-0.047137539
-0.038492691
-0.031018883
-0.024557062
-0.019143986
-0.014569054
-0.010710425
-0.007456098
-0.0047110278
-0.0024081826
-0.00046863261
0.0011309568
0.002469138
0.0035176946
0.0043542031
0.0049779228
-0.10273216
-0.089614133
-0.077433191
-0.066825196
-0.057964563
-0.050291522
-0.043328478
-0.037024739
-0.031233821
-0.025890824
-0.020800641
-0.016172529
-0.011955929
-0.0081442686
-0.0048352396
-0.001993327
0.00043828893
0.0024731293
0.004067681
0.0052830989
0.0061145724
0.0064804097
0.0063603995
0.0057740829
0.0046378918
0.0030418016
0.0014284425
-0.11606444
-0.12924808
-0.14110084
-0.15005713
-0.15582987
-0.15896946
-0.16074144
-0.16177099
-0.16177651
-0.15935543
-0.15370001
-0.14788044
-0.14145006
-0.1348699
-0.12786318
-0.12022817
-0.11181127
-0.10262816
-0.092830693
-0.082776712
-0.072920281
-0.06351103
-0.054415452
-0.044743621
-0.036344114
-0.029050912
-0.022940305
-0.017769009
-0.013404184
-0.0097154116
-0.006601576
-0.0039714577
-0.0017611039
0.00010771115
0.0016461856
0.0029394429
0.003951232
0.0047694894
0.0053784419
-0.1171822