/*--------------------------------*- C++ -*----------------------------------*\
| =========                 |                                                 |
| \\      /  F ield         | OpenFOAM: The Open Source CFD Toolbox           |
|  \\    /   O peration     | Version:  5.0                                   |
|   \\  /    A nd           | Web:      www.OpenFOAM.org                      |
|    \\/     M anipulation  |                                                 |
\*---------------------------------------------------------------------------*/
FoamFile
{
    version     2.0;
    format      ascii;
    class       volScalarField;
    location    "160";
    object      pPrime2Mean;
}
// * * * * * * * * * * * * * * * * * * * * * * * * * * * * * * * * * * * * * //

dimensions      [0 4 -4 0 0 0 0];

internalField   nonuniform List<scalar> 
9200
(
1.7334294e-06
1.8552342e-06
1.0978841e-05
2.0231356e-06
1.150327e-05
2.9999565e-05
2.3844662e-06
1.215068e-05
3.1239755e-05
5.4608223e-05
2.9369287e-06
1.3397636e-05
3.2994711e-05
5.6547872e-05
8.4789739e-05
3.8800252e-06
1.5125714e-05
3.6200617e-05
5.9345802e-05
8.7419279e-05
0.00011827411
5.4168537e-06
1.7666944e-05
4.062945e-05
6.4321558e-05
9.1088524e-05
0.00012132491
0.00015417568
7.9349471e-06
2.1184985e-05
4.691901e-05
7.1103768e-05
9.7533269e-05
0.00012549386
0.0001574777
0.00019186106
1.1861193e-05
2.6018098e-05
5.5333406e-05
8.058945e-05
0.00010615082
0.0001328143
0.0001617853
0.00019519623
0.00023091125
1.7839156e-05
3.2407479e-05
6.6542136e-05
9.3048666e-05
0.00011796545
0.00014242202
0.0001694104
0.00019928523
0.00023414644
0.00027119453
2.612576e-05
4.0688938e-05
8.1242328e-05
0.0001092622
0.0001331746
0.0001554224
0.00017921812
0.00020672337
0.00023775575
0.00027422432
0.00031269141
3.41703e-05
5.0848609e-05
0.00010026761
0.00012991426
0.00015261755
0.00017185387
0.000192377
0.00021609488
0.00024463828
0.00027716215
0.00031545554
0.00035544295
3.8424451e-05
6.3750694e-05
0.00012472862
0.00015609017
0.00017702894
0.00019250791
0.00020876168
0.00022862941
0.0002531161
0.00028324544
0.00031759835
0.00035791763
0.00039957414
4.2955722e-05
8.4528209e-05
0.00015790537
0.00018980375
0.00020773901
0.00021802265
0.00022909516
0.00024403207
0.00026449361
0.00029054528
0.00032274294
0.00035920248
0.00040175348
0.00044514091
5.5724431e-05
0.0001226041
0.0002081377
0.00023563696
0.00024707726
0.00024970611
0.00025390285
0.00026296484
0.00027833561
0.00030046733
0.00032872445
0.00036336446
0.00040215209
0.00044704225
0.00049231264
7.9517388e-05
0.0001924034
0.00028854245
0.00030343314
0.00030004828
0.00028987544
0.00028438871
0.000285836
0.00029526044
0.00031245315
0.0003370795
0.00036801219
0.00040534126
0.0004465676
0.00049394765
0.00054111284
0.00011527769
0.00030434854
0.00041942809
0.00040926801
0.00037650025
0.00034334237
0.00032266884
0.00031370915
0.0003155791
0.0003271033
0.00034714442
0.000374843
0.0004087219
0.00044885
0.0004926097
0.00054249566
0.00059169929
0.00016142927
0.00045592651
0.00061776851
0.00057685076
0.00049439205
0.00041997324
0.00037310748
0.00034845242
0.00034024126
0.00034465145
0.00035951536
0.00038310411
0.00041417853
0.00045110285
0.00049405599
0.00054031494
0.00059284132
0.00064407557
0.00021003708
0.00063883748
0.00087870876
0.00083111534
0.00068100705
0.00053809147
0.00044486689
0.00039395217
0.0003709194
0.00036595545
0.0003743616
0.00039340095
0.00042088705
0.00045542703
0.00049534144
0.00054101581
0.00058982439
0.00064496448
0.00069834326
0.00025285305
0.00082917296
0.0011851207
0.0011709761
0.00096503569
0.00072464739
0.00055522465
0.0004582742
0.00041097836
0.00039249004
0.00039247112
0.00040583677
0.00042946157
0.00046094725
0.00049881417
0.00054152023
0.00058982717
0.00064109699
0.00069896187
0.00075452274
0.00028198549
0.0010040215
0.0014979263
0.0015751442
0.0013502296
0.0010118971
0.00073066027
0.00055693945
0.00046723588
0.00042721039
0.00041515374
0.00042111643
0.00043994291
0.00046829667
0.00050357849
0.0005444591
0.00058969897
0.00064043133
0.00069422318
0.00075482985
0.00081267758
0.0002859596
0.0011364304
0.001779996
0.0019954292
0.0018133224
0.0014129768
0.0010060497
0.00071722034
0.00055337271
0.00047570465
0.0004449699
0.00044039995
0.00045293945
0.0004774423
0.00051029524
0.0005489564
0.00059239588
0.00063980203
0.00069288838
0.00074915265
0.00081262228
0.00087284225
0.00026636697
0.0011996093
0.0020006981
0.0023758957
0.0023062562
0.0019066823
0.0014027112
0.00097261171
0.00069517293
0.00054966196
0.00048657911
0.00046589499
0.00046945561
0.00048889227
0.00051885792
0.00055572345
0.00059711101
0.00064252843
0.00069181415
0.00074707626
0.00080592749
0.00087235645
0.00093505669
0.00023872906
0.0011960524
0.0021345483
0.0026809703
0.0027669379
0.0024483629
0.001906184
0.0013495061
0.00092436861
0.00067142011
0.00054948697
0.00050156568
0.00049139766
0.0005034698
0.00052966931
0.00056459659
0.00060464602
0.00064793147
0.00069474996
0.00074555139
0.00080301664
0.00086452993
0.00093406755
0.00099935354
0.0002103492
0.0011499539
0.0021572916
0.0028871789
0.0031487517
0.0029737477
0.0024792358
0.0018470784
0.0012736445
0.00087294168
0.00065253817
0.00055475971
0.00052201647
0.00052273717
0.00054334486
0.0005758753
0.00061481384
0.00065696028
0.0007012237
0.00074880512
0.00080097296
0.00086061677
0.00092498598
0.00099778109
0.0010657663
0.00018489159
0.0010880763
0.0020998679
0.0029444406
0.0034191089
0.003423818
0.0030538322
0.0024328764
0.0017540621
0.0011911611
0.00082735786
0.00064095622
0.00056726277
0.00054941895
0.00056111569
0.00058993288
0.00062780664
0.00066946713
0.00071240845
0.00075664248
0.00080452455
0.00085787679
0.00091987782
0.00098730729
0.0010635301
0.0011343177
0.00016384092
0.0010145815
0.0020075788
0.0028865025
0.0035335961
0.0037593194
0.0035679726
0.003046947
0.0023397261
0.0016448579
0.00110987
0.00078819609
0.00063887135
0.00058829201
0.00058522324
0.00060771496
0.00064379471
0.00068556462
0.00072826271
0.00077054399
0.0008138585
0.00086158926
0.00091622894
0.00098076821
0.001051521
0.0011313414
0.001205001
0.00014654617
0.00093746279
0.0018877211
0.0027671535
0.0035017836
0.0039493994
0.0039747741
0.0036184718
0.0029802007
0.002217321
0.0015266969
0.0010311512
0.00075992798
0.00064800726
0.00061953047
0.00063091307
0.00066339148
0.00070526234
0.00074890263
0.00079067754
0.00083085742
0.00087240363
0.00091986094
0.00097589709
0.0010433084
0.0011176555
0.0012012284
0.0012777765
0.00013250021
0.00085999862
0.0017541605
0.0026117401
0.0033787117
0.003969432
0.0042405094
0.0040927121
0.003600166
0.0028697905
0.0020761431
0.0014062709
0.00096579512
0.00074707793
0.00067040487
0.00066264454
0.0006878443
0.00072884393
0.00077421984
0.00081726643
0.00085602335
0.0008926855
0.00093194066
0.00097906704
0.0010368809
0.0011075183
0.0011857429
0.0012731853
0.0013526303
0.00012029485
0.00078527908
0.001617337
0.0024353109
0.0032115668
0.0038665503
0.004329516
0.0044311041
0.0041375052
0.0035293128
0.0027250397
0.0019237849
0.0012942603
0.00091712391
0.00075154844
0.00070791079
0.00071950628
0.00075711993
0.00080423338
0.00085018296
0.00088980945
0.000923396
0.00095543024
0.00099202993
0.0010391448
0.0010991469
0.0011734383
0.0012558117
0.0013471983
0.0014296002
0.00010660364
0.0007163961
0.001484883
0.0022530367
0.0030137252
0.003704
0.004271514
0.0046094098
0.0045554387
0.0041262757
0.003411174
0.002554759
0.0017668841
0.0011938458
0.0008889182
0.00077592868
0.00076225517
0.00079173748
0.00083934963
0.00088928254
0.00093221264
0.0009653762
0.00099187919
0.0010184087
0.0010524506
0.0010999554
0.0011627505
0.0012411212
0.0013278807
0.0014232494
0.0015086371
9.2849971e-05
0.00064313047
0.0013611854
0.0020746502
0.002805234
0.003502974
0.0041292749
0.0046164475
0.0048266744
0.0046202705
0.0040612438
0.0032510438
0.0023677248
0.0016117114
0.0011177462
0.00088701442
0.00082261533
0.00083564087
0.00088060338
0.00093461202
0.00098305261
0.001018929
0.0010426862
0.001060447
0.0010811277
0.0011129147
0.0011615544
0.0012277534
0.0013106289
0.0014019554
0.0015012905
0.00158946
7.93719e-05
0.00057067967
0.0012265794
0.001908812
0.0025984734
0.0032852784
0.0039411257
0.0045085826
0.0049124432
0.0049764001
0.0046230811
0.0039416548
0.0030559346
0.0021742749
0.0014753406
0.0010734916
0.00091447788
0.00089373765
0.00093000322
0.00098667062
0.0010421617
0.001084016
0.001108648
0.0011202702
0.0011282268
0.0011430772
0.001173388
0.0012239518
0.0012942589
0.0013820133
0.0014780247
0.0015812265
0.0016718368
6.5931004e-05
0.00049930011
0.0010939039
0.0017289901
0.0024055473
0.0030673338
0.0037279846
0.0043458427
0.0048628703
0.0051633669
0.0050638574
0.0045632009
0.0037721808
0.002839988
0.0019823622
0.0013694503
0.0010648659
0.0009746622
0.00099121094
0.001046675
0.0011095881
0.0011604365
0.0011901056
0.0011993763
0.0011967526
0.0011943635
0.0012040173
0.0012338001
0.0012873019
0.0013623684
0.0014553168
0.0015560531
0.0016629651
0.0017557404
5.3727004e-05
0.00042898499
0.00096134544
0.001553639
0.0021937476
0.0028624951
0.00351052
0.0041500556
0.0047391087
0.0051955055
0.0053610717
0.0050823008
0.0044461623
0.0035629818
0.0026141905
0.0018071846
0.001307468
0.0010983618
0.0010698184
0.0011170802
0.0011859094
0.0012479983
0.0012870509
0.001298737
0.0012890971
0.0012707636
0.0012582836
0.0012637468
0.001294313
0.0013517329
0.0014322002
0.0015305709
0.0016359792
0.0017463936
0.001841256
4.3525514e-05
0.00036334485
0.00083028148
0.0013816187
0.0019909225
0.0026316517
0.0033050328
0.0039446951
0.0045743129
0.0051272014
0.0054884085
0.0054760707
0.005031439
0.0042745192
0.0033253331
0.0023895145
0.0016720257
0.0012975821
0.0011782982
0.0012020796
0.001272625
0.0013468069
0.0013993435
0.0014188504
0.001407124
0.0013757463
0.0013412368
0.0013195296
0.0013223407
0.0013550612
0.0014174607
0.0015038607
0.001607793
0.0017177278
0.0018313154
0.0019283202
3.5596974e-05
0.00030644441
0.00070617913
0.0012136061
0.0017908999
0.0024154453
0.0030650975
0.0037478938
0.0043915693
0.0050112314
0.0054943057
0.0057101865
0.0055109762
0.004920603
0.0040581142
0.0030732051
0.0021831651
0.001597013
0.0013445392
0.0013087211
0.0013724622
0.0014575558
0.0015268479
0.0015599058
0.001552145
0.0015123024
0.0014575479
0.0014072849
0.0013779787
0.0013799188
0.0014163528
0.0014846693
0.0015774442
0.0016869756
0.0018012481
0.0019176397
0.0020166728
3.0464093e-05
0.00025982291
0.00059856735
0.001054053
0.0015969846
0.0022000321
0.0028463861
0.0035059414
0.0042140834
0.0048698126
0.0054386758
0.0058081757
0.0058580984
0.0054774084
0.004754294
0.0038079643
0.0028234155
0.002028502
0.0015954775
0.0014545474
0.0014900434
0.0015818689
0.0016697996
0.0017219312
0.0017250686
0.0016828844
0.0016115517
0.0015329661
0.0014684355
0.0014336608
0.0014368285
0.0014784554
0.0015535795
0.0016530217
0.0017680644
0.0018864211
0.0020052597
0.0021061424
2.8534787e-05
0.00022546025
0.00051079327
0.00091437435
0.0014128384
0.0019920301
0.0026257465
0.0032923859
0.0039759069
0.0047285756
0.0053508306
0.0058229861
0.0060562812
0.0059210458
0.0053776182
0.0045387403
0.0035423881
0.0026032299
0.0019509082
0.0016708054
0.0016344952
0.0017228141
0.0018289433
0.0019050194
0.0019264916
0.0018894793
0.0018071013
0.0017023924
0.0016009754
0.0015244865
0.0014869041
0.001493443
0.0015417422
0.001624371
0.001730651
0.0018509958
0.0019731056
0.0020940074
0.0021965086
3.0147745e-05
0.00020482851
0.00044551155
0.00080091155
0.0012501155
0.0017939608
0.002413681
0.0030734967
0.0037760171
0.0045053742
0.0052598226
0.0057996603
0.0061505149
0.0062343621
0.0059078813
0.0052219633
0.0042886735
0.0032827171
0.0024423505
0.0019739052
0.0018308995
0.0018850941
0.0020061117
0.0021095177
0.0021567984
0.0021336821
0.0020476267
0.0019210376
0.0017829485
0.0016609339
0.0015756485
0.0015381593
0.0015502804
0.00160653
0.001697225
0.0018103448
0.0019356879
0.0020611516
0.0021837192
0.0022875048
0.00019886122
3.5581962e-05
0.00040518926
0.00071738276
0.0011195378
0.00161689
0.0022101976
0.0028626829
0.0035632634
0.0043308895
0.005066591
0.005767337
0.0062009786
0.006432362
0.0063398811
0.005832911
0.0050184751
0.0040219704
0.0030609884
0.0023869902
0.0021053439
0.002082428
0.0022042782
0.0023365066
0.0024165744
0.0024167956
0.002336144
0.0021940618
0.0020216018
0.0018518743
0.0017127673
0.0016223742
0.0015880821
0.0016078483
0.0016731786
0.0017722568
0.0018920848
0.0020220293
0.0021503889
0.0022742103
0.0023789067
0.00039185285
0.00020779542
4.4993456e-05
0.00066664486
0.0010246239
0.0014768171
0.002026676
0.002659201
0.0033572271
0.0041341676
0.0049352475
0.0056109086
0.0062395757
0.0065650974
0.0066501432
0.0063579467
0.0056989588
0.0047790654
0.0037667929
0.0029267925
0.0024628789
0.0023446817
0.0024294686
0.0025879069
0.0027065156
0.0027400604
0.002675379
0.0025262794
0.0023240386
0.0021063903
0.0019085938
0.0017568215
0.0016654381
0.0016373802
0.0016667131
0.0017419541
0.0018495699
0.0019758112
0.0021098825
0.0022406358
0.0023652868
0.0024705373
0.00065008022
0.00040546087
0.00023113544
5.8457547e-05
0.0009681223
0.0013771855
0.0018818548
0.0024744619
0.0031583723
0.0039398618
0.0047696741
0.0055335722
0.0061349628
0.0066853403
0.0068843037
0.0067926413
0.0063107922
0.0055164528
0.0045240885
0.0035754879
0.0029255136
0.0026841568
0.0027021425
0.0028662991
0.0030280053
0.0031046009
0.0030678041
0.0029222993
0.0026971449
0.0024336163
0.0021739887
0.0019531463
0.0017939135
0.0017057622
0.0016868642
0.001727351
0.0018131294
0.001929202
0.0020614392
0.0021990907
0.0023317033
0.0024567469
0.0025622268
0.00095104346
0.00066697674
0.00044444636
0.00026747338
7.6300694e-05
0.001322161
0.0017829603
0.0023289693
0.0029757672
0.0037487612
0.0046007574
0.0054098199
0.006121505
0.0066414948
0.007102777
0.0071501842
0.0068643238
0.0062099967
0.0052969051
0.0043012011
0.0035050888
0.0030982431
0.0030489983
0.0031812197
0.0033829878
0.0035119524
0.0035158337
0.003386437
0.0031477815
0.002842744
0.0025201321
0.0022238558
0.0019862632
0.0018251601
0.001744449
0.0017373451
0.0017902666
0.0018868886
0.002011162
0.0021488508
0.0022894804
0.0024234013
0.0025484045
0.0026537887
0.0013115163
0.00097192094
0.00071386222
0.00050525631
0.00031416833
9.7668005e-05
0.0017333747
0.0022328534
0.0028286137
0.003567125
0.004429492
0.0052789172
0.0060514957
0.0067095998
0.007133171
0.0074815089
0.0073504568
0.0068606772
0.0060542538
0.0050768983
0.0041775208
0.0036124658
0.0034593494
0.0035584285
0.0037749715
0.0039640748
0.0040218928
0.0039229424
0.0036825836
0.0033430475
0.0029585837
0.0025821288
0.0022564605
0.0020091949
0.0018519792
0.0017826602
0.0017896006
0.0018558665
0.0019633779
0.0020953973
0.0022379022
0.002380865
0.0025155322
0.0026400733
0.002745039
0.0017323534
0.0013428997
0.0010261376
0.0007854948
0.00058271611
0.00036775106
0.0001214556
0.0021909934
0.0027358049
0.0034160488
0.004254416
0.005141237
0.005970591
0.0067071072
0.0072975911
0.0076047345
0.007808983
0.0074756518
0.0067930544
0.0058713964
0.0049235431
0.0042252351
0.0039369977
0.004009379
0.0042178991
0.0044628574
0.0045886839
0.0045359888
0.0043081235
0.0039438449
0.0035011499
0.0030417866
0.0026194781
0.0022730322
0.0020236671
0.0018759374
0.001821565
0.0018443366
0.0019244949
0.0020426586
0.0021818227
0.0023284252
0.0024730506
0.0026079009
0.0027315691
0.0028358014
0.0022014226
0.0017759305
0.001409567
0.0011067719
0.00087464495
0.00067054803
0.00042457275
0.00014543751
0.0027008389
0.0033213531
0.0040997879
0.0049867324
0.0058775542
0.0066899266
0.0073810847
0.0078833342
0.0080432339
0.0080702253
0.0075162864
0.0066748322
0.0057209438
0.0049263565
0.0045068134
0.004508237
0.0047378215
0.0050140874
0.0052184267
0.0052296601
0.0050309418
0.004654406
0.0041599622
0.0036171663
0.0030912581
0.0026332265
0.0022755853
0.0020317045
0.0018986799
0.001862279
0.0019021855
0.0019963972
0.0021247437
0.0022703083
0.0024202381
0.0025658392
0.0027003116
0.0028227112
0.0029259205
0.002721938
0.002258298
0.0018555154
0.0015029165
0.0012044632
0.0009735058
0.0007607675
0.00047970292
0.00016747597
0.0032878572
0.004000788
0.0048386677
0.0057574783
0.0066567264
0.0074448177
0.0080740997
0.0084561245
0.0084324436
0.0082569771
0.0074859561
0.0065584551
0.0057004377
0.0051634531
0.0050711126
0.0053191702
0.0056371439
0.005914247
0.0060080388
0.0058575023
0.0054841356
0.0049472701
0.0043232635
0.0036885924
0.0031075834
0.0026255286
0.0022666322
0.0020355161
0.0019218532
0.0019058296
0.0019636616
0.0020717428
0.0022095805
0.0023607034
0.0025131405
0.002659021
0.0027925694
0.0029133311
0.0030152536
0.0033142766
0.0027907233
0.0023503202
0.0019601308
0.0016114707
0.0013093494
0.0010715282
0.00084699384
0.00052844867
0.00018402703
0.0039649441
0.0047443602
0.0056279664
0.0065839195
0.0074874283
0.0082395378
0.0087763866
0.0089990965
0.0087584469
0.0083607996
0.0074284216
0.0065410819
0.005903148
0.0057063909
0.005936941
0.0063433473
0.0066868326
0.0068749433
0.0067940046
0.0064423255
0.0058755736
0.0051753105
0.0044291194
0.0037150843
0.0030928797
0.0025993498
0.002248995
0.0020373953
0.0019470281
0.001953115
0.0020291787
0.0021506123
0.0022970767
0.0024528207
0.0026069109
0.0027523789
0.0028844958
0.0030032837
0.0031036665
0.0039920019
0.0033905417
0.0028935696
0.0024642133
0.0020761886
0.0017219994
0.0014087899
0.0011598367
0.0009200021
0.00056003628
0.00019186753
0.004712496
0.0055472434
0.0064886908
0.0074805531
0.0083782191
0.0090712616
0.0094763378
0.0094895672
0.0090119608
0.00841045
0.00744036
0.0067271251
0.0064157398
0.0066028893
0.0070919847
0.0075540826
0.0078360985
0.0078460222
0.0075379831
0.0069573265
0.0061890381
0.005331031
0.0044758326
0.0036985088
0.0030504927
0.0025582534
0.0022257605
0.0020396027
0.0019756216
0.002004894
0.0020990334
0.0022330179
0.0023870804
0.0025464344
0.0027013095
0.0028457202
0.0029759505
0.0030924384
0.0031910196
0.0047446367
0.0040710749
0.0034999756
0.0030146691
0.0025836548
0.0021855205
0.0018201366
0.0014919397
0.0012219283
0.00096332517
0.00056864962
0.00019320437
0.0055269169
0.0064291597
0.0074315328
0.0084558506
0.0093285209
0.0099252824
0.010143279
0.0099158694
0.0091942269
0.008483538
0.0076302014
0.0072153307
0.0073178196
0.0078689622
0.008497057
0.0089039572
0.0090189443
0.008778967
0.0082046221
0.0073801682
0.0064132063
0.0054108503
0.0044647012
0.003642488
0.0029847684
0.0025062346
0.0022000435
0.0020442592
0.0020088836
0.0020617875
0.0021734075
0.002318884
0.0024793747
0.0026412841
0.0027961306
0.002938912
0.003066801
0.0031806298
0.0032813546
0.0055699299
0.0048299947
0.0041832419
0.0036245912
0.0031353371
0.0026893618
0.0022764475
0.0018870556
0.0015330433
0.0012425108
0.0009699328
0.0005629581
0.00018775858
0.0064262789
0.0074007796
0.008467063
0.0095138194
0.010328089
0.010773896
0.010751904
0.010274125
0.0093568535
0.0087043037
0.008104471
0.0081044215
0.0086616857
0.009468838
0.010077366
0.010321701
0.010172459
0.0096284157
0.0087640818
0.0076946359
0.0065418123
0.0054149318
0.0043994121
0.003552103
0.0029007003
0.0024474352
0.0021748577
0.0020532922
0.0020478903
0.0021242437
0.0022523494
0.0024080269
0.0025736919
0.0027371566
0.002891251
0.0030318163
0.0031568205
0.0032713203
0.0033767062
0.0064840075
0.0056655962
0.0049462443
0.0043073886
0.0037423299
0.0032348581
0.0027675035
0.0023143822
0.0018945159
0.001523222
0.0012201612
0.00095882422
0.00054267465
0.00017793852
0.0074211938
0.008474772
0.0096052728
0.010647616
0.011350613
0.011581795
0.011295544
0.010586792
0.0096093326
0.0091827446
0.0089735847
0.0094825995
0.010435097
0.011314413
0.011756034
0.011726223
0.011238574
0.010355133
0.0091941101
0.0078909123
0.0065735381
0.0053468298
0.0042857451
0.0034334487
0.0028036646
0.0023859673
0.0021530226
0.0020684058
0.0020934976
0.0021925279
0.0023357608
0.0025001985
0.002669831
0.002833946
0.0029865194
0.0031241033
0.003249049
0.0033667512
0.0034745028
0.0074976263
0.0065917584
0.0057878047
0.0050687354
0.0044173745
0.0038349814
0.0032895689
0.0027690954
0.0022780173
0.0018438133
0.0014681843
0.0011876093
0.00092096156
0.0005135288
0.00016422381
0.0085245286
0.0096601192
0.010838456
0.011835386
0.012359709
0.012324236
0.011791044
0.010942102
0.010066023
0.010039393
0.010351345
0.01138083
0.012546524
0.013290501
0.013442237
0.013043485
0.012165902
0.01092921
0.009480247
0.0079655302
0.0065114414
0.0052129671
0.0041310023
0.0032933097
0.0026991133
0.0023257874
0.0021371039
0.0020910213
0.0021462835
0.0022666828
0.0024234585
0.0025952277
0.0027677062
0.0029314687
0.003081477
0.0032184596
0.0033460407
0.0034650487
0.0035747296
0.0086245732
0.0076190859
0.0067189748
0.0059078501
0.0051660831
0.0044904372
0.003853542
0.0032499556
0.0026813992
0.0021813854
0.0017425411
0.0014108155
0.0011247926
0.00086954654
0.00047459396
0.00014772921
0.0097443983
0.010949169
0.012145239
0.013036297
0.013319143
0.013014634
0.012286373
0.011432471
0.010846221
0.011405456
0.012306133
0.013729692
0.014856322
0.015290784
0.015047093
0.01420683
0.012915619
0.011330626
0.009616136
0.0079207877
0.0063624416
0.0050218781
0.0039435063
0.0031387357
0.0025923961
0.0022705761
0.0021293066
0.0021222008
0.0022065448
0.0023466591
0.0025153357
0.0026930577
0.0028670849
0.0030291159
0.0031785827
0.0033178572
0.0034463257
0.0035661906
0.0036773566
0.0098701003
0.0087644201
0.0077520359
0.006833406
0.0059906813
0.0052207605
0.0044722341
0.0037655878
0.0031091145
0.002534394
0.0020290623
0.0016491661
0.0013155652
0.0010482753
0.00080266965
0.00042713382
0.00013009981
0.011068461
0.012321014
0.013491434
0.014204002
0.014225262
0.013685565
0.012860065
0.01215697
0.012091054
0.013378246
0.014815064
0.016368645
0.017217199
0.017217086
0.016483761
0.015166232
0.013460925
0.011549228
0.0096027493
0.0077638741
0.006136332
0.0047836288
0.0037321359
0.002976777
0.0024886066
0.0022235918
0.0021313629
0.0021626378
0.0022744542
0.0024324739
0.0026113761
0.002793391
0.0029671829
0.0031292606
0.0032813012
0.0034210225
0.0035499208
0.0036701169
0.003782343
0.011214486
0.010031293
0.0089063981
0.0078588415
0.0068970681
0.0060186993
0.0051525875
0.0043263894
0.003566891
0.0029082272
0.0023275816
0.0018948278
0.0015095566
0.001206423
0.00095576103
0.00072302704
0.00037317279
0.00011251968
0.012475041
0.013741654
0.014823143
0.01532136
0.015099428
0.014403129
0.013587543
0.013270748
0.013920963
0.015973537
0.017725626
0.019109285
0.019497067
0.018970418
0.017688871
0.015886793
0.013787305
0.011584283
0.0094475423
0.0075058921
0.0058450798
0.0045091725
0.0035059554
0.0028142394
0.0023923398
0.0021874849
0.0021445298
0.0022128509
0.0023502481
0.0025241739
0.0027112039
0.0028952482
0.0030704481
0.0032359335
0.0033883068
0.003528044
0.0036567326
0.0037767687
0.003889636
0.012629498
0.011385994
0.010183016
0.0090073598
0.0078993981
0.0068818213
0.0058932722
0.0049379411
0.0040669507
0.0033087226
0.0026426058
0.0021497982
0.0017078157
0.0013589872
0.001081749
0.00085168107
0.00063265589
0.00031568181
9.6256786e-05
0.013930017
0.015172584
0.016117023
0.016404322
0.015998127
0.015216563
0.014608323
0.014918462
0.016373353
0.019068562
0.020814516
0.021787213
0.021597105
0.02046729
0.018620265
0.016349017
0.013891465
0.011443234
0.0091628594
0.0071608596
0.0055020002
0.0042098837
0.0032738679
0.0026573976
0.0023074674
0.0021643187
0.0021698776
0.0022733941
0.0024340715
0.002621282
0.0028136248
0.0030013816
0.003181562
0.003347475
0.0034998022
0.0036387867
0.0037666887
0.003886059
0.0039991783
0.014083978
0.012790868
0.011533328
0.010276351
0.0090220302
0.0078329752
0.0066897111
0.0056026135
0.00461311
0.0037453848
0.0029827452
0.0024195359
0.0019107986
0.0015111937
0.0011949755
0.00094768945
0.00073926864
0.00053694665
0.00025826704
8.1858652e-05
0.015399445
0.01658607
0.017377769
0.01749397
0.016952054
0.016217227
0.01609463
0.017158632
0.019376455
0.022431611
0.023877137
0.024269483
0.023421902
0.021650078
0.019250513
0.016545791
0.013780181
0.011139582
0.0087650109
0.0067447188
0.0051211138
0.0038970926
0.0030441523
0.0025116534
0.0022371558
0.0021559309
0.0022084687
0.0023445849
0.0025253239
0.0027223903
0.0029219572
0.0031172019
0.0032982253
0.0034642599
0.0036156139
0.0037531765
0.0038796775
0.0039978985
0.004110901
0.01555136
0.014228791
0.012911611
0.011599116
0.010262849
0.0089013416
0.0075634274
0.0063119808
0.0051975145
0.0042194453
0.0033511632
0.0027123079
0.0021272431
0.0016658545
0.0013027078
0.0010250872
0.00080989313
0.00062604232
0.00044349415
0.00020472134
6.9476798e-05
0.016853224
0.017965652
0.018639057
0.018619101
0.018014774
0.017594194
0.018123714
0.019948679
0.022747789
0.025820857
0.026753585
0.026454182
0.024899783
0.022488459
0.019567616
0.016482921
0.013468092
0.010692008
0.0082727883
0.0062744909
0.0047165409
0.0035814997
0.0028241058
0.0023816333
0.0021843177
0.0021641014
0.0022608446
0.0024256908
0.0026224012
0.0028317321
0.0030424385
0.003239377
0.0034210474
0.0035860827
0.0037356652
0.0038710793
0.0039955802
0.0041121735
0.004224729
0.016999691
0.015672615
0.014312624
0.01292675
0.011535645
0.010073677
0.0085415696
0.0070909526
0.0058195617
0.004727335
0.0037529377
0.0030305482
0.0023642214
0.0018316219
0.0014127782
0.0010929352
0.00085640271
0.00067524706
0.00051800211
0.0003567438
0.00015733099
5.8621032e-05
0.018270105
0.019339272
0.019930264
0.019805241
0.019361213
0.019453928
0.020655607
0.023151699
0.0262463
0.029048494
0.029319585
0.028270649
0.025985641
0.022963517
0.019576466
0.016176294
0.012976365
0.010122492
0.0077065891
0.0057674783
0.0043017583
0.0032726851
0.0026201935
0.0022717052
0.0021517076
0.0021897313
0.0023260995
0.0025149551
0.0027308584
0.0029564648
0.0031702686
0.0033688378
0.0035497771
0.0037128608
0.0038598146
0.0039923507
0.0041142507
0.0042287655
0.0043405744
0.018403349
0.017082412
0.015708867
0.014262293
0.012792486
0.011247929
0.009602263
0.0079629544
0.006501259
0.0052655099
0.0041789345
0.0033770945
0.0026220275
0.00201564
0.001532069
0.0011627362
0.00089153934
0.00069823895
0.0005511355
0.00041944452
0.00027940154
0.00011802342
4.9127944e-05
0.019677635
0.020743854
0.021269772
0.021203511
0.021113861
0.021749838
0.023567231
0.026580256
0.02965632
0.031973451
0.03149337
0.029659056
0.026661648
0.023074633
0.019293555
0.015649492
0.012330562
0.0094552273
0.007087309
0.0052403068
0.0038890342
0.0029793267
0.0024386397
0.0021859187
0.002140719
0.0022317998
0.002402438
0.0026197499
0.0028588911
0.003089792
0.0033067935
0.0035052655
0.0036843385
0.0038444416
0.0039878948
0.0041168203
0.0042355294
0.0043475361
0.0044583671
0.019790382
0.018431869
0.017052812
0.015581317
0.014038142
0.012388412
0.010639333
0.0088890522
0.0072585106
0.0058508282
0.0046231923
0.003741611
0.0029013894
0.0022169455
0.0016661673
0.0012404224
0.00092759029
0.00070791793
0.00055695171
0.00044195132
0.00033262498
0.00021521856
8.7361361e-05
4.0176417e-05
0.021122714
0.0222124
0.022787194
0.022943478
0.023247907
0.02436425
0.026722479
0.030046075
0.032821721
0.034507479
0.033222218
0.03059005
0.026930018
0.022842345
0.018745131
0.014931867
0.011559089
0.008715228
0.0064352175
0.0047083389
0.0034896847
0.0027099409
0.0022851832
0.0021263189
0.0021502618
0.002288608
0.0024996285
0.0027494463
0.002997127
0.0032335906
0.0034515994
0.0036486048
0.0038245684
0.0039806459
0.004119713
0.0042442907
0.0043592357
0.0044683695
0.0045780068
0.021215358
0.019756404
0.018328511
0.016839327
0.015245099
0.013498834
0.011631351
0.0097837369
0.0080492398
0.0064956986
0.0051055913
0.0041228287
0.0031951529
0.0024364765
0.0018156421
0.0013307809
0.00097111695
0.00071865699
0.00054900639
0.00043764511
0.00034938943
0.00026121373
0.00016603622
6.3979893e-05
3.1525462e-05
0.022653833
0.023848024
0.024606161
0.025002042
0.025625846
0.02716339
0.029992495
0.033367456
0.035639967
0.036593308
0.034466636
0.031057853
0.02680173
0.0222917
0.017964251
0.01405632
0.010691578
0.0079267533
0.0057690775
0.0041859897
0.0031149695
0.002472372
0.0021627507
0.0020918174
0.0021790278
0.0023727575
0.0026284006
0.0028914466
0.0031481003
0.0033873148
0.0036046641
0.0037986825
0.0039702798
0.0041212628
0.0042550363
0.0043745451
0.0044852191
0.0045911145
0.0046993908
0.022749396
0.021116825
0.019569951
0.018024339
0.016389103
0.014564445
0.012580181
0.010621722
0.0087971225
0.0071573364
0.0056278947
0.0045324571
0.0034972781
0.0026648339
0.0019807658
0.0014347599
0.001025881
0.00073668006
0.00054270346
0.00042040107
0.00034154026
0.00027642447
0.00020682554
0.00012836581
4.7189414e-05
2.3079905e-05
0.024372974
0.02577362
0.026700632
0.027234071
0.028081728
0.030047838
0.03322864
0.036420411
0.038051583
0.038200221
0.035208145
0.031070639
0.026291604
0.021459465
0.016987842
0.013057355
0.0097568792
0.007112489
0.0051068459
0.0036877061
0.0027752301
0.0022706891
0.0020703205
0.0020818298
0.0022428368
0.0024967355
0.0027722639
0.003049093
0.0033110833
0.0035509886
0.0037658023
0.003955307
0.0041212458
0.0042660318
0.0043936157
0.0045073988
0.0046132862
0.0047156087
0.0048224082
0.024502458
0.022597721
0.020837722
0.01917016
0.017465173
0.015564851
0.013475968
0.011420816
0.0094948719
0.0077723716
0.0061512206
0.0049692527
0.003820395
0.0028978468
0.0021521376
0.0015524368
0.0010929432
0.00076487482
0.00054385296
0.00040497191
0.00032257345
0.00027001878
0.00022251358
0.00016594722
0.00010012949
3.5444306e-05
1.5648754e-05
0.026383773
0.027961007
0.028919259
0.029455252
0.030529725
0.032952034
0.036293063
0.039133667
0.040016994
0.039307464
0.035432872
0.030648173
0.025439777
0.020388828
0.015855976
0.011968994
0.0087820014
0.0062942853
0.0044666795
0.0032267048
0.0024758997
0.0021040137
0.0020084695
0.0021156168
0.0023564575
0.0026395456
0.0029355283
0.0032214106
0.0034861549
0.0037244105
0.0039348195
0.0041182395
0.0042771844
0.0044146737
0.0045352436
0.0046426261
0.0047432204
0.0048416759
0.004946945
0.026567398
0.024311526
0.0222268
0.020335845
0.018493511
0.016499536
0.014322827
0.012172936
0.01015737
0.0083493112
0.0066345993
0.0054009164
0.0041591479
0.0031462749
0.0023250689
0.0016744942
0.0011716645
0.00080498761
0.00055447172
0.00039666826
0.00030516711
0.00025370386
0.00022029086
0.00018328832
0.00013479267
7.8393988e-05
2.7095661e-05
1.0167907e-05
0.028665878
0.030252544
0.03106288
0.031552717
0.032973247