/*--------------------------------*- C++ -*----------------------------------*\
| =========                 |                                                 |
| \\      /  F ield         | OpenFOAM: The Open Source CFD Toolbox           |
|  \\    /   O peration     | Version:  5.0                                   |
|   \\  /    A nd           | Web:      www.OpenFOAM.org                      |
|    \\/     M anipulation  |                                                 |
\*---------------------------------------------------------------------------*/
FoamFile
{
    version     2.0;
    format      ascii;
    class       volVectorField;
    location    "160";
    object      U;
}
// * * * * * * * * * * * * * * * * * * * * * * * * * * * * * * * * * * * * * //

dimensions      [0 1 -1 0 0 0 0];

internalField   nonuniform List<vector> 
9200
(
(1.0399045 0.00076811782 -2.0530213e-24)
(1.0401042 0.0024601638 8.8953857e-22)
(1.0375844 0.00076834646 0)
(1.0404169 0.0039239243 -4.7164731e-22)
(1.037748 0.0024813169 7.772347e-22)
(1.0365644 0.00075133045 0)
(1.0408528 0.0053943095 -4.7156533e-23)
(1.0380334 0.003963436 8.3475105e-24)
(1.0367109 0.0024376847 0)
(1.0350884 0.00072032383 0)
(1.0413634 0.0067536973 9.8273203e-22)
(1.038416 0.0054617234 7.4232016e-22)
(1.0369726 0.0038965418 4.4048553e-22)
(1.0352099 0.0023456437 2.6770523e-23)
(1.0339524 0.00068754644 2.672237e-25)
(1.0419565 0.0080440314 9.4009648e-22)
(1.0388874 0.0068717106 -2.6642838e-23)
(1.0373169 0.0053735882 1.4720782e-21)
(1.0354403 0.0037495118 6.0609083e-22)
(1.0340576 0.0022377648 2.0513142e-23)
(1.0328261 0.00065697513 -1.120605e-21)
(1.0426158 0.0092324354 1.015421e-21)
(1.0394595 0.0082527983 1.0525963e-21)
(1.0377293 0.0067771427 -8.8109793e-22)
(1.0357292 0.0051656698 -6.5897561e-23)
(1.0342668 0.0035731986 5.3869894e-22)
(1.0329211 0.0021282871 5.4804028e-22)
(1.0318174 0.00063338496 9.6426319e-23)
(1.043366 0.010290569 5.8059939e-22)
(1.0401445 0.0096055968 9.0242357e-22)
(1.0382126 0.0081738897 1.0646145e-21)
(1.0360593 0.0065139803 7.1293057e-23)
(1.0345218 0.0049067718 -1.3890942e-21)
(1.033117 0.0033938081 -6.1721229e-22)
(1.0319099 0.0020368178 -6.292641e-22)
(1.0308711 0.00061538095 1.0403926e-21)
(1.0442341 0.011191391 -1.4001334e-21)
(1.0409723 0.01093146 8.7430293e-22)
(1.0387575 0.0095883503 7.9759409e-23)
(1.0364111 0.0078529986 4.9429704e-22)
(1.0348026 0.0061636406 1.5531701e-22)
(1.0333556 0.004640816 -2.0562898e-21)
(1.0321 0.0032460377 1.7489389e-22)
(1.030965 0.0019675901 -1.0705875e-21)
(1.0299869 0.00059986541 -2.208088e-21)
(1.045214 0.011937162 1.1718626e-21)
(1.0419937 0.012281103 -2.2328724e-22)
(1.0393589 0.011061649 -6.3131113e-23)
(1.0367399 0.0092149254 -2.8647296e-22)
(1.0350795 0.007380712 -2.1273872e-22)
(1.0336191 0.0058006861 2.4549772e-22)
(1.0323381 0.0044245693 7.1834289e-22)
(1.0311505 0.0031392236 1.2053634e-21)
(1.0300817 0.001915903 6.8426092e-22)
(1.0291538 0.00058433613 1.7642527e-22)
(1.0462394 0.012484964 -5.6766884e-22)
(1.0433457 0.013669107 3.6513398e-22)
(1.0400056 0.0126857 6.2490976e-22)
(1.0370131 0.010652817 -8.2760746e-22)
(1.0352853 0.0085739915 5.2675365e-22)
(1.033877 0.0068871042 -1.8236142e-21)
(1.0326101 0.0055128883 7.5832112e-23)
(1.0313912 0.004277121 1.8062994e-21)
(1.0302593 0.0030653234 -9.0567112e-22)
(1.029245 0.0018705622 1.9979308e-21)
(1.0283705 0.0005677172 -3.0349265e-22)
(1.0476291 0.01273176 4.6292577e-23)
(1.0448472 0.015090577 -8.5750616e-22)
(1.0405079 0.014589904 -9.0611657e-22)
(1.0371364 0.01225093 0)
(1.0353699 0.0097613835 3.9733233e-23)
(1.0340663 0.0078946552 -3.5093065e-22)
(1.0329002 0.0065109905 -3.6283201e-22)
(1.0316734 0.0053338438 -8.8822696e-22)
(1.0304958 0.0041849738 -2.3436009e-22)
(1.02941 0.0030035468 -1.1485677e-21)
(1.0284533 0.0018197023 -7.8438704e-22)
(1.0276384 0.0005486893 1.8072001e-22)
(1.0495075 0.012646236 3.7829834e-23)
(1.0465395 0.016924866 1.4197866e-22)
(1.0408535 0.016885219 0)
(1.037042 0.014050072 0)
(1.0352235 0.010967268 -1.5231896e-22)
(1.0341449 0.0088016485 -2.6032174e-22)
(1.0331625 0.0073997685 -4.6864334e-22)
(1.0319995 0.0063049692 1.0443445e-21)
(1.0307773 0.0052406485 1.0856559e-22)
(1.0296313 0.0041117034 2.7397097e-24)
(1.0286021 0.0029318664 1.2934055e-21)
(1.0277103 0.0017534664 -1.4088081e-21)
(1.0269617 0.00052507193 2.9082287e-21)
(1.0519367 0.012140551 -3.5394102e-22)
(1.0488374 0.019150761 1.3497718e-24)
(1.0412388 0.019556196 -1.1307014e-22)
(1.0366695 0.016098913 -5.3757747e-23)
(1.0347548 0.012171506 1.8757511e-23)
(1.0340387 0.0095850267 -1.7427789e-22)
(1.0333757 0.0081349786 2.8441884e-22)
(1.032345 0.007173144 1.7240641e-23)
(1.0311249 0.0062284631 1.1655083e-21)
(1.0298968 0.0051759323 1.0892837e-21)
(1.028798 0.0040213141 3.5461804e-22)
(1.027841 0.0028325384 1.0291659e-21)
(1.0270233 0.0016659217 7.0240421e-22)
(1.0263458 0.00049545828 -7.9929465e-22)
(1.0549869 0.011194283 -3.9802205e-22)
(1.0517719 0.021931742 -5.4536815e-23)
(1.0415747 0.022826193 -4.6727708e-22)
(1.0358612 0.018524986 9.6722118e-23)
(1.0338293 0.013396025 -7.8005164e-23)
(1.0336938 0.010176642 3.1718082e-22)
(1.0334975 0.0086447605 2.6791821e-22)
(1.0327159 0.0078821541 -3.6353006e-22)
(1.031535 0.0071414597 -1.0244189e-22)
(1.0302359 0.0061957468 -1.2850686e-22)
(1.0290302 0.0050867014 -2.1016264e-23)
(1.0280061 0.0038872674 -1.5229057e-22)
(1.0271366 0.0026955297 -1.3262677e-21)
(1.0263995 0.0015565258 6.7914084e-22)
(1.0257947 0.0004609233 -6.1596896e-22)
(1.0582598 0.0097532308 1.7902055e-21)
(1.0553028 0.025233043 -1.0354246e-21)
(1.0418293 0.026926259 -3.0138452e-22)
(1.0344668 0.021472372 2.7218625e-22)
(1.0322781 0.014679996 -2.5507688e-22)
(1.0329352 0.01046574 -3.9139308e-22)
(1.0336145 0.0088834945 -5.1913612e-24)
(1.0331385 0.0083554471 3.391164e-23)
(1.032048 0.0079278038 -2.2404295e-22)
(1.0306602 0.0071825662 -2.7959997e-22)
(1.0293241 0.0061342729 -2.2643061e-21)
(1.0281873 0.004931661 4.898023e-22)
(1.0272709 0.0036943585 4.1209531e-22)
(1.026499 0.002520408 2.0367102e-22)
(1.0258438 0.0014303783 3.6068691e-23)
(1.025309 0.00042450174 6.868626e-22)
(1.0617757 0.0081299066 0)
(1.059143 0.029401007 -9.3109519e-22)
(1.0418522 0.032115029 1.0157453e-21)
(1.0323333 0.025090699 0)
(1.0299012 0.016030061 0)
(1.0316508 0.010410979 0)
(1.0335604 0.0085921213 1.0936214e-22)
(1.0338016 0.0085454647 5.1666263e-22)
(1.0327736 0.0085391775 3.6325379e-22)
(1.0312427 0.0081141521 6.7024359e-22)
(1.0296913 0.0071967595 1.009999e-22)
(1.0284062 0.005979749 4.9391172e-22)
(1.0273967 0.0046874973 7.0141701e-26)
(1.0266081 0.0034415364 -4.7185685e-22)
(1.0259354 0.0023160028 -1.3449627e-22)
(1.0253574 0.0012965555 -3.3424055e-22)
(1.0248855 0.00038932567 0)
(1.0661055 0.0057584128 2.0208927e-21)
(1.0630782 0.03419917 3.7043244e-21)
(1.0413115 0.038543119 3.4611043e-22)
(1.029235 0.029552837 2.1773569e-21)
(1.026478 0.017484175 1.5053729e-21)
(1.0296774 0.0098974362 0)
(1.0332501 0.0077096496 7.0444359e-22)
(1.0346637 0.008255936 -1.897442e-22)
(1.0337458 0.0088715551 4.7115807e-22)
(1.0320812 0.0089900389 4.1784496e-22)
(1.0301997 0.0083011371 -4.0404314e-22)
(1.028648 0.007080603 1.3359116e-22)
(1.0275263 0.0056878124 8.2809806e-22)
(1.026689 0.004354017 -1.5368881e-21)
(1.0260297 0.0031430177 -4.1451126e-22)
(1.025448 0.0020976199 -2.2457754e-21)
(1.0249373 0.0011652168 -8.9384386e-22)
(1.0245178 0.00035783092 -8.7446394e-22)
(1.073263 0.0031866568 -8.758612e-22)
(1.0686659 0.039901208 2.351836e-21)
(1.0401956 0.046401135 8.1663476e-22)
(1.0248291 0.034966944 1.8268267e-21)
(1.0217497 0.019055154 -2.7876164e-22)
(1.0268177 0.0088140767 -3.0428785e-22)
(1.0326624 0.0060309864 -1.533403e-21)
(1.0356375 0.0073382226 -5.7552818e-22)
(1.035123 0.009113775 -8.471403e-23)
(1.0331179 0.0098357006 -7.1713362e-22)
(1.0308672 0.009522367 -1.0449829e-22)
(1.0289449 0.0083005873 -9.0063954e-22)
(1.0276168 0.0067553398 1.5006677e-22)
(1.0267381 0.0052550579 1.2246307e-22)
(1.0260842 0.003951124 1.8267342e-22)
(1.0255407 0.0028229448 3.3768515e-22)
(1.0250337 0.0018826686 -7.479148e-22)
(1.0245768 0.0010450965 3.8027831e-23)
(1.0241977 0.00033234156 -8.3798184e-22)
(1.0823871 -0.00062095975 -4.9507697e-21)
(1.0791754 0.045900685 -4.7422567e-21)
(1.0402933 0.055673181 5.710528e-21)
(1.019084 0.041342286 -1.6990833e-21)
(1.0154842 0.020784896 3.4423351e-22)
(1.0228487 0.0070068195 -8.5565269e-23)
(1.0317196 0.0033464407 1.9862625e-22)
(1.0368382 0.0055959003 -1.170536e-22)
(1.0370963 0.0089514891 -9.8136718e-25)
(1.0345987 0.010742766 3.6260378e-22)
(1.0316665 0.010946263 -1.1973692e-21)
(1.0292528 0.0097411591 3.1354624e-22)
(1.0276575 0.007955046 4.837517e-22)
(1.0266976 0.0062062353 -4.28025e-23)
(1.0260865 0.0047180754 1.2262804e-22)
(1.0255911 0.0035135043 1.065392e-21)
(1.0251382 0.0025077334 -2.4780155e-22)
(1.0246849 0.0016865332 1.2289569e-21)
(1.0242668 0.00094247026 3.2683404e-22)
(1.023916 0.00031513889 8.8236638e-22)
(1.0871362 -0.0055208395 -2.772258e-22)
(1.0946593 0.052606438 -1.085095e-20)
(1.0446236 0.066480432 2.1582401e-21)
(1.0131655 0.048966362 2.0516742e-21)
(1.0074194 0.022633609 -1.0611806e-21)
(1.0175549 0.0043379713 -1.2668417e-21)
(1.0303288 -0.00059051274 1.643322e-21)
(1.0383542 0.0027797214 4.2201467e-22)
(1.0397709 0.0082516291 5.5493717e-22)
(1.0368021 0.011675433 0)
(1.0328394 0.012604455 8.2893126e-22)
(1.0295917 0.011482624 3.6587859e-22)
(1.0275833 0.0093714328 -6.5136716e-22)
(1.0265279 0.0072482838 9.2892327e-23)
(1.0259652 0.0054922027 -4.5499429e-22)
(1.0255851 0.0041309211 8.2221035e-22)
(1.0252066 0.0030808978 1.4176602e-22)
(1.0248131 0.002220035 -3.8682838e-22)
(1.0243915 0.0015200384 7.5408697e-22)
(1.0239978 0.00086113004 5.1228382e-23)
(1.0236635 0.00030696822 8.5413031e-22)
(1.0860376 -0.010845145 9.5030611e-21)
(1.1042371 0.057609461 -1.5013554e-20)
(1.0537644 0.079338886 -9.5949587e-21)
(1.0090278 0.058483858 -2.3507797e-21)
(0.99740041 0.024728884 -4.4756747e-21)
(1.0107374 0.00068338941 2.5281384e-22)
(1.0283756 -0.0060087144 0)
(1.0402529 -0.0013617147 4.4053419e-22)
(1.0433448 0.0068219833 2.497392e-22)
(1.0399292 0.012637283 1.1642062e-21)
(1.0345521 0.014670473 4.9677101e-22)
(1.0300455 0.013648929 9.566941e-23)
(1.0273775 0.011098677 -8.6402551e-23)
(1.0261444 0.0084432902 3.7443555e-22)
(1.025668 0.006288697 -2.4669234e-22)
(1.0254442 0.0047053103 2.7874276e-22)
(1.0252274 0.0035527679 -1.0387816e-22)
(1.0249168 0.0026885316 6.6107446e-22)
(1.0245513 0.0019756918 1.229268e-22)
(1.0241421 0.0013886868 1.5834848e-23)
(1.0237608 0.00080224034 4.5430581e-22)
(1.0234317 0.00030549187 0)
(1.0805376 -0.015884859 3.2369487e-21)
(1.1039006 0.062558398 1.1038795e-20)
(1.0625063 0.095849874 -6.4910862e-22)
(1.0055356 0.070955558 -4.6761282e-21)
(0.98542563 0.027518499 -4.7862491e-21)
(1.00203 -0.0040734456 1.7867634e-21)
(1.02574 -0.013161739 -1.1692698e-21)
(1.0425526 -0.0071143826 -3.1082848e-22)
(1.0480546 0.0044830363 -3.317212e-22)
(1.04425 0.013587975 -7.3773658e-23)
(1.0369946 0.017306005 -1.1953451e-23)
(1.0306593 0.016469093 -3.6448058e-22)
(1.0269715 0.01328498 -1.0622017e-22)
(1.0254646 0.0098708707 1.3249154e-21)
(1.0250945 0.0071381651 8.9444656e-22)
(1.0251186 0.0052260762 6.4875593e-22)
(1.0251243 0.0039363876 -1.3369237e-22)
(1.0249912 0.0030351368 -1.0201643e-21)
(1.0247012 0.0023614378 -4.2360221e-23)
(1.0243371 0.0017833965 4.0590516e-22)
(1.0239261 0.0012933363 0)
(1.0235481 0.00076419263 -1.0347576e-21)
(1.0232145 0.0003060343 -2.2439253e-24)
(1.0668928 -0.020434193 -1.2566837e-20)
(1.0928557 0.067808275 3.6573851e-20)
(1.0561483 0.1131516 -2.1179708e-20)
(0.99860096 0.087520075 -1.9128041e-22)
(0.97119889 0.032027286 -9.8901137e-21)
(0.99088229 -0.010089458 0)
(1.0222636 -0.022283894 -3.9684388e-22)
(1.0452607 -0.014785439 5.4733953e-22)
(1.0540978 0.00097836383 -1.8212376e-21)
(1.0500864 0.0145144 -1.3884247e-21)
(1.0403835 0.020712744 9.2711657e-22)
(1.0315028 0.020202004 2.1618948e-22)
(1.0263061 0.016133429 -1.4225217e-22)
(1.0243588 0.0116294 6.2185296e-22)
(1.0241372 0.0080758299 -7.041814e-22)
(1.0245081 0.0056858948 -1.428157e-21)
(1.024861 0.0041961912 -1.9392536e-22)
(1.0249701 0.0032597156 -3.5073503e-22)
(1.0248456 0.0026133334 1.0694287e-21)
(1.024537 0.002111337 -3.5379544e-22)
(1.0241563 0.001645714 -8.859587e-22)
(1.0237338 0.001231644 9.6844952e-22)
(1.023352 0.00074345528 -7.409458e-22)
(1.023008 0.00030490463 -1.1654324e-24)
(1.0474097 -0.025203194 -5.395576e-22)
(1.0759588 0.07513809 3.338206e-20)
(1.0372734 0.12950424 -1.4065567e-21)
(0.98774601 0.10538611 -7.3361763e-21)
(0.95488907 0.037994894 6.9755424e-21)
(0.9771426 -0.017277572 -7.88783e-21)
(1.0176857 -0.03364347 -5.2206351e-22)
(1.0483651 -0.024659794 1.6823426e-21)
(1.0616924 -0.003956613 -8.5144215e-23)
(1.0577733 0.015385741 -1.1601764e-21)
(1.0449658 0.025129238 1.065583e-21)
(1.0325957 0.025168639 9.0114393e-23)
(1.0252859 0.019891257 5.6277775e-22)
(1.022679 0.01384974 -8.509809e-23)
(1.0226445 0.0091346995 -1.052803e-21)
(1.0235074 0.0060699436 -2.3291734e-23)
(1.0243535 0.0042937998 -4.4436364e-23)
(1.0248374 0.0033099577 -4.9199221e-22)
(1.0249321 0.0027237533 0)
(1.0247582 0.0023033303 -1.0956195e-22)
(1.0244042 0.0019371042 -3.3086487e-23)
(1.0239978 0.0015598715 7.0174042e-23)
(1.0235564 0.001199159 -5.502227e-23)
(1.0231657 0.00073611189 1.0552673e-21)
(1.02281 0.00030236439 5.9726484e-22)
(1.0235694 -0.029838326 2.269257e-21)
(1.0560001 0.081972749 -2.0200625e-20)
(1.0164216 0.144216 -5.1446993e-21)
(0.97431696 0.12260482 1.7467259e-22)
(0.93848428 0.044721153 2.5971882e-20)
(0.96134326 -0.025779283 4.6232458e-22)
(1.0117408 -0.047536708 -7.3559689e-22)
(1.0517434 -0.036948263 -1.298245e-22)
(1.0708536 -0.010593192 -5.0037667e-21)
(1.0676238 0.016155659 1.8549921e-22)
(1.0509893 0.030834958 -1.2197321e-21)
(1.0339576 0.031740199 -6.722759e-23)
(1.0237808 0.024845431 -4.3252064e-22)
(1.0202286 0.016681136 -3.3530236e-22)
(1.0204289 0.010355265 -3.7739018e-22)
(1.0219703 0.0063480841 1.3572942e-21)
(1.0235165 0.0041721036 2.0308214e-21)
(1.0245339 0.0031263922 6.1883804e-22)
(1.0249672 0.002636529 9.1509088e-22)
(1.0249589 0.0023482967 1.8608796e-23)
(1.0246997 0.0021023019 -1.115171e-21)
(1.0242874 0.0018299372 -3.0243743e-22)
(1.023852 0.0015181423 8.166439e-22)
(1.0233872 0.001189952 -9.3894169e-22)
(1.0229853 0.00073902211 8.0221735e-22)
(1.0226186 0.00030184904 -4.3300397e-23)
(0.99711507 -0.034230613 -4.3968217e-23)
(1.0318189 0.088433307 -2.3555268e-20)
(0.99407286 0.15804897 2.3395471e-20)
(0.95832426 0.13757593 -7.8415235e-21)
(0.92226235 0.053070233 -1.5576898e-20)
(0.9438611 -0.03525427 5.6821216e-21)
(1.0042112 -0.063939515 -9.0766243e-22)
(1.05481 -0.051618817 -8.8429941e-22)
(1.081082 -0.018948597 1.1221087e-20)
(1.0795029 0.016786946 3.4329267e-21)
(1.0585763 0.038159612 -3.3165496e-22)
(1.0355761 0.040340102 1.8903376e-21)
(1.021626 0.031310802 -5.8484101e-22)
(1.0167909 0.020300602 -7.0924831e-22)
(1.017263 0.011772947 -2.6179731e-22)
(1.0197201 0.0064801887 2.8876616e-22)
(1.0222348 0.003748239 -3.1241454e-23)
(1.0240098 0.0026250598 -1.8691169e-23)
(1.0249213 0.002282279 2.3331475e-22)
(1.0251682 0.0021981468 4.0970466e-23)
(1.025007 0.0021275993 0)
(1.0246457 0.001992133 -4.2420975e-22)
(1.0241758 0.0017786304 -3.6052024e-23)
(1.0237117 0.0015096367 0)
(1.0232235 0.0011979365 1.1534784e-21)
(1.0228076 0.0007501761 2.1566902e-24)
(1.0224312 0.00030595517 -5.8905354e-22)
(0.96920892 -0.038219679 -5.7479576e-22)
(1.0057997 0.094346444 -1.5198307e-21)
(0.96862436 0.17091799 1.990353e-20)
(0.93678809 0.15176812 -2.9422735e-21)
(0.90457182 0.061341109 -1.9202095e-21)
(0.92529747 -0.044623893 -3.3008541e-21)
(0.9944608 -0.082149288 -9.032995e-23)
(1.056642 -0.068489634 4.9758722e-21)
(1.0915406 -0.028785522 -2.8386991e-21)
(1.0924067 0.017548965 -7.4087991e-21)
(1.0670961 0.047579198 3.475876e-21)
(1.0372507 0.05143794 -6.4184208e-22)
(1.0185786 0.039628103 -5.6694151e-22)
(1.0120777 0.024876516 -3.9876601e-22)
(1.0128893 0.013425663 -9.7088125e-22)
(1.0165469 0.0064030297 -2.349279e-22)
(1.0203718 0.0029193112 -1.3294794e-21)
(1.0231956 0.0016869537 -1.0243248e-21)
(1.024786 0.0015671885 -4.3087808e-22)
(1.0253855 0.001786649 -6.2463816e-22)
(1.0253714 0.0019792308 -4.0717558e-22)
(1.0250428 0.0020363415 8.7593946e-23)
(1.02458 0.0019479555 3.5602115e-23)
(1.0240655 0.0017713897 0)
(1.0235748 0.0015242084 0)
(1.0230625 0.0012183824 -8.3885367e-23)
(1.0226309 0.00076778342 1.0458925e-21)
(1.0222463 0.00031403591 1.1322007e-21)
(0.94115862 -0.0417736 0)
(0.97911614 0.09968601 -1.0808514e-20)
(0.94235228 0.18273042 -1.7980364e-20)
(0.91281881 0.16466256 -4.1881491e-21)
(0.88421548 0.069744015 1.8130613e-22)
(0.90602707 -0.054198449 -1.0154835e-21)
(0.98258703 -0.10217196 -1.442709e-21)
(1.0569808 -0.087658726 1.2257277e-20)
(1.1020099 -0.040423827 -1.8466718e-20)
(1.1060637 0.018712267 2.6886863e-21)
(1.0751962 0.059725133 -4.9219077e-22)
(1.0379295 0.065553518 -1.5509245e-21)
(1.0142258 0.050174265 -9.9321153e-22)
(1.005732 0.03058629 -8.6870896e-22)
(1.0070072 0.01533477 -2.0061928e-22)
(1.0122145 0.0060409267 -9.9107444e-22)
(1.017768 0.001550326 -1.1737646e-22)
(1.0220128 0.00016905027 -2.6527735e-22)
(1.0245456 0.00035807279 -1.7043062e-22)
(1.0256437 0.0010274272 -2.7291052e-22)
(1.0258185 0.0016073347 -2.7321066e-22)
(1.02553 0.0019383246 -2.1102666e-22)
(1.0250433 0.0020297971 2.2056284e-23)
(1.0245056 0.0019489508 9.9308069e-22)
(1.0239594 0.00179594 2.7905971e-22)
(1.0234391 0.0015552423 -7.1780176e-24)
(1.0229029 0.0012472418 -1.1236881e-21)
(1.0224554 0.00078914789 6.9222235e-22)
(1.0220629 0.00032360144 -1.6975929e-21)
(0.91369414 -0.04470173 3.3465852e-22)
(0.95273922 0.10437344 0)
(0.91615128 0.1935738 0)
(0.88802118 0.17611874 0)
(0.86350896 0.078134924 0)
(0.88702035 -0.064198085 -1.5337864e-21)
(0.96848728 -0.12345929 -1.7198465e-21)
(1.0559059 -0.10956827 -4.5908201e-21)
(1.1132514 -0.055221682 -3.9763104e-20)
(1.1229158 0.0194938 3.2859908e-20)
(1.0845657 0.074776925 -8.5662651e-21)
(1.0365579 0.082980288 1.8303835e-21)
(1.0076262 0.063225219 1.1533466e-21)
(0.99731298 0.037591095 1.4586232e-21)
(0.99927258 0.017503348 2.3481017e-21)
(1.0064642 0.0052967361 -9.8511728e-23)
(1.0142436 -0.00051429727 -1.0159264e-21)
(1.0203706 -0.0021096559 1.961897e-22)
(1.0241893 -0.0015033891 5.7817344e-22)
(1.0259801 -0.00020439388 4.2450013e-22)
(1.0264155 0.00094914249 2.5771718e-22)
(1.0261468 0.0016763064 -1.3101815e-22)
(1.025613 0.0020156697 -4.3159701e-22)
(1.025006 0.0020646203 3.3159154e-22)
(1.0244255 0.0019854678 -1.2580827e-23)
(1.023851 0.0018410906 2.3692724e-22)
(1.0233014 0.0015967591 -8.9404839e-22)
(1.0227442 0.0012798717 6.6919285e-24)
(1.0222818 0.00081137992 -2.6842711e-21)
(1.0218811 0.00033267543 -1.0222605e-21)
(0.88456849 -0.047972644 -1.7770482e-21)
(0.9270609 0.10888499 -8.2405547e-21)
(0.89084963 0.20341384 0)
(0.8633627 0.18640373 0)
(0.84271462 0.084439774 0)
(0.86861941 -0.072629731 0)
(0.95270894 -0.14506826 0)
(1.050878 -0.13305391 1.394993e-21)
(1.1248633 -0.072688908 1.8447132e-20)
(1.1453992 0.017718454 -5.2009588e-20)
(1.1018485 0.09117816 6.5641181e-22)
(1.0373721 0.10385418 -8.1823895e-21)
(0.99804509 0.078674975 2.4151996e-21)
(0.98620566 0.045941044 2.9984593e-21)
(0.98931281 0.019883361 -2.8356007e-22)
(0.9990265 0.0040529524 6.4670959e-22)
(1.0096055 -0.003452106 -3.6272546e-22)
(1.0181651 -0.0053550674 4.3107454e-22)
(1.0237031 -0.0042189494 -4.6148671e-22)
(1.0264513 -0.0020582538 -1.9520565e-22)
(1.0272437 -9.2804326e-05 -2.7389551e-23)
(1.0269858 0.0012223477 -3.6734341e-22)
(1.0263294 0.0019047961 -1.8784548e-23)
(1.0256091 0.002145757 1.5396262e-22)
(1.0249327 0.0021427053 -9.7864584e-23)
(1.024328 0.0020573575 -7.7696025e-22)
(1.0237299 0.0018960094 -2.5485859e-22)
(1.0231617 0.0016407737 3.906922e-22)
(1.0225874 0.001312353 1.5642993e-24)
(1.0221105 0.00083267594 1.9376362e-21)
(1.0217015 0.00034056255 6.6489405e-22)
(0.85395699 -0.051047557 3.3607302e-21)
(0.90009495 0.11272616 -3.2063319e-22)
(0.86640441 0.21249592 -1.3762539e-20)
(0.8395987 0.19548622 -2.6769968e-20)
(0.82218207 0.089257799 0)
(0.85034682 -0.081773581 0)
(0.93595195 -0.16651217 -1.5257069e-21)
(1.0418006 -0.15677807 -2.28096e-20)
(1.1261885 -0.091584931 5.6060032e-20)
(1.1628305 0.012235974 -6.4911506e-20)
(1.1293194 0.10722586 -2.0966061e-21)
(1.0482212 0.12698856 1.1833824e-20)
(0.98911676 0.096835663 1.2300519e-21)
(0.97176218 0.055373148 -3.6032221e-22)
(0.9767538 0.022361243 -2.0185026e-21)
(0.98963219 0.0021511385 -3.3855734e-23)
(1.0036612 -0.0074516806 2.3292831e-21)
(1.0152812 -0.0097980052 -6.4254435e-23)
(1.0230713 -0.0080194492 -9.894313e-22)
(1.0271229 -0.0047287644 -3.1157417e-22)
(1.0284185 -0.0016351052 -5.5936346e-22)
(1.0281585 0.00052178362 1.9071683e-22)
(1.0272946 0.0017111231 -2.5207097e-22)
(1.0263547 0.0021991777 -2.9919976e-22)
(1.0255324 0.0023003493 7.748054e-24)
(1.0248338 0.0022449056 -3.0265739e-22)
(1.0242214 0.0021316241 -2.1242626e-22)
(1.0236117 0.0019435376 -2.2670272e-22)
(1.0230274 0.0016813206 5.3771616e-22)
(1.0224339 0.0013430132 -3.9140745e-23)
(1.0219416 0.00085247034 9.3654461e-22)
(1.0215245 0.00034732551 7.0342395e-23)
(0.82301063 -0.054557064 -2.5652432e-21)
(0.87201931 0.11604125 3.3326991e-22)
(0.84111146 0.22141601 1.9480454e-20)
(0.81753234 0.20352512 4.7256169e-20)
(0.80247984 0.092542572 0)
(0.83187985 -0.090304022 0)
(0.91854762 -0.18724136 0)
(1.0291669 -0.18006797 7.7948208e-25)
(1.1219776 -0.11013344 -7.4790556e-20)
(1.1661219 0.0047868811 -6.8122395e-20)
(1.1568033 0.12282783 -2.7419336e-21)
(1.0688056 0.15256812 3.7289197e-21)
(0.98821093 0.11844018 -9.1132938e-21)
(0.95490571 0.065957535 1.0603684e-21)
(0.96119354 0.024701899 -5.4769548e-22)
(0.97804963 -0.00059540648 0)
(0.99622699 -0.012714357 6.6373171e-22)
(1.0115992 -0.015676065 -4.5873438e-22)
(1.0222686 -0.013164843 -2.1023232e-22)
(1.0280731 -0.0084409023 1.1552883e-22)
(1.0300798 -0.0038350169 2.6155037e-22)
(1.0298224 -0.00048885308 2.5685865e-22)
(1.028635 0.00143012 2.9734223e-22)
(1.0273333 0.0022762413 2.7780944e-22)
(1.0262436 0.0024980145 -3.4162863e-23)
(1.0254007 0.0024583046 -4.030974e-23)
(1.0247195 0.0023372378 1.1985534e-23)
(1.0241147 0.0021839052 -1.4432618e-23)
(1.0234999 0.0019857238 5.8536349e-22)
(1.0228968 0.0017194825 4.0817322e-22)
(1.0222827 0.0013716261 1.7541416e-23)
(1.0217755 0.00087070665 -2.6257198e-21)
(1.0213506 0.00035318947 9.85467e-22)
(0.79175204 -0.057317512 -4.8630296e-21)
(0.8417292 0.11574661 0)
(0.81529096 0.2297294 2.7791228e-20)
(0.79605074 0.21160924 8.7993224e-20)
(0.7839103 0.094728971 -1.9555842e-20)
(0.81344699 -0.098252278 -2.0555413e-21)
(0.90065767 -0.20684784 -4.7073405e-20)
(1.0133054 -0.20235166 3.0661583e-20)
(1.1121673 -0.12817629 1.3497369e-20)
(1.1631752 -0.0032872185 1.6870322e-19)
(1.1668673 0.13711814 -5.0573068e-20)
(1.0883657 0.18220818 -4.3980457e-20)
(0.99492383 0.14557658 1.821703e-21)
(0.93934997 0.079481185 -2.8080186e-21)
(0.94219371 0.026514876 -2.2476633e-21)
(0.96411692 -0.0043667641 2.3458253e-23)
(0.98715184 -0.019426965 3.0042326e-22)
(1.0069987 -0.023221461 5.7296014e-22)
(1.0212587 -0.019927198 -8.9854799e-23)
(1.029378 -0.013457419 1.2070115e-23)
(1.0323937 -0.0068788265 2.3640463e-22)
(1.0321727 -0.0019040165 3.405656e-22)
(1.0305255 0.0010647236 -1.4236156e-22)
(1.0286655 0.0024219149 2.2704245e-22)
(1.0271384 0.0028098268 2.8869e-22)
(1.026033 0.0027536512 9.0380002e-23)
(1.0252423 0.0025777358 1.1558808e-22)
(1.0246044 0.0023925681 1.3182056e-23)
(1.0240134 0.0022224871 2.2306104e-22)
(1.0233902 0.0020249317 -6.560469e-23)
(1.0227672 0.0017544921 2.7621577e-22)
(1.0221344 0.0013974041 2.5042941e-23)
(1.0216124 0.00088750849 1.062218e-21)
(1.0211799 0.00035836082 -1.8351058e-21)
(0.76209274 -0.059842035 5.1797573e-21)
(0.80962605 0.1171939 -6.6249866e-23)
(0.78950286 0.23723544 -1.9897492e-20)
(0.77504799 0.22085141 -5.112548e-20)
(0.76570636 0.097983897 9.3151805e-20)
(0.7964074 -0.10790822 5.5632404e-20)
(0.88226948 -0.22497484 7.8009165e-21)
(0.99522109 -0.22301773 0)
(1.0964859 -0.14573786 5.719168e-20)
(1.1557111 -0.0087350528 2.2563979e-19)
(1.1577584 0.150242 1.1706528e-21)
(1.0939797 0.2131004 2.041826e-20)
(0.99946715 0.17844444 0)
(0.92795652 0.098111437 2.6633261e-21)
(0.9197624 0.028542057 3.0804037e-21)
(0.94758451 -0.0095243657 6.8308179e-23)
(0.9763464 -0.027758472 -2.2739212e-21)
(1.0013737 -0.03263765 0)
(1.0199899 -0.028581089 -7.4514166e-23)
(1.0311029 -0.020068103 1.9062862e-23)
(1.035542 -0.01099632 1.0067146e-22)
(1.0354443 -0.0038373064 2.4457872e-22)
(1.0331854 0.00060076747 0)
(1.0305177 0.0027026866 2.4705053e-22)
(1.0283136 0.0033160566 1.050197e-22)
(1.0267787 0.0032212031 -8.4553817e-24)
(1.0257755 0.0029133922 1.0292543e-22)
(1.0250828 0.0026314188 -1.0840885e-22)
(1.0244988 0.0024151179 2.8724664e-25)
(1.0239233 0.0022491825 7.2351143e-22)
(1.0232892 0.0020541849 -1.2801897e-21)
(1.0226447 0.0017837049 -7.1754304e-22)
(1.0219905 0.0014205191 0)
(1.0214529 0.00090329553 -4.1574223e-23)
(1.0210128 0.0003630357 -5.4226015e-22)
(0.73504557 -0.062281952 7.6393439e-21)
(0.77940876 0.11851009 -9.3674345e-21)
(0.76523711 0.24376858 -8.4076715e-21)
(0.75514982 0.22876544 -1.7562873e-20)
(0.74764649 0.10526548 3.0918732e-20)
(0.77676244 -0.11283674 8.9733266e-21)
(0.86477936 -0.24229509 6.5058504e-20)
(0.97570604 -0.24232893 6.374822e-21)
(1.0771547 -0.16184278 0)
(1.1416379 -0.012905446 -8.1560714e-20)
(1.1391337 0.16541448 6.4213843e-20)
(1.0812366 0.24117984 -8.1711393e-21)
(0.99773305 0.21250532 9.2930933e-21)
(0.91989265 0.12298733 -3.61685e-22)
(0.89589599 0.03125444 2.1261811e-22)
(0.92814245 -0.016123861 1.673678e-21)
(0.96378456 -0.03786039 -3.2325743e-21)
(0.99464345 -0.044102818 3.3056005e-23)
(1.0184122 -0.039376386 9.9828191e-22)
(1.0333003 -0.028576773 6.2508374e-23)
(1.0397121 -0.016452815 -5.1174327e-23)
(1.0399122 -0.0064377101 -1.5046174e-23)
(1.0368893 2.4035923e-05 0)
(1.0330989 0.0031954772 7.7939975e-23)
(1.0299 0.0041478572 3.2255797e-23)
(1.0276904 0.0039814827 -2.2178111e-23)
(1.0263325 0.0034592197 -9.9565901e-23)
(1.0255116 0.0029634798 -2.9123584e-23)
(1.02494 0.0026255974 -6.6663649e-23)
(1.0244127 0.0024125431 0)
(1.0238467 0.0022629645 -5.7179002e-22)
(1.0231964 0.0020772855 -1.4053943e-21)
(1.022527 0.0018103904 1.9639274e-21)
(1.02185 0.0014422774 -6.163631e-22)
(1.0212965 0.00091876202 8.1849863e-23)
(1.020849 0.00036745961 1.9327435e-21)
(0.71097872 -0.064531745 -8.5724664e-21)
(0.75220372 0.11918313 -1.5730622e-22)
(0.74325068 0.24930987 -2.0969775e-21)
(0.73699407 0.23581483 -7.4432573e-23)
(0.73093089 0.11107587 -1.526884e-19)
(0.75669791 -0.11386201 -8.8215149e-20)
(0.84333948 -0.25698777 -2.0651256e-21)
(0.95560544 -0.25905782 4.256937e-20)
(1.0552915 -0.17738142 4.849531e-21)
(1.1224118 -0.016233454 7.4088895e-20)
(1.1195562 0.18006326 1.1675237e-21)
(1.0616086 0.26703922 -2.1956285e-20)
(0.99097006 0.24382171 3.2658808e-21)
(0.91611463 0.1507399 -4.5302242e-21)
(0.87521881 0.038840613 0)
(0.90522514 -0.025174459 0)
(0.94972679 -0.049939746 -8.3350933e-23)
(0.98677115 -0.057695911 1.3205705e-22)
(1.0164537 -0.05251948 7.1944053e-22)
(1.0359876 -0.039281257 2.9296071e-22)
(1.0450781 -0.023547969 1.4210389e-22)
(1.0458759 -0.0098947264 5.1564674e-22)
(1.0419642 -0.00069641188 -1.6911452e-22)
(1.0366771 0.0039960232 0)
(1.0320662 0.0054566169 -5.7969298e-22)
(1.0288501 0.0052006618 -1.2150974e-22)
(1.0269234 0.0043460374 -1.1224093e-22)
(1.0258728 0.0035073874 7.7278566e-23)
(1.0252764 0.0029094712 -4.0966093e-24)
(1.0248306 0.0025709588 6.2599434e-23)
(1.0243517 0.0023887832 3.8242133e-22)
(1.023785 0.002267142 -5.4324313e-22)
(1.0231116 0.0020971751 1.5568502e-23)
(1.0224135 0.001835672 1.994951e-21)
(1.0217128 0.0014635584 -1.5728503e-24)
(1.0211437 0.00093450258 -5.4360091e-23)
(1.0206886 0.00037187975 6.9388151e-22)
(0.69032476 -0.066768307 -5.7680785e-22)
(0.72807246 0.11931083 1.5279241e-20)
(0.72433796 0.25391705 -1.0289946e-20)
(0.72110058 0.2419484 1.7083172e-20)
(0.71614465 0.11670258 -3.0963142e-22)
(0.73849479 -0.11522275 7.6261709e-22)
(0.82016952 -0.27002057 3.2573193e-20)
(0.93079485 -0.27647517 -2.093212e-21)
(1.0310517 -0.1887574 0)
(1.0987384 -0.019590594 -1.6232285e-20)
(1.0957689 0.19406675 0)
(1.0403109 0.29064594 0)
(0.97688928 0.27128532 -1.2515472e-20)
(0.91256 0.17823374 5.1760899e-22)
(0.86010923 0.049036582 1.629448e-21)
(0.88099765 -0.033586123 1.6632539e-21)
(0.93342987 -0.064138629 -3.1962424e-22)
(0.97779632 -0.073435801 -3.7286791e-21)
(1.0139833 -0.068122813 -1.9786094e-21)
(1.039091 -0.052455511 -7.6206238e-22)
(1.0517622 -0.032620876 2.6011097e-22)
(1.053647 -0.014446997 -1.0414281e-21)
(1.0487882 -0.0016150004 -1.2173087e-22)
(1.0415751 0.0052111508 -5.012502e-22)
(1.0350236 0.0074354133 -1.2825123e-22)
(1.0303614 0.0070806946 2.7947803e-23)
(1.0275735 0.00575779 1.7324942e-22)
(1.0261345 0.0043922934 -9.9406018e-23)
(1.0254612 0.0033762065 -6.7637964e-25)
(1.0250986 0.0027668222 -7.7771438e-23)
(1.0247655 0.0024778774 -3.9712728e-23)
(1.0243181 0.0023499606 -6.4251507e-23)
(1.0237385 0.0022663027 4.7264036e-22)
(1.023035 0.0021151353 1.2411196e-21)
(1.0223051 0.0018606654 -3.9746141e-21)
(1.0215795 0.0014853573 -7.8873522e-22)
(1.0209939 0.00095128569 -6.8521297e-22)
(1.0205314 0.00037653362 0)
(0.67375322 -0.0689099 2.14443e-20)
(0.70769923 0.1180988 -1.0579847e-22)
(0.70886573 0.25718878 -5.5049146e-21)
(0.70790214 0.24724356 1.80286e-20)
(0.70390143 0.1216438 1.0758024e-19)
(0.72265771 -0.1166468 6.5828657e-20)
(0.79675107 -0.28206153 -4.5716744e-21)
(0.90328307 -0.29405979 -7.2454636e-20)
(1.0029028 -0.20550949 -7.3536966e-21)
(1.0726743 -0.017468623 -1.652767e-19)
(1.0690775 0.20868577 2.9200346e-21)
(1.015477 0.31337664 0)
(0.95655249 0.29651814 0)
(0.90217813 0.20308831 1.0088123e-20)
(0.84685874 0.063054034 -1.0500985e-20)
(0.85756408 -0.042742745 -6.8455011e-21)
(0.91508169 -0.080422618 1.7056918e-21)
(0.9676856 -0.091150411 1.3034588e-21)
(1.0108008 -0.086224385 -2.0158471e-21)
(1.0424934 -0.068322698 -1.8435828e-21)
(1.0598239 -0.044026382 -1.746535e-22)
(1.0635427 -0.020396011 -5.7435049e-22)
(1.0577892 -0.0028134196 1.3088053e-21)