/*--------------------------------*- C++ -*----------------------------------*\
| =========                 |                                                 |
| \\      /  F ield         | OpenFOAM: The Open Source CFD Toolbox           |
|  \\    /   O peration     | Version:  5.0                                   |
|   \\  /    A nd           | Web:      www.OpenFOAM.org                      |
|    \\/     M anipulation  |                                                 |
\*---------------------------------------------------------------------------*/
FoamFile
{
    version     2.0;
    format      ascii;
    class       volVectorField;
    location    "160";
    object      U_0;
}
// * * * * * * * * * * * * * * * * * * * * * * * * * * * * * * * * * * * * * //

dimensions      [0 1 -1 0 0 0 0];

internalField   nonuniform List<vector> 
9200
(
(1.0398824 0.00076750501 -2.0290776e-24)
(1.0400818 0.0024579446 8.8701004e-22)
(1.0375641 0.00076820862 0)
(1.0403939 0.0039201533 -4.7019589e-22)
(1.0377278 0.0024803496 7.7516922e-22)
(1.0365441 0.00075159437 0)
(1.0408285 0.0053887056 -4.702602e-23)
(1.0380129 0.0039615062 8.6328784e-24)
(1.0366908 0.0024380577 0)
(1.0350673 0.00072087869 0)
(1.0413367 0.0067457705 9.7907402e-22)
(1.0383952 0.0054583055 7.3873978e-22)
(1.0369528 0.0038968893 4.3929186e-22)
(1.0351891 0.0023471832 2.6709872e-23)
(1.0339305 0.00068797281 2.6452102e-25)
(1.0419257 0.0080327269 9.3671114e-22)
(1.0388663 0.0068657794 -2.7163974e-23)
(1.0372976 0.005373597 1.4677979e-21)
(1.0354197 0.0037519475 6.0407905e-22)
(1.0340359 0.0022393181 2.0248802e-23)
(1.0328035 0.00065699919 -1.1187923e-21)
(1.0425784 0.0092159052 1.0085409e-21)
(1.0394381 0.0082424333 1.0500083e-21)
(1.0377113 0.0067761969 -8.7885699e-22)
(1.0357092 0.0051690573 -6.5612572e-23)
(1.0342452 0.0035758531 5.3772286e-22)
(1.0328983 0.0021289039 5.4692071e-22)
(1.0317949 0.00063297719 9.6172161e-23)
(1.0433188 0.010266136 5.7105368e-22)
(1.0401234 0.0095875359 8.9813306e-22)
(1.0381976 0.0081709816 1.0609764e-21)
(1.0360406 0.0065184133 7.0128653e-23)
(1.0345006 0.0049109277 -1.3858834e-21)
(1.0330941 0.0033949769 -6.1573434e-22)
(1.0318871 0.0020359776 -6.287527e-22)
(1.0308494 0.00061470919 1.0393715e-21)
(1.0441726 0.011154146 -1.3871151e-21)
(1.0409527 0.010900367 8.7556973e-22)
(1.0387487 0.0095817119 7.7750087e-23)
(1.0363955 0.0078589895 4.9361871e-22)
(1.0347819 0.0061698363 1.5336411e-22)
(1.0333323 0.004642925 -2.0526743e-21)
(1.032077 0.0032447051 1.7642566e-22)
(1.030943 0.0019653327 -1.0698911e-21)
(1.0299665 0.00059912564 -2.2064559e-21)
(1.0451312 0.011879948 1.1548156e-21)
(1.041979 0.012229043 -2.34392e-22)
(1.0393609 0.011048196 -6.2278395e-23)
(1.0367305 0.0092233765 -2.810249e-22)
(1.0350599 0.0073902342 -2.1217199e-22)
(1.033595 0.0058042576 2.4310958e-22)
(1.0323145 0.0044227543 7.1715859e-22)
(1.0311285 0.0031353595 1.2038868e-21)
(1.0300612 0.0019127952 6.8328972e-22)
(1.0291348 0.00058363417 1.7620739e-22)
(1.0461327 0.012400797 -5.596896e-22)
(1.0433432 0.013582914 3.5118206e-22)
(1.0400277 0.012661509 6.2901945e-22)
(1.0370148 0.010665415 -8.266095e-22)
(1.0352681 0.0085893187 5.3065528e-22)
(1.0338513 0.0068931205 -1.8231503e-21)
(1.0325852 0.005510613 7.5134484e-23)
(1.0313689 0.0042711484 1.8052584e-21)
(1.0302393 0.0030599211 -9.053174e-22)
(1.0292263 0.0018674105 1.9965827e-21)
(1.0283527 0.00056714122 -3.0355043e-22)
(1.0475016 0.012602624 5.3616354e-23)
(1.0448611 0.014952612 -8.2956232e-22)
(1.0405621 0.014552106 -9.0266056e-22)
(1.0371558 0.012271198 0)
(1.0353566 0.0097869297 3.9542195e-23)
(1.034038 0.0079053279 -3.4904965e-22)
(1.0328729 0.006508269 -3.6259473e-22)
(1.0316505 0.005325269 -8.8774697e-22)
(1.0304761 0.0041765484 -2.3206717e-22)
(1.029392 0.0029980753 -1.1481884e-21)
(1.0284361 0.0018173299 -7.8430721e-22)
(1.0276212 0.00054841412 1.806648e-22)
(1.0493561 0.012450746 3.8957608e-23)
(1.0465859 0.016725556 1.2627396e-22)
(1.0409495 0.016830833 0)
(1.0370852 0.014084983 0)
(1.035214 0.011009627 -1.5549739e-22)
(1.034112 0.0088203864 -2.5859498e-22)
(1.0331305 0.0073970805 -4.6979498e-22)
(1.0319749 0.0062929766 1.0432158e-21)
(1.0307578 0.0052284824 1.0831791e-22)
(1.0296145 0.0041032862 2.7134462e-24)
(1.0285859 0.0029277927 1.2941599e-21)
(1.0276939 0.0017525617 -1.4103082e-21)
(1.0269445 0.00052530088 2.9096198e-21)
(1.0517599 0.011844958 -3.6343227e-22)
(1.0489398 0.018871041 4.2153333e-24)
(1.0413927 0.019480679 -1.3059511e-22)
(1.0367471 0.016156277 -4.2383321e-23)
(1.0347498 0.012240826 1.3145517e-23)
(1.0339982 0.0096178706 -1.7336929e-22)
(1.0333356 0.0081333795 2.8397802e-22)
(1.0323165 0.007156651 1.7108549e-23)
(1.031105 0.0062114213 1.1631703e-21)
(1.0298814 0.0051637908 1.0868321e-21)
(1.0287836 0.0040151424 3.5465015e-22)
(1.0278258 0.0028310315 1.0291175e-21)
(1.0270069 0.0016668892 7.0250239e-22)
(1.0263279 0.00049625409 -7.9983064e-22)
(1.0547573 0.010779486 -4.2285293e-22)
(1.0519557 0.021543257 5.0348418e-23)
(1.041817 0.022726522 -4.6254765e-22)
(1.0359895 0.01861372 9.4943092e-23)
(1.0338328 0.013507651 -7.7611091e-23)
(1.0336376 0.010231402 3.1581958e-22)
(1.0334433 0.0086480066 2.6749961e-22)
(1.0326798 0.0078604533 -3.6299108e-22)
(1.0315128 0.0071177633 -1.0159048e-22)
(1.0302219 0.0061784905 -1.2805805e-22)
(1.0290183 0.0050777607 -2.1017113e-23)
(1.0279929 0.0038850265 -1.5112414e-22)
(1.0271213 0.0026972251 -1.3274434e-21)
(1.0263823 0.0015593611 6.7988359e-22)
(1.0257755 0.00046214803 -6.165472e-22)
(1.057955 0.0091981249 2.0492789e-21)
(1.0555986 0.024695995 -1.0941302e-21)
(1.0421952 0.02680181 -2.6758815e-22)
(1.0346638 0.021606723 2.482979e-22)
(1.0322916 0.014853425 -2.4645385e-22)
(1.032856 0.010554882 -4.0005975e-22)
(1.0335319 0.0088912736 -1.2459116e-23)
(1.0330867 0.0083266841 3.3867569e-23)
(1.0320197 0.0078950308 -2.2376972e-22)
(1.0306475 0.0071578203 -2.7652414e-22)
(1.0293159 0.0061211068 -2.2639943e-21)
(1.0281777 0.0049285127 4.925181e-22)
(1.0272577 0.0036969986 4.1266821e-22)
(1.0264826 0.0025252592 2.0350719e-22)
(1.0258251 0.0014346639 3.579345e-23)
(1.0252881 0.00042592851 6.8756111e-22)
(1.0614304 0.0073923127 0)
(1.059587 0.028677037 -1.0067055e-21)
(1.042383 0.031965468 1.0124455e-21)
(1.0326231 0.025290509 0)
(1.0299267 0.016291022 0)
(1.0315386 0.010553496 0)
(1.0334315 0.0086125244 1.1070791e-22)
(1.0337274 0.0085107656 5.1469935e-22)
(1.032733 0.0084931661 3.6199328e-22)
(1.0312298 0.0080773749 6.6884993e-22)
(1.0296886 0.0071770069 9.9647044e-23)
(1.0284018 0.0059747993 4.9387427e-22)
(1.0273869 0.0046913892 -4.7854647e-25)
(1.0265934 0.0034489542 -4.7252573e-22)
(1.0259172 0.0023233022 -1.3434277e-22)
(1.0253368 0.0013016099 -3.3466936e-22)
(1.0248628 0.00039075058 0)
(1.0656786 0.0047873545 2.8497417e-21)
(1.0636898 0.033239528 3.7969814e-21)
(1.0420497 0.038372469 1.5510389e-22)
(1.0296428 0.029843794 2.1201027e-21)
(1.0265184 0.017865345 1.4946542e-21)
(1.0295172 0.010115624 0)
(1.0330599 0.0077489006 7.1822974e-22)
(1.0345459 0.0082000224 -1.9323942e-22)
(1.0336945 0.0088060591 4.6846131e-22)
(1.0320697 0.0089323151 4.128347e-22)
(1.0302058 0.0082695209 -4.0317991e-22)
(1.0286525 0.007072425 1.3164329e-22)
(1.0275224 0.0056935688 8.311385e-22)
(1.0266769 0.0043647535 -1.5391692e-21)
(1.0260125 0.0031540593 -4.1403894e-22)
(1.0254275 0.0021062129 -2.249838e-21)
(1.0249147 0.00117031 -8.9500834e-22)
(1.0244935 0.00035905325 -8.754049e-22)
(1.0726893 0.0021396203 -6.5564802e-22)
(1.0694301 0.038660483 2.3576516e-21)
(1.0411676 0.046219793 8.4231562e-22)
(1.0253742 0.035379227 1.7404567e-21)
(1.0218077 0.019598177 -2.7793372e-22)
(1.0265901 0.0091363995 -3.2368458e-22)
(1.0323862 0.0060993132 -1.5775748e-21)
(1.0354518 0.0072580528 -6.1426589e-22)
(1.0350589 0.0090127607 -8.5111307e-23)
(1.0331117 0.0097418073 -7.1166621e-22)
(1.03089 0.0094698039 -1.0217694e-22)
(1.0289646 0.008286486 -9.0078542e-22)
(1.0276221 0.0067630602 1.543514e-22)
(1.0267305 0.005270903 1.2168125e-22)
(1.0260683 0.0039671029 1.8201092e-22)
(1.0255203 0.0028358296 3.3854777e-22)
(1.0250108 0.0018912728 -7.4937885e-22)
(1.0245524 0.0010495986 3.8067984e-23)
(1.0241722 0.00033311163 -8.38779e-22)
(1.0815848 -0.0020658219 -5.066071e-21)
(1.0800569 0.044336844 -4.6178531e-21)
(1.0415196 0.055484762 6.2009565e-21)
(1.0197903 0.041911759 -1.6526726e-21)
(1.0155605 0.021538558 3.1994952e-22)
(1.0225296 0.0074687678 -9.7808263e-23)
(1.0313247 0.0034571013 2.0656213e-22)
(1.0365593 0.0054842025 -1.0144206e-22)
(1.036999 0.008791183 -2.2509136e-24)
(1.0345994 0.010605118 3.6473705e-22)
(1.0317119 0.010863234 -1.1901539e-21)
(1.0292966 0.0097183455 3.1052777e-22)
(1.0276782 0.0079660938 4.8302266e-22)
(1.0266973 0.0062295287 -4.2738751e-23)
(1.0260727 0.0047412366 1.2164396e-22)
(1.0255706 0.0035321228 1.0693833e-21)
(1.0251147 0.0025205653 -2.4903087e-22)
(1.02466 0.0016940279 1.2313875e-21)
(1.0242411 0.00094589705 3.2732188e-22)
(1.0238898 0.00031524479 8.8310429e-22)
(1.0864893 -0.0072330049 -2.9593608e-22)
(1.0956159 0.050685647 -1.0624928e-20)
(1.0461737 0.066263686 2.0798059e-21)
(1.0141078 0.049718517 1.8948317e-21)
(1.0075158 0.023646144 -1.0950763e-21)
(1.017116 0.0049817347 -1.280227e-21)
(1.0297732 -0.00042289077 1.7300408e-21)
(1.0379476 0.0026286861 5.4430613e-22)
(1.039617 0.0080064318 5.3372343e-22)
(1.0368122 0.01147063 0)
(1.0329182 0.012479051 8.2128473e-22)
(1.0296686 0.011448156 3.5449278e-22)
(1.0276268 0.0093885407 -6.5765521e-22)
(1.026539 0.0072829796 1.0106248e-22)
(1.0259549 0.0055260637 -4.5595505e-22)
(1.025564 0.0041574475 8.2603465e-22)
(1.0251815 0.003099241 1.4132892e-22)
(1.0247868 0.0022311899 -3.8807287e-22)
(1.024365 0.0015256428 7.5553432e-22)
(1.0239712 0.00086317679 5.1399658e-23)
(1.023637 0.0003064452 8.5463697e-22)
(1.0854278 -0.012708202 1.0066743e-20)
(1.1049475 0.055074729 -1.4871934e-20)
(1.0557906 0.079033241 -9.9001152e-21)
(1.0103905 0.05942505 -1.8598824e-21)
(0.9975537 0.026061587 -4.4510153e-21)
(1.0101467 0.0015587372 2.3150604e-22)
(1.0276126 -0.0057652299 0)
(1.0396757 -0.0015609885 4.490653e-22)
(1.0431076 0.0064614397 2.4933225e-22)
(1.0399486 0.012330978 1.1550768e-21)
(1.0346821 0.014483459 4.8566818e-22)
(1.0301752 0.013595607 8.8595124e-23)
(1.0274554 0.011124317 -8.4269853e-23)
(1.0261726 0.0084952248 3.7541767e-22)
(1.0256629 0.0063386435 -2.5111324e-22)
(1.0254224 0.0047433246 2.8208216e-22)
(1.0251995 0.0035783352 -1.0438563e-22)
(1.0248879 0.0027039884 6.638419e-22)
(1.024523 0.0019840019 1.2335592e-22)
(1.0241146 0.001392014 1.5948937e-23)
(1.0237337 0.00080285327 4.5473936e-22)
(1.0234053 0.00030471848 0)
(1.0797236 -0.018085428 3.3279717e-21)
(1.1047694 0.059418263 1.1002515e-20)
(1.0652467 0.095355282 -6.284567e-22)
(1.0075515 0.072082184 -3.8963661e-21)
(0.98573615 0.029261213 -4.8221242e-21)
(1.0012495 -0.0029100367 1.7936471e-21)
(1.0247171 -0.012820227 -1.1246172e-21)
(1.0417523 -0.0073704255 -1.7599044e-22)
(1.0477004 0.0039697924 -3.0591357e-22)
(1.0442773 0.013132672 -7.6675237e-23)
(1.0371982 0.017029637 -1.061875e-23)
(1.030869 0.016388969 -3.4024248e-22)
(1.0271026 0.013323422 -1.0654088e-22)
(1.0255185 0.0099483797 1.3122547e-21)
(1.025097 0.0072122646 8.9767634e-22)
(1.0250951 0.0052812665 6.5377522e-22)
(1.0250918 0.0039721284 -1.3357157e-22)
(1.024958 0.0030559701 -1.0261384e-21)
(1.02467 0.002372195 -4.257848e-23)
(1.0243079 0.0017881772 4.0711762e-22)
(1.0238982 0.0012943417 0)
(1.0235208 0.0007635733 -1.0353473e-21)
(1.0231885 0.00030550447 -2.3076098e-24)
(1.0660434 -0.02303171 -1.245997e-20)
(1.0946405 0.064065321 3.6677262e-20)
(1.0595217 0.11241074 -2.0348971e-20)
(1.0012628 0.088922485 -6.6317984e-22)
(0.97174154 0.034294849 -9.8878813e-21)
(0.98987012 -0.0085669178 0)
(1.0209196 -0.02181963 -3.8072366e-22)
(1.044175 -0.015106368 6.1328843e-22)
(1.053583 0.00026798839 -1.7747239e-21)
(1.0501192 0.013850194 -1.4533028e-21)
(1.0406921 0.020306943 9.2398439e-22)
(1.0318293 0.020084006 2.3273049e-22)
(1.0265157 0.016192141 -1.5936905e-22)
(1.0244501 0.011745044 6.2898636e-22)
(1.0241503 0.0081857748 -7.1576218e-22)
(1.0244812 0.0057665793 -1.4385252e-21)
(1.0248206 0.004246919 -1.8925975e-22)
(1.0249295 0.0032878188 -3.535508e-22)
(1.0248093 0.0026268591 1.0766104e-21)
(1.024505 0.0021167055 -3.5511866e-22)
(1.024127 0.0016467678 -8.8824944e-22)
(1.023706 0.0012305423 9.6927188e-22)
(1.0233251 0.00074193492 -7.4071252e-22)
(1.0229825 0.00030481122 -1.2187508e-24)
(1.0464214 -0.028157592 -4.8300475e-22)
(1.0781181 0.070813936 3.3533773e-20)
(1.0406342 0.12856684 -1.1284061e-21)
(0.99056425 0.10709921 -5.6678462e-21)
(0.95563664 0.040921841 6.9940245e-21)
(0.97585958 -0.015280077 -7.9041744e-21)
(1.0159481 -0.033031034 -5.0068051e-22)
(1.0469274 -0.025051552 1.3596643e-21)
(1.0609649 -0.0049155317 -2.5227251e-23)
(1.0578076 0.014436289 -1.1693952e-21)
(1.0454213 0.024540228 1.0411618e-21)
(1.0330906 0.025000019 3.3153818e-23)
(1.0256089 0.01998212 5.6818563e-22)
(1.022824 0.014022216 -8.3033695e-23)
(1.0226721 0.0092968681 -1.0558955e-21)
(1.0234747 0.0061881338 -2.523211e-23)
(1.0243001 0.0043664004 -4.3453385e-23)
(1.0247845 0.0033482096 -4.9725338e-22)
(1.024887 0.0027407128 0)
(1.0247209 0.0023085069 -1.1026045e-22)
(1.0243727 0.0019373485 -3.3259272e-23)
(1.023969 0.0015575262 7.0418519e-23)
(1.0235293 0.001196372 -5.4711968e-23)
(1.0231395 0.00073400367 1.0551318e-21)
(1.0227848 0.0003024347 5.9669774e-22)
(1.022461 -0.033090391 2.0347459e-21)
(1.0583786 0.077108968 -2.0548124e-20)
(1.019666 0.14329397 -4.8140727e-21)
(0.97702215 0.12452293 1.3770654e-22)
(0.93943232 0.048339061 2.6169958e-20)
(0.95978168 -0.023190544 5.2115138e-22)
(1.0095516 -0.046762039 -7.0398498e-22)
(1.0498973 -0.037427563 -1.0025964e-22)
(1.0698685 -0.011861636 -4.8441662e-21)
(1.0676611 0.014824588 1.2033361e-22)
(1.0516512 0.029991548 -1.2433275e-21)
(1.0346855 0.031505999 -5.5512462e-23)
(1.024258 0.024985504 -4.0333121e-22)
(1.0204478 0.016936758 -3.3658283e-22)
(1.0204756 0.010592333 -3.7207796e-22)
(1.0219279 0.0065202194 1.3649097e-21)
(1.0234429 0.004276339 2.0364796e-21)
(1.0244613 0.0031790243 6.2754933e-22)
(1.0249079 0.0026574519 9.2560342e-22)
(1.0249132 0.0023527481 1.870804e-23)
(1.0246638 0.0020997522 -1.122255e-21)
(1.0242574 0.0018257499 -3.0306241e-22)
(1.0238244 0.0015132088 8.1763338e-22)
(1.023361 0.0011860292 -9.390836e-22)
(1.0229599 0.00073655365 8.0176439e-22)
(1.022594 0.00030166425 -4.3279509e-23)
(0.99594903 -0.037708257 -5.3984741e-23)
(1.0343432 0.083070754 -2.4377776e-20)
(0.99733663 0.157178 2.1950732e-20)
(0.9610122 0.13964656 -7.8774535e-21)
(0.92346494 0.05746717 -1.3417455e-20)
(0.94209366 -0.031992944 5.5846019e-21)
(1.0015572 -0.063009262 -4.0989874e-22)
(1.0525273 -0.052224103 -4.6802532e-22)
(1.0798299 -0.020605159 1.0923495e-20)
(1.0795726 0.014945774 3.5015044e-21)
(1.0595274 0.036973039 -3.1176703e-22)
(1.0366156 0.040026969 1.9962635e-21)
(1.0223104 0.031525465 -6.5327461e-22)
(1.0171097 0.020674588 -6.8817434e-22)
(1.0173342 0.01211547 -2.6583266e-22)
(1.0196624 0.0067282064 2.8670835e-22)
(1.0221309 0.0038975043 -2.3969358e-23)
(1.0239071 0.0026980123 -2.4657408e-23)
(1.0248393 0.0023080966 2.3819522e-22)
(1.0251087 0.0022002971 4.0719535e-23)
(1.0249638 0.0021201552 0)
(1.0246132 0.0019836898 -4.2698064e-22)
(1.0241479 0.0017709301 -3.677612e-23)
(1.0236854 0.0015031269 0)
(1.0231982 0.0011934126 1.1535674e-21)
(1.0227832 0.00074752296 2.4319546e-24)
(1.0224071 0.00030538765 -5.8795567e-22)
(0.96816062 -0.041844937 -6.6089387e-22)
(1.0083996 0.08852984 -1.6172837e-21)
(0.97182127 0.17012643 1.9043938e-20)
(0.93949691 0.15398138 -2.9802512e-21)
(0.90603889 0.066496715 -1.7065536e-21)
(0.92340917 -0.040549555 -3.4468617e-21)
(0.99131658 -0.081043447 -1.3131099e-22)
(1.0539058 -0.069249047 4.449553e-21)
(1.0900021 -0.030902859 -2.8578076e-21)
(1.0925642 0.015044229 -7.5187051e-21)
(1.0684695 0.045939485 3.5999864e-21)
(1.0387068 0.051032491 -5.5339975e-22)
(1.0195355 0.039951312 -5.0643359e-22)
(1.0125257 0.02541448 -4.0695413e-22)
(1.0129906 0.013913292 -9.5660035e-22)
(1.0164657 0.0067552142 -2.4073836e-22)
(1.0202236 0.0031312029 -1.3274309e-21)
(1.0230482 0.0017883992 -1.0487106e-21)
(1.0246695 0.0015991809 -4.3744404e-22)
(1.0253042 0.0017841256 -6.2809308e-22)
(1.0253171 0.0019640309 -4.1253362e-22)
(1.0250055 0.0020195447 8.8740498e-23)
(1.0245515 0.0019357495 3.5912836e-23)
(1.0240394 0.0017613039 0)
(1.0235499 0.0015169941 0)
(1.0230383 0.0012137298 -8.392587e-23)
(1.0226073 0.00076519594 1.043956e-21)
(1.0222227 0.00031329893 1.1295641e-21)
(0.94022085 -0.045520765 0)
(0.98173835 0.09346056 -1.137026e-20)
(0.94544978 0.1820156 -1.7541308e-20)
(0.91545842 0.167018 -4.1039959e-21)
(0.88576444 0.075521675 2.1159488e-22)
(0.90406166 -0.049269971 -7.7137561e-22)
(0.97891363 -0.10082846 -1.6056021e-21)
(1.0537264 -0.0885314 1.123635e-20)
(1.1000486 -0.043020987 -1.7789385e-20)
(1.1062576 0.015409051 2.6371244e-21)
(1.0771167 0.057521433 -5.0156644e-22)
(1.0399279 0.065056547 -1.551643e-21)
(1.0155308 0.050650924 -7.6816696e-22)
(1.006342 0.031345983 -8.8983631e-22)
(1.0071434 0.016016617 -2.1187402e-22)
(1.0120987 0.0065327036 -9.8572653e-22)
(1.0175571 0.0018471134 -1.2263661e-22)
(1.0218011 0.00030970974 -2.6147716e-22)
(1.0243779 0.00039799154 -1.8255613e-22)
(1.025529 0.0010167069 -2.7207394e-22)
(1.0257465 0.0015792124 -2.7803359e-22)
(1.0254844 0.0019095415 -2.1364799e-22)
(1.025013 0.0020092732 2.2404508e-23)
(1.0244803 0.0019344382 9.9990359e-22)
(1.0239352 0.001784836 2.8122003e-22)
(1.0234157 0.0015480445 -7.8609527e-24)
(1.0228796 0.0012429865 -1.1220202e-21)
(1.0224324 0.00078696241 6.9048851e-22)
(1.0220398 0.00032298212 -1.6926468e-21)
(0.91285406 -0.048544312 4.2091051e-22)
(0.9553398 0.097765394 0)
(0.91912286 0.192931 0)
(0.89056087 0.17863506 0)
(0.86495922 0.084300282 0)
(0.88501817 -0.058350731 7.5672293e-22)
(0.96427834 -0.12183675 -1.4767861e-21)
(1.0520409 -0.11050531 -4.5932783e-21)
(1.1106427 -0.058216367 -3.8632852e-20)
(1.1228374 0.015290808 3.3123446e-20)
(1.0868801 0.071920127 -8.5869205e-21)
(1.039144 0.082425622 1.8651253e-21)
(1.0093408 0.063922766 1.0444542e-21)
(0.99811631 0.038645743 1.5008511e-21)
(0.99944468 0.018439019 2.3153644e-21)
(1.0062989 0.0059707411 -1.1077903e-22)
(1.0139467 -0.00010531643 -1.0181974e-21)
(1.0200693 -0.0019160621 2.0738551e-22)
(1.0239482 -0.00145306 5.8179873e-22)
(1.025816 -0.00022809187 4.297671e-22)
(1.0263162 0.00090041087 2.6345051e-22)
(1.02609 0.001628419 -1.3238324e-22)
(1.0255798 0.0019797602 -4.3745307e-22)
(1.0249824 0.002041969 3.3582091e-22)
(1.0244037 0.0019690752 -1.1636165e-23)
(1.0238293 0.0018303461 2.3717227e-22)
(1.0232793 0.001590471 -8.9270137e-22)
(1.0227215 0.0012765276 5.4838539e-24)
(1.0222591 0.0008098779 -2.6765221e-21)
(1.0218583 0.00033233738 -1.0187809e-21)
(0.88381814 -0.051901412 -1.9734957e-21)
(0.92964809 0.1020105 -8.7896641e-21)
(0.8937156 0.2028337 0)
(0.86579969 0.18908461 0)
(0.84392094 0.091077862 0)
(0.86661281 -0.065758651 0)
(0.94812973 -0.14328096 0)
(1.0466385 -0.13408784 1.3881593e-21)
(1.1216201 -0.076165808 1.7573576e-20)
(1.1446971 0.01253103 -5.2251773e-20)
(1.1041785 0.087667441 6.3726794e-22)
(1.0404092 0.10327556 -8.3003366e-21)
(1.0001821 0.079678058 2.8117261e-21)
(0.9872154 0.047380475 2.9423245e-21)
(0.98951524 0.021143246 -2.822904e-22)
(0.99879157 0.0049585151 6.3082923e-22)
(1.0091942 -0.0028985055 -3.4413894e-22)
(1.0177426 -0.0050915056 4.351971e-22)
(1.0233597 -0.0041546903 -4.7441035e-22)
(1.0262159 -0.0021011032 -1.99323e-22)
(1.0271041 -0.00017280575 -2.8118356e-23)
(1.0269118 0.0011448203 -3.7268921e-22)
(1.0262921 0.0018458681 -1.904151e-23)
(1.0255883 0.0021083095 1.5683888e-22)
(1.0249155 0.0021183333 -1.0041339e-22)
(1.0243099 0.0020411296 -7.8016151e-22)
(1.0237102 0.0018874157 -2.5557143e-22)
(1.0231403 0.0016362555 3.9019013e-22)
(1.0225649 0.0013102434 1.4307247e-24)
(1.0220879 0.00083199746 1.9311914e-21)
(1.0216787 0.00034053869 6.6244955e-22)
(0.85330334 -0.055052683 3.5783243e-21)
(0.90264712 0.10549678 -4.7924119e-22)
(0.8692299 0.21193786 -1.3938412e-20)
(0.84190186 0.19833465 -2.6120682e-20)
(0.82317383 0.09643934 0)
(0.8483171 -0.074061667 0)
(0.93125245 -0.16455366 -1.6072702e-21)
(1.0372908 -0.15793789 -2.1786873e-20)
(1.1227719 -0.095541677 5.4234375e-20)
(1.1621918 0.0060851238 -6.4777405e-20)
(1.1315756 0.10288468 -2.0221091e-21)
(1.0516649 0.12636014 1.2423048e-20)
(0.99173409 0.098217067 1.1475174e-21)
(0.97296861 0.057289224 -3.4976767e-22)
(0.97696855 0.024025096 -1.9950925e-21)
(0.98930032 0.0033422763 -3.8826909e-23)
(1.003102 -0.0067165436 2.3473958e-21)
(1.0146997 -0.0094438815 -6.4379904e-23)
(1.0225894 -0.0079364483 -1.0060965e-21)
(1.0267876 -0.0047983292 -3.2682312e-22)
(1.0282203 -0.0017605206 -5.6389441e-22)
(1.028059 0.00039975701 1.9522051e-22)
(1.0272519 0.0016173265 -2.6034812e-22)
(1.0263379 0.0021379697 -3.054289e-22)
(1.0255225 0.0022632384 7.3799529e-24)
(1.0248221 0.0022218483 -3.0494483e-22)
(1.0242059 0.0021196193 -2.1350487e-22)
(1.0235924 0.0019379284 -2.2578686e-22)
(1.0230061 0.0016787924 5.3631981e-22)
(1.0224115 0.0013422581 -3.8528319e-23)
(1.021919 0.00085264654 9.3265867e-22)
(1.0215017 0.00034759096 7.0057042e-23)
(0.82248011 -0.058566291 -2.7664951e-21)
(0.87460803 0.10849143 1.6945578e-21)
(0.84385268 0.22087136 1.9054332e-20)
(0.81967595 0.20653777 4.606642e-20)
(0.80325591 0.10025706 0)
(0.82980832 -0.081793784 0)
(0.91391546 -0.18506837 0)
(1.0245065 -0.18137489 -5.9239332e-23)
(1.1185003 -0.11462236 -7.531805e-20)
(1.1657061 -0.0022945844 -6.8233329e-20)
(1.1588345 0.11740291 -2.6120965e-21)
(1.0729046 0.15165242 3.883613e-21)
(0.99154076 0.12013842 -1.0231575e-20)
(0.95641539 0.068452885 1.3207987e-21)
(0.96138284 0.026845289 -5.8641904e-22)
(0.97758598 0.00093637468 0)
(0.99548126 -0.011758504 6.6926104e-22)
(1.0108153 -0.015207386 -4.7133339e-22)
(1.0216044 -0.013056371 -2.283852e-22)
(1.027601 -0.0085459034 1.1806309e-22)
(1.0297985 -0.0040240336 2.6782824e-22)
(1.0296853 -0.00067582872 2.5861349e-22)
(1.0285843 0.0012846844 3.0440617e-22)
(1.0273229 0.0021795454 2.8687146e-22)
(1.0262452 0.0024399938 -3.625312e-23)
(1.0254 0.0024250075 -4.1782803e-23)
(1.0247116 0.0023203422 1.2896512e-23)
(1.0241005 0.002176794 -1.4346912e-23)
(1.0234812 0.0019827081 5.8285855e-22)
(1.0228758 0.0017190019 4.074038e-22)
(1.0222603 0.0013723208 1.6893402e-23)
(1.0217527 0.00087171489 -2.6136271e-21)
(1.0213275 0.00035370942 9.8089668e-22)
(0.79139069 -0.061357928 -5.2721993e-21)
(0.84423132 0.10780204 0)
(0.8179051 0.22918201 2.606378e-20)
(0.7980365 0.2147766 8.5389351e-20)
(0.78460482 0.1029238 -1.8248068e-20)
(0.81138794 -0.089088993 -1.995244e-21)
(0.89614716 -0.20443213 -4.4796773e-20)
(1.0086272 -0.20380857 2.9763173e-20)
(1.1088843 -0.13312295 1.3635186e-20)
(1.1627314 -0.011270961 1.6862589e-19)
(1.1686759 0.13042741 -5.0434798e-20)
(1.093581 0.18078406 -4.633051e-20)
(0.9992514 0.147418 1.8607097e-21)
(0.94156204 0.082635232 -2.7407654e-21)
(0.9423386 0.029215926 -2.2300203e-21)
(0.96347669 -0.0024404174 5.0722033e-23)
(0.98617723 -0.018211323 3.0432715e-22)
(1.0059648 -0.022611032 5.4213269e-22)
(1.0203614 -0.019783627 -9.3261697e-23)
(1.0287238 -0.013606935 1.377521e-23)
(1.031997 -0.0071537766 2.4065542e-22)
(1.0319816 -0.0021826724 3.5222374e-22)
(1.030463 0.00084436042 -1.4395756e-22)
(1.0286653 0.0022730904 2.2603903e-22)
(1.0271573 0.0027209084 3.0142801e-22)
(1.026049 0.0027055315 9.3976159e-23)
(1.0252471 0.0025544811 1.1764169e-22)
(1.0245985 0.0023836153 1.5458934e-23)
(1.0239993 0.0022200172 2.2291784e-22)
(1.0233711 0.0020254547 -6.5057734e-23)
(1.0227455 0.0017564749 2.7491014e-22)
(1.0221115 0.0013995706 2.5088192e-23)
(1.0215892 0.0008892813 1.0569401e-21)
(1.0211564 0.00035909938 -1.8259814e-21)
(0.76188281 -0.063915725 5.5801876e-21)
(0.81184657 0.10885044 -1.2655879e-22)
(0.79187671 0.23667027 -1.6534387e-20)
(0.77686543 0.22405688 -4.9696262e-20)
(0.76639278 0.10648695 9.3969203e-20)
(0.79423216 -0.098236638 5.0629565e-20)
(0.87781469 -0.222339 7.4362135e-21)
(0.99062 -0.22462819 0)
(1.0932001 -0.15119795 5.5996426e-20)
(1.155187 -0.017795421 2.2523593e-19)
(1.1606509 0.14234905 1.8263953e-21)
(1.1003699 0.21110532 2.136327e-20)
(1.0047135 0.18043932 0)
(0.93125455 0.10209523 2.7947454e-21)
(0.91997246 0.031966304 2.8506425e-21)
(0.94670338 -0.0071637719 2.2084158e-23)
(0.97509898 -0.026243842 -2.31553e-21)
(1.0000393 -0.031855108 0)
(1.0188025 -0.028388634 -3.7963533e-23)
(1.0302117 -0.020269924 5.0630609e-23)
(1.0349886 -0.011383287 9.7422781e-23)
(1.0351765 -0.0042414797 2.4465171e-22)
(1.0331058 0.0002732336 0)
(1.0305326 0.0024787665 2.5695074e-22)
(1.0283587 0.0031819627 1.0169157e-22)
(1.0268202 0.0031502398 -8.3458133e-24)
(1.0258006 0.0028810191 1.0805587e-22)
(1.0250906 0.0026201709 -1.1062081e-22)
(1.024493 0.0024137985 -2.7934691e-26)
(1.0239084 0.0022517876 7.1971923e-22)
(1.0232691 0.0020582733 -1.2736928e-21)
(1.0226223 0.0017878975 -7.1444987e-22)
(1.021967 0.0014239908 0)
(1.0214292 0.00090571041 -4.1362415e-23)
(1.0209889 0.00036394753 -5.3937719e-22)
(0.73494789 -0.066374784 8.2917129e-21)
(0.78129961 0.1099472 -9.2544665e-21)
(0.76731051 0.24320148 -3.6512327e-21)
(0.75677939 0.23204834 -1.6927724e-20)
(0.74836037 0.11398011 3.1072714e-20)
(0.77458527 -0.10278927 9.9755804e-21)
(0.8604245 -0.23959457 6.3003043e-20)
(0.9712179 -0.24406645 6.2813555e-21)
(1.0739611 -0.16778464 0)
(1.1414116 -0.022983779 -8.1418642e-20)
(1.1429364 0.15624059 6.6728591e-20)
(1.0876429 0.23870439 -8.0868972e-21)
(1.0032253 0.21475864 9.6823958e-21)
(0.92412893 0.12782742 -5.2417268e-22)
(0.89651697 0.035696147 3.8855484e-22)
(0.92691727 -0.013252192 1.6149997e-21)
(0.9622142 -0.036018964 -3.3724331e-21)
(0.99295664 -0.043116577 -7.9109093e-23)
(1.0168714 -0.039117161 1.0111915e-21)
(1.0321065 -0.028837436 -5.5525362e-24)
(1.0389488 -0.016982133 -3.0692132e-23)
(1.0395378 -0.0070102747 -2.0102929e-23)
(1.0367845 -0.00045161383 0)
(1.0331354 0.0028646317 7.9606004e-23)
(1.0299843 0.0039484657 3.1263689e-23)
(1.0277708 0.0038766556 -2.8643321e-23)
(1.0263888 0.0034129126 -1.0297621e-22)
(1.0255411 0.002949129 -3.0966785e-23)
(1.0249477 0.0026262628 -6.7332633e-23)
(1.0244052 0.0024187769 0)
(1.0238302 0.002270633 -5.6888866e-22)
(1.023175 0.0020844583 -1.3976206e-21)
(1.0225036 0.0018165008 1.9503366e-21)
(1.0218258 0.0014468489 -6.1216865e-22)
(1.0212722 0.00092166891 8.1483323e-23)
(1.0208246 0.00036849035 1.9221286e-21)
(0.71095897 -0.068636339 -9.3662655e-21)
(0.75376793 0.1104242 -1.64987e-22)
(0.74500062 0.24873377 -4.0577354e-21)
(0.73842472 0.23915911 -1.0554183e-22)
(0.73162494 0.12001888 -1.5213013e-19)
(0.75476558 -0.10292752 -9.7272632e-20)
(0.83916639 -0.25402245 -1.9865181e-21)
(0.95135615 -0.26102212 4.17269e-20)
(1.0523064 -0.18378004 5.0364427e-21)
(1.1223232 -0.027243847 7.3960995e-20)
(1.1236673 0.16990067 1.1045455e-21)
(1.0677176 0.26454674 -2.1994152e-20)
(0.99619773 0.24626423 3.3583637e-21)
(0.92103104 0.15627542 -5.4251055e-21)
(0.87642847 0.044454254 0)
(0.90357698 -0.021747156 0)
(0.94778552 -0.047754739 -5.0641015e-24)
(0.9846846 -0.056475291 2.2601591e-22)
(1.0144994 -0.052172169 6.0729087e-22)
(1.0344226 -0.039601909 2.6614382e-22)
(1.0440422 -0.024249901 1.5690678e-22)
(1.0453552 -0.010686317 4.9971696e-22)
(1.0418225 -0.0013729501 -1.7264749e-22)
(1.0367446 0.0035159699 0)
(1.0322074 0.0051647219 -5.8734449e-22)
(1.0289878 0.0050474505 -1.3755534e-22)
(1.0270263 0.0042798744 -1.0777459e-22)
(1.0259356 0.0034891086 6.8961886e-23)
(1.0253056 0.0029138425 -4.5718441e-24)
(1.0248355 0.0025834059 6.2923615e-23)
(1.0243413 0.0024022982 3.7778976e-22)
(1.0237661 0.0022793664 -5.3588227e-22)
(1.0230886 0.0021072362 1.5687372e-23)
(1.0223888 0.0018434971 1.9805837e-21)
(1.0216877 0.0014689996 -9.0513947e-25)
(1.0211187 0.00093772371 -5.3990803e-23)
(1.0206635 0.00037297041 6.8992355e-22)
(0.69034572 -0.070866995 -6.5263485e-22)
(0.72928772 0.11042992 1.5165264e-20)
(0.72575568 0.25338122 -1.3701601e-20)
(0.72233724 0.24533413 1.6379414e-20)
(0.71676051 0.12586492 -2.8366348e-22)
(0.73679907 -0.10365881 7.0094977e-22)
(0.81618467 -0.26662763 3.2659483e-20)
(0.92674243 -0.27845189 -2.032604e-21)
(1.0282981 -0.19562166 0)
(1.0988032 -0.031470535 -1.619052e-20)
(1.100309 0.18292276 0)
(1.0464457 0.28807109 0)
(0.98199078 0.27386086 -1.2832758e-20)
(0.91773304 0.18430472 5.8677223e-22)
(0.8617598 0.056133732 1.5600154e-21)
(0.87919317 -0.029315944 2.0302865e-21)
(0.93100244 -0.061633528 -3.4312231e-22)
(0.97528644 -0.071958528 -3.513853e-21)
(1.0115634 -0.067660889 -1.8441101e-21)
(1.0370818 -0.05282965 -7.1832059e-22)
(1.0503763 -0.033523498 2.0604351e-22)
(1.0529265 -0.015517159 -1.0385458e-21)
(1.0485915 -0.0025609704 -1.1721501e-22)
(1.0416841 0.0045254452 -4.8261927e-22)
(1.0352463 0.0070146985 -1.2676052e-22)
(1.0305824 0.0068600229 2.4060328e-23)
(1.0277447 0.0056641388 1.7646218e-22)
(1.0262469 0.00436923 -9.2964749e-23)
(1.0255231 0.0033866426 5.8950602e-27)
(1.025123 0.0027889381 -7.4002603e-23)
(1.0247654 0.0025010799 -3.5333815e-23)
(1.0243038 0.002370057 -6.1988117e-23)
(1.0237168 0.0022825018 4.7013822e-22)
(1.02301 0.0021275576 1.2293069e-21)
(1.022279 0.0018697416 -3.9454755e-21)
(1.0215535 0.0014913469 -7.8406933e-22)
(1.0209682 0.00095462808 -6.8109856e-22)
(1.0205059 0.00037762509 0)
(0.67378063 -0.072999173 2.3789946e-20)
(0.70852222 0.10908166 -1.0344995e-22)
(0.70992707 0.25669465 -6.6880788e-21)
(0.70890888 0.25072085 1.7291429e-20)
(0.70441916 0.1310066 1.0664709e-19)
(0.72120539 -0.10449671 6.6903636e-20)
(0.79304673 -0.27828617 -4.303823e-21)
(0.89945882 -0.29590996 -7.1587724e-20)
(1.0002115 -0.21265324 -7.605248e-21)
(1.0729934 -0.030024607 -1.6398807e-19)
(1.0738477 0.19659469 2.8098346e-21)
(1.0216361 0.31074954 0)
(0.96168882 0.2991849 0)
(0.90696569 0.20960349 1.0260339e-20)
(0.84927869 0.071509644 -1.0736555e-20)
(0.8558777 -0.037472168 -6.725101e-21)
(0.91210929 -0.077540401 1.7268497e-21)
(0.96471029 -0.08940227 1.2061712e-21)
(1.007872 -0.085613921 -1.8482547e-21)
(1.0399635 -0.068731576 -1.8310819e-21)
(1.0579967 -0.045150771 -1.7104222e-22)
(1.0625507 -0.021810959 -5.7113194e-22)