/*--------------------------------*- C++ -*----------------------------------*\
| =========                 |                                                 |
| \\      /  F ield         | OpenFOAM: The Open Source CFD Toolbox           |
|  \\    /   O peration     | Version:  5.0                                   |
|   \\  /    A nd           | Web:      www.OpenFOAM.org                      |
|    \\/     M anipulation  |                                                 |
\*---------------------------------------------------------------------------*/
FoamFile
{
    version     2.0;
    format      ascii;
    class       volVectorField;
    location    "160";
    object      UMean;
}
// * * * * * * * * * * * * * * * * * * * * * * * * * * * * * * * * * * * * * //

dimensions      [0 1 -1 0 0 0 0];

internalField   nonuniform List<vector> 
9200
(
(1.0231645 8.0263127e-05 -2.9945959e-24)
(1.0233825 0.00025122325 1.6180729e-22)
(1.0230506 5.6790392e-05 0)
(1.0237115 0.00050005107 -9.5337519e-23)
(1.0232155 0.00018282654 1.4663387e-22)
(1.0229467 4.4374006e-05 0)
(1.0241181 0.00072025427 -8.0412094e-24)
(1.0234805 0.00038859904 -2.7515577e-23)
(1.0231037 0.00012219899 0)
(1.0229359 7.8511877e-06 0)
(1.0245927 0.0010788042 2.4791237e-22)
(1.0237882 0.00053907808 2.8560113e-22)
(1.0233393 0.0002931951 8.524281e-23)
(1.0230617 1.17064e-06 3.5160615e-24)
(1.0229075 -1.7879537e-05 3.9004591e-25)
(1.0250847 0.0014428963 2.3194043e-22)
(1.0241395 0.00082652376 3.678815e-23)
(1.0236116 0.0003948926 3.240813e-22)
(1.0232642 0.00010816762 1.600515e-22)
(1.0230272 -0.00010520891 3.5154858e-23)
(1.0230188 -5.3239317e-05 -2.4326824e-23)
(1.025549 0.0019183793 3.882935e-22)
(1.0245021 0.0010889293 2.3046471e-22)
(1.023917 0.00063125531 -1.7951421e-22)
(1.0234957 0.00012338049 -2.4245231e-23)
(1.0232069 -5.9039711e-05 4.5512461e-23)
(1.0231253 -0.00024105306 5.4813895e-23)
(1.0231172 -8.5117676e-05 2.1888819e-23)
(1.0259396 0.0024320761 3.6040748e-22)
(1.0248467 0.0014410403 3.0460282e-22)
(1.0242264 0.00082835554 2.9529984e-22)
(1.023755 0.00028321113 9.6491048e-23)
(1.0234071 -0.00012189687 -2.3996025e-22)
(1.0232843 -0.00026703855 -1.0302958e-22)
(1.0232187 -0.00037135607 7.7624519e-23)
(1.0233338 -0.00011983404 -1.129347e-22)
(1.0262412 0.0030185284 -5.355763e-22)
(1.0251557 0.0017961162 1.6343314e-22)
(1.0245145 0.0011032822 9.1861204e-23)
(1.0240224 0.00039513404 8.4042565e-23)
(1.0236245 -3.4037997e-05 2.1226123e-22)
(1.0234626 -0.00042067398 -1.9939464e-22)
(1.023362 -0.00046828468 -3.1402416e-22)
(1.0234327 -0.00051508285 1.7795451e-22)
(1.0235538 -0.00015164428 3.538265e-22)
(1.026394 0.0036157696 4.9411555e-22)
(1.025394 0.0021858011 1.1540887e-22)
(1.0247597 0.0013697055 -3.6887938e-23)
(1.0242711 0.00058835898 -3.134964e-22)
(1.0238466 -6.2865226e-07 -6.6376923e-23)
(1.0236529 -0.00041332573 3.541865e-22)
(1.0235208 -0.00071001272 4.619519e-23)
(1.0235659 -0.00068991585 -5.3081136e-23)
(1.0236525 -0.00065094876 -9.9789482e-24)
(1.023866 -0.00018331365 -7.4410948e-24)
(1.0263251 0.0042008935 -2.2626856e-22)
(1.0255206 0.0025631859 2.3360187e-22)
(1.0249447 0.001659186 1.1668964e-22)
(1.024492 0.00077683447 -2.3415163e-22)
(1.0240493 0.00011267273 -2.1922578e-22)
(1.0238474 -0.00046572503 4.1495918e-23)
(1.0236841 -0.0007827656 1.1717051e-22)
(1.0237149 -0.0010280277 -2.8361806e-22)
(1.0237779 -0.00089990938 1.9274457e-22)
(1.0239697 -0.00079055479 -3.4284778e-22)
(1.024185 -0.00021149983 1.1398025e-22)
(1.0261876 0.0048050937 4.9314026e-23)
(1.0254817 0.0029169267 -3.1563045e-22)
(1.0250542 0.001933493 -3.1521398e-22)
(1.0246719 0.00099316923 0)
(1.0242262 0.00021769343 2.213777e-23)
(1.02402 -0.00043334704 -3.6508036e-22)
(1.0238485 -0.000919292 3.4889631e-23)
(1.0238619 -0.0011885226 1.4451438e-22)
(1.0239196 -0.0013294098 -3.8610627e-22)
(1.024094 -0.0011166768 2.7158595e-22)
(1.0242953 -0.0009191312 2.346082e-22)
(1.0245729 -0.00023761372 -4.5307722e-23)
(1.0259387 0.0054044378 3.5499995e-23)
(1.0253287 0.0032649411 -4.6375467e-23)
(1.0250266 0.0021861782 0)
(1.0247955 0.0012057947 0)
(1.0243611 0.00035369791 3.9531208e-23)
(1.0241658 -0.00040197174 -5.0406854e-22)
(1.0239867 -0.00096932037 3.8713471e-22)
(1.0240088 -0.0014154028 -5.0498874e-23)
(1.0240524 -0.0015750762 2.0553243e-23)
(1.0242381 -0.001642224 4.5283262e-24)
(1.024421 -0.0013169225 -5.5601503e-22)
(1.0246952 -0.0010438179 8.0240161e-22)
(1.0249643 -0.00025956411 -1.3123171e-21)
(1.0246497 0.0056978918 -5.6011716e-22)
(1.0251735 0.0036773145 2.9974115e-23)
(1.0248079 0.0024035817 -1.6843915e-22)
(1.024813 0.0014067799 2.0150368e-23)
(1.0244489 0.0004946718 7.2232062e-23)
(1.0242711 -0.0003322061 -1.6162756e-22)
(1.0241 -0.0010186097 3.2276609e-23)
(1.0241235 -0.0015522389 2.7351828e-23)
(1.0241822 -0.0018916389 1.7393131e-22)
(1.0243668 -0.0019792601 1.7667533e-22)
(1.0245712 -0.0019322363 -1.1587314e-22)
(1.0248299 -0.0015124542 -3.1435449e-22)
(1.0251004 -0.0011544195 -2.4925973e-22)
(1.0254011 -0.00027796298 4.0626976e-22)
(1.0217614 0.0054730589 -2.3568953e-23)
(1.0246674 0.0040467347 1.3534412e-21)
(1.0244962 0.0025987913 -9.5154755e-23)
(1.0246376 0.0015751789 6.2785388e-24)
(1.0244626 0.00064469233 -2.1993783e-23)
(1.0243305 -0.00024855336 1.9072169e-22)
(1.0241716 -0.0010248038 4.3114084e-23)
(1.0242057 -0.0016856418 -3.3315351e-23)
(1.0242737 -0.0021183764 -1.8336165e-22)
(1.0244907 -0.0023909079 -4.9065873e-23)
(1.0247006 -0.0023568391 6.9160101e-24)
(1.0249962 -0.0022180203 -1.8653606e-22)
(1.0252469 -0.0016867913 6.7050688e-22)
(1.0255568 -0.0012548148 -4.0991576e-22)
(1.0258365 -0.00029164754 3.709276e-22)
(1.0174894 0.0048384688 1.0947213e-21)
(1.0229431 0.0041161909 -1.2838984e-21)
(1.0241022 0.00288227 4.3812369e-22)
(1.0242801 0.0017106239 -2.7712233e-22)
(1.0242978 0.00078029501 7.7913716e-23)
(1.0243312 -0.00014597852 -1.31327e-22)
(1.0241963 -0.0010102097 -3.5704357e-22)
(1.0242403 -0.0017711902 5.3976053e-23)
(1.024331 -0.0023385694 4.3097386e-23)
(1.0245685 -0.0027127452 -5.4196932e-22)
(1.0248229 -0.0028619282 7.3922503e-22)
(1.0251373 -0.0027333563 -6.7190645e-22)
(1.0254345 -0.0024748405 -2.4120435e-22)
(1.0257235 -0.001846561 -2.2208631e-23)
(1.0260131 -0.0013385305 7.872357e-23)
(1.0262942 -0.00030077439 -4.4198284e-22)
(1.012106 0.0039051129 0)
(1.0200677 0.0038628289 -1.8424835e-21)
(1.0227828 0.0030507853 1.9042233e-22)
(1.0238672 0.0019153988 0)
(1.0238728 0.00088658864 0)
(1.0241876 -4.5409739e-05 0)
(1.0241712 -0.00096776443 6.3217689e-23)
(1.0242238 -0.0018295197 4.666862e-23)
(1.0243376 -0.0025077843 7.5362441e-22)
(1.0246034 -0.0030285578 -1.1609498e-22)
(1.0248922 -0.003281467 1.9742937e-22)
(1.0252698 -0.003336421 -1.5760945e-22)
(1.0255939 -0.0030758305 1.037562e-22)
(1.0259432 -0.0027134356 2.7601988e-22)
(1.0262025 -0.0019808984 -6.428154e-24)
(1.0264973 -0.0014071465 2.3104765e-22)
(1.0267444 -0.00030482189 0)
(1.0060465 0.0028208584 1.0610513e-21)
(1.0159584 0.0033324118 3.1036758e-21)
(1.0202493 0.0029457421 -3.1990074e-21)
(1.0228716 0.002170832 -1.0264519e-21)
(1.0233303 0.0010509629 -5.5852245e-22)
(1.0237438 2.4456981e-05 0)
(1.024038 -0.00090969429 2.3945272e-22)
(1.0241565 -0.0018540326 -2.1862225e-22)
(1.0242889 -0.0026458703 -6.6538689e-22)
(1.0245796 -0.0032924368 1.0261862e-21)
(1.024914 -0.0036948989 8.2130848e-23)
(1.0253419 -0.0038588136 2.4808397e-22)
(1.0257444 -0.0037733307 -7.6380279e-22)
(1.0261334 -0.0033994397 8.3590181e-22)
(1.0264595 -0.002917046 -2.4320074e-23)
(1.0267182 -0.002092621 1.7241108e-21)
(1.0269754 -0.0014572102 6.2068433e-22)
(1.0271964 -0.00030371821 6.4054984e-22)
(0.99982435 0.0016579421 -9.8015302e-23)
(1.0105878 0.0024995006 1.5978082e-21)
(1.0165588 0.0027135319 5.5050074e-22)
(1.0207254 0.0021763166 -1.5583601e-21)
(1.0224246 0.0013266875 1.200378e-22)
(1.0230554 0.00011019697 -2.8080265e-22)
(1.0236149 -0.00087221862 -3.4237804e-22)
(1.0240129 -0.0018509952 -7.1252731e-22)
(1.0241852 -0.002744484 -4.3197771e-22)
(1.0244932 -0.0035201866 -9.1853394e-23)
(1.0248701 -0.0040563672 -2.5268754e-22)
(1.0253573 -0.0043787941 4.1069426e-22)
(1.025828 -0.0043989345 -6.7356652e-22)
(1.0263156 -0.0041927632 1.0945388e-22)
(1.0266884 -0.0036810043 1.1322803e-22)
(1.0270242 -0.0030904789 -2.9253347e-22)
(1.0272297 -0.0021756106 6.3089328e-22)
(1.0274595 -0.0014890526 -5.4215332e-23)
(1.0276338 -0.00029733867 6.4043206e-22)
(0.99346626 0.00050063374 -5.7395746e-22)
(1.0047055 0.0015783108 -1.6831153e-21)
(1.0117277 0.0022796056 7.3891696e-21)
(1.0174888 0.002047035 8.1654152e-22)
(1.0205498 0.0014641425 -5.3381257e-22)
(1.0221116 0.00032726872 -1.4278661e-22)
(1.0228134 -0.00086043413 -5.4513794e-23)
(1.023634 -0.0018492295 -1.5835237e-22)
(1.0240212 -0.0028079483 -1.4618052e-22)
(1.024344 -0.0037024658 -1.0663795e-21)
(1.024756 -0.0043786559 2.2938844e-22)
(1.0252959 -0.0048493401 1.7901595e-22)
(1.0258486 -0.0050277442 -5.3646941e-23)
(1.0264247 -0.0049255256 -1.4112017e-24)
(1.0269123 -0.0045644676 1.7366591e-22)
(1.0273051 -0.0039275542 -1.0944677e-21)
(1.0275887 -0.0032237534 4.517072e-22)
(1.027755 -0.0022305343 -1.0510478e-21)
(1.0279303 -0.0015013143 -2.636931e-22)
(1.0280572 -0.00028580765 -6.8809199e-22)
(0.98664279 -0.00068096291 -1.1548587e-22)
(0.99873629 0.00070316784 -2.1507678e-21)
(1.0061702 0.0017023456 -3.8335859e-22)
(1.013065 0.0017656411 -1.7844904e-21)
(1.0176104 0.0014682297 7.4225767e-23)
(1.0204088 0.00050672613 7.7556127e-22)
(1.0217583 -0.00074029155 -1.0640323e-21)
(1.0228037 -0.001909318 -3.4399898e-22)
(1.0236898 -0.0028511902 3.0273296e-22)
(1.0241382 -0.0038420525 0)
(1.02457 -0.0046517518 -1.0197424e-22)
(1.0251537 -0.0052791045 8.1832888e-22)
(1.0257819 -0.0056119376 8.2967208e-22)
(1.026463 -0.0056699837 -1.1031928e-21)
(1.0270589 -0.005401596 2.0757398e-22)
(1.027586 -0.0048980254 -8.6381719e-22)
(1.0279289 -0.0041244877 1.7232794e-22)
(1.0281784 -0.0033180074 4.8973766e-22)
(1.0282688 -0.0022547822 -7.4160801e-22)
(1.0283898 -0.00149412 -3.9916464e-23)
(1.0284582 -0.00026920626 -6.6491161e-22)
(0.97903773 -0.0020712942 -2.6650393e-23)
(0.9923524 -0.00025032702 -1.2361286e-21)
(1.0003587 0.001099493 -2.9420254e-21)
(1.0078301 0.0013415536 3.5196064e-21)
(1.0135278 0.001344398 2.2522104e-21)
(1.0177136 0.00056604847 -2.8265386e-22)
(1.020151 -0.00056871886 0)
(1.0216112 -0.0019085444 -3.5984374e-22)
(1.0229201 -0.0029547165 -1.7338235e-22)
(1.023825 -0.0039418671 -3.7709399e-22)
(1.0243198 -0.0048761124 2.3162483e-22)
(1.0249281 -0.0056564825 4.1287697e-22)
(1.0256234 -0.0061571642 -1.5763246e-22)
(1.0264013 -0.0063791832 -1.5816651e-22)
(1.0271294 -0.0062624899 6.598763e-22)
(1.0277872 -0.0058393512 -6.4105796e-22)
(1.0282772 -0.0051732685 1.1542159e-22)
(1.0285917 -0.0042734317 -8.0777303e-22)
(1.0287594 -0.0033686879 -2.6980373e-23)
(1.0287766 -0.0022484186 -7.2354159e-24)
(1.0288277 -0.0014674725 -4.0016272e-22)
(1.0288342 -0.00024774032 0)
(0.97104391 -0.0032525523 -3.6452539e-22)
(0.98489144 -0.0013480688 5.3355999e-22)
(0.99429475 0.0004578523 1.1167888e-23)
(1.002246 0.00088518853 3.5225972e-21)
(1.0085379 0.0010818193 1.6909208e-21)
(1.0139264 0.00049883607 -1.106463e-21)
(1.0176384 -0.00049004757 4.8241153e-22)
(1.0199903 -0.0018157352 -1.5721355e-21)
(1.0216161 -0.0030800982 -2.4554553e-22)
(1.0231616 -0.0040660036 3.8524012e-23)
(1.0239954 -0.0050487137 -2.914777e-23)
(1.024625 -0.0059778098 -9.2962036e-22)
(1.0253682 -0.0066500406 4.1319321e-23)
(1.0262346 -0.007054691 1.0325534e-21)
(1.0270899 -0.0071005506 -3.7869245e-22)
(1.0279075 -0.0068194498 -7.5865641e-22)
(1.0285466 -0.0062121712 -7.2752852e-23)
(1.029023 -0.0053924387 1.4646813e-21)
(1.0292506 -0.0043671159 1.0326235e-22)
(1.0293431 -0.0033757231 -4.9148917e-22)
(1.0292645 -0.0022111663 0)
(1.0292418 -0.0014219091 9.0336134e-22)
(1.0291809 -0.00022167372 1.3304792e-23)
(0.96282507 -0.0042684613 1.3266037e-21)
(0.97669269 -0.0024111894 7.4004429e-22)
(0.98723033 -0.0002608768 -2.2294085e-21)
(0.99637302 0.00043341593 -1.4647009e-21)
(1.0031206 0.0007808383 3.6456265e-21)
(1.0091492 0.00030674678 0)
(1.0141362 -0.00053696697 1.0995401e-22)
(1.0176371 -0.0017658796 -9.023814e-22)
(1.0199229 -0.0031075879 -8.5573093e-22)
(1.0218634 -0.0042892414 -4.0844971e-23)
(1.0234314 -0.0051983736 -4.5465908e-23)
(1.024254 -0.0062379889 -4.9267555e-22)
(1.0250189 -0.0070825205 7.8185356e-22)
(1.025955 -0.0076806766 -5.1820498e-22)
(1.026933 -0.0079147002 1.1309344e-21)
(1.0279078 -0.0077931538 1.1551883e-21)
(1.0287341 -0.007307369 -1.0632014e-21)
(1.0293787 -0.0065229222 5.8842064e-22)
(1.0297738 -0.0055445541 -2.0590821e-21)
(1.0299248 -0.0044048184 7.3351544e-22)
(1.0299087 -0.0033382118 1.137396e-21)
(1.0297312 -0.0021436806 -9.7908804e-22)
(1.0296269 -0.001358316 5.9082962e-22)
(1.0294956 -0.00019128706 1.2092331e-23)
(0.95441625 -0.0051576609 8.8366997e-22)
(0.96831833 -0.0031783425 3.6434597e-22)
(0.9793242 -0.0011954529 4.6798334e-22)
(0.98953 -2.895104e-05 6.9486282e-21)
(0.99742387 0.00051597175 -2.2733099e-21)
(1.0038365 4.2619423e-05 4.201997e-21)
(1.0096097 -0.00070031673 9.9061096e-23)
(1.0143936 -0.0018216255 3.1877264e-21)
(1.0176942 -0.0031078276 -4.9260712e-22)
(1.0200498 -0.0044507949 -3.8655281e-22)
(1.0222601 -0.0054589882 1.8594802e-22)
(1.0237341 -0.006438669 7.8240835e-22)
(1.0245873 -0.0074487669 -1.9833308e-22)
(1.0255631 -0.0082460488 -1.1613203e-22)
(1.0266468 -0.0086879 2.809388e-23)
(1.0277783 -0.0087572256 2.3737183e-22)
(1.0287954 -0.0084161577 -2.0737164e-22)
(1.0296534 -0.0077295033 9.576458e-22)
(1.0302286 -0.0067556959 0)
(1.0305543 -0.0056279887 1.515748e-22)
(1.0305836 -0.0043848369 4.7935386e-23)
(1.0304582 -0.0032566749 -9.4055266e-23)
(1.0301695 -0.0020471611 2.4280124e-23)
(1.0299801 -0.0012777389 -8.5132002e-22)
(1.0297762 -0.00015685408 -3.6985669e-22)
(0.94584696 -0.0058986617 -1.5407117e-21)
(0.95963158 -0.0039281559 -2.5509266e-22)
(0.97089761 -0.001785167 -5.933518e-22)
(0.98165049 -0.00078275865 -8.4674631e-22)
(0.99092417 0.00022235767 -7.03493e-21)
(0.99822748 -0.00018986974 -4.4634739e-22)
(1.0044562 -0.00097400645 9.4256762e-23)
(1.0101387 -0.0019984146 -2.4144113e-22)
(1.0146628 -0.0031877186 -2.2356326e-21)
(1.0178417 -0.004523633 1.7266515e-22)
(1.0203695 -0.0057434642 -3.5306835e-22)
(1.0227314 -0.0066893313 -5.6518136e-23)
(1.0240541 -0.0077371697 -5.3127749e-22)
(1.0250651 -0.0087419893 3.2005899e-24)
(1.0262292 -0.0094057004 -4.7417147e-22)
(1.0275029 -0.0096938741 -8.9007378e-23)
(1.0287172 -0.0095336758 6.2278698e-22)
(1.0297976 -0.0089728225 -1.3908494e-21)
(1.030608 -0.0080639309 -2.1558465e-21)
(1.0311249 -0.0069080441 5.050506e-24)
(1.0313248 -0.0056396374 2.1833851e-21)
(1.0312349 -0.0043067561 5.3655941e-22)
(1.03098 -0.0031325258 -1.0353087e-21)
(1.0305763 -0.0019231845 8.8511071e-22)
(1.0302987 -0.0011815052 -5.9659974e-22)
(1.0300213 -0.00011940531 3.2576702e-23)
(0.93714219 -0.0065122278 7.6891325e-23)
(0.95064097 -0.0045612821 -7.6893938e-23)
(0.96222662 -0.002437075 1.9405962e-21)
(0.97323746 -0.0012882042 -3.9913329e-21)
(0.98327988 -0.00027084343 5.733696e-21)
(0.99198579 -0.00039798166 -4.1100828e-21)
(0.99896011 -0.0012606311 -2.5677072e-21)
(1.0051942 -0.0023009616 -2.9090564e-21)
(1.0106942 -0.0033751493 3.8643547e-21)
(1.0149674 -0.0046298718 1.2233155e-21)
(1.0180421 -0.0059260943 -3.4853258e-23)
(1.0208643 -0.0070671557 4.16003e-22)
(1.0231915 -0.0079946432 5.5534925e-22)
(1.0244712 -0.0091540274 -6.5806914e-22)
(1.0256809 -0.010056982 1.0346193e-22)
(1.0270771 -0.010585333 3.6109702e-22)
(1.0284793 -0.010641995 -1.0320497e-21)
(1.0297952 -0.010246858 1.2191697e-21)
(1.0308575 -0.0094339376 -1.0608201e-21)
(1.0316281 -0.008307215 2.1776262e-22)
(1.032021 -0.0069740581 0)
(1.0320994 -0.0055772485 9.3367682e-22)
(1.0318595 -0.0041723442 7.8315694e-23)
(1.0314718 -0.0029676279 0)
(1.0309479 -0.0017738605 -1.0802814e-21)
(1.0305809 -0.0010711901 -4.6869156e-23)
(1.03023 -7.9176535e-05 2.6958577e-22)
(0.92829034 -0.0070001417 5.2533049e-22)
(0.94148626 -0.0051089496 -7.168863e-23)
(0.95329289 -0.002980173 1.6994812e-21)
(0.96456185 -0.0018055562 -2.9870883e-22)
(0.97492226 -0.00078241336 1.3102804e-21)
(0.984524 -0.00076286865 4.7163873e-21)
(0.99297755 -0.001477078 2.4309518e-22)
(0.99985576 -0.0026587402 3.1073177e-21)
(1.0059977 -0.0037029801 -4.5349306e-22)
(1.0112649 -0.0048145839 -2.4735371e-21)
(1.0152599 -0.0060378142 1.8210841e-21)
(1.0183414 -0.0073864383 3.2187252e-22)
(1.0215167 -0.0084024456 -9.3226781e-23)
(1.0236681 -0.0094843688 5.3075672e-23)
(1.0250152 -0.010626088 -8.8221159e-22)
(1.0264968 -0.011418559 2.1298374e-22)
(1.0280736 -0.011722026 -1.7251393e-21)
(1.0296215 -0.011534305 2.9268076e-21)
(1.0309576 -0.010859421 9.374485e-22)
(1.0320052 -0.0097947158 -3.2927994e-22)
(1.0326628 -0.008449065 1.3371566e-21)
(1.0329348 -0.0069497627 -6.0026146e-23)
(1.0328488 -0.0054434003 -8.0208994e-23)
(1.0324577 -0.0039830569 0)
(1.0319275 -0.0027648751 0)
(1.0312818 -0.0016015621 8.7079761e-23)
(1.0308254 -0.00094832415 -6.0680025e-22)
(1.0304018 -3.6971353e-05 -4.2778914e-22)
(0.91944001 -0.0073654592 0)
(0.93216627 -0.0055839014 -2.0882127e-22)
(0.94425945 -0.0034635642 -1.6727422e-21)
(0.95557182 -0.0022082221 -2.1166293e-21)
(0.96621441 -0.0011588338 -4.9430077e-21)
(0.97625693 -0.0013308974 -6.6548433e-22)
(0.98578752 -0.0018489941 3.0002486e-21)
(0.99411723 -0.0029400662 5.4845867e-21)
(1.0008858 -0.0040930134 -5.1502796e-21)
(1.0068014 -0.0051335151 8.4754909e-22)
(1.0117518 -0.0061931032 -2.0251908e-22)
(1.0154986 -0.0075231797 -3.3556284e-22)
(1.0188566 -0.0088669555 9.6146455e-22)
(1.0222319 -0.0098852375 2.1705653e-23)
(1.0242011 -0.011096917 1.8372353e-22)
(1.0257692 -0.012177416 -9.8253394e-22)
(1.0274925 -0.012758383 3.2225389e-22)
(1.0292646 -0.012815102 -1.1026499e-21)
(1.0308793 -0.012324684 2.6533947e-21)
(1.0322339 -0.011364559 -1.0383527e-21)
(1.0331875 -0.010039152 1.1302805e-21)
(1.0337307 -0.0084839552 7.4965429e-22)
(1.0338286 -0.006837409 -3.0618106e-23)
(1.0335792 -0.0052374794 -2.4919311e-21)
(1.0330189 -0.0037425127 -6.3393531e-22)
(1.0323438 -0.0025272433 1.0673032e-22)
(1.0315761 -0.001408782 8.6742158e-22)
(1.0310317 -0.00081476733 -3.2349363e-22)
(1.0305372 6.3413786e-06 4.5057247e-22)
(0.91086599 -0.0076199558 -1.8648919e-21)
(0.92274133 -0.0060660678 0)
(0.93504169 -0.0039553456 0)
(0.94644057 -0.0026143803 0)
(0.95721207 -0.0014820073 1.3816725e-21)
(0.96754498 -0.0016411981 -4.9512394e-21)
(0.97768564 -0.0024957398 1.7407699e-22)
(0.98731486 -0.0033826152 7.7931419e-23)
(0.99541495 -0.0044557125 -8.1435582e-21)
(1.001929 -0.0055033328 7.2784071e-21)
(1.0074812 -0.0064405187 -2.4008703e-21)
(1.0120616 -0.0076463239 6.2806574e-22)
(1.0157285 -0.0091400784 -7.5400936e-22)
(1.019624 -0.010465769 1.0154247e-22)
(1.0229547 -0.011537177 9.8265488e-22)
(1.0249009 -0.012842829 3.2547349e-22)
(1.0267357 -0.013733642 -1.1767289e-21)
(1.0287142 -0.014072709 -1.0270753e-21)
(1.0306067 -0.013809269 8.8032607e-22)
(1.0322812 -0.013003398 -3.5913368e-22)
(1.0335698 -0.011739257 -1.3335823e-21)
(1.0344219 -0.010160099 1.6392119e-23)
(1.0347888 -0.008412022 1.8866652e-21)
(1.0347123 -0.0066339666 -1.2265404e-21)
(1.0342708 -0.0049654454 -3.0785251e-23)
(1.0335407 -0.0034541195 -4.1265318e-22)
(1.032718 -0.0022584643 9.4164439e-22)
(1.0318298 -0.0011983115 2.2005042e-22)
(1.0311997 -0.00067204261 1.0592699e-21)
(1.0306381 5.0406577e-05 1.6858477e-22)
(0.90210603 -0.0077909023 -4.2025194e-22)
(0.91341624 -0.0064578213 -4.9579018e-22)
(0.92563298 -0.0044347857 0)
(0.93713128 -0.0029690591 0)
(0.94805732 -0.0018174352 0)
(0.95855688 -0.001935756 0)
(0.96903229 -0.002929344 0)
(0.97944365 -0.0040486219 -6.9034844e-24)
(0.98907592 -0.0049264988 3.7183149e-21)
(0.99675533 -0.0059047432 -9.266693e-21)
(1.0028063 -0.0067090994 8.5910033e-23)
(1.0079002 -0.0077819045 -2.3411058e-21)
(1.01222 -0.0092651007 3.2447146e-21)
(1.0161517 -0.010983137 -8.247851e-22)
(1.0206695 -0.012177174 -2.936175e-23)
(1.0237508 -0.013421145 6.4105015e-22)
(1.0258145 -0.01463061 -1.2404987e-21)
(1.0279647 -0.015288317 6.1355739e-22)
(1.0301262 -0.015296527 9.8237767e-22)
(1.0321274 -0.014690805 6.0427229e-22)
(1.0337731 -0.013538954 1.768631e-22)
(1.0349807 -0.011974062 8.5187667e-22)
(1.0356613 -0.01015385 1.2950723e-23)
(1.0358471 -0.0082287734 -7.5272313e-22)
(1.0355576 -0.0063474109 3.655886e-22)
(1.0349248 -0.0046289532 2.1241472e-21)
(1.0340172 -0.0031226218 5.2128759e-22)
(1.033048 -0.0019622528 -4.1499451e-22)
(1.0320424 -0.00097291012 2.5246706e-23)
(1.0313302 -0.00052185178 -5.9295039e-22)
(1.0307055 9.5176402e-05 -7.9268287e-23)
(0.89299724 -0.0079816247 1.3973428e-21)
(0.90380813 -0.0068153885 -4.0741713e-22)
(0.91614842 -0.0048675487 -2.2033419e-21)
(0.92763036 -0.0033185005 -4.6993484e-21)
(0.93876482 -0.0020920141 0)
(0.94936739 -0.0022750414 0)
(0.9600873 -0.0033264014 -2.8716435e-23)
(0.97092565 -0.0046832448 -6.3740911e-21)
(0.98153213 -0.0055904003 9.113446e-21)
(0.99085769 -0.0063509061 -1.0056957e-20)
(0.99790347 -0.0070565573 -2.0019317e-22)
(1.0033185 -0.0079106062 4.638128e-21)
(1.0080698 -0.0093341197 -7.0497462e-22)
(1.0123877 -0.011232608 2.3293947e-22)
(1.0170314 -0.012948194 3.8123261e-22)
(1.0218316 -0.014090353 3.8230255e-23)
(1.0246873 -0.015432239 1.9115901e-21)
(1.02702 -0.016444909 -1.3693992e-22)
(1.0294288 -0.016766241 -1.7939895e-21)
(1.0317556 -0.016410392 4.0782355e-21)
(1.0337743 -0.015418654 -6.5695483e-22)
(1.0353679 -0.013918772 -1.1825336e-21)
(1.0364164 -0.012060227 2.8245251e-21)
(1.0369137 -0.010014693 1.1745444e-21)
(1.0368711 -0.0079422609 -4.0095049e-22)
(1.0363691 -0.0059769743 1.2617029e-21)
(1.0355293 -0.0042353331 6.2558992e-22)
(1.0344459 -0.0027524513 2.2741167e-22)
(1.0333325 -0.0016425668 -4.5914698e-22)
(1.0322142 -0.00073533932 -8.8939505e-23)
(1.031424 -0.00036597591 -1.079395e-22)
(1.0307395 0.00013892 -8.1790318e-25)
(0.88378725 -0.0081721054 -3.2778432e-22)
(0.89384965 -0.0070662219 8.7371239e-22)
(0.90615664 -0.0052866288 3.5999806e-21)
(0.9179769 -0.0036331188 5.9644229e-21)
(0.92929236 -0.0023798616 0)
(0.94006001 -0.0025499396 0)
(0.9508834 -0.0037618715 0)
(0.96204245 -0.0052050765 8.5679326e-22)
(0.97322993 -0.0063833756 -1.04724e-20)
(0.98371078 -0.0069837414 -9.4896582e-21)
(0.99243415 -0.0073824549 -1.7230686e-22)
(0.99859446 -0.0081258295 1.0378279e-21)
(1.0034542 -0.0093577709 -8.6379886e-21)
(1.0081181 -0.011318206 3.1897073e-21)
(1.0127937 -0.013516579 -1.2323969e-22)
(1.0184141 -0.015048874 0)
(1.0230465 -0.01620529 4.0879629e-22)
(1.0258803 -0.017522866 -5.2061457e-22)
(1.028511 -0.018201414 6.6477194e-22)
(1.031154 -0.01814181 2.6671583e-22)
(1.0335528 -0.017363107 -1.9214508e-21)
(1.035557 -0.015975936 1.9328684e-22)
(1.0370124 -0.014127682 -1.8674871e-21)
(1.0378818 -0.011990379 -2.3457393e-21)
(1.0381403 -0.0097488737 8.4467139e-22)
(1.0378658 -0.00755025 1.8002055e-22)
(1.0371271 -0.0055337598 -1.24032e-22)
(1.0360834 -0.0037887966 2.0834169e-23)
(1.0348242 -0.0023489357 -6.1457523e-22)
(1.0335712 -0.0013034286 -4.6571488e-22)
(1.0323457 -0.0004882445 1.3542962e-22)
(1.0314823 -0.00020609759 5.0347289e-24)
(1.0307399 0.00017744468 1.6050413e-22)
(0.87408027 -0.0082007512 -3.4501419e-22)
(0.88374802 -0.0073288868 2.3338453e-22)
(0.89565747 -0.0056369531 6.6804078e-21)
(0.90765627 -0.0039543521 1.2831102e-20)
(0.91963108 -0.0026494761 -2.9175992e-21)
(0.93060614 -0.0028310145 -3.6714172e-22)
(0.94154906 -0.0041364754 -1.3580127e-20)
(0.95284695 -0.0057723688 6.9946131e-21)
(0.96444747 -0.0070525145 1.1580225e-21)
(0.97568178 -0.0077685494 2.2304183e-20)
(0.98575427 -0.0078694194 -8.5316013e-21)
(0.99346915 -0.0082405317 -1.0588301e-20)
(0.99876268 -0.0094212741 1.3710518e-22)
(1.0033438 -0.011331565 3.3357152e-21)
(1.0082637 -0.013745007 2.1730503e-21)
(1.013768 -0.016037175 8.9211245e-24)
(1.0201952 -0.017248356 8.1272404e-23)
(1.0244069 -0.018518127 1.1313246e-21)
(1.0273757 -0.019582689 -2.485005e-22)
(1.0303144 -0.019867017 -2.4163293e-22)
(1.0330939 -0.019352068 6.2168567e-22)
(1.0355245 -0.018132265 -3.3845901e-21)
(1.03742 -0.016339944 -2.7056284e-23)
(1.0387077 -0.014156219 9.6805272e-22)
(1.0393336 -0.011767914 -3.1611077e-21)
(1.0393433 -0.0093538393 -1.0618782e-21)
(1.0388054 -0.0070658935 -9.4149575e-22)
(1.0378336 -0.0050193513 -3.2915022e-22)
(1.0365808 -0.0032971128 -5.4482395e-22)
(1.0351512 -0.0019172915 1.5617937e-23)
(1.0337642 -0.00094867431 -1.3278117e-22)
(1.0324381 -0.00023416427 -4.7235877e-23)
(1.0315064 -4.3506938e-05 1.0372798e-22)
(1.0307125 0.00021429113 -4.9018881e-22)
(0.86361934 -0.0081310745 1.3057339e-22)
(0.87326262 -0.0074677251 -3.2574837e-22)
(0.88505337 -0.0059570872 -8.2381947e-21)
(0.89671807 -0.0042362221 -6.6652499e-21)
(0.90912748 -0.0029461499 1.1980601e-20)
(0.92095943 -0.0030856317 1.5720628e-20)
(0.93210124 -0.0045130032 1.9301679e-21)
(0.94347393 -0.0062891545 0)
(0.95527999 -0.0077244816 8.4680038e-21)
(0.96704682 -0.0085744561 2.956263e-20)
(0.9780096 -0.0085480266 1.152854e-21)
(0.9873118 -0.0084714983 4.619589e-21)
(0.9938285 -0.0093062846 0)
(0.99849426 -0.011274816 -2.9832513e-22)
(1.0032256 -0.013864604 -5.5054588e-21)
(1.0087744 -0.016622412 -1.1505718e-22)
(1.0155214 -0.018599033 5.5438631e-22)
(1.0220892 -0.019630147 0)
(1.0259905 -0.020886779 1.6657897e-22)
(1.0292317 -0.021567777 6.4522033e-22)
(1.032387 -0.021367231 -2.9449416e-21)
(1.0352525 -0.0203678 5.3227017e-22)
(1.037613 -0.018685959 0)
(1.0393599 -0.016498077 -2.9931129e-21)
(1.040406 -0.014003767 1.1362902e-21)
(1.0407706 -0.011389863 -7.2690823e-23)
(1.0404928 -0.0088427251 -1.315439e-21)
(1.0396921 -0.0064896207 1.0632687e-21)
(1.0384759 -0.0044463127 4.8064692e-23)
(1.0370207 -0.0027657734 -1.2779929e-21)
(1.0354261 -0.001462723 1.2115206e-21)
(1.0339124 -0.00058213192 4.5620441e-22)
(1.0324927 2.4455262e-05 0)
(1.0314979 0.00012083769 -5.1861745e-24)
(1.0306589 0.00024822889 -2.0126019e-22)
(0.85214531 -0.0079672694 1.5745118e-22)
(0.8621849 -0.0073693615 3.2643475e-22)
(0.87412128 -0.0062368354 -8.319176e-21)
(0.88563031 -0.0044122733 -2.5085564e-21)
(0.89783536 -0.0031994124 3.2880304e-21)
(0.91033469 -0.0033632824 2.2923404e-21)
(0.92249457 -0.0048477608 1.4788064e-20)
(0.93400263 -0.0067833882 1.157335e-22)
(0.94588317 -0.0083517191 0)
(0.95792308 -0.0092656634 -1.078941e-20)
(0.9695215 -0.0093459939 9.9554302e-21)
(0.97980958 -0.0089341284 -7.6350805e-22)
(0.98804604 -0.00927242 4.8962657e-21)
(0.99356443 -0.011010534 -5.5885922e-21)
(0.99805093 -0.013823728 -2.8080074e-21)
(1.0033813 -0.016966412 -3.3222109e-21)
(1.0099342 -0.019744986 4.3928381e-21)
(1.0180043 -0.0211853 3.2514556e-22)
(1.0240605 -0.022183178 1.8437975e-21)
(1.0279095 -0.02322205 -3.2860844e-21)
(1.0314198 -0.023390769 3.1824725e-21)
(1.0347286 -0.022664378 -2.2961804e-21)
(1.0375708 -0.021146762 0)
(1.03981 -0.01900746 -8.1096541e-22)
(1.0413245 -0.016444848 2.637656e-22)
(1.0421018 -0.013666557 1.5396904e-21)
(1.0421583 -0.010868391 4.6126555e-22)
(1.0415885 -0.0082165114 2.3927181e-22)
(1.0405084 -0.0058373691 7.511845e-22)
(1.0390555 -0.0038179341 0)
(1.0374006 -0.0022022526 1.1202275e-21)
(1.0356494 -0.00099029042 1.3395176e-21)
(1.0340173 -0.00020739057 1.1143403e-23)
(1.0325114 0.00028552924 -2.6481284e-22)
(1.0314581 0.00028581677 -1.1895457e-23)
(1.0305848 0.00028293349 8.1512279e-22)
(0.83992908 -0.0077230423 2.0453887e-23)
(0.85020058 -0.0072376597 -1.1267401e-22)
(0.86261969 -0.006257541 2.6886085e-21)
(0.8742618 -0.0046436685 1.3653147e-22)
(0.88622586 -0.0033167621 -1.5614741e-20)
(0.89872686 -0.0035747642 -1.7158316e-20)
(0.91180709 -0.0051724698 -7.6980589e-23)
(0.92442256 -0.007238067 1.1990642e-20)
(0.93637286 -0.008947674 1.2532144e-22)
(0.94851111 -0.0099397412 1.0300843e-20)
(0.96045693 -0.0099661844 -2.3157938e-23)
(0.97141146 -0.0095135015 -5.5210255e-21)
(0.98080869 -0.0094413431 -6.2340867e-22)
(0.98800077 -0.010760638 -5.3264829e-21)
(0.99292635 -0.013537895 1.9452178e-20)
(0.99777843 -0.017104075 3.1449657e-22)
(1.0040531 -0.020498707 -2.7397765e-21)
(1.0121094 -0.022896517 -1.0890805e-21)
(1.0208302 -0.023810642 -6.7253253e-22)
(1.0262294 -0.024825954 -5.9830321e-22)
(1.0301949 -0.025403776 1.716832e-21)
(1.0339373 -0.025004242 -3.5983773e-21)
(1.0372786 -0.023704885 2.8896768e-21)
(1.0400349 -0.02166675 0)
(1.0420582 -0.019085361 2.373656e-21)
(1.0433028 -0.016175081 3.3126468e-21)
(1.0437558 -0.013155133 -1.2926341e-21)
(1.0434931 -0.010205153 2.6464498e-21)
(1.0426092 -0.0074922007 6.4956062e-23)
(1.0412555 -0.0051115694 -8.4618411e-22)
(1.039565 -0.0031467746 -1.0360002e-21)
(1.0377206 -0.00161245 -4.2216493e-23)
(1.035822 -0.00050485149 -7.9975493e-23)
(1.0340804 0.00017222583 1.9351108e-22)
(1.0324966 0.00054718553 -2.3880246e-22)
(1.0313895 0.00045074292 -4.3826222e-23)
(1.0304882 0.00032416872 3.5454921e-22)
(0.82800742 -0.0073974007 -7.9119621e-23)
(0.83740211 -0.007047489 -5.3056413e-22)
(0.85027738 -0.0062004142 3.8109796e-21)
(0.86230911 -0.0045847905 2.2870606e-21)
(0.87435653 -0.0034475579 -1.5638276e-22)
(0.88656994 -0.0036599189 1.3998396e-22)
(0.89994923 -0.0054272698 9.8187503e-21)
(0.91368431 -0.007618101 -4.5617113e-21)
(0.92679576 -0.0094931595 0)
(0.93895312 -0.010570448 -2.3123645e-21)
(0.95103623 -0.010570526 0)
(0.96240784 -0.010017771 0)
(0.97254011 -0.0097418292 -5.9084338e-21)
(0.98103866 -0.010632316 7.5173243e-22)
(0.98739299 -0.013179708 3.7175629e-21)
(0.99230347 -0.01694958 5.4371938e-21)
(0.99797363 -0.020934777 -6.9358038e-21)
(1.0055291 -0.024302264 -2.9149433e-21)
(1.0153249 -0.025902851 -6.2449327e-22)
(1.0237001 -0.026551077 4.0222956e-22)
(1.0286936 -0.027381994 -2.8057628e-21)
(1.0328722 -0.027369705 1.2626074e-21)
(1.03672 -0.0263417 6.3852777e-22)
(1.0400172 -0.024459318 -2.5972362e-22)
(1.0425823 -0.021909149 5.7089546e-23)
(1.0443411 -0.018912322 6.8070284e-22)
(1.0452505 -0.015696945 -4.4917613e-22)
(1.04536 -0.012471703 -1.6504481e-21)
(1.0447497 -0.0094177176 -1.5180053e-22)
(1.043554 -0.0066734582 -2.5111986e-21)
(1.0419228 -0.0043285614 -6.8254937e-22)
(1.0400064 -0.002436944 -2.6487265e-22)
(1.0379808 -0.0010032246 -1.2873439e-21)
(1.0359455 -1.0794193e-05 7.3513e-23)
(1.0341039 0.00055386329 -4.7800978e-22)
(1.0324508 0.00080797302 -6.7438916e-23)