/*--------------------------------*- C++ -*----------------------------------*\
| =========                 |                                                 |
| \\      /  F ield         | OpenFOAM: The Open Source CFD Toolbox           |
|  \\    /   O peration     | Version:  5.0                                   |
|   \\  /    A nd           | Web:      www.OpenFOAM.org                      |
|    \\/     M anipulation  |                                                 |
\*---------------------------------------------------------------------------*/
FoamFile
{
    version     2.0;
    format      ascii;
    class       volSymmTensorField;
    location    "160";
    object      UPrime2Mean;
}
// * * * * * * * * * * * * * * * * * * * * * * * * * * * * * * * * * * * * * //

dimensions      [0 2 -2 0 0 0 0];

internalField   nonuniform List<symmTensor> 
9200
(
(0.00079704472 2.9893192e-05 -1.159522e-25 2.7090448e-06 -8.4554563e-27 6.7560102e-47)
(0.00081962483 9.807937e-05 2.8420823e-23 3.0831855e-05 3.5164201e-24 1.1995727e-42)
(0.00064105964 2.5392034e-05 0 2.6067644e-06 0 0)
(0.00085417851 0.00015852808 -1.5655081e-23 8.0155472e-05 -3.0888377e-24 3.4845538e-43)
(0.00065761762 8.3583893e-05 2.2222846e-23 3.0228193e-05 3.2833654e-24 8.9686871e-43)
(0.0005662868 2.335486e-05 0 2.4739735e-06 0 0)
(0.000910263 0.00022435138 -1.5523933e-24 0.00016201099 -4.0225081e-25 3.1658902e-45)
(0.00068461268 0.00013350632 -8.2856455e-26 7.8071177e-05 -2.3113326e-25 2.9763428e-45)
(0.00058196363 7.5850914e-05 0 2.863945e-05 0 0)
(0.00048494215 1.9834102e-05 0 2.2882581e-06 0 0)
(0.00098354266 0.00028918603 3.6311607e-23 0.00027301984 1.2707298e-23 1.6314689e-42)
(0.00072869735 0.00018513115 2.3944272e-23 0.00015703851 9.3014237e-24 1.053862e-42)
(0.0006049897 0.00012042264 1.1755974e-23 7.3618614e-05 3.4645447e-24 2.8696463e-43)
(0.00049782137 6.4510524e-05 6.1143014e-25 2.6846193e-05 1.2732981e-25 9.9114044e-46)
(0.00042176161 1.7369807e-05 5.1957748e-27 2.1365984e-06 8.3788728e-28 5.756652e-49)
(0.001079914 0.00035762838 3.5350823e-23 0.00042838536 1.3945682e-23 1.3728241e-42)
(0.00078756235 0.0002325642 -3.2739172e-25 0.00026238066 7.5794958e-25 9.2139967e-45)
(0.00064282326 0.00016552992 4.0395384e-23 0.00014728992 1.6878751e-23 3.2785867e-42)
(0.0005188355 0.00010180699 1.4106975e-23 6.8652187e-05 5.2742985e-24 5.7022933e-43)
(0.00043463701 5.5931601e-05 3.8070768e-25 2.5014885e-05 2.3368492e-25 4.2167407e-45)
(0.00036842671 1.4894544e-05 -1.9522769e-23 1.9737837e-06 -1.5182476e-24 1.6313153e-42)
(0.0011995029 0.00042551824 4.7646752e-23 0.00063487131 2.7047961e-23 2.5972279e-42)
(0.0008672356 0.00027829618 3.422595e-23 0.00040753809 1.5119988e-23 1.5761186e-42)
(0.00069348327 0.00020528653 -2.4695406e-23 0.00024417901 -1.2499564e-23 1.1313312e-42)
(0.00055443961 0.00013841763 -1.5386342e-24 0.00013670924 -9.0063022e-25 7.7159346e-45)
(0.00045458236 8.7737275e-05 1.0841584e-23 6.3531324e-05 3.9875209e-24 3.7818863e-43)
(0.00038040638 4.7741472e-05 9.4719382e-24 2.324538e-05 2.6245793e-24 3.9279779e-43)
(0.00032457505 1.2841696e-05 1.3816621e-24 1.8302029e-06 1.4661991e-25 1.3087559e-44)
(0.0013481118 0.00049019818 3.7232024e-23 0.00091045919 3.4695859e-23 2.4458189e-42)
(0.00097254626 0.00031824398 3.1295768e-23 0.00059746402 2.0638619e-23 1.3616573e-42)
(0.00076258773 0.00024129337 3.0710062e-23 0.00037562936 2.0890532e-23 1.7965687e-42)
(0.00060337829 0.00016935596 1.3181141e-24 0.0002251707 2.663696e-24 5.0746168e-44)
(0.00048826899 0.00011829369 -2.783466e-23 0.0001258635 -1.548649e-23 2.5771953e-42)
(0.00039952509 7.4728198e-05 -1.0515282e-23 5.8818907e-05 -4.880828e-24 5.047404e-43)
(0.00033643624 4.0896508e-05 -9.8933731e-24 2.1588512e-05 -2.6426821e-24 5.2666403e-43)
(0.00028801696 1.1003611e-05 1.3866905e-23 1.7013544e-06 1.3255252e-24 1.4143477e-42)
(0.001532197 0.00054692612 -6.8836661e-23 0.0012731616 -5.2360404e-23 4.5511986e-42)
(0.0011140073 0.00035026666 3.2659673e-23 0.00084824219 1.0765545e-23 1.0992936e-42)
(0.00085493807 0.0002694019 1.305182e-24 0.00054410555 5.4850112e-24 8.2833022e-44)
(0.00067214593 0.0001959517 1.228567e-23 0.00034413196 8.056068e-24 3.2017635e-43)
(0.00053475187 0.00014330456 1.3607025e-24 0.00020593006 5.0525429e-24 2.1478586e-43)
(0.00043230685 0.00010033068 -3.6124509e-23 0.00011623699 -2.1318039e-23 5.3238742e-42)
(0.00035514062 6.4014308e-05 4.4574311e-24 5.4386042e-05 -8.4744082e-26 3.0086684e-43)
(0.00029949298 3.482777e-05 -1.4699971e-23 2.0163551e-05 -4.4984451e-24 1.5506631e-42)
(0.00025836399 9.429355e-06 -2.5409962e-23 1.5877789e-06 -2.7699798e-24 6.493286e-42)
(0.0017565484 0.00058381468 5.8247419e-23 0.0017418193 6.4293469e-23 3.9587334e-42)
(0.0013045684 0.0003690979 -1.7619806e-23 0.001175174 2.1313367e-23 1.195444e-42)
(0.00098010969 0.00028763511 -1.1555502e-24 0.00076160684 -3.2063322e-24 1.6510006e-44)
(0.00076610379 0.00021509535 -2.6436028e-25 0.00049544067 -1.6055228e-23 8.3332539e-43)
(0.00060049216 0.00016389884 -3.8797297e-24 0.00031268569 -4.1876581e-24 6.5503916e-44)
(0.00047812123 0.00012116735 5.2463751e-25 0.00018930569 7.0093941e-24 5.0045311e-43)
(0.00038706119 8.5802077e-05 1.0932527e-23 0.00010722833 7.2344815e-24 6.3527691e-43)
(0.00031768562 5.4628322e-05 1.6062843e-23 5.0654362e-05 8.3078742e-24 1.8314877e-42)
(0.00026956461 2.9634992e-05 7.5083267e-24 1.8906113e-05 3.027485e-24 5.8453357e-43)
(0.00023367622 8.0110134e-06 1.6035613e-24 1.490028e-06 2.2880062e-25 3.9982139e-44)
(0.0020256658 0.00059011436 -2.9692951e-23 0.0023390349 -2.9970175e-23 7.59315e-43)
(0.0015592875 0.00036505868 -6.3044353e-24 0.001598673 4.2280685e-23 1.54737e-42)
(0.0011511258 0.00029202014 2.8448347e-23 0.0010391961 9.9664469e-24 8.1135635e-43)
(0.0008959557 0.00022567623 -1.996779e-23 0.00069015977 -2.2102151e-23 9.4246721e-43)
(0.00069096977 0.00017758224 2.2210081e-23 0.00044704852 8.7816215e-25 1.2584686e-42)
(0.00054330348 0.00013827375 -3.9093587e-23 0.00028622575 -2.4534704e-23 4.4995911e-42)
(0.00043157077 0.00010363011 -2.0313437e-25 0.00017398646 1.8936009e-24 4.5632743e-44)
(0.00034870628 7.3262474e-05 2.6558723e-23 9.984368e-05 1.6326449e-23 4.4422703e-42)
(0.00028721479 4.6679424e-05 -1.1090181e-23 4.7377292e-05 -5.9361852e-24 1.1421356e-42)
(0.00024453409 2.4934183e-05 1.9447073e-23 1.7867748e-05 8.5526489e-24 5.3481579e-42)
(0.00021398446 6.7700503e-06 -2.5892634e-24 1.4022211e-06 -3.664712e-25 1.4137713e-43)
(0.0023557372 0.00060881449 1.1464289e-23 0.0031187807 -4.9580835e-24 1.3248188e-43)
(0.0018890406 0.00032600928 3.5046084e-23 0.0021463084 -8.9225596e-23 5.8828634e-42)
(0.0013851575 0.00027752102 -2.2678661e-23 0.0013961936 -4.0888569e-23 1.4347545e-42)
(0.0010759424 0.00022498302 0 0.00093886573 0 0)
(0.00081634729 0.00018375266 6.8400331e-27 0.00061892351 1.4849618e-24 4.6156075e-45)
(0.00063314676 0.00015002619 3.5360064e-24 0.00040755499 -1.3064148e-23 7.7989766e-43)
(0.00049459315 0.00011845848 -7.2023893e-24 0.00026234157 -4.7750118e-24 1.881425e-43)
(0.00039194359 8.8880947e-05 -1.4178696e-23 0.00016170222 -9.8962289e-24 1.1113998e-42)
(0.00031715407 6.2738479e-05 4.828386e-25 9.3401618e-05 -3.3026365e-24 3.2526628e-43)
(0.00026154957 3.9486032e-05 -1.1866232e-23 4.4701616e-05 -7.6281093e-24 1.8637984e-42)
(0.00022450597 2.07843e-05 -6.600639e-24 1.6948119e-05 -3.3343707e-24 9.0341116e-43)
(0.00019797504 5.6299394e-06 1.141808e-24 1.3244827e-06 2.2501699e-25 4.664295e-44)
(0.0026911026 0.0006449267 6.7557518e-24 0.0041014236 2.4948297e-24 2.0502277e-44)
(0.0023074799 0.00026020185 -5.651438e-23 0.0028654685 3.396757e-23 2.3784104e-42)
(0.001694021 0.00023125542 0 0.0018548808 0 0)
(0.0013258842 0.00021013678 0 0.0012594269 0 0)
(0.00098975666 0.00018073734 -1.5027746e-23 0.00083794171 1.2706098e-25 3.1951222e-43)
(0.00075732108 0.00015650954 2.1584653e-23 0.00056249204 -1.7980536e-23 2.3793201e-42)
(0.00058098353 0.00012920933 -2.1484955e-23 0.00037256657 -2.198575e-24 1.5176428e-42)
(0.00045310186 0.00010238118 1.6861198e-23 0.00024346439 1.4785476e-23 1.4263607e-42)
(0.00035861842 7.6601875e-05 1.0514773e-24 0.00015109986 1.3843178e-24 1.3719416e-44)
(0.00029030788 5.315981e-05 -7.7000412e-27 8.8239544e-05 3.3137464e-26 3.8752592e-47)
(0.00024083626 3.3139494e-05 1.2114508e-23 4.234946e-05 8.5627837e-24 2.810598e-42)
(0.00020816664 1.6910095e-05 -1.0547019e-23 1.6165693e-05 -6.0016611e-24 3.6855263e-42)
(0.00018560357 4.6203499e-06 1.516901e-23 1.2516722e-06 3.5271501e-24 1.3755784e-41)
(0.0027582206 0.00048295991 -1.1275955e-22 0.0051346195 -2.330787e-23 5.8730749e-42)
(0.0028189267 0.00021602575 1.4153443e-23 0.0038246511 -3.6705773e-24 9.2774598e-44)
(0.0020791805 0.00014588439 -7.7927972e-23 0.0024493483 1.2572421e-23 3.6176984e-42)
(0.0016631029 0.00017226954 5.1689512e-23 0.0016753667 -1.1777194e-23 2.1826503e-42)
(0.0012302764 0.00016764609 -2.9783984e-23 0.001121399 6.9230902e-24 1.0641557e-42)
(0.00092802345 0.00015673104 1.0057e-23 0.00076023477 -8.8157611e-24 3.4950667e-43)
(0.00069990178 0.00013613352 6.089883e-24 0.00051327893 6.0753568e-24 1.1229148e-43)
(0.00053644329 0.00011320795 -4.1458252e-25 0.00034527206 5.4793544e-25 2.7293307e-45)
(0.00041682864 8.8972708e-05 1.2290451e-23 0.00022741221 1.7932842e-23 1.5696206e-42)
(0.00032988922 6.5367282e-05 8.8700099e-24 0.00014275977 1.3549389e-23 1.3767679e-42)
(0.00026830484 4.4660486e-05 3.378771e-24 8.3734056e-05 3.3418506e-24 1.9741811e-43)
(0.00022381201 2.7163827e-05 7.0749312e-24 4.0367211e-05 6.995171e-24 1.5922436e-42)
(0.00019550489 1.3419217e-05 3.5654208e-24 1.5434923e-05 3.0453638e-24 7.6406453e-43)
(0.00017606674 3.6928983e-06 -2.9310103e-24 1.1832628e-06 -9.6587695e-25 1.0867592e-42)
(0.0024453664 -2.4556566e-05 1.0687497e-22 0.0060664587 -2.9672276e-22 2.3603103e-41)
(0.0032637356 0.00014431516 5.9877303e-22 0.005041327 -1.3467966e-22 1.3559875e-40)
(0.0025574324 5.4631336e-05 1.3286101e-23 0.0032278409 -4.2422409e-23 7.0385895e-43)
(0.0020879652 9.5810977e-05 -1.0093011e-23 0.0022176934 6.1038348e-24 7.8756276e-44)
(0.0015596785 0.00014001437 4.8730128e-24 0.0014928548 -3.9921328e-24 3.3268691e-44)
(0.0011634535 0.00015058244 -2.0817861e-23 0.0010173498 1.5049681e-23 8.5443123e-43)
(0.00086229365 0.00013880723 7.0135032e-24 0.0006930973 7.2562639e-24 1.226019e-43)
(0.00065002075 0.00012173203 -6.8630896e-24 0.00047524526 -7.7937092e-24 1.8351316e-43)
(0.0004955058 9.9624177e-05 2.5738303e-24 0.00032234092 -2.8489224e-24 9.736979e-44)
(0.0003852203 7.6682623e-05 -7.0629264e-25 0.00021493939 -2.0312903e-24 2.0316471e-44)
(0.00030579655 5.5297982e-05 -2.2344158e-25 0.00013555736 -2.5192804e-25 7.2507284e-46)
(0.00025002391 3.6513245e-05 1.4345256e-25 7.9992627e-05 -1.4654646e-24 6.3227649e-44)
(0.0002104987 2.174977e-05 -7.6851411e-24 3.8528222e-05 -9.1539482e-24 3.1514803e-42)
(0.00018574378 1.0136511e-05 2.6780344e-24 1.4759629e-05 2.9677162e-24 8.6753221e-43)
(0.0001691894 2.8770139e-06 -1.3966782e-24 1.1163065e-06 -7.2958351e-25 6.8506684e-43)
(0.0020182871 -0.00075165594 1.3162833e-22 0.0068257457 1.2418851e-22 2.1219108e-41)
(0.0032734101 -0.00014837505 -3.9511589e-22 0.006326745 -4.8077199e-23 5.7567005e-41)
(0.0031012861 1.5868577e-05 1.9788299e-22 0.0042828674 -3.8032773e-23 1.4638268e-41)
(0.0025929528 -8.656994e-06 -1.3942319e-22 0.0029300349 5.7623775e-24 8.5295859e-42)
(0.0019824282 8.0626434e-05 8.0528298e-23 0.0019829986 -5.2809445e-24 3.8197277e-42)
(0.0014863992 0.00013600588 -6.6238044e-23 0.0013573973 -2.5242202e-23 3.7832197e-42)
(0.0010847292 0.00013732918 6.1550188e-23 0.00092769695 -6.9889214e-24 4.8468164e-42)
(0.00080383031 0.00012779647 -2.3808622e-24 0.00064139919 1.6318716e-24 1.9355125e-44)
(0.00060225987 0.00010906162 -5.6538752e-24 0.00044343651 -4.4392588e-24 1.0817527e-43)
(0.00045945411 8.721083e-05 6.7598608e-24 0.0003046614 -6.6547101e-24 6.9073052e-43)
(0.00035782436 6.5396125e-05 -2.7991409e-23 0.00020428533 -3.3487418e-23 8.9460683e-42)
(0.00028550351 4.5417893e-05 7.7581359e-24 0.00012968012 6.2497936e-24 1.1838607e-42)
(0.0002355168 2.9032456e-05 2.7729954e-24 7.6528778e-05 4.1152652e-24 3.4353627e-43)
(0.00020018669 1.6593111e-05 5.7964703e-25 3.6842426e-05 1.4245069e-24 5.9792642e-44)
(0.00017871268 7.1858373e-06 -9.8180805e-26 1.4085462e-05 1.8472875e-25 1.0012297e-44)
(0.00016442729 2.1477345e-06 5.3785173e-25 1.0503704e-06 8.0283723e-25 8.7629944e-43)
(0.0017415201 -0.0015400371 0 0.0073863465 0 0)
(0.0030172251 -0.00066974157 -5.57184e-22 0.0075642038 6.4613425e-23 1.2785714e-40)
(0.0033227699 -0.00011310064 -7.8608194e-24 0.0055378859 1.3378932e-22 3.7960636e-42)
(0.0031620907 -6.7230656e-05 0 0.0039035202 0 0)
(0.0024788857 -2.2627331e-05 0 0.0026339037 0 0)
(0.0019089701 9.8375546e-05 0 0.0018123406 0 0)
(0.0013899501 0.00013148809 -8.632991e-24 0.001239772 5.8373663e-24 1.0330762e-43)
(0.0010128682 0.00013150094 2.2194835e-23 0.00085834386 1.8528427e-23 8.9474221e-43)
(0.00074607458 0.00011732029 -2.7764421e-23 0.00059812073 1.6889559e-23 2.7799287e-42)
(0.00055922337 9.7351857e-05 1.3482264e-23 0.00041900947 1.4056473e-23 8.6046117e-43)
(0.00042703842 7.5223432e-05 -2.1180296e-24 0.00028970808 1.993053e-24 7.6389074e-44)
(0.00033441642 5.3989077e-05 4.7807036e-24 0.00019572278 7.5957507e-24 4.2070938e-43)
(0.00026906077 3.6165645e-05 -6.1610219e-25 0.00012427975 -1.0502903e-25 1.4232427e-44)
(0.00022420238 2.1754188e-05 -2.1708374e-24 7.3376023e-05 -4.8456858e-24 4.5314223e-43)
(0.0001927049 1.1930528e-05 -1.2278746e-25 3.5164046e-05 -9.6844837e-25 2.8432707e-44)
(0.0001738997 4.4762982e-06 -2.5495873e-25 1.341229e-05 -1.4679296e-24 2.2367138e-43)
(0.00016155479 1.524718e-06 0 9.8446059e-07 0 0)
(0.0018578171 -0.0022446634 9.0480997e-23 0.00778602 -1.2632484e-22 3.2974708e-41)
(0.0026434068 -0.0013389197 6.8381968e-22 0.008673006 1.0422817e-22 2.7755703e-40)
(0.0031794665 -0.00046977899 -1.0435019e-21 0.0068203917 6.3763522e-23 4.0671094e-40)
(0.0035218304 -0.00012281127 -4.8561615e-22 0.0051661528 9.6405779e-23 7.6246972e-41)
(0.0030445261 -0.00010844388 -3.1975654e-22 0.0035265365 2.7653604e-23 3.6792278e-41)
(0.0024074823 7.5932169e-06 0 0.002419888 0 0)
(0.0017979516 0.00011194379 -1.3001458e-22 0.0016620022 3.068099e-23 1.1552174e-41)
(0.0012984851 0.00013293087 2.5561787e-23 0.0011470795 -1.3748453e-23 8.7640906e-43)
(0.00094030509 0.00012437359 7.0405104e-23 0.00079984694 8.0187691e-24 7.3387941e-42)
(0.00069265201 0.00010725144 -3.119789e-23 0.00056469188 1.7376151e-23 3.9201278e-42)
(0.00051958299 8.5282279e-05 -6.7612194e-24 0.00039841631 -8.6780812e-24 3.040347e-43)
(0.00039899755 6.2754764e-05 -2.2586609e-24 0.00027781838 2.1849317e-24 1.0456293e-43)
(0.00031495284 4.3004957e-05 1.0015642e-23 0.00018791552 1.4028111e-23 2.2667106e-42)
(0.00025608428 2.6922577e-05 -7.9214045e-24 0.00011942484 -2.0644279e-23 4.9329224e-42)
(0.00021590327 1.5084218e-05 -2.6368113e-25 7.0217727e-05 -4.242245e-24 2.7322413e-43)
(0.00018761304 7.5908675e-06 -2.0386478e-24 3.3494239e-05 -1.6129832e-23 1.1231706e-41)
(0.00017106304 2.1029077e-06 7.4011549e-25 1.2716638e-05 -3.9485052e-24 1.62619e-42)
(0.00016013297 9.9883858e-07 1.6329439e-24 9.1864686e-07 -9.5956753e-25 1.478657e-42)
(0.0025339182 -0.0027270451 2.4550936e-24 0.0080123342 -2.1283087e-24 1.963559e-43)
(0.002357178 -0.0021058425 3.0624012e-22 0.0095713352 -9.3403738e-23 8.3666394e-41)
(0.0028493662 -0.00097832102 1.0696931e-22 0.0080880142 1.1912877e-22 8.7447762e-42)
(0.0034895456 -0.00038017999 -5.6256622e-22 0.0065186645 -1.4785286e-23 1.053678e-40)
(0.0034829319 -0.00014718014 5.8680272e-23 0.0047446051 -5.5607317e-24 1.0925527e-42)
(0.00296127 -0.00011117777 -3.4737296e-23 0.0032468309 -1.0113071e-22 4.3059909e-42)
(0.0022932032 4.2935248e-05 2.5849066e-22 0.002230159 -1.359574e-22 4.1639822e-41)
(0.0016864576 0.00012762913 2.3385007e-22 0.0015397236 -4.9993067e-23 4.0082044e-41)
(0.0012043953 0.00013041343 4.8783021e-23 0.0010679229 -1.3046921e-23 2.874379e-42)
(0.00087184523 0.00011697958 -1.5699981e-23 0.0007539883 -2.5197554e-23 1.1133458e-42)
(0.00064269187 9.5803545e-05 6.279761e-24 0.00053648327 -3.3563117e-24 1.8687754e-43)
(0.000484601 7.2118823e-05 -1.5876182e-23 0.00038215776 -2.0138303e-23 2.0028727e-42)
(0.00037499036 5.0196034e-05 8.1607931e-24 0.00026708726 4.4881556e-24 8.6587099e-43)
(0.0002993729 3.1682109e-05 -3.7592246e-25 0.00018098372 1.6672447e-24 2.8054352e-44)
(0.00024638708 1.828781e-05 -2.9118952e-25 0.00011455291 2.2216874e-24 5.9281755e-44)
(0.00021029497 8.7457418e-06 4.0829045e-25 6.7067489e-05 3.6714348e-24 2.9613768e-43)
(0.00018462692 3.7742771e-06 5.3052442e-25 3.1766542e-05 -5.3561072e-24 1.3108484e-42)
(0.00016977089 3.5425915e-08 7.4347174e-27 1.2000169e-05 1.0324704e-25 5.0015648e-45)
(0.00015993296 5.7740094e-07 2.4245629e-24 8.5316451e-07 -8.5715649e-25 1.3356537e-42)
(0.0038246439 -0.0029923776 2.7087175e-23 0.0081150327 5.4989779e-24 6.1857694e-42)
(0.002473981 -0.0027642317 -1.9399293e-22 0.010279931 5.4136923e-23 8.1195203e-41)
(0.002505583 -0.0016159312 1.4614778e-21 0.0092260527 1.3769793e-22 1.6063094e-39)
(0.0032269344 -0.0007914568 2.8873144e-22 0.0078984053 -1.0656723e-22 3.2601475e-41)
(0.003562519 -0.00032093619 -1.6087714e-22 0.0061431574 -1.1525509e-22 1.1258094e-41)
(0.0034462986 -0.00017863942 -1.6357879e-23 0.0044098038 -7.3321764e-23 1.5651206e-42)
(0.0028357308 -9.5556666e-05 -6.3305614e-23 0.0029967747 9.4165002e-24 1.5462564e-42)
(0.0021764333 8.4475187e-05 -9.3419777e-23 0.002073606 -5.1868192e-23 5.7125828e-42)
(0.0015657984 0.00013416963 3.1588508e-23 0.0014322135 -6.4430236e-24 8.0917791e-43)
(0.0011143066 0.00012648339 1.1265718e-22 0.0010042641 1.6458791e-25 1.5367126e-41)
(0.00080726627 0.00010690403 -3.6001846e-23 0.00071507786 -3.7530596e-23 3.9157644e-42)
(0.00059765556 8.2389792e-05 -9.5589395e-25 0.00051419531 7.8458255e-24 1.5582313e-43)
(0.00045405407 5.811855e-05 4.010225e-24 0.00036762215 1.0811093e-23 3.78682e-43)
(0.000355466 3.6810027e-05 -1.2699313e-25 0.00025769284 -8.057444e-25 2.6990699e-45)
(0.0002874613 2.0845011e-05 -7.9908875e-25 0.00017402112 1.5236543e-24 4.7929616e-44)
(0.00023980428 9.8822774e-06 2.1203043e-24 0.0001096999 1.6018286e-23 3.6558643e-42)
(0.00020700896 3.1172972e-06 -3.6938021e-25 6.3771827e-05 -2.5880592e-24 3.1879652e-43)
(0.00018336336 4.0978042e-07 -3.0138698e-24 2.9987146e-05 8.8461994e-24 3.6156528e-42)
(0.0001697851 -1.6783925e-06 -1.1903342e-24 1.1260292e-05 1.4044692e-24 2.346186e-43)
(0.00016060618 2.5584119e-07 -3.4488359e-24 7.8813747e-07 8.5236669e-25 1.4668205e-42)
(0.0055507756 -0.0030591984 -1.2804043e-24 0.0080719062 7.6409305e-23 1.4620104e-42)
(0.0031798404 -0.0032333365 -1.9876214e-22 0.010835168 2.5298195e-22 1.4483799e-40)
(0.0024594306 -0.0022707229 -1.8835768e-22 0.010182481 5.0525192e-22 4.2690453e-41)
(0.002836487 -0.0013541285 -4.3003974e-22 0.009222315 -2.0753136e-23 1.0219318e-40)
(0.0033772064 -0.00065730836 9.8294784e-23 0.0076063318 -2.2877912e-22 1.09529e-41)
(0.0036196885 -0.00031579776 3.2240029e-22 0.0058354831 2.8624213e-23 3.2813972e-41)
(0.0033588283 -0.00021740933 -6.8658962e-22 0.004084732 5.7785006e-23 1.5296157e-40)
(0.0027206881 -5.2778728e-05 -8.3398554e-22 0.0027856849 1.1313575e-22 2.8033292e-40)
(0.0020403366 0.00011462651 4.1343406e-23 0.0019326313 9.3195775e-23 5.9996907e-42)
(0.0014465657 0.00013580807 0 0.001342486 0 0)
(0.001028849 0.00011842216 3.1905933e-23 0.00094977984 3.2786994e-23 2.2658506e-42)
(0.00074803632 9.3785839e-05 -2.5083552e-23 0.00068402212 1.0308516e-23 2.1478409e-42)
(0.00055778435 6.7188161e-05 -2.304946e-23 0.00049444245 -2.0690043e-23 3.0491605e-42)
(0.00042870036 4.2658537e-05 1.378511e-23 0.00035506662 7.845149e-24 2.181369e-42)
(0.00034013304 2.360105e-05 -1.9095173e-24 0.00024829141 -9.8440281e-24 4.8483093e-43)
(0.00027925892 1.0015644e-05 2.3159405e-24 0.00016709989 1.643169e-23 2.4638957e-42)
(0.00023588109 2.3047931e-06 -9.4513196e-25 0.00010457565 1.9604625e-24 8.6179279e-44)
(0.00020578446 -1.9443931e-06 7.4771237e-25 6.034866e-05 -4.1161903e-24 4.9766309e-43)
(0.00018354403 -2.3864861e-06 -2.6995735e-24 2.8145576e-05 5.0903827e-24 1.4096709e-42)
(0.00017073735 -3.0454e-06 -3.9057421e-25 1.0503321e-05 2.9124729e-25 9.3015046e-45)
(0.0001619231 3.3493299e-08 -3.9459285e-24 7.2436131e-07 7.5386666e-25 1.3175034e-42)
(0.0075960081 -0.0029904793 1.1813457e-22 0.0078927861 1.9743942e-22 2.3678174e-41)
(0.0044225295 -0.0035440468 -1.738611e-22 0.011226092 2.389506e-22 5.6458164e-41)
(0.002982822 -0.0028480412 -2.2449827e-22 0.010973089 -4.857033e-23 1.9611076e-40)
(0.0025988121 -0.0019687092 5.2215557e-22 0.010402278 3.0270318e-22 3.1715986e-40)
(0.0030254503 -0.0011484725 6.0970788e-22 0.0090743041 -2.1428373e-23 1.7733494e-40)
(0.0035171436 -0.00060531052 -4.8434591e-23 0.0073703814 -1.6020961e-22 5.2403159e-42)
(0.0036228355 -0.00035178406 0 0.0055025613 0 0)
(0.0032771098 -0.00023506985 -1.6730135e-23 0.0037866599 -2.1414119e-22 1.4768189e-41)
(0.0025893924 3.428186e-06 1.8977593e-22 0.0025991437 -8.3674432e-23 1.8716924e-41)
(0.0018960362 0.00013428783 2.3847345e-22 0.0018088608 5.6628855e-23 3.4331417e-41)
(0.0013314841 0.00013053384 -4.3968528e-24 0.0012645737 2.9489196e-23 8.9898769e-43)
(0.00094965438 0.00010616865 -2.1253371e-23 0.00090552362 3.4119544e-24 8.5388742e-43)
(0.00069495641 7.7693566e-05 3.8734632e-24 0.00065670196 -1.7156614e-24 6.5012353e-44)
(0.00052392876 4.9638633e-05 4.7016358e-24 0.00047756698 1.1102869e-23 3.6614215e-43)
(0.00040829184 2.6814576e-05 -6.6617755e-24 0.00034261471 -9.9772429e-24 9.4071283e-43)
(0.00032931007 1.0034381e-05 2.980433e-24 0.00023900258 8.7422721e-24 7.8582692e-43)
(0.00027421491 6.4572781e-08 3.3033463e-26 0.00015972567 -2.1698547e-24 4.1970128e-44)
(0.00023450862 -4.6656391e-06 -1.9159998e-24 9.9215045e-05 1.0468599e-23 1.6306121e-42)
(0.00020620864 -6.1795841e-06 -1.133127e-24 5.676826e-05 1.8364543e-24 7.2616147e-44)
(0.00018478952 -4.6344206e-06 -2.3140191e-25 2.6258364e-05 2.2171196e-25 2.4999475e-45)
(0.00017239148 -4.0547804e-06 -2.3819051e-24 9.7372071e-06 1.6497228e-24 4.2550417e-43)
(0.00016362818 -9.5415843e-08 0 6.6254442e-07 0 0)
(0.0097903943 -0.0028263205 1.23959e-22 0.0077109626 1.956077e-22 1.5915873e-41)
(0.0059562975 -0.00376191 1.4129116e-22 0.011419419 -1.1760499e-22 1.7466311e-41)
(0.0040936424 -0.0032774766 2.4304662e-23 0.011607321 -9.9893303e-23 1.0868084e-42)
(0.0028534504 -0.0025382386 3.8396878e-22 0.011431593 -1.0613309e-22 2.724552e-40)
(0.0027329178 -0.0017473944 3.944274e-22 0.010445263 -2.8981177e-22 1.0731741e-40)
(0.0032277275 -0.0010487733 -3.1045384e-22 0.0089532658 -5.4458404e-23 4.292346e-41)
(0.0035969905 -0.00061470856 1.7643324e-23 0.0070955062 4.5940705e-22 3.5719348e-41)
(0.003624866 -0.00041111967 -8.0508213e-22 0.0051589958 -7.9218803e-23 2.0423234e-40)
(0.0031606674 -0.00022242394 -1.4508185e-22 0.0035081715 -6.3230621e-23 8.7725348e-42)
(0.0024476236 6.3851103e-05 -3.5076331e-23 0.00243828 6.2418908e-24 5.8400141e-43)
(0.0017477241 0.00013965985 5.0587024e-24 0.0016966708 -1.8631515e-24 2.1786996e-44)
(0.0012237248 0.00011953617 7.2815973e-23 0.001200037 -1.7674039e-23 7.0236711e-42)
(0.0008780598 8.959578e-05 -3.3967335e-24 0.00086679695 -4.2154603e-24 3.9432677e-44)
(0.00064901625 5.815305e-05 -1.5885199e-23 0.00063349802 3.1653144e-23 3.6154877e-42)
(0.00049614424 3.0951559e-05 7.1510238e-24 0.00046107142 2.8200775e-23 2.2059514e-42)
(0.00039340642 1.0108432e-05 4.6184602e-24 0.00033043955 2.1327915e-23 2.150656e-42)
(0.00032235704 -2.7272417e-06 8.4290324e-25 0.00022904331 -2.6034746e-24 4.2884031e-44)
(0.00027239684 -9.3034819e-06 3.0092527e-24 0.0001519591 -2.2679044e-23 5.0743165e-42)
(0.00023507879 -1.0561835e-05 5.3649364e-26 9.3548108e-05 -5.9011844e-25 1.3869308e-44)
(0.00020795624 -9.6459397e-06 -2.4885138e-24 5.3064755e-05 4.3377796e-24 5.2917357e-43)
(0.00018684534 -6.2947245e-06 0 2.4344707e-05 0 0)
(0.00017446633 -4.71841e-06 6.0635695e-24 8.9721231e-06 -3.44869e-24 2.1066646e-42)
(0.00016552248 -1.3670638e-07 1.4087704e-25 6.0351404e-07 -1.3714605e-26 4.7798607e-46)
(0.011855825 -0.0025879415 -7.1057361e-22 0.0075417357 -2.8212407e-22 1.5420033e-40)
(0.007742204 -0.0039374647 5.6787891e-22 0.011526836 2.1399567e-22 2.307133e-40)
(0.0054647173 -0.0036140779 -2.418359e-22 0.012084844 -1.4235408e-22 1.0429219e-40)
(0.0037409787 -0.0030044392 -2.5351012e-23 0.012317813 -3.0893595e-22 3.4509653e-41)
(0.0028379791 -0.0023440665 3.7935559e-22 0.011691407 2.6129317e-22 2.7284626e-40)
(0.0029202871 -0.0016323454 0 0.010489288 0 0)
(0.0033959792 -0.0010201457 -6.8241578e-24 0.008770875 1.4109381e-22 2.6730773e-42)
(0.0036840834 -0.00067226511 -2.7550228e-22 0.0067895857 -2.7305653e-22 4.0583225e-41)
(0.0036103861 -0.00046997377 -5.5633821e-22 0.0047953755 1.2409504e-23 9.6452944e-41)
(0.0030401588 -0.000162346 -5.5952174e-22 0.0032641383 1.5309018e-22 1.210322e-40)
(0.0022880376 0.00010787253 1.2823464e-22 0.0022901575 6.6989216e-23 9.5473301e-42)
(0.0016026925 0.00013366381 8.5517016e-23 0.0016004177 1.1296207e-23 5.6352608e-42)
(0.0011257561 0.00010283408 -5.8203725e-23 0.0011437498 -1.5164918e-23 4.6447571e-42)
(0.00081508037 6.8346842e-05 2.4584184e-23 0.000833946 3.0176182e-23 2.4238913e-42)
(0.00061064983 3.6473643e-05 -2.4067151e-23 0.00061126854 -3.7062135e-23 5.2055387e-42)
(0.00047513331 1.071578e-05 -1.0234057e-23 0.00044519075 -5.3451737e-23 8.7703514e-42)
(0.00038338462 -6.0308033e-06 6.4067829e-24 0.00031737777 2.500152e-24 1.3077809e-42)
(0.00031952854 -1.5023552e-05 8.8927809e-25 0.0002185112 -1.0719327e-23 8.0209095e-43)
(0.0002729868 -1.7352817e-05 -5.6064313e-24 0.00014365541 2.4731059e-23 7.3026199e-42)
(0.00023742194 -1.5504622e-05 1.3672622e-24 8.7625806e-05 -4.6315337e-24 7.2772337e-43)
(0.00021068369 -1.2225421e-05 6.3115062e-24 4.9276205e-05 -8.738555e-24 2.5007327e-42)
(0.00018938968 -7.3860827e-06 -5.989999e-24 2.2430528e-05 5.1751058e-24 2.0957402e-42)
(0.00017675062 -5.0495458e-06 4.0585137e-24 8.2191633e-06 -2.0273756e-24 9.2356307e-43)
(0.00016742981 -9.7840894e-08 1.2497409e-25 5.4801094e-07 -9.939974e-27 3.0511896e-46)
(0.013688464 -0.0023233788 -3.0401472e-22 0.0073841962 -3.435863e-22 4.5207988e-41)
(0.0096586995 -0.0040314219 7.8250562e-22 0.011580398 6.6185244e-23 2.5756261e-40)
(0.007008381 -0.0038744326 1.5666063e-22 0.012424767 -5.3014525e-22 3.1422638e-41)
(0.0049589704 -0.0033830463 5.2906812e-22 0.013071595 7.7374766e-23 5.8543914e-40)
(0.0035559277 -0.0028703036 -7.8636594e-23 0.012825557 -3.7934035e-22 7.5106238e-41)
(0.0029177942 -0.0022451572 5.1864649e-22 0.011922227 3.4732262e-22 3.7731601e-40)
(0.0031258327 -0.0015839909 -2.0419003e-23 0.010455293 1.6901942e-22 3.1823638e-42)
(0.0035786496 -0.0010594489 1.0424067e-21 0.0085454759 2.1448683e-22 4.271688e-40)
(0.0037834697 -0.00075191246 -1.1824251e-22 0.0064291899 -2.4817639e-22 1.7139884e-41)
(0.0035939742 -0.0004888641 -2.7814582e-22 0.0044350513 -3.3062064e-23 2.4970247e-41)
(0.0029012133 -7.4867799e-05 6.9753748e-23 0.0030573498 1.2478711e-22 7.7932109e-42)
(0.0021154542 0.00012986744 -2.501644e-22 0.0021549865 7.72583e-24 3.5057146e-41)
(0.001467199 0.00011764171 3.7625813e-23 0.0015161292 3.3700101e-23 1.885924e-42)
(0.001038671 8.0081285e-05 5.4098165e-24 0.0010957949 -1.4447576e-24 5.9038366e-44)
(0.00076161808 4.3629993e-05 -6.0113053e-24 0.00080313808 -4.1582934e-23 2.5343167e-42)
(0.00058058957 1.2349238e-05 -3.3926616e-24 0.0005902723 -4.1169721e-24 1.205263e-43)
(0.0004603397 -9.40629e-06 1.6919855e-24 0.00042828635 7.5503466e-25 5.4601593e-44)
(0.00037865453 -2.1928523e-05 5.9897208e-25 0.00030356572 -2.0538978e-23 2.1569946e-42)
(0.00031981678 -2.580892e-05 0 0.00020712647 0 0)
(0.00027599636 -2.4264725e-05 1.2351866e-24 0.00013488504 -2.6348851e-24 6.4886613e-44)
(0.000240957 -1.922352e-05 3.8712191e-25 8.1515008e-05 -5.7043764e-25 5.2601391e-45)
(0.00021403493 -1.3952498e-05 -7.5352189e-25 4.5454951e-05 7.7866152e-25 1.8543898e-44)
(0.00019219068 -7.9214877e-06 -1.8299171e-25 2.054483e-05 1.7766252e-26 6.8730155e-45)
(0.00017904851 -5.0727554e-06 -6.7111891e-24 7.4892335e-06 2.8095484e-24 1.8967194e-42)
(0.00016921139 1.4442993e-08 -3.1718994e-24 4.9730831e-07 3.097556e-25 4.690743e-43)
(0.015286757 -0.0020754445 8.2325332e-22 0.0072428254 3.0470026e-22 1.4298178e-40)
(0.011535209 -0.0040536685 -5.7152407e-22 0.011590535 1.9420771e-23 1.0237995e-40)
(0.0086911958 -0.0040918671 -2.1039546e-22 0.012751825 5.9490739e-23 2.2134087e-41)
(0.0063389664 -0.0037051486 -8.1076027e-23 0.013667459 -1.14056e-23 9.0133588e-42)
(0.0046785182 -0.0033233672 -3.813771e-22 0.013847628 -1.9209437e-22 4.7410632e-40)
(0.0034908305 -0.0028111527 -1.2184674e-22 0.01326891 3.5847132e-22 1.7745816e-41)
(0.0030730645 -0.0022111878 -3.7442423e-23 0.012069214 2.1452302e-22 4.4171288e-42)
(0.00337731 -0.0016084811 -5.6358042e-23 0.010362596 -2.8570955e-23 1.8323076e-42)
(0.0037715679 -0.0011435782 -7.9703854e-22 0.0082487994 -1.5433287e-22 2.3757791e-40)
(0.0039015456 -0.00082745915 -5.120724e-23 0.0060215157 2.6275174e-22 1.3601745e-41)
(0.0035398503 -0.00044565807 -2.9850787e-22 0.0041011639 -8.7746715e-23 3.1534636e-41)
(0.002737482 1.4582814e-05 4.991946e-23 0.0028857208 -6.4122857e-24 1.0652593e-42)
(0.0019401142 0.00012822985 1.0802974e-22 0.0020296285 -4.7362587e-24 7.6281198e-42)
(0.0013450688 9.3324131e-05 -5.580209e-24 0.001444075 -1.7997402e-23 2.8595211e-43)
(0.0009636872 5.2455055e-05 1.7542735e-23 0.0010517715 -5.7137106e-24 7.9177913e-43)
(0.00071841436 1.5329327e-05 2.2491684e-24 0.000774623 5.8788302e-23 5.2368379e-42)
(0.00055852103 -1.2362429e-05 -1.6099499e-23 0.00056830313 6.7723477e-23 1.0706071e-41)
(0.00045231001 -2.9667359e-05 1.0478189e-24 0.00041052255 3.5300116e-23 4.7929495e-42)
(0.00037807111 -3.6213529e-05 -6.4438993e-24 0.00028850653 4.176501e-23 9.2834866e-42)
(0.00032338726 -3.5294766e-05 -3.4043772e-25 0.00019498838 5.3538079e-25 2.2353943e-45)
(0.00028051622 -2.9548115e-05 1.4501555e-23 0.0001257467 -2.6481699e-23 8.1788526e-42)
(0.00024540233 -2.179448e-05 2.1787905e-24 7.5292064e-05 -3.4885772e-24 4.0108571e-43)
(0.0002177313 -1.4815866e-05 -6.5965177e-24 4.1663522e-05 6.4437764e-24 1.8774882e-42)