/*--------------------------------*- C++ -*----------------------------------*\
| =========                 |                                                 |
| \\      /  F ield         | OpenFOAM: The Open Source CFD Toolbox           |
|  \\    /   O peration     | Version:  5.0                                   |
|   \\  /    A nd           | Web:      www.OpenFOAM.org                      |
|    \\/     M anipulation  |                                                 |
\*---------------------------------------------------------------------------*/
FoamFile
{
    version     2.0;
    format      ascii;
    class       volScalarField;
    location    "280";
    object      ddt0(nuTilda);
}
// * * * * * * * * * * * * * * * * * * * * * * * * * * * * * * * * * * * * * //

dimensions      [0 2 -2 0 0 0 0];

internalField   nonuniform List<scalar> 
9520
(
-4.9161546e-37
-1.2218448e-34
-1.0411273e-35
-1.0171661e-32
-1.1976187e-33
-1.2310237e-35
-4.7174493e-31
-6.5372792e-32
-1.3230954e-33
-1.4566147e-36
-1.4908377e-29
-2.2404722e-30
-6.6641055e-32
3.6511687e-35
1.8101141e-35
-3.5629453e-28
-5.4674284e-29
-2.0756971e-30
1.3857418e-32
2.3252133e-33
3.6196412e-35
-6.7923087e-27
-1.0307424e-27
-4.4824838e-29
9.1131842e-31
1.4017731e-31
4.2190225e-33
4.0472971e-35
-1.0459727e-25
-1.5746587e-26
-7.1862332e-28
3.403189e-29
5.2832151e-30
2.3242197e-31
4.2334714e-33
2.2257678e-35
-1.3045652e-24
-1.9829291e-25
-8.8094988e-27
8.853424e-28
1.4124476e-28
8.0513177e-30
2.0765066e-31
1.5520835e-33
-1.8242262e-35
-1.2953325e-23
-2.0563601e-24
-8.0815314e-26
1.7585772e-26
2.8937032e-27
1.9806566e-28
6.3309314e-30
3.1994345e-32
-3.3816894e-33
-6.8649249e-35
-9.451071e-23
-1.6906825e-23
-5.1443686e-25
2.8010972e-25
4.7760297e-26
3.7215775e-27
1.3394789e-28
-6.6297736e-31
-2.483258e-31
-8.7270433e-33
-1.0604884e-34
-1.8432646e-22
-9.2673863e-23
-1.3680448e-24
3.6144907e-24
6.5647205e-25
5.6013964e-26
2.067978e-27
-6.0052465e-29
-1.062073e-29
-5.1260773e-31
-1.1744979e-32
-1.0504493e-34
3.4532229e-20
3.1894603e-22
1.2584885e-23
3.791668e-23
7.6268523e-24
6.9976581e-25
2.3364411e-26
-2.0034553e-27
-3.0970536e-28
-1.8731305e-29
-6.0943217e-31
-9.898368e-33
-5.0107794e-35
3.3062275e-18
5.3053873e-20
8.6975234e-23
3.1208471e-22
7.558221e-23
7.4534479e-24
1.8117259e-25
-4.4963801e-26
-6.7419684e-27
-4.8223107e-28
-1.975447e-29
-4.2322754e-31
-2.2060361e-33
5.2942741e-35
2.163301e-16
3.5499071e-18
-6.02585e-21
1.5463798e-21
6.4045675e-22
6.9606467e-23
6.955657e-25
-7.7166666e-25
-1.1637943e-25
-9.3954637e-27
-4.4978446e-28
-1.0551763e-29
5.8270437e-32
9.7668142e-33
1.7316123e-34
1.0130423e-14
1.7160199e-16
-1.2091603e-18
-3.5890901e-20
4.5220817e-21
5.9541021e-22
-3.9448136e-24
-1.0606612e-23
-1.6590399e-24
-1.4543944e-25
-7.6340191e-27
-1.5734731e-28
7.8888858e-30
7.0728633e-31
2.1932351e-32
2.6278385e-34
3.4552532e-13
5.9083195e-15
-1.292006e-16
-3.9180336e-18
4.4054871e-21
4.9655369e-21
-8.3218162e-23
-1.2092875e-22
-1.9962842e-23
-1.8565539e-24
-9.92294e-26
-8.9822845e-28
3.3558345e-28
2.9818254e-29
1.2785319e-30
2.8986944e-32
2.7539048e-34
8.4557921e-12
1.3824394e-13
-8.3509632e-15
-2.632874e-16
-1.9766484e-18
4.4505529e-20
-3.2885398e-22
-1.1698737e-21
-2.073808e-22
-1.9994587e-23
-9.9519345e-25
2.1920318e-26
9.0033366e-27
8.5618059e-28
4.6191336e-29
1.4958944e-30
2.6542504e-32
1.8562261e-34
1.4952173e-10
2.0786206e-12
-3.6297614e-13
-1.298043e-14
-1.1517875e-16
1.0700492e-18
2.4797971e-20
-9.6803487e-21
-1.9019252e-21
-1.8574399e-22
-7.4293025e-24
7.8494151e-25
1.7927722e-25
1.8256376e-26
1.1712414e-27
4.8081969e-29
1.1701798e-30
1.3082996e-32
1.3235706e-36
1.8139923e-09
1.4716727e-11
-1.0784988e-11
-4.6765081e-13
-4.2408066e-15
9.1163404e-17
2.5495723e-18
-5.306435e-20
-1.5745074e-20
-1.5289986e-21
-3.4141603e-23
1.4443339e-23
2.8374714e-24
3.0689942e-25
2.2348513e-26
1.0800886e-27
3.068472e-29
2.9072761e-31
-9.1599494e-33
-2.36525e-34
1.476645e-08
-3.3603475e-11
-2.2087006e-10
-1.2184042e-11
-9.6790452e-14
6.6287255e-15
2.0379827e-16
1.5224821e-18
-1.161437e-19
-1.1572604e-20
3.7676428e-23
1.9596083e-22
3.6839729e-23
4.2311504e-24
3.3613332e-25
1.7957019e-26
5.0904815e-28
-4.0322184e-30
-9.5500233e-31
-3.4699788e-32
-4.6502735e-34
7.7083903e-08
-2.5145228e-09
-2.9926338e-09
-2.247074e-10
-1.0102402e-12
3.2949586e-13
1.2213138e-14
1.4476971e-16
-5.9135857e-19
-8.6745846e-20
2.6559398e-21
2.156497e-21
4.0386173e-22
4.8797688e-23
4.1173191e-24
2.2578659e-25
4.6129744e-27
-4.3835083e-28
-4.7504932e-29
-2.2346491e-30
-5.6354355e-32
-6.1709675e-34
2.7684768e-07
-2.5329432e-08
-2.7584467e-08
-2.7739061e-09
8.397616e-12
1.1192991e-11
5.2992151e-13
7.7541974e-15
-9.249444e-18
-1.1064299e-18
2.9252962e-20
2.0119974e-20
3.8275882e-21
4.7976718e-22
4.1688996e-23
2.1234212e-24
-1.5327815e-26
-1.4688135e-26
-1.5048481e-27
-8.73224e-29
-3.1672942e-30
-6.7277505e-32
-6.3977753e-34
6.9115782e-07
-1.4667087e-07
-1.6747633e-07
-2.2805645e-08
5.4690339e-10
2.5682276e-10
1.6320614e-11
2.8670436e-13
-1.9589925e-15
-6.282146e-17
-8.4075104e-20
1.6290259e-19
3.2038877e-20
4.0952191e-21
3.5124704e-22
1.3475665e-23
-1.4098997e-24
-3.2517393e-25
-3.4312026e-26
-2.3667887e-27
-1.1086918e-28
-3.4292894e-30
-6.2820072e-32
-5.0783617e-34
1.297739e-06
-5.3719636e-07
-6.9453878e-07
-1.2049988e-07
8.7278654e-09
3.8460344e-09
3.4795536e-10
7.2088362e-12
-1.6061679e-13
-4.5821488e-15
-3.1341815e-17
1.0805166e-18
2.419837e-19
3.0978497e-20
2.4599641e-21
2.2152684e-23
-2.9434945e-23
-5.478526e-24
-6.0743406e-25
-4.7943487e-26
-2.7300033e-27
-1.0875003e-28
-2.8403035e-30
-4.1709363e-32
-2.2949374e-34
2.1318183e-06
-1.2567278e-06
-1.98275e-06
-4.3295002e-07
7.7333846e-08
3.8573229e-08
5.0210713e-09
1.179361e-10
-7.3323645e-12
-2.4213329e-13
-2.2255159e-15
-1.8356585e-18
1.6651804e-18
2.1303066e-19
1.4162672e-20
-8.1119636e-22
-4.1891818e-22
-7.3862764e-23
-8.7422115e-24
-7.6532273e-25
-5.0467421e-26
-2.4073595e-27
-7.722538e-29
-1.4094459e-30
-6.3277596e-33
1.5574878e-34
3.361949e-06
-1.8134993e-06
-4.0829162e-06
-1.079477e-06
4.3418221e-07
2.5748769e-07
4.8353228e-08
1.1638517e-09
-2.070143e-10
-8.8240594e-12
-1.0675513e-13
-5.2440319e-16
1.0127335e-17
1.3748875e-18
6.491512e-20
-1.4265358e-20
-4.7167736e-21
-8.2714788e-22
-1.0435342e-22
-9.9973278e-24
-7.3033748e-25
-3.9261764e-26
-1.3668837e-27
-1.9194281e-29
6.6465366e-31
3.779418e-32
5.8491835e-34
3.4657553e-06
-2.6439725e-06
-6.6857085e-06
-2.0743213e-06
1.5751916e-06
1.1679774e-06
3.0773008e-07
5.4638031e-09
-3.7514778e-09
-2.1728145e-10
-3.5925113e-12
-2.2206019e-14
1.1370556e-16
1.0481811e-17
2.2574705e-19
-1.5594681e-19
-4.4551254e-20
-7.8933085e-21
-1.0528968e-21
-1.0861877e-22
-8.5269571e-24
-4.7866726e-25
-1.4879135e-26
2.5726671e-28
5.6283826e-29
3.0319362e-30
8.2986659e-32
9.8234026e-34
3.3588369e-06
-4.1269401e-06
-9.5228122e-06
-3.5493724e-06
3.8566373e-06
3.6959016e-06
1.2821484e-06
-6.4976453e-09
-4.4214155e-08
-3.6173086e-09
-8.1727727e-11
-5.467153e-13
1.0084698e-14
3.3213033e-16
2.6552629e-18
-1.3427652e-18
-3.6479027e-19
-6.5491207e-20
-9.1177387e-21
-9.9332252e-22
-8.0935218e-23
-4.2596813e-24
-3.7866852e-26
1.8971891e-26
2.1880572e-27
1.356016e-28
5.25289e-30
1.207154e-31
1.2716988e-33
3.3632609e-06
-4.9643094e-06
-1.1475828e-05
-5.3148386e-06
6.7455732e-06
8.3026804e-06
3.5498623e-06
-2.401625e-07
-3.4034528e-07
-3.9586288e-08
-1.3048648e-09
-1.016138e-11
7.1065157e-13
2.4641159e-14
2.8343379e-16
-8.931256e-18
-2.6509118e-18
-4.802167e-19
-6.8672284e-20
-7.7013361e-21
-6.1802131e-22
-2.3269224e-23
2.1958547e-24
5.1691165e-25
5.6065918e-26
4.0536989e-27
2.0296188e-28
6.8729805e-30
1.4299794e-31
1.3887265e-33
2.8367218e-06
-5.4196325e-06
-1.2360742e-05
-5.7215674e-06
9.4306932e-06
1.4143227e-05
6.8367431e-06
-1.4114725e-06
-1.7323817e-06
-2.8930079e-07
-1.4250458e-08
-7.1054395e-11
2.9201086e-11
1.3947237e-12
2.2955351e-14
3.8914006e-17
-1.7430569e-17
-3.1628018e-18
-4.5501836e-19
-5.0728251e-20
-3.6237514e-21
2.6632542e-23
5.4888196e-23
9.6430818e-24
1.0760555e-24
8.8746944e-26
5.4528066e-27
2.4320111e-28
7.5046888e-30
1.4388031e-31
1.2937525e-33
2.1710676e-06
-5.6189026e-06
-1.2699509e-05
-5.4444276e-06
1.2094481e-05
1.941267e-05
9.852683e-06
-4.4036827e-06
-5.9248476e-06
-1.4370273e-06
-1.027288e-07
1.0279295e-09
7.6371049e-10
5.2524699e-11
1.2372054e-12
6.3252242e-15
-1.2286883e-16
-1.9092664e-17
-2.6830218e-18
-2.8231791e-19
-1.3507367e-20
2.4873897e-21
8.2384702e-22
1.379922e-22
1.6507826e-23
1.5155594e-24
1.0934785e-25
6.0321321e-27
2.4486306e-28
6.9090272e-30
1.2081719e-31
9.8188899e-34
1.3126279e-06
-6.0223587e-06
-1.2125527e-05
-4.9252767e-06
1.3822165e-05
2.3233183e-05
1.271079e-05
-8.6415527e-06
-1.4066448e-05
-4.8684194e-06
-4.7299726e-07
2.8939816e-08
1.2884514e-08
1.2956321e-09
4.3870666e-11
2.5684781e-13
-3.5579007e-15
-1.2389485e-16
-1.4293597e-17
-1.2973899e-18
1.0834487e-20
3.6506299e-20
9.442231e-21
1.6045468e-21
2.0722615e-22
2.1139762e-23
1.7221953e-24
1.1183331e-25
5.5668516e-27
2.0297632e-28
5.0611272e-30
7.5555528e-32
4.8733391e-34
4.3165989e-07
-6.2966474e-06
-1.1422774e-05
-3.9703052e-06
1.4546659e-05
2.4732449e-05
1.3211352e-05
-1.3205695e-05
-2.4651951e-05
-1.1572638e-05
-1.3457348e-06
3.0829502e-07
1.4045109e-07
2.0684383e-08
1.007588e-09
5.0411468e-12
-2.6094886e-13
-2.5665477e-15
-7.3505971e-17
-4.6291892e-18
7.3148489e-19
3.6916436e-19
8.8987737e-20
1.5669858e-20
2.1790718e-21
2.4436173e-22
2.2176728e-23
1.6201368e-24
9.3364914e-26
4.0244212e-27
1.2080941e-28
2.1782014e-30
1.4116756e-32
-1.2101628e-34
-5.2365465e-07
-6.5129477e-06
-1.0519884e-05
-2.7315525e-06
1.4606391e-05
2.4542094e-05
1.1627663e-05
-1.7699587e-05
-3.4682446e-05
-2.0458774e-05
-2.2418197e-06
1.8499973e-06
9.9311297e-07
2.1219338e-07
1.4754188e-08
6.3662932e-12
-1.3250234e-11
-1.4665957e-13
-7.3067427e-16
-1.0407577e-17
7.9204041e-18
3.0047011e-18
7.1496719e-19
1.313261e-19
1.9535196e-20
2.3794271e-21
2.3620633e-22
1.8900429e-23
1.1922643e-24
5.538637e-26
1.5913519e-27
9.886129e-30
-1.3124123e-30
-5.4278282e-32
-7.5295925e-34
-1.3878917e-06
-6.6531721e-06
-9.4446492e-06
-1.3783291e-06
1.4510102e-05
2.3548504e-05
9.9363012e-06
-2.0077868e-05
-4.1128456e-05
-2.8575758e-05
-1.8867577e-06
6.9021412e-06
4.5948289e-06
1.3940529e-06
1.3598408e-07
-1.8252569e-09
-4.1673663e-10
-6.7370416e-12
-2.9270392e-14
-3.2163279e-17
6.0147657e-17
2.0879192e-17
5.0126514e-18
9.5962135e-19
1.5137336e-19
1.9740325e-20
2.1037219e-21
1.7855618e-22
1.1441301e-23
4.8403427e-25
3.2889777e-27
-1.3541132e-27
-1.1220963e-28
-4.8625755e-30
-1.191773e-31
-1.3165426e-33
-1.9056102e-06
-6.5894798e-06
-8.2521958e-06
-3.6274914e-08
1.4242161e-05
2.2216867e-05
8.0090488e-06
-2.05163e-05
-4.2973055e-05
-3.3215554e-05
5.3580207e-07
1.7047153e-05
1.4143143e-05
5.8818984e-06
7.7761546e-07
-3.9381325e-08
-8.1716852e-09
-1.9404946e-10
-1.3556664e-12
-3.7855048e-15
3.6741975e-16
1.2801792e-16
3.1247471e-17
6.1997387e-18
1.024594e-18
1.4076079e-19
1.5702814e-20
1.3502977e-21
7.7043988e-23
8.6807075e-25
-3.9122792e-25
-5.466413e-26
-4.3210419e-27
-2.2584286e-28
-7.9278028e-30
-1.7129761e-31
-1.7379106e-33
-2.2390731e-06
-6.1538398e-06
-7.0468728e-06
1.3019433e-06
1.3732567e-05
2.0508188e-05
6.2147525e-06
-1.9781484e-05
-4.2414698e-05
-3.4236781e-05
4.1030116e-06
3.0485358e-05
3.0075979e-05
1.6156319e-05
2.7184067e-06
-4.0650523e-07
-1.0125e-07
-3.719558e-09
-4.4496456e-11
-2.3296773e-13
1.5538692e-15
7.0981403e-16
1.7635746e-16
3.587126e-17
6.1199042e-18
8.6657462e-19
9.7705361e-20
7.7813964e-21
2.2077518e-22
-5.163406e-23
-1.0993651e-23
-1.2816592e-24
-1.0852626e-25
-6.8384443e-27
-3.1394394e-28
-1.0091088e-29
-2.0443743e-31
-1.9753104e-33
-2.430733e-06
-5.068312e-06
-5.9524408e-06
2.432909e-06
1.3143237e-05
1.8547669e-05
4.3598874e-06
-1.8793938e-05
-3.9679735e-05
-3.354613e-05
7.359113e-06
4.278288e-05
4.7322333e-05
3.0221945e-05
5.7212799e-06
-2.4243487e-06
-8.0082903e-07
-4.7330819e-08
-9.7462585e-10
-8.854979e-12
-2.3899426e-14
3.6336613e-15
9.1907857e-16
1.8855425e-16
3.2541623e-17
4.6122625e-18
4.9478616e-19
2.7960044e-20
-2.7818113e-21
-1.0849076e-21
-1.841885e-22
-2.203003e-23
-2.0355624e-24
-1.496586e-25
-8.5477939e-27
-3.6574619e-28
-1.1143207e-29
-2.1647102e-31
-2.0235314e-33
-1.9108678e-06
-3.4694149e-06
-3.8597456e-06
2.8332628e-06
1.2225577e-05
1.6425135e-05
2.4326534e-06
-1.7354363e-05
-3.560581e-05
-3.3426496e-05
1.0544318e-05
5.0725939e-05
6.0303719e-05
4.1235828e-05
7.1933174e-06
-8.949281e-06
-4.1068537e-06
-3.9761917e-07
-1.4029926e-08
-2.1762096e-10
-1.354884e-12
1.8848691e-14
4.6160485e-15
9.1792689e-16
1.5533846e-16
2.1084872e-17
1.876287e-18
-3.1615376e-20
-5.658187e-20
-1.4019599e-20
-2.3237032e-21
-2.9676591e-22
-3.0387816e-23
-2.5385557e-24
-1.7271863e-25
-9.2768362e-27
-3.7848501e-28
-1.110026e-29
-2.0915093e-31
-1.9084991e-33
-9.0421892e-07
1.0135817e-06
-1.7053071e-06
2.5721042e-06
1.0834511e-05
1.402716e-05
2.2049574e-07
-1.5835281e-05
-3.1073579e-05
-3.1969351e-05
1.0034201e-05
5.4494604e-05
6.6300722e-05
4.4401122e-05
4.3135945e-06
-2.1739649e-05
-1.4009834e-05
-2.2192656e-06
-1.3218323e-07
-3.4350852e-09
-3.3868671e-11
3.5999024e-13
3.6106658e-14
4.4105014e-15
6.7477338e-16
8.0479986e-17
3.5716691e-18
-1.575684e-18
-6.1831379e-19
-1.3963877e-19
-2.3812611e-20
-3.2747933e-21
-3.7120495e-22
-3.4926707e-23
-2.7382592e-24
-1.7653949e-25
-9.0637946e-27
-3.5669497e-28
-1.0158104e-29
-1.8695009e-31
-1.675203e-33
4.8774144e-08
2.5872776e-06
2.2399138e-06
1.4772057e-06
9.0800473e-06
1.1491673e-05
-1.9854023e-06
-1.4241404e-05
-2.5918488e-05
-2.9905623e-05
8.6227892e-06
5.5219508e-05
6.5718737e-05
4.3295724e-05
-1.4136447e-06
-3.7616942e-05
-3.3119661e-05
-8.3755679e-06
-8.1858154e-07
-3.4402396e-08
-4.3515439e-10
2.0875284e-11
1.4489342e-12
4.6067862e-14
2.8805666e-15
2.3724033e-16
-1.9600688e-17
-1.6401578e-17
-5.1421276e-18
-1.1501193e-18
-2.0557598e-19
-3.046789e-20
-3.7966558e-21
-3.9919903e-22
-3.5417057e-23
-2.6480708e-24
-1.6367328e-25
-8.1042415e-27
-3.0964709e-28
-8.6083092e-30
-1.5545161e-31
-1.3735118e-33
-1.0846852e-06
9.2082946e-07
4.6906853e-06
2.1418626e-06
6.9284354e-06
8.7471647e-06
-4.0789244e-06
-1.2429817e-05
-2.0434681e-05
-2.73885e-05
7.0128209e-06
5.243295e-05
6.3186562e-05
3.6407623e-05
-9.7667466e-06
-5.132047e-05
-5.7460709e-05
-2.2133059e-05
-3.368449e-06
-2.1484961e-07
-1.3989791e-09
7.7910992e-10
7.3098803e-11
2.4835797e-12
3.6607875e-14
4.1036328e-16
-2.8287397e-16
-1.2223125e-16
-3.5541963e-17
-8.109016e-18
-1.5287752e-18
-2.4365463e-19
-3.3136015e-20
-3.8548253e-21
-3.8296616e-22
-3.2435445e-23
-2.3309938e-24
-1.389564e-25
-6.6652664e-27
-2.4802584e-28
-6.7475567e-30
-1.1981729e-31
-1.0461997e-33
4.2381953e-06
-4.8028909e-06
2.4930161e-06
5.8394069e-06
1.7361345e-06
5.9841657e-06
-6.0064185e-06
-1.0344256e-05
-1.4831671e-05
-2.4417545e-05
5.2173609e-06
4.8846218e-05
5.879114e-05
2.9061848e-05
-1.553771e-05
-5.9320203e-05
-7.7932343e-05
-4.2855262e-05
-9.4550784e-06
-8.0175647e-07
3.5532604e-08
1.7157066e-08
2.306809e-09
1.2318671e-10
2.3057862e-12
8.2322279e-15
-2.1531059e-15
-7.5985639e-16
-2.123527e-16
-4.9995902e-17
-9.9498406e-18
-1.6988798e-18
-2.5040696e-19
-3.19165e-20
-3.512324e-21
-3.3254775e-22
-2.7034833e-23
-1.8718345e-24
-1.0772517e-25
-5.0027857e-27
-1.8098689e-28
-4.8069922e-30
-8.3748221e-32
-7.217641e-34
3.3026855e-06
-2.170563e-07
-5.5193752e-06
4.255677e-06
6.4429697e-06
1.1360936e-06
-7.4053794e-06
-7.7274546e-06
-9.2033876e-06
-2.1177248e-05
3.4113806e-06
4.4789441e-05
5.4137251e-05
2.4941848e-05
-1.6886667e-05
-5.9527621e-05
-8.9338867e-05
-6.4241861e-05
-1.8722354e-05
-1.5730162e-06
5.3889936e-07
2.2379918e-07
4.3725072e-08
3.6762355e-09
1.1130063e-10
8.0495543e-13
-1.3555094e-14
-4.1705118e-15
-1.1242222e-15
-2.7365871e-16
-5.7377268e-17
-1.0445481e-17
-1.6573281e-18
-2.2934661e-19
-2.7641284e-20
-2.8907081e-21
-2.6117424e-22
-2.0339082e-23
-1.3488353e-24
-7.4255586e-26
-3.2996213e-27
-1.1432893e-28
-2.9159739e-30
-4.9061304e-32
-4.1234731e-34
-7.6421339e-06
3.90725e-07
-3.6081288e-06
-5.1419731e-06
5.8224204e-06
6.7224479e-06
2.4928766e-07
-4.1968689e-06
-3.5816143e-06
-1.8040099e-05
1.8083721e-06
4.0579806e-05
4.8929164e-05
2.0077528e-05
-1.7328575e-05
-5.3459743e-05
-9.2445508e-05
-7.9810956e-05
-2.7630725e-05
-4.0018284e-07
3.5929581e-06
1.7876192e-06
5.0341027e-07
6.5140154e-08
3.1424707e-09
3.6899371e-11
-1.5972292e-13
-2.1504431e-14
-5.3927027e-15
-1.3458766e-15
-2.9612865e-16
-5.71656e-17
-9.6954983e-18
-1.4439126e-18
-1.8841406e-19
-2.1458871e-20
-2.120133e-21
-1.80623e-22
-1.3207734e-23
-8.1376834e-25
-4.0997028e-26
-1.6380438e-27
-4.9974266e-29
-1.0995713e-30
-1.5803491e-32
-1.1576559e-34
9.7966141e-07
-7.0873386e-06
-2.107235e-06
-6.3168573e-06
-4.2546612e-06
7.1563965e-06
6.6861967e-06
-6.856668e-07
1.0132985e-06
-1.5050121e-05
1.4646961e-07
3.618192e-05
4.3864914e-05
1.4866464e-05
-1.7991759e-05
-4.6542716e-05
-8.1955837e-05
-8.8274217e-05
-3.2937307e-05
5.985433e-06
1.3972419e-05
8.9793268e-06
3.5703694e-06
6.9342157e-07
5.184976e-08
9.0610186e-10
-8.770181e-12
-1.9978882e-13
-2.4007045e-14
-6.0152275e-15
-1.3798986e-15
-2.806692e-16
-5.0503631e-17
-8.0187873e-18
-1.1190355e-18
-1.3643564e-19
-1.440077e-20
-1.2975304e-21
-9.8080375e-23
-6.0564201e-24
-2.8420922e-25
-8.2903985e-27
-4.8678935e-30
1.3475815e-29
6.993618e-31
1.7275184e-32
1.8006448e-34
6.8682566e-06
4.9733057e-06
-6.643888e-06
-5.5254827e-06
-8.4046601e-06
-3.2449449e-06
8.4675524e-06
6.4540849e-06
-1.5484096e-06
-1.1972696e-05
-1.9134681e-06
3.1594719e-05
3.855042e-05
9.3570374e-06
-1.8793028e-05
-3.9514125e-05
-7.1566407e-05
-9.399886e-05
-3.3715468e-05
1.7697121e-05
3.52291e-05
2.9090616e-05
1.5851226e-05
4.4834103e-06
5.0480077e-07
1.1864447e-08
-3.9791613e-10
-8.0565724e-12
-1.122698e-13
-2.4772987e-14
-5.8521356e-15
-1.2446344e-15
-2.3556561e-16
-3.9439995e-17
-5.7961815e-18
-7.3883896e-19
-8.0037579e-20
-7.0817596e-21
-4.6472622e-22
-1.5122034e-23
1.1542874e-24
2.535288e-25
2.5154388e-26
1.6807644e-27
7.9533342e-29
2.5848995e-30
5.2090496e-32
4.9180515e-34
-1.03545e-05
1.1592798e-05
8.6463739e-06
-5.59923e-06
-8.8927463e-06
-1.0178927e-05
-1.9662139e-06
9.6041564e-06
6.1757278e-06
-2.3560286e-06
-4.8395483e-06
2.6965712e-05
3.3272367e-05
3.8134732e-06
-2.0217622e-05
-3.2439396e-05
-5.9467245e-05
-9.2561402e-05
-4.275454e-05
3.1727302e-05
6.2876763e-05
6.3390154e-05
4.4870205e-05
1.7810688e-05
2.9131448e-06
7.4752291e-08
-1.0110277e-08
-3.1881604e-10
-1.5820185e-12
-9.6445401e-14
-2.2784773e-14
-5.0144556e-15
-9.8760439e-16
-1.7186243e-16
-2.5999951e-17
-3.3241572e-18
-3.371823e-19
-2.1980646e-20
3.9768364e-22
3.9134745e-22
7.1403783e-23
8.7972157e-24
8.3130958e-25
6.1493171e-26
3.5283162e-27
1.5235406e-28
4.6691838e-30
9.0573782e-32
8.354879e-34
-8.1844915e-06
-7.2636185e-06
1.5650957e-05
1.1448399e-05
-5.2864433e-06
-1.2378935e-05
-1.1677748e-05
-5.1284401e-07
1.0589043e-05
5.7602472e-06
-2.9778463e-06
2.201004e-05
2.7796251e-05
-1.6105192e-06
-2.1674977e-05
-2.5614989e-05
-4.6386989e-05
-8.7285609e-05
-4.9868513e-05
3.6493832e-05
8.8456995e-05
9.9718973e-05
8.4130384e-05
4.4130262e-05
9.9634037e-06
9.9067281e-08
-1.4758285e-07
-7.6191045e-09
-6.3072151e-11
-4.7450744e-13
-8.2416343e-14
-1.8451175e-14
-3.7274624e-15
-6.5987208e-16
-9.8695458e-17
-1.1464446e-17
-7.3047888e-19
8.0700463e-20
3.8841045e-20
8.3605617e-21
1.3211775e-21
1.6723405e-22
1.7382178e-23
1.4859301e-24
1.0285463e-25
5.6344463e-27
2.3528478e-28
7.0360125e-30
1.3408668e-31
1.2219915e-33
1.6595563e-05
-1.1652584e-05
-3.6225859e-06
1.9379595e-05
1.3819806e-05
-5.2685355e-06
-1.5844633e-05
-1.2685597e-05
8.8037322e-07
1.139574e-05
5.2569141e-06
-3.405898e-06
2.2128581e-05
-7.1112381e-06
-2.2826184e-05
-1.815071e-05
-3.3271737e-05
-7.9059216e-05
-5.5502631e-05
3.6101424e-05
0.00010676111
0.00012449431
0.00011308804
7.1202072e-05
2.0287313e-05
-1.4033656e-06
-1.2804334e-06
-1.0897132e-07
-1.7907931e-09
-9.5784794e-12
-2.9119718e-13
-6.2373939e-14
-1.2642926e-14
-2.1950815e-15
-2.9606283e-16
-2.0352932e-17
3.9200393e-18
2.0309825e-18
5.3305786e-19
1.0605378e-19
1.7333696e-20
2.3852636e-21
2.7795948e-22
2.7343666e-23
2.2429858e-24
1.5047688e-25
8.0453001e-27
3.2960593e-28
9.7105317e-30
1.8295361e-31
1.6535366e-33
1.5994101e-05
1.0560085e-05
-1.3429982e-05
2.3184555e-07
2.2945478e-05
1.5934779e-05
-5.3784491e-06
-1.8806239e-05
-1.3287798e-05
2.2882968e-06
1.1737157e-05
4.9747428e-06
-3.3297324e-06
-1.2515046e-05
-2.3441831e-05
-1.0227393e-05
-2.0628325e-05
-6.8559442e-05
-5.938914e-05
3.2697949e-05
0.00011238486
0.00014115756
0.00011998481
8.0932262e-05
2.5583509e-05
-8.7171855e-06
-6.8089714e-06
-9.5566753e-07
-3.0281635e-08
-3.0556867e-10
-1.8708707e-12
-1.9599288e-13
-3.8275334e-14
-6.0455763e-15
-5.238254e-16
9.4848637e-17
6.4151728e-17
2.0773322e-17
5.1176352e-18
1.0482957e-18
1.8365921e-19
2.7767258e-20
3.6235519e-21
4.0620971e-22
3.8783576e-23
3.10304e-24
2.0399217e-25
1.0727143e-26
4.3360499e-28
1.2638281e-29
2.3615339e-31
1.3007216e-35
-1.7769021e-05
9.1217373e-06
3.8607432e-06
-1.388853e-05
4.2593156e-06
2.6306138e-05
1.7799289e-05
-5.9512067e-06
-2.0681646e-05
-1.3700835e-05
3.6905398e-06
1.2132685e-05
4.4496848e-06
-3.3372285e-06
-2.3345104e-05
-1.8404667e-06
-8.4410655e-06
-5.6894798e-05
-6.1541657e-05
2.7306231e-05
0.00011322124
0.0001421566
0.00011444796
7.008506e-05
1.9633944e-05
-2.3833334e-05
-2.2948534e-05
-5.2787744e-06
-3.1245239e-07
-6.2319281e-09
-4.5953809e-11
-6.6490884e-13
-1.0182381e-13
-1.1839538e-14
1.108337e-15
1.2939114e-15
5.2625794e-16
1.5921559e-16
4.0068503e-17
8.6935107e-18
1.6476661e-18
2.7363783e-19
3.9753388e-20
5.0274446e-21
5.4929231e-22
5.1339382e-23
4.0318541e-24
2.609746e-25
1.3549959e-26
5.4213483e-28
1.5676727e-29
2.1199875e-33
4.4073869e-38
-2.2110916e-05
-2.2354826e-05
1.2226544e-06
-3.2555441e-06
-1.3682085e-05
8.174151e-06
2.952865e-05
1.9429526e-05
-6.8244926e-06
-2.23299e-05
-1.3865725e-05
4.9027099e-06
1.1669283e-05
3.60666e-06
-3.2749587e-06
7.4182318e-06
3.6768376e-06
-4.5243325e-05
-6.1869876e-05
2.0796296e-05
0.00011069349
0.00014121594
0.00010848148
5.271032e-05
6.6044825e-06
-3.9751097e-05
-5.1289674e-05
-1.9019457e-05
-2.0355638e-06
-7.7104521e-08
-1.0827649e-09
-6.7988217e-12
-2.3640339e-13
-2.2749499e-15
1.6868432e-14
9.0125316e-15
3.3420859e-15
1.020681e-15
2.6928166e-16
6.2443007e-17
1.2810993e-17
2.3280132e-18
3.738029e-19
5.2799559e-20
6.5199323e-21
6.9830469e-22
6.4090741e-23
4.9570649e-24
3.1686863e-25
1.6288852e-26
6.4679447e-28
1.5973651e-31
8.5379926e-36
5.2263086e-41
1.668744e-05
-1.8156037e-05
-2.5874368e-05
-7.0016862e-06
-9.892123e-06
-1.2946912e-05
1.2072675e-05
3.255732e-05
2.0919779e-05
-8.0688307e-06
-2.3836345e-05
-1.4037501e-05
5.6022802e-06
1.0727951e-05
2.2342646e-06
-2.2865507e-06
1.6235751e-05
-3.4750314e-05
-6.0765543e-05
1.3669191e-05
0.00010631442
0.00013792499
0.00010231136
4.188455e-05
-8.1581434e-06
-4.7450011e-05
-8.0241762e-05
-4.6853927e-05
-8.6802814e-06
-5.9825219e-07
-1.5811459e-08
-1.6033594e-10
-9.1882136e-13
1.251619e-13
1.0618379e-13
4.905098e-14
1.8044259e-14
5.706015e-15
1.5911362e-15
3.9495792e-16
8.7510883e-17
1.7307104e-17
3.0486009e-18
4.7642336e-19
6.5715998e-20
7.9485509e-21
8.3665436e-22
7.559998e-23
5.7733192e-24
3.6539218e-25
1.8646294e-26
7.4811434e-30
7.4947143e-34
1.3155982e-38
1.269735e-44
2.8427708e-05
2.5580535e-05
-1.4277461e-05
-2.8967094e-05
-1.416195e-05
-1.6703509e-05
-1.2028918e-05
1.5770654e-05
3.5555301e-05
2.2005197e-05
-9.2875604e-06
-2.5083106e-05
-1.3475599e-05
6.1740221e-06
8.4427776e-06
1.696731e-06
-1.4312428e-06
-2.4705542e-05
-5.8597769e-05
6.0932311e-06
0.00010043681
0.00013375353
9.652379e-05
3.0101118e-05
-1.8628859e-05
-4.6084226e-05
-9.283982e-05
-8.4136452e-05
-2.5413794e-05
-3.018254e-06
-1.4359963e-07
-2.7107176e-09
-1.9302599e-11
7.6822202e-13
5.1258293e-13
2.2892769e-13
8.5983979e-14
2.8405803e-14
8.383808e-15
2.2224273e-15
5.2965727e-16
1.1336027e-16
2.1743948e-17
3.7262916e-18
5.6815559e-19
7.6676754e-20
9.098585e-21
9.4318211e-22
8.4094881e-23
6.3566636e-24
3.9942087e-25
2.4544318e-28
4.0645978e-32
1.397603e-36
6.3329452e-42
-4.993537e-48
-1.4893215e-05
3.9300148e-05
3.3885878e-05
-1.0202939e-05
-3.4180389e-05
-2.2516965e-05
-2.2614147e-05
-1.1061879e-05
1.9245462e-05
3.8358989e-05
2.2736291e-05
-1.0336907e-05
-2.5131248e-05
-1.203646e-05
6.2431324e-06
5.8726146e-06
1.0683913e-06
-7.4982311e-07
-5.7124493e-05
-1.941874e-06
9.2956445e-05
0.00012863804
8.9500005e-05
1.7170685e-05
-3.0574488e-05
-4.5897928e-05
-7.8027413e-05
-0.00011634159
-5.4308809e-05
-1.0388528e-05
-8.408474e-07
-2.8473209e-08
-3.8475182e-10
1.7070859e-12
2.1172589e-12
9.5143888e-13
3.68869e-13
1.2754474e-13
3.9761631e-14
1.1210177e-14
2.8579285e-15
6.5785344e-16
1.3642707e-16
2.5422543e-17
4.2428747e-18
6.3169098e-19
8.3492506e-20
9.7434794e-21
9.9539417e-22
8.7780931e-23
6.5863969e-24
6.0088669e-27
1.5433602e-30
8.9745711e-35
8.8393296e-40
6.2550159e-46
-2.7651646e-51
-5.5918049e-05
-5.0154957e-06
4.8910968e-05
4.2132611e-05
-6.517569e-06
-3.8473955e-05
-3.1093057e-05
-2.7648695e-05
-1.0767065e-05
2.24981e-05
4.0732094e-05
2.2595519e-05
-1.1479897e-05
-2.3869597e-05
-9.1919357e-06
4.0952062e-06
3.5292679e-06
4.4367166e-07
-3.0270323e-07
-9.642248e-06
8.295973e-05
0.00012185994
8.1074656e-05
2.4111398e-06
-4.4552058e-05
-4.962767e-05
-6.3200195e-05
-0.00011524122
-9.0265659e-05
-2.583356e-05
-3.3349467e-06
-1.9103889e-07
-4.6817411e-09
-3.2497487e-11
7.6886966e-12
3.5938333e-12
1.4430782e-12
5.2131863e-13
1.7095214e-13
5.098803e-14
1.3819816e-14
3.397548e-15
7.5598727e-16
1.5190189e-16
2.7488488e-17
4.4659725e-18
6.491138e-19
8.404435e-20
9.6573609e-21
9.7427563e-22
8.5219675e-23
1.1394964e-25
4.381751e-29
4.009898e-33
6.8860798e-38
1.861369e-43
-1.9274638e-49
-5.9187949e-55
-1.7044866e-05
-5.3753789e-05
4.6039591e-06
5.7600385e-05
4.9803533e-05
-2.968614e-06
-4.2578134e-05
-3.9774712e-05
-3.2899124e-05
-1.0753414e-05
2.541485e-05
4.2011621e-05
2.1138238e-05
-1.1771091e-05
-2.0420673e-05
-6.5322148e-06
2.6766419e-06
1.6620352e-06
1.1335594e-07
-8.4287574e-08
7.1125057e-05
0.00011276011
7.1724804e-05
-1.4261398e-05
-6.2961398e-05
-5.3423706e-05
-4.8262981e-05
-9.9325994e-05
-0.00012249739
-4.964799e-05
-9.472059e-06
-8.6144837e-07
-3.5806312e-08
-6.002642e-10
2.2176627e-11
1.2536929e-11
5.2005919e-12
1.954733e-12
6.7047025e-13
2.1019361e-13
6.0149411e-14
1.5674923e-14
3.7112252e-15
7.9659005e-16
1.5470595e-16
2.7122172e-17
4.2804975e-18
6.0632589e-19
7.6815007e-20
8.7033905e-21
8.6905233e-22
1.7115351e-24
9.6712738e-28
1.3393983e-31
3.6496657e-36
1.8732506e-41
8.8672693e-48
-6.5624132e-53
-7.9197545e-59
5.8466694e-05
-2.486911e-05
-4.9260214e-05
1.3788578e-05
6.5631049e-05
5.6971978e-05
7.4195688e-07
-4.6001514e-05
-4.8209336e-05
-3.8158462e-05
-1.0510926e-05
2.8989282e-05
4.2303088e-05
1.8022359e-05
-1.0600589e-05
-1.4745579e-05
-3.9288403e-06
1.4674676e-06
5.6402591e-07
1.3724034e-08
-1.6216756e-08
0.0001009013
6.0449919e-05
-3.2507913e-05
-8.2324962e-05
-5.8687218e-05
-3.5249576e-05
-7.266205e-05
-0.00013586763
-8.4325456e-05
-2.0615902e-05
-2.7584912e-06
-1.8195786e-07
-5.4530986e-09
1.2237706e-11
4.1038591e-11
1.7571512e-11
6.7811144e-12
2.4133991e-12
7.8924861e-13
2.3654641e-13
6.4786446e-14
1.6169047e-14
3.6683818e-15
7.551726e-16
1.4086302e-16
2.3771229e-17
3.6225233e-18
4.9738174e-19
6.1591841e-20
6.8667613e-21
2.0586382e-23
1.7000544e-26
3.4867043e-30
1.4390902e-34
1.1751616e-39
2.0901033e-45
-2.443834e-51
-1.0130505e-56
-7.6821552e-63
8.6026899e-05
4.3762706e-05
-3.1346504e-05
-4.2590612e-05
2.27979e-05
7.2966929e-05
6.3394449e-05
4.832414e-06
-4.8357072e-05
-5.5883412e-05
-4.3235125e-05
-1.021636e-05
3.2321902e-05
3.8829856e-05
1.3532397e-05
-7.8027225e-06
-8.9201418e-06
-1.6402578e-06
5.7881288e-07
1.3354565e-07
-4.2251197e-10
-1.9811887e-09
4.7148018e-05
-5.0919727e-05
-0.00010085847
-6.3598924e-05
-2.2397662e-05
-4.3491553e-05
-0.00012794129
-0.00011730278
-4.3693906e-05
-6.6751688e-06
-6.4802464e-07
-3.1000874e-08
-4.1429259e-10
1.2778376e-10
5.7316881e-11
2.2470701e-11
8.0703355e-12
2.7132533e-12
8.43667e-13
2.4038344e-13
6.252066e-14
1.4794092e-14
3.1770586e-15
6.1814118e-16
1.0887524e-16
1.7354546e-17
2.5044262e-18
3.2710821e-19
3.9125131e-20
1.9802615e-22
2.4138586e-25
7.2587275e-29
4.4305873e-33
5.3636297e-38
1.6611382e-43
5.3416994e-50
-5.6663468e-55
-1.0515239e-60
-6.5433626e-67
3.1237557e-05
6.8420062e-05
2.8470646e-05
-3.4925717e-05
-3.4655292e-05
3.1394915e-05
7.9647397e-05
6.9008475e-05
8.6498869e-06
-4.9478007e-05
-6.2390831e-05
-4.8507261e-05
-7.8963673e-06
3.3053943e-05
3.2034103e-05
8.5744511e-06
-4.8338923e-06
-4.1181044e-06
-4.5344463e-07
1.545635e-07
2.3037356e-08
-3.1589957e-10
-1.6309628e-10
-6.7483525e-05
-0.0001161648
-6.6056471e-05
-8.1910919e-06
-1.4304804e-05
-9.5491766e-05
-0.00014253665
-7.3362174e-05
-1.7625719e-05
-1.6898697e-06
-1.1266817e-07
-1.6716456e-09
5.6030864e-10
1.9669182e-10
7.3736661e-11
2.6847994e-11
8.8081292e-12
2.7390712e-12
8.0156831e-13
2.1400598e-13
5.1819663e-14
1.132167e-14
2.2205723e-15
3.8903783e-16
6.0604452e-17
8.3625155e-18
1.0220318e-18
1.1157292e-19
1.4898372e-21
2.7829772e-24
1.2279753e-27
1.096012e-31
1.9072157e-36
8.6975028e-42
1.144623e-47
-1.4752168e-53
-6.689101e-59
-9.3388156e-65
-5.3284318e-71
-8.0871725e-05
1.3333893e-05
4.8629191e-05
1.3562703e-05
-3.7082274e-05
-2.6094982e-05
3.9863417e-05
8.5559053e-05
7.3623646e-05
1.2032082e-05
-4.8943609e-05
-6.8351548e-05
-4.9227354e-05
-3.1836109e-06
2.9869117e-05
2.183176e-05
4.0286012e-06
-2.3800001e-06
-1.3480689e-06
-8.0861799e-08
2.7336531e-08
2.5528238e-09
-4.2231505e-11
-9.2083394e-12
-0.00012604471
-6.4546361e-05
8.2296643e-06
1.6627471e-05
-5.998929e-05
-0.00015086778
-0.00010747873
-3.5177911e-05
-5.4840196e-06
-1.9989967e-07
2.8338069e-08
8.8642689e-09
1.4608416e-09
2.9893448e-10
8.9656205e-11
2.8198357e-11
8.3854195e-12
2.4012566e-12
6.4369444e-13
1.5454074e-13
3.2688177e-14
5.9346123e-15
8.7720266e-16
9.0476553e-17
1.2663009e-18
-2.1951254e-18
-6.5870416e-19
8.0910342e-21
2.5895423e-23
1.7026026e-26
2.2172235e-30
5.4798784e-35
3.4544992e-40
7.5372943e-46
1.6214063e-52
-2.4996117e-57
-6.3287913e-63
-7.8453759e-69
-4.1655748e-75
-0.0001282324
-9.0696443e-05
-5.5228425e-06
2.8207684e-05
-1.6930873e-08
-3.7973571e-05
-1.7628356e-05
4.7744004e-05
9.1036514e-05
7.6784555e-05