/*--------------------------------*- C++ -*----------------------------------*\
| =========                 |                                                 |
| \\      /  F ield         | OpenFOAM: The Open Source CFD Toolbox           |
|  \\    /   O peration     | Version:  5.0                                   |
|   \\  /    A nd           | Web:      www.OpenFOAM.org                      |
|    \\/     M anipulation  |                                                 |
\*---------------------------------------------------------------------------*/
FoamFile
{
    version     2.0;
    format      ascii;
    class       surfaceScalarField;
    location    "280";
    object      ddtCorrDdt0(phi);
}
// * * * * * * * * * * * * * * * * * * * * * * * * * * * * * * * * * * * * * //

dimensions      [0 3 -2 0 0 0 0];

internalField   nonuniform List<scalar> 
18820
(
1.4688414e-06
0.00033948469
2.1063347e-06
0.0003148007
3.1527455e-06
0.00033632951
2.0686118e-06
0.00028888185
5.7913112e-06
0.00031214358
-4.0475722e-06
0.00034036653
1.3759983e-06
0.0002621585
7.7338606e-06
0.00028692342
-7.0538811e-06
0.00031511886
-1.5938039e-05
0.00035628702
2.2822848e-07
0.00023510794
8.1590992e-06
0.00026171835
-9.5245344e-06
0.0002893677
-2.9898681e-05
0.00032903907
-2.1850978e-05
0.00037811496
-1.0866127e-06
0.00020848383
6.6825906e-06
0.00023657104
-1.2328171e-05
0.00026449781
-4.2409689e-05
0.00030184437
-4.2506185e-05
0.00034964732
-1.9293704e-05
0.00039738173
-2.7312863e-06
0.00018264344
3.7609564e-06
0.00021139407
-1.6276826e-05
0.0002404985
-5.3656291e-05
0.0002757133
-6.217693e-05
0.0003214752
-3.9022866e-05
0.00036932593
-1.0557478e-05
0.00040791005
-5.5191037e-06
0.00015772227
-5.1146535e-07
0.00018690666
-2.1522346e-05
0.00021662202
-6.4269039e-05
0.00025108441
-8.0251706e-05
0.00029375229
-5.9240651e-05
0.00034165001
-2.2471307e-05
0.00038118863
-3.0619534e-06
0.00041094245
-1.1650924e-05
0.0001339906
-6.8357933e-06
0.00016403942
-2.8039994e-05
0.00019341051
-7.5184455e-05
0.00022751577
-9.6697281e-05
0.00026749969
-7.9102161e-05
0.00031357566
-3.5791857e-05
0.00035492711
-6.979036e-06
0.00038505682
-2.3135951e-06
0.00041322772
-2.5473166e-05
0.00011176344
-1.7707764e-05
0.00014485694
-3.5806414e-05
0.00017179539
-8.6822096e-05
0.00020503174
-0.00011253841
0.00024333307
-9.8109262e-05
0.00028647504
-5.0677077e-05
0.00032842272
-1.1637579e-05
0.00035954426
-4.2735032e-06
0.00038697265
-8.2048486e-06
0.00042140712
-5.4722289e-05
9.182982e-05
-3.8710179e-05
0.00013276102
-4.4403434e-05
0.00015344592
-9.8579531e-05
0.00018354095
-0.00012834071
0.00022081672
-0.0001168574
0.0002620568
-6.6449089e-05
0.00030221569
-1.8414347e-05
0.00033516341
-5.9395074e-06
0.00036117305
-1.4878023e-05
0.00039360854
-1.675596e-05
0.00043814161
-0.00010634777
8.1051626e-05
-8.203784e-05
0.00013515279
-5.2794901e-05
0.00014114576
-0.00010717537
0.00016203309
-0.00014379334
0.00019898174
-0.00013603781
0.0002399797
-8.2687963e-05
0.00027827169
-2.7382844e-05
0.00031115453
-8.1363957e-06
0.00033732799
-2.0964352e-05
0.00036722805
-3.1363162e-05
0.00040818648
-2.2947507e-05
0.00046107245
-0.00018993689
9.8615865e-05
-0.000157655
0.00015666393
-5.568434e-05
0.00013803614
-0.00010631621
0.00014027976
-0.00015750794
0.00017573978
-0.0001566956
0.00021962764
-9.9601519e-05
0.0002568759
-3.6757064e-05
0.0002876226
-1.178379e-05
0.00031477492
-2.6440345e-05
0.00034277661
-4.5106487e-05
0.00038094684
-4.4184798e-05
0.00042940291
-2.3683642e-05
0.00048474436
-0.00029687014
0.00010916496
-0.00023040545
0.0001713615
-3.1709806e-05
0.00013268384
-8.0196219e-05
0.0001119103
-0.00016380537
0.0001465718
-0.00018067228
0.00019970825
-0.00011865261
0.00023866615
-4.5553503e-05
0.00026565385
-1.5696877e-05
0.000291513
-3.1438008e-05
0.00031974859
-5.8175329e-05
0.00035582351
-6.4234309e-05
0.00040097889
-4.69241e-05
0.00045263053
-1.8835777e-05
0.00050357317
-0.00043857234
0.00013852111
-0.00028660312
0.00016535838
4.4551526e-05
9.5095532e-05
-9.9523618e-06
6.2435225e-05
-0.00015561338
0.00010371468
-0.00021168607
0.00017757952
-0.00014401464
0.00022506047
-5.363705e-05
0.00024673378
-1.8105089e-05
0.00026804158
-3.6341753e-05
0.00029639427
-7.0313094e-05
0.00033186546
-8.3497835e-05
0.00037507043
-6.9236923e-05
0.00042328068
-3.8554735e-05
0.00047234357
-1.0602956e-05
0.00051417325
-0.00062369107
0.00018288729
-0.00031722892
0.00016914372
0.00014529792
6.4608506e-05
8.940537e-05
-4.2653599e-06
-0.00014137405
4.8193849e-05
-0.00026327144
0.00015529556
-0.00018624525
0.00021980172
-6.2052179e-05
0.00023346046
-1.6678571e-05
0.00024528667
-4.0652512e-05
0.00027232882
-8.2534071e-05
0.00030859282
-0.00010232199
0.0003506716
-9.0516537e-05
0.00039633811
-5.8811089e-05
0.00044353152
-2.2753975e-05
0.00048449416
-2.2718694e-06
0.00051644552
-0.00085480467
0.00024273113
-0.00032172026
0.00018737646
0.00028882225
2.5616591e-05
0.00021422242
-6.0209836e-05
-0.0001484541
2.8138399e-06
-0.00035639353
0.00014131305
-0.00025909719
0.00022814004
-7.144024e-05
0.00022917478
-7.184514e-06
0.00022394451
-4.2271712e-05
0.00024687963
-9.5611749e-05
0.00028538022
-0.00012155964
0.00032780825
-0.00011173667
0.00037187609
-7.8480049e-05
0.00041599885
-3.7365816e-05
0.00045814184
-6.025762e-06
0.00048825131
3.1536054e-06
0.00051329457
-0.0011513415
0.00031663084
-0.00030769324
0.00022870222
0.00047569048
5.0461228e-07
0.00038634882
-0.00014651007
-0.00018333484
-2.5329807e-05
-0.00049563675
0.00014205557
-0.00037726191
0.00025947111
-8.1855839e-05
0.00023854121
1.8182964e-05
0.00020378462
-3.7092768e-05
0.00021873686
-0.00010970369
0.00026094087
-0.0001423722
0.00030616486
-0.00013358245
0.00034963223
-9.8096463e-05
0.00039147883
-5.3372895e-05
0.00043200019
-1.2591458e-05
0.00046470868
5.178493e-06
0.00048623178
4.2594012e-06
0.00050903915
-0.0015581023
0.00044874684
-0.00029097166
0.00029990621
0.00074992767
-4.5541484e-05
0.00065158028
-0.00026472799
-0.00026562297
-6.4224392e-05
-0.00067326967
0.00015230183
-0.00054923147
0.00031401884
-8.8958631e-05
0.00026656064
7.0201205e-05
0.00018650114
-1.9384619e-05
0.0001860476
-0.00012464228
0.00023364255
-0.00016641968
0.0002849561
-0.00015737664
0.00032993111
-0.00011871863
0.0003702337
-6.9671357e-05
0.00040776503
-2.3054786e-05
0.00044245916
6.2429468e-06
0.00046364658
7.7055846e-06
0.0004827914
1.7194735e-06
0.00050732412
-0.0020438805
0.00052753733
-0.00025799181
0.00041576125
0.0011527676
-0.00010294495
0.0010231557
-0.00041712138
-0.00037751598
-0.00015284092
-0.00092595167
0.00018845471
-0.00078896823
0.00039203189
-9.0865024e-05
0.00031591307
0.00016505014
0.00017169246
2.1214008e-05
0.00014587644
-0.00013971116
0.00020108572
-0.00019583199
0.00026302277
-0.00018506637
0.00031261532
-0.00014093706
0.00035212356
-8.6705411e-05
0.00038724857
-3.5297929e-05
0.00041999695
3.8840745e-06
0.00044481411
1.1406336e-05
0.00045994839
3.1315764e-06
0.00048138452
-2.4754977e-06
0.00050980389
-0.0026748122
0.00071337072
-0.00025478449
0.00052432039
0.0017733388
-0.00020482658
0.0015423659
-0.00062216467
-0.00052634996
-0.00026829738
-0.0013258384
0.00024703996
-0.0011000908
0.00049956996
-7.1149343e-05
0.00037230464
0.0003177138
0.00016323366
9.9447098e-05
9.3438317e-05
-0.00015257086
0.00015871185
-0.00023288626
0.00023811383
-0.00022007896
0.00029800873
-0.00016607428
0.000337727
-0.00010396409
0.00036935989
-4.737956e-05
0.00039931295
-2.2295999e-06
0.00042610011
1.4409677e-05
0.00044180651
4.4026537e-06
0.00045867925
-4.4392236e-06
0.00048335184
-6.2727195e-06
0.00051608038
-0.0033650295
0.00074697182
-0.0002090025
0.00066757496
0.0025590761
-0.00026143856
0.0022310521
-0.00089352734
-0.00072581517
-0.00042271215
-0.0019301654
0.00033602158
-0.0015316978
0.0006786401
-3.237674e-05
0.00046078664
0.00056205521
0.00012795148
0.00024318994
1.9475583e-05
-0.00015828812
9.9140233e-05
-0.00027948794
0.00020529774
-0.00026807426
0.00028609291
-0.00019696163
0.00032887845
-0.00012121717
0.00035496165
-5.8005115e-05
0.00037996748
-9.0575008e-06
0.00040612583
1.520951e-05
0.00042529036
5.6965306e-06
0.0004405075
-7.7289571e-06
0.00046196997
-1.1299924e-05
0.00048838081
-8.4015676e-06
0.00052448508
-0.004280716
0.0010728725
-0.00023251503
0.00077046696
0.0036097168
-0.00038309074
0.0031638439
-0.0011942482
-0.0010103708
-0.00060898435
-0.0027905341
0.00043764897
-0.0021311484
0.00093546852
5.7907005e-05
0.00058834843
0.00094175699
8.1077726e-05
0.00046600027
-9.4868279e-05
-0.0001373933
-1.4258379e-06
-0.00033677241
0.00015642038
-0.00033938073
0.00027660159
-0.00023933543
0.00032846279
-0.00013853783
0.00034619205
-6.5419666e-05
0.0003623651
-1.3971678e-05
0.00038486839
1.5076094e-05
0.00040624633
5.6319306e-06
0.00042534528
-1.141915e-05
0.00044419139
-1.8250841e-05
0.00046892089
-1.5627045e-05
0.00049560587
-8.4957713e-06
0.00053298359
-0.0051210162
0.0012727813
-8.7571482e-05
0.00092790904
0.0047553403
-0.00037518313
0.0044309881
-0.0016502537
-0.0013681928
-0.00083643583
-0.0039900209
0.00059049904
-0.0029813222
0.0012878252
0.00022357792
0.00076979558
0.0015134199
1.6683928e-05
0.00082311548
-0.00027604098
-9.989181e-05
-0.00013236962
-0.00042006579
8.1872707e-05
-0.00045246837
0.00026951743
-0.00030448981
0.00034176641
-0.00015707782
0.00034701055
-6.6467943e-05
0.00034724222
-1.3807693e-05
0.00036219662
1.5151589e-05
0.00038478367
3.8364429e-06
0.00040803053
-1.5787539e-05
0.00042970422
-2.6770254e-05
0.00045270328
-2.4083803e-05
0.00047737703
-1.7013084e-05
0.00050412101
-6.6986999e-06
0.00053968487
-0.0062328841
0.001436591
0.0002729423
0.00091224629
0.0064005979
-0.00071737491
0.0060819109
-0.0020261233
-0.0019154669
-0.0011029842
-0.0056009623
0.00077450913
-0.0041316502
0.0017408372
0.00049729047
0.0010141189
0.0023438911
-6.06715e-05
0.0013587216
-0.00051891973
-6.8931909e-05
-0.00030699648
-0.00056678958
1.4365139e-05
-0.00064272651
0.00027214706
-0.00041155726
0.00037660505
-0.00017951254
0.00036422084
-5.6484617e-05
0.00033704245
-3.9298512e-06
0.00033737235
1.8005289e-05
0.000359343
9.128198e-07
0.00038770089
-2.2769777e-05
0.0004150026
-3.5734595e-05
0.00043865917
-3.5275732e-05
0.00046388657
-2.5583618e-05
0.00048594696
-1.5052423e-05
0.00051247081
-3.2387442e-06
0.00054292662
-0.0073964389
0.0015307511
0.00046845762
0.0012410539
0.0083011988
-0.00098837954
0.0078841609
-0.00251964
-0.0025753773
-0.0013662121
-0.0078274078
0.0011234719
-0.0056352656
0.0022781415
0.00093017673
0.0013079649
0.0035139418
-0.00015592316
0.0021324872
-0.00083442996
-1.9429798e-05
-0.00056841568
-0.00084401376
-2.9759284e-05
-0.00092622625
0.00029788199
-0.00058970947
0.00045032176
-0.00021027215
0.00040738838
-2.7443712e-05
0.0003352022
2.3703839e-05
0.00030942604
2.736823e-05
0.00032801972
-2.5286938e-06
0.00036278645
-3.2666471e-05
0.0003975926
-4.728205e-05
0.00042654036
-4.7935494e-05
0.00045130985
-3.6608578e-05
0.00047490215
-2.3351295e-05
0.00049424598
-8.9502065e-06
0.00051817716
1.6079061e-06
0.0005413225
-0.0087634437
0.0023969379
0.00053464963
0.0014645373
0.010742124
-0.0011998947
0.0098792324
-0.0029834637
-0.0035837842
-0.0015112282
-0.010541465
0.001347861
-0.0074395636
0.0029277909
0.001519843
0.0016884936
0.0050941287
-0.00027221199
0.0032228724
-0.0012462999
7.2295032e-05
-0.00092614924
-0.0012998989
-0.0001125189
-0.0013219144
0.0003659431
-0.00085703622
0.00056522713
-0.00025291842
0.00049298745
3.3384057e-05
0.00034658006
8.134177e-05
0.00027758203
4.9100804e-05
0.00028770802
-4.9982089e-06
0.00033049799
-4.594386e-05
0.00037606544
-6.2669681e-05
0.00041297551
-6.2536757e-05
0.00044113208
-5.0507161e-05
0.0004651999
-3.216367e-05
0.00048370471
-1.572046e-05
0.00050101797
1.1531313e-06
0.00051862555
7.1721888e-06
0.00053415548
-0.0096775745
0.0025870104
0.0015977863
0.0013337797
0.013475607
-0.0012689662
0.012204365
-0.0035250386
-0.0048140187
-0.0017532217
-0.013877057
0.0018243818
-0.0097651891
0.0036735075
0.0023368746
0.0021107772
0.0071966
-0.00041397005
0.0047127695
-0.001762104
0.00022430646
-0.0013983084
-0.0019704457
-0.00025559503
-0.001918775
0.00048435176
-0.0012224139
0.00073133189
-0.0003091699
0.00062148923
0.00014765999
0.00037872056
0.00018594575
0.00024198484
9.3108069e-05
0.00023358374
-3.6752632e-06
0.0002863929
-6.3245861e-05
0.0003478048
-8.3330382e-05
0.00039672581
-8.090372e-05
0.00043133728
-6.6138066e-05
0.00045675351
-4.3800505e-05
0.00047682925
-2.1813804e-05
0.0004897882
-1.7208632e-06
0.00050389601
1.2818183e-05
0.0005129722
1.2301208e-05
0.00052186111
-0.010310074
0.0024387187
0.0034527066
0.00073206905
0.017245411
-0.0024360428
0.014945093
-0.0040097032
-0.0060705409
-0.0022685081
-0.017972997
0.002342737
-0.01247507
0.0045342818
0.0033426766
0.0026677199
0.0099154029
-0.00060802254
0.0067182732
-0.002419475
0.00045664373
-0.0019944419
-0.0029080291
-0.00046072341
-0.0028281671
0.00065380391
-0.0017377597
0.00099970167
-0.00037564224
0.00079780682
0.00033118222
0.0004379637
0.00036753345
0.00019712823
0.00017570228
0.00015938637
5.9240042e-06
0.00022398275
-8.5812342e-05
0.00030895946
-0.00011158849
0.00037606289
-0.00010501364
0.0004208329
-8.5223742e-05
0.00045041736
-5.8179154e-05
0.00047112288
-3.0003193e-05
0.00048501259
-5.9076546e-06
0.00049396525
1.4753907e-05
0.0005019673
2.3015055e-05
0.00050224965
1.6045906e-05
0.00050582413
-0.010657595
0.0023054432
0.0053786075
0.00051279736
0.02157037
-0.0035929063
0.017104464
-0.0045954217
-0.0077164294
-0.0023638069
-0.023019592
0.0027781051
-0.01560877
0.005476452
0.0047258335
0.0031511351
0.013424776
-0.00084165439
0.0093360903
-0.0032258469
0.00077884365
-0.0027416785
-0.0041709661
-0.00073150844
-0.0041669447
0.00087805911
-0.0024765174
0.0013925611
-0.00045047596
0.0010745334
0.00061089794
0.0005180793
0.0006640285
0.0001414532
0.0003183322
5.4480486e-05
3.1129391e-05
0.00013416581
-0.00011536816
0.00025352767
-0.0001514537
0.00034881812
-0.00013804627
0.00040909123
-0.00010958423
0.00044518864
-7.6261026e-05
0.00046849349
-4.2527031e-05
0.00048363784
-1.1882463e-05
0.0004909833
1.3333861e-05
0.00049537574
3.0538843e-05
0.00049445397
3.0079432e-05
0.000488206
1.8244349e-05
0.00048759094
-0.010927827
0.002620835
0.0074410127
0.0002430188
0.026169931
-0.0040867787
0.018431583
-0.0049200327
-0.0099201246
-0.00239172
-0.027862073
0.0024786916
-0.019288874
0.0064582223
0.0065661368
0.0036361563
0.017807109
-0.0012312009
0.012705958
-0.004211532
0.0011830673
-0.0036300749
-0.0058287286
-0.0010839211
-0.006065259
0.00116681
-0.0035366434
0.0019381834
-0.00053582734
0.0014779088
0.0010502425
0.00063517438
0.0011114319
7.0655895e-05
0.00055505039
-9.5289923e-05
8.123577e-05
4.3494466e-06
-0.00015472572
0.00017350177
-0.00020974205
0.00031179991
-0.00018530532
0.00039606655
-0.00014258388
0.00044208422
-9.9507035e-05
0.00046842896
-5.8821094e-05
0.00048478217
-2.0793563e-05
0.00049254068
1.0888305e-05
0.00049342687
3.397441e-05
0.00049193059
4.2259125e-05
0.00048228857
3.4458792e-05
0.00047197935
1.9090419e-05
0.00046851419
-0.011065498
0.0026714237
0.0095892192
0.0004726098
0.030906023
-0.0044930867
0.018957358
-0.0046125592
-0.012840894
-0.0019992578
-0.033590087
0.0033363106
-0.024125825
0.0073156537
0.0086351724
0.004389193
0.023123054
-0.0016797908
0.016864954
-0.0053902067
0.0016585809
-0.0046870492
-0.0079516615
-0.0015071454
-0.0086778766
0.0015287001
-0.0050255468
0.0026557129
-0.00063734108
0.002039692
0.0017184305
0.00080970764
0.0017802718
-3.3684943e-05
0.00092764304
-0.0003019604
0.00015773292
-0.00017181263
-0.00021039206
5.9990938e-05
-0.00029936264
0.0002631004
-0.00025797513
0.00038445285
-0.00019117795
0.00044464899
-0.00013041818
0.00047298823
-7.8700088e-05
0.0004883021
-3.2281532e-05
0.00049626559
6.6120836e-06
0.00049680924
3.5213322e-05
0.00049218831
5.0839854e-05
0.0004833401
4.9037437e-05
0.00046772826
3.6337598e-05
0.00045471757
1.8806492e-05
0.00044972394
-0.011069132
0.0025889917
0.011789042
0.00047158107
0.036208306
-0.0048296865
0.018562482
-0.0040982146
-0.016367466
-0.0010859833
-0.041497526
0.0059081963
-0.029669424
0.0088799205
0.0097909374
0.0061598941
0.029458032
-0.0019457868
0.021925507
-0.0067403512
0.0020949877
-0.0058266161
-0.010601523
-0.0020371882
-0.012166428
0.0019814086
-0.0070844893
0.0035876435
-0.00076014367
0.0027785081
0.002701066
0.0010570456
0.0027684653
-0.0001785032
0.0014836411
-0.00058970024
0.00028911926
-0.00043336565
-0.00030290096
-7.9322286e-05
-0.00044780169
0.00020841077
-0.00037401638
0.00037912433
-0.00026456062
0.0004578211
-0.00017238639
0.0004866072
-0.00010271244
0.00049699413
-4.5683522e-05
0.00050169868
4.7536877e-07
0.00050239884
3.3998926e-05
0.00049801635
5.5615422e-05
0.00048741549
6.1111971e-05
0.00047125517
5.2490399e-05
0.00045159797
3.5974693e-05
0.00043753164
1.7730809e-05
0.00043201215
-0.010982483
0.0024382625
0.013931459
0.00044655582
0.041811502
-0.0051316285
0.018128517
-0.004395727
-0.019983316
-0.00048236199
-0.0495561
0.0069726028
-0.033647222
0.0098860045
0.011805454
0.0068654082
0.037441822
-0.0018238963
0.028047468
-0.0080677537
0.0023775004
-0.0070228668
-0.01384265
-0.0025854891
-0.016739738
0.0025361222
-0.0098532071
0.004750126
-0.00091026219
0.0037377521
0.0040927973
0.0013867664
0.0041935514
-0.00036805586
0.0022959902
-0.00099086257
0.0004913172
-0.00079190716
-0.00043538765
-0.00030088548
-0.00065666214
0.00012952982
-0.00054392046
0.00037830508
-0.00037223963
0.00048679196
-0.00022918136
0.00051460585
-0.00013131524
0.00051520213
-6.0153267e-05
0.00051145835
-6.6551042e-06
0.00050882428
3.1798816e-05
0.00050459627
5.6669487e-05
0.00049695513
6.9717156e-05
0.00047881563
6.613571e-05
0.00045759833
5.2571875e-05
0.0004350275
3.439259e-05
0.00042084872
1.6346987e-05
0.00041568698
-0.010821106
0.0021800017
0.015929705
0.00043999928
0.047457835
-0.0051997899
0.017427168
-0.0044302849
-0.022745765
-0.0016332763
-0.057382726
0.0073442742
-0.035686701
0.0090120922
0.016787075
0.0049043898
0.046704139
-0.0023969078
0.035925127
-0.0097015606
0.0026327635
-0.0083230206
-0.017697803
-0.0031677173
-0.022579641
0.0032544114
-0.013513861
0.0061967723
-0.0010765299
0.0049163828
0.0060221246
0.0018084134
0.0061983189
-0.00061801314
0.0034048235
-0.0014768936
0.00076901324
-0.0012685571
-0.00060849149
-0.00061879694
-0.00097873986
2.1198154e-05
-0.00077528791
0.00036090012
-0.00052825431
0.00053431712
-0.00030741727
0.00056502174
-0.00016460438
0.00054788769
-7.3735494e-05
0.00052877758
-1.338535e-05
0.00051818368
2.9245388e-05
0.00051137264
5.8669718e-05
0.00050259382
7.5786078e-05
0.00049087902
7.625855e-05
0.00046870047
6.7062841e-05
0.00044309404
5.0302334e-05
0.0004191488
3.2822776e-05
0.00040434784
1.480654e-05
0.00040090517
-0.010630559
0.0018372063
0.017725252
0.00038443799
0.052937164
-0.0050393436
0.016536406
-0.0043090336
-0.025521181
-0.0016548668
-0.065360545
0.0063445538
-0.03679192
0.0084495031
0.021926039
0.0038731369
0.055552548
-0.0039440157
0.044832938
-0.011304723
0.0028183742
-0.009887175
-0.022329897
-0.0036909319
-0.029967038
0.0042196759
-0.018233283
0.0079738265
-0.0012443473
0.0063645804
0.0086177516
0.0023207448
0.0089532926
-0.00094656575
0.0049488897
-0.0021620772
0.0012457122
-0.0019535796
-0.000834915
-0.0010421154
-0.00145247
-0.00014504663
-0.0011418927
0.00038781881
-0.00077027134
0.0006029255
-0.00042129908
0.00064819951
-0.00020410716
0.00060451988
-8.3647447e-05
0.00055779232
-1.43487e-05
0.00052973372
2.9117763e-05
0.00051830553
5.8648715e-05
0.0005113873
7.7647784e-05
0.00050073032
8.3722386e-05
0.00048340748
7.7537103e-05
0.00045823595
6.4881174e-05
0.00042849965
4.7390943e-05
0.00040461616
2.943745e-05
0.00038968767
1.3239515e-05
0.00038769323
-0.010429416
0.0014253299
0.019239312
0.00032313151
0.057991845
-0.0046702563
0.015630716
-0.0041336606
-0.028265213
-0.0015649996
-0.073626856
0.0066114566
-0.039179281
0.008731928
0.02689043
0.0034851248
0.064532584
-0.005106893
0.053467823
-0.012578901
0.0036456701
-0.01213202
-0.027339725
-0.0048773511
-0.038907162
0.0052491899
-0.024135892
0.01012228
-0.0012802517
0.0080097259
0.012045877
0.0029364487
0.012644432
-0.0013703922
0.0070231305
-0.0030207954
0.0018555037
-0.0027718437
-0.0011644969
-0.0016239679
-0.0021159835
-0.00037856896
-0.0017280963
0.00044118444
-0.0011103209
0.00072788678
-0.00059892618
0.00078056004
-0.00025272497
0.0006968155
-8.4527499e-05
0.00060539222
-4.0726585e-06
0.00054750623
3.6306054e-05
0.00052253571
6.1779933e-05
0.00051516599
7.9780576e-05
0.00050924648
8.8319159e-05
0.00049613197
8.6659746e-05
0.00047427578
7.9125022e-05
0.00044400356
6.050249e-05
0.00041537005
4.2930831e-05
0.00039116295
2.6298304e-05
0.0003765951
1.1887269e-05
0.00037583635
-0.010220803
0.0010276984
0.020463566
0.0002010617
0.062384604
-0.0040696419
0.014747727
-0.0037872734
-0.030903164
-0.0014957079
-0.081982829
0.0067909872
-0.041347616
0.0087798058
0.02900263
0.0066197391
0.074126739
-0.006109023
0.061782018
-0.01342109
0.0038316527
-0.012764883
-0.032816252
-0.0066554943
-0.049371165
0.0055866523
-0.031036907
0.012150207
-0.00095428239
0.009796311
0.016481703
0.0035739018
0.017497567
-0.0019166773
0.0097239565
-0.0040711979
0.0026387764
-0.0038040352
-0.0015879535
-0.0023483472
-0.0030667965
-0.00067311244
-0.0026012524
0.00049462411
-0.0016136631
0.00094455316
-0.00084384328
0.00097281749
-0.00031949755
0.00084733354
-6.8046877e-05
0.00068032661
2.7693098e-05
0.00057361302
5.9191737e-05
0.00052460587
7.2206348e-05
0.00051209506
8.3597414e-05
0.00051133761
9.12981e-05
0.00050625773
9.208342e-05
0.00049070619
8.5858429e-05
0.00046753097
7.4905852e-05
0.00042961344
5.5177801e-05
0.0004031025
3.8880781e-05
0.00037862535
2.3616756e-05
0.00036482719
1.0887734e-05
0.00036498167
-0.010069776
0.00059059256
0.021441968
4.9284165e-05
0.065914768
-0.0033291154
0.013961463
-0.0032833857
-0.033327009
-0.0013634258
-0.090067597
0.0065890737
-0.043041234
0.0084846228
0.030990477
0.0067919704
0.083024975
-0.0022784887
0.069560637
-0.013887645
0.0029058492
-0.01249529
-0.039779399
-0.0058017373
-0.061704313
0.0056776559
-0.039377997
0.013927749
-0.00033929292
0.01153522
0.0220922
0.0041858231
0.023698742
-0.0026272645
0.013151767
-0.0053444641
0.0036312625
-0.0050636526
-0.0021320411
-0.0032599051
-0.0043389111
-0.0010761895
-0.0038345597
0.00056023642
-0.002373461
0.0012544532
-0.0011778798
0.0012786093
-0.00040706124
0.0010603857
-2.3587176e-05
0.00080286701
9.3960255e-05
0.00061404412
0.00010988942
0.00052289626
9.8143865e-05
0.00049864832
9.2560753e-05
0.00050311254
9.3543654e-05
0.00050907802
9.4614405e-05
0.00050371463
9.1228425e-05
0.00048533242
8.1895625e-05
0.00046052695
5.824368e-05
0.00042656277
5.0767435e-05
0.00039119268
3.5265846e-05
0.00036702577
2.1676645e-05
0.00035399507
1.0372201e-05
0.00035464508
0.0001782522
-0.010078787
0.021989225
4.3324921e-05
0.068522979
-0.0025589409
0.013217902
-0.0025855609
-0.03543616
-0.0011742323
-0.09766565
0.0062346415
-0.044548304
0.0080961628
0.032753657
0.0067214566
0.092101766
-0.0022848127
0.08007204
-0.012789892
0.00087318585
-0.011854988
-0.047282943
-0.004991751
-0.073510611
0.006004558
-0.050064342
0.016364004
-0.00029145984
0.013879916
0.028810019
0.0048174069
0.031426188
-0.0035416197
0.017368468
-0.0068439476
0.0048384244
-0.0065516064
-0.0028130985
-0.0043825627
-0.0059998082
-0.0015989769
-0.0055505784
0.00063986345
-0.003488573
0.0016753752
-0.0016598647
0.0017364597
-0.00049928276
0.0013708395
5.0802592e-05
0.00098599448
0.00022007662
0.00067673869
0.00020503301
0.00051888174
0.00015070939
0.00047030824
0.00011285888
0.00047832584
9.7369249e-05
0.00049926497
9.3936131e-05
0.00050974049
9.2545414e-05
0.000502382
8.7332324e-05
0.00047988971
7.6244812e-05
0.00044250873
6.3736375e-05
0.00041361135
4.6808049e-05
0.00037962466
3.2613728e-05
0.00035614264
2.0669837e-05
0.00034364952
1.0292173e-05
0.00034439088
3.8849716e-05
0.022128617
-0.00020295605
-0.010176406
0.070054315
-0.0014880242
0.012548062
-0.0018891079
-0.037125897
-0.00089582007
-0.10442048
0.0055806163
-0.045639289
0.0073256456
0.034250145
0.0065996895
0.10105367
-0.002230445
0.090848822
-0.013061596
0.0025974496
-0.014514158
-0.055579982
-0.0035579576
-0.087363483
0.0088611179
-0.063105161
0.019045371
-0.001147241
0.017219778
0.036344375
0.0063455543
0.040987428
-0.004743839
0.022419197
-0.0085923449
0.0062440543
-0.008249572
-0.0036307401
-0.0057339505
-0.0081500767
-0.0022322833
-0.0078725891
0.00072304774
-0.0050759076
0.0022272084
-0.0023566978
0.002372221
-0.00060288847
0.0018400734
0.00019161924
0.0012300279
0.00042458906
0.00078147958
0.00037119131
0.00051057035
0.00024866871
0.0004209061
0.00015399687
0.00042914757
0.00010659386
0.00046907675
9.0819879e-05
0.00050235929
8.86866e-05
0.00051358149
8.7664272e-05
0.00050203025
8.2168087e-05
0.0004739584
7.1422557e-05
0.00043480291
5.868134e-05
0.00040175791
4.3763425e-05
0.00036844633
3.1178944e-05
0.00034569167
2.0318992e-05
0.00033357024
1.0553084e-05
0.00033387796
-0.00046059765
0.070553749
-2.5169599e-05
0.021950821
-0.00060865379
-0.010409611
0.012227583
-0.0011675514
-0.038422557
-0.00059244253
-0.11009632
0.0047800304
-0.046401961
0.0063433084
0.035418118
0.0061576879
0.10965867
-0.002005301
0.10189372
-0.013275354
0.0042099686
-0.014674122
-0.059799691
-0.010294458
-0.10269046
0.011769013
-0.075574702
0.021330655
-0.0025577705
0.020455886
0.045076208
0.0084879316
0.053124956
-0.0057919866
0.028248121
-0.010572768
0.0078055169
-0.010153808
-0.004589861
-0.0072904497
-0.010813729
-0.0030702999
-0.010908388
0.00080350779
-0.0072957215
0.0029428504
-0.0033517181
0.0032222202
-0.00072874934
0.0024980781
0.00044863373
0.0015830626
0.00073401607
0.0009206071
0.00064704338
0.00050563175
0.00041245784
0.00034678093
0.00022962064
0.0003452729
0.00012744625
0.00040827775
8.6586892e-05
0.0004732903
7.8633682e-05
0.0005123916
8.1238126e-05
0.00051998776
8.2022658e-05
0.00050215224
7.7047256e-05
0.00046832447
6.6860196e-05
0.00042660203
5.5070397e-05
0.000390473
4.1981896e-05
0.00035761184
3.0723595e-05
0.00033534913
2.076086e-05
0.00032330579
1.1164888e-05
0.0003227552
-0.0003574357
0.012124415
0.00062310036
0.069905466
2.1874926e-05
0.021320284
-0.00105924
-0.010700194
-0.039084548
-0.00050555272
-0.11448128
0.003792525
-0.046757191
0.0051352794
0.036311931
0.0054495086
0.11740631
-0.0015899501
0.11301317
-0.013124757
0.0055910331
-0.014656435
-0.063300456
-0.011173371
-0.11623446
0.0032495327
-0.085025882
0.021220191
-0.00072873673
0.019501609
0.055961428
0.0095706555
0.068268318
-0.0066554439
0.035303398
-0.012847266
0.0093907713
-0.012158016
-0.0056727235
-0.0090709398
-0.014021378
-0.0040827971
-0.014860932
0.00088223095
-0.010336357
0.0038441222
-0.0047511151
0.0043422187
-0.00088518022
0.0033786284
0.00086317672
0.0020835246
0.0012261665
0.001090916
0.0010617559
0.0005059074
0.0006835451
0.00023456189
0.0003608797
0.00021553375
0.00016789642
0.00030482409
8.2685146e-05
0.00041217325
6.0942174e-05
0.00049096982
6.5510715e-05
0.0005281003
7.4052365e-05
0.00052793734
7.7001086e-05
0.0005021728
7.2875783e-05
0.00046229915
6.3784564e-05
0.00041786342
5.3147525e-05
0.00037933126
4.1548606e-05
0.00034675234
3.1356397e-05
0.00032481921
2.1878731e-05
0.00031253144
1.1944392e-05
0.00031085465
-0.00019346206
-0.039248514
0.00055085105
0.012196658
0.0016852314
0.068242097
-4.0928999e-05
0.020301966
-0.0014778742
-0.010958959
-0.11734796
0.0023611508
-0.046788509
0.0038238602
0.036965879
0.0044813441
0.12415744
-0.0013016077
0.12392244
-0.01249923
0.0067296775
-0.014263415
-0.06761325
-0.010343653
-0.13031736
0.0029095151
-0.098651127
0.016874768
0.0037269942
0.016764449
0.066522294
0.0089407337
0.084990003
-0.0071510336
0.043829214
-0.015181249
0.010914614
-0.014371087
-0.0068667788
-0.010963939
-0.01779262
-0.0052996763
-0.019939342
0.00099561778
-0.014432017
0.0049778821
-0.0066812873
0.0057742651
-0.0010773278
0.0045343323
0.0014891628
0.0027526145
0.0019872607
0.0013224177
0.0016656528
0.00048702459
0.0011122267
7.7247522e-05
0.00057336157
2.2108263e-05
0.00024150728
0.00014194545
8.2040684e-05
0.00030548424
3.3416108e-05
0.00043970534
3.6824736e-05
0.00051965143
5.4638658e-05
0.00054749851
6.8689945e-05
0.0005362292
7.3587338e-05
0.00050143495
7.0446969e-05
0.00045562691
6.2492548e-05
0.00040849128
5.294057e-05
0.00036796464
4.2407376e-05
0.00033566406
3.2910019e-05
0.00031385677
2.3271284e-05
0.0003011407
1.284243e-05
0.00029805752
0.00073564219
-0.11827706
0.00010160544
-0.03879926
0.0010614352
0.012820448
0.0026589067
0.06554225
-0.00020414466
0.01902823
-0.001895962
-0.011191051
-0.046963053
0.0025357122
0.037484677
0.0033050726
0.12965443
-0.0010156457
0.13394868
-0.011327856
0.0076014125
-0.013370977
-0.071258698
-0.01061797
-0.14404334
0.0033823148
-0.113504
0.017762372
-0.0010251606
0.021626906
0.075231156
0.0080555764
0.10110583
-0.007175093
0.054027926
-0.017349729
0.012324653
-0.016591255
-0.0081920658
-0.013045768
-0.022096449
-0.0066600738
-0.026247282
0.001008288
-0.019807949
0.0063715591
-0.0093161598
0.0076127453
-0.0012980539
0.005994964
0.0024095166
0.0036139482
0.0031040975
0.0016357482
0.0025498295
0.00043822798
0.0017350504
-0.00013579346
0.00090366541
-0.00025303188
0.00036007311
-9.6427703e-05
8.6593293e-05
0.00013742482
-7.1537384e-06
0.00034608079
-9.9157126e-06
0.0004864614
1.8595186e-05
0.0005556981
4.7880926e-05
0.0005682972
6.6157777e-05
0.00054364309
7.2506116e-05
0.00049934981
7.0292637e-05
0.00044781688
6.333017e-05
0.00039807164
5.4244215e-05
0.00035615425
4.4410953e-05
0.00032412324
3.4952451e-05
0.00030224723
2.5052628e-05
0.00028886388
1.3786968e-05
0.00028431698
0.0010997595
-0.047327152
-0.00095413962
-0.1172213
0.00055285348
-0.03829067
0.0018905825
0.013588766
0.0034408728
0.061897222
-0.00030614308
0.017438405
-0.0022389263
-0.011367967
0.037827745
0.0021926532
0.1336025
-0.00064299627
0.14271318
-0.0097801567
0.008147926
-0.011874383
-0.074615768
-0.010013915
-0.15773125
0.0030699323
-0.1270479
0.01692621
-0.0053737183
0.022110918
0.075478097
0.021379962
0.11619003
-0.0070286123
0.06531169
-0.018458841
0.013802919
-0.01882796
-0.0097801945
-0.015003104
-0.026958331
-0.0081838576
-0.03399299
0.0010856513
-0.026867232
0.0080675817
-0.012793677
0.0098490809
-0.0015187225
0.0078334018