/*--------------------------------*- C++ -*----------------------------------*\
| =========                 |                                                 |
| \\      /  F ield         | OpenFOAM: The Open Source CFD Toolbox           |
|  \\    /   O peration     | Version:  5.0                                   |
|   \\  /    A nd           | Web:      www.OpenFOAM.org                      |
|    \\/     M anipulation  |                                                 |
\*---------------------------------------------------------------------------*/
FoamFile
{
    version     2.0;
    format      ascii;
    class       volVectorField;
    location    "280";
    object      ddtCorrDdt0(U);
}
// * * * * * * * * * * * * * * * * * * * * * * * * * * * * * * * * * * * * * //

dimensions      [0 1 -2 0 0 0 0];

internalField   nonuniform List<vector> 
9520
(
(-0.00025456555 -7.9385726e-07 0)
(-0.00025187146 -1.6519243e-06 0)
(-0.00025254946 -1.3330937e-06 0)
(-0.00024665066 -1.8490636e-06 0)
(-0.00025076782 -3.9482116e-06 0)
(-0.00025001082 2.1326336e-06 0)
(-0.0002387779 -1.5626763e-06 0)
(-0.00024645984 -5.9285956e-06 0)
(-0.00024814188 5.1894587e-06 0)
(-0.00025909627 7.7650398e-06 0)
(-0.00022849965 -6.5978846e-07 0)
(-0.00023981298 -7.2927319e-06 0)
(-0.00024410081 7.6065359e-06 0)
(-0.0002560038 2.16884e-05 0)
(-0.00027276742 1.0564686e-05 0)
(-0.00021639183 4.1746989e-07 0)
(-0.00023075726 -6.704412e-06 0)
(-0.00023879908 9.732026e-06 0)
(-0.00025107457 3.3991055e-05 0)
(-0.00026918376 3.1232062e-05 0)
(-0.00029066397 9.2640448e-06 0)
(-0.0002022023 1.5978741e-06 0)
(-0.00021948765 -4.7084819e-06 0)
(-0.00023191902 1.2710077e-05 0)
(-0.00024530069 4.5224587e-05 0)
(-0.00026397899 5.0752691e-05 0)
(-0.00028809117 2.8978931e-05 0)
(-0.00030303271 4.9762516e-06 0)
(-0.00018513949 3.3305074e-06 0)
(-0.00020643074 -1.6058486e-06 0)
(-0.00022267282 1.6879121e-05 0)
(-0.00023883938 5.5181374e-05 0)
(-0.00025759819 6.9507148e-05 0)
(-0.00028410273 4.904341e-05 0)
(-0.00030190799 1.6759124e-05 0)
(-0.00030639382 1.4214629e-06 0)
(-0.00016346145 6.5456605e-06 0)
(-0.00019209657 2.8201658e-06 0)
(-0.00021173196 2.2273523e-05 0)
(-0.00023082822 6.5127059e-05 0)
(-0.00025068838 8.5984032e-05 0)
(-0.00027815941 6.9646897e-05 0)
(-0.00029952338 2.9870714e-05 0)
(-0.00030695884 5.1644492e-06 0)
(-0.00030711486 1.4959927e-06 0)
(-0.00013401059 1.3428851e-05 0)
(-0.00017813453 9.522113e-06 0)
(-0.00020069759 2.8745951e-05 0)
(-0.00022138799 7.5713014e-05 0)
(-0.00024322194 0.00010146139 0)
(-0.00027105859 8.9145433e-05 0)
(-0.00029478154 4.4533319e-05 0)
(-0.00030646178 9.8837012e-06 0)
(-0.0003078812 3.6869691e-06 0)
(-0.00030994259 5.281859e-06 0)
(-9.1653085e-05 3.0716875e-05 0)
(-0.00016760283 2.2459794e-05 0)
(-0.00019350974 3.6240027e-05 0)
(-0.00021097286 8.7001826e-05 0)
(-0.00023492399 0.00011671321 0)
(-0.00026414888 0.00010799923 0)
(-0.00028895214 6.0854489e-05 0)
(-0.00030437442 1.5384617e-05 0)
(-0.00030757283 5.9070569e-06 0)
(-0.00031008482 1.3624836e-05 0)
(-0.00031921193 1.0615564e-05 0)
(-4.6143254e-05 6.2796658e-05 0)
(-0.00016880541 4.8883023e-05 0)
(-0.00019747454 4.4649741e-05 0)
(-0.00020025254 9.7835388e-05 0)
(-0.00022479455 0.0001321417 0)
(-0.00025714371 0.00012682951 0)
(-0.00028388565 7.7616982e-05 0)
(-0.00030031157 2.4401437e-05 0)
(-0.00030780575 7.5160902e-06 0)
(-0.00030929668 2.0877119e-05 0)
(-0.00031835413 2.9309646e-05 0)
(-0.00033482262 1.453037e-05 0)
(-2.5439596e-05 0.00011621959 0)
(-0.00019762787 9.3492757e-05 0)
(-0.0002280588 5.1381819e-05 0)
(-0.00019129637 0.00010340612 0)
(-0.00020942497 0.00014662021 0)
(-0.00024900072 0.00014635058 0)
(-0.00027985948 9.4748333e-05 0)
(-0.00029640417 3.4712282e-05 0)
(-0.00030730015 1.0840429e-05 0)
(-0.00030855025 2.7757221e-05 0)
(-0.00031765044 4.5979474e-05 0)
(-0.0003332619 4.2111833e-05 0)
(-0.00035338081 1.5062539e-05 0)
(-4.6762592e-06 0.00019982114 0)
(-0.0002889879 0.00017443511 0)
(-0.00028916676 5.250476e-05 0)
(-0.00018271354 9.2580459e-05 0)
(-0.00018510292 0.00015713575 0)
(-0.0002371143 0.00016827984 0)
(-0.00027709413 0.00011286234 0)
(-0.00029320924 4.4829111e-05 0)
(-0.00030401287 1.5541611e-05 0)
(-0.00030790859 3.3697655e-05 0)
(-0.00031708968 6.2514388e-05 0)
(-0.00033268505 6.7820788e-05 0)
(-0.00035213652 4.5518745e-05 0)
(-0.00037020237 1.2003263e-05 0)
(4.8231345e-06 0.00029639687 0)
(-0.00035105596 0.00022556028 0)
(-0.00028314065 8.9314006e-06 0)
(-0.00013681753 5.4035021e-05 0)
(-0.00013064894 0.00015872204 0)
(-0.00021160432 0.00019396205 0)
(-0.00027555246 0.0001342434 0)
(-0.00029266582 5.4019886e-05 0)
(-0.00029947203 1.9740569e-05 0)
(-0.00030508012 3.9468301e-05 0)
(-0.00031613265 7.7609497e-05 0)
(-0.00033255565 9.239489e-05 0)
(-0.00035173744 7.5476982e-05 0)
(-0.00037038212 3.7924992e-05 0)
(-0.00038159918 6.6241756e-06 0)
(1.2384792e-06 0.00044058257 0)
(-0.00046297441 0.0002793539 0)
(-0.00025644271 -7.4372914e-05 0)
(-3.2698477e-05 -3.350022e-05 0)
(-3.5814396e-05 0.00014802005 0)
(-0.00016795833 0.00023235531 0)
(-0.00027686192 0.00016689608 0)
(-0.00029963492 6.2876738e-05 0)
(-0.00029536136 2.1356516e-05 0)
(-0.00029915508 4.5180287e-05 0)
(-0.00031360995 9.1977029e-05 0)
(-0.00033182784 0.00011617312 0)
(-0.00035193956 0.00010362287 0)
(-0.00037078047 6.5137912e-05 0)
(-0.00038371506 2.2501211e-05 0)
(-0.00038615806 1.0268371e-06 0)
(-2.850228e-05 0.0005956839 0)
(-0.00063469079 0.00026444589 0)
(-0.00024395302 -0.00018225873 0)
(6.4294607e-05 -0.00012781326 0)
(6.2433165e-05 0.00013009044 0)
(-0.00011278417 0.00029402219 0)
(-0.00029148541 0.00022252134 0)
(-0.00032604157 7.2974618e-05 0)
(-0.00029483065 1.7078493e-05 0)
(-0.00029038504 4.9355524e-05 0)
(-0.00030909287 0.00010699378 0)
(-0.00033071455 0.00013955981 0)
(-0.0003523273 0.00013088676 0)
(-0.00037146193 9.2574952e-05 0)
(-0.00038646218 4.0587829e-05 0)
(-0.00038990354 5.4219191e-06 0)
(-0.00038509818 -2.6829674e-06 0)
(-5.1962605e-05 0.00082671379 0)
(-0.00085725823 0.00031017992 0)
(-0.00024770659 -0.00035424238 0)
(0.00023889743 -0.00026497512 0)
(0.00013716793 0.0001396045 0)
(-6.2113038e-05 0.00041772102 0)
(-0.00033734881 0.00031538464 0)
(-0.00038067377 8.3201591e-05 0)
(-0.00029785343 3.9710402e-07 0)
(-0.00027653101 4.8810448e-05 0)
(-0.00029980389 0.00012330168 0)
(-0.00032801715 0.0001641318 0)
(-0.00035304246 0.00015854512 0)
(-0.00037352822 0.00011820086 0)
(-0.0003883991 6.3121649e-05 0)
(-0.00039587424 1.1804311e-05 0)
(-0.00038981601 -6.7018733e-06 0)
(-0.00038151705 -3.2926725e-06 0)
(-0.00011303242 0.0011200156 0)
(-0.0012024239 0.00022538754 0)
(-0.00030180382 -0.00045709541 0)
(0.00039855978 -0.00043141147 0)
(0.00028755092 0.00020703009 0)
(-1.3285349e-05 0.00057291515 0)
(-0.00042782029 0.00046721895 0)
(-0.00048243329 9.6140132e-05 0)
(-0.00031333953 -3.9379816e-05 0)
(-0.00025554797 3.7608717e-05 0)
(-0.00028350829 0.00014085475 0)
(-0.00032263694 0.0001915576 0)
(-0.00035442863 0.00018762626 0)
(-0.00037677411 0.0001452914 0)
(-0.00039149579 8.527154e-05 0)
(-0.00040036067 2.4267422e-05 0)
(-0.00039759695 -8.9074027e-06 0)
(-0.00038676838 -9.8281871e-06 0)
(-0.00037876234 -1.0329384e-06 0)
(-0.00011850796 0.0014491262 0)
(-0.0018337541 0.00029643729 0)
(-0.00042177835 -0.00092795659 0)
(0.0006603219 -0.00079544682 0)
(0.0006422933 0.00029690886 0)
(6.8911502e-06 0.00076616384 0)
(-0.00055647931 0.00067771117 0)
(-0.0006360447 0.00010186555 0)
(-0.00034634821 -0.00011275614 0)
(-0.0002235626 7.8650595e-06 0)
(-0.0002561707 0.00015893953 0)
(-0.00031165378 0.0002239023 0)
(-0.00035602056 0.00022016935 0)
(-0.000382171 0.00017382521 0)
(-0.00039696039 0.00010879 0)
(-0.0004046666 4.187828e-05 0)
(-0.00040725714 -9.9291544e-06 0)
(-0.00039431547 -1.4197996e-05 0)
(-0.00038434537 -4.4648214e-06 0)
(-0.00037891812 2.6628663e-06 0)
(-0.00023859265 0.0020339061 0)
(-0.0023727152 0.00010910647 0)
(-0.00052122909 -0.0010338557 0)
(0.0010839366 -0.0011033069 0)
(0.0011695133 0.00041633234 0)
(4.8559978e-05 0.0010772999 0)
(-0.00076718957 0.00096537841 0)
(-0.00087225372 9.6586644e-05 0)
(-0.00041448563 -0.00024939659 0)
(-0.00017537757 -5.4046073e-05 0)
(-0.00021012416 0.00017720316 0)
(-0.00028996537 0.00026422835 0)
(-0.00035727879 0.0002591618 0)
(-0.00039057766 0.00020510359 0)
(-0.00040487851 0.00013291259 0)
(-0.00041185124 5.9849888e-05 0)
(-0.00041486374 -2.1637503e-06 0)
(-0.00040520769 -2.1349959e-05 0)
(-0.00039133395 -5.7466385e-06 0)
(-0.00038450712 5.5081862e-06 0)
(-0.00038237104 6.0300488e-06 0)
(-0.00017337542 0.0023693918 0)
(-0.0033934217 0.00038854932 0)
(-0.00081525606 -0.0022425874 0)
(0.0017040493 -0.0018013033 0)
(0.0018967059 0.00059528819 0)
(8.5941013e-05 0.001563516 0)
(-0.0011269308 0.0013272985 0)
(-0.0011795118 6.9596166e-05 0)
(-0.0004577402 -0.00045112231 0)
(-0.00011058796 -0.00018253216 0)
(-0.00013164432 0.00018537721 0)
(-0.00024710753 0.00031532482 0)
(-0.00035615754 0.0003105187 0)
(-0.00040428479 0.00024145851 0)
(-0.00041693741 0.00015715465 0)
(-0.00042046704 7.6969341e-05 0)
(-0.00042114717 8.3316514e-06 0)
(-0.00041697561 -2.3669844e-05 0)
(-0.00040191418 -8.5144468e-06 0)
(-0.0003921045 9.1718895e-06 0)
(-0.00038740546 1.5461717e-05 0)
(-0.0003882572 7.85687e-06 0)
(-0.00051280933 0.0033072245 0)
(-0.0038432586 -6.7216467e-05 0)
(-0.00099116696 -0.0021681033 0)
(0.0024347325 -0.002386226 0)
(0.0029357357 0.00075571031 0)
(0.00019150302 0.0022841582 0)
(-0.0016777081 0.0018680685 0)
(-0.0016910002 1.3800422e-05 0)
(-0.00059424211 -0.00079280469 0)
(4.1454095e-05 -0.00036887705 0)
(2.8843063e-05 0.00018927446 0)
(-0.00016345686 0.00037873596 0)
(-0.00034706995 0.00038300991 0)
(-0.00042666129 0.00028821374 0)
(-0.00043712446 0.00018132945 0)
(-0.00043147324 9.0955284e-05 0)
(-0.00042656033 1.8585027e-05 0)
(-0.00042613457 -2.384848e-05 0)
(-0.00041441704 -1.0029638e-05 0)
(-0.00040269649 1.6449278e-05 0)
(-0.00039683158 2.3551046e-05 0)
(-0.00039244573 2.2002872e-05 0)
(-0.00039499381 7.7307991e-06 0)
(-0.0015132439 0.0037568424 0)
(-0.0057921767 0.0005715407 0)
(-0.0017383768 -0.0044744627 0)
(0.0035214157 -0.0039096541 0)
(0.0042472887 0.0011985451 0)
(0.00027687758 0.0033420911 0)
(-0.002460256 0.0025587556 0)
(-0.0024556258 -0.00012558382 0)
(-0.0007450716 -0.0012955569 0)
(0.00034124284 -0.0007021141 0)
(0.0002872803 0.00013308274 0)
(-6.6781131e-07 0.0004703026 0)
(-0.00032066489 0.00049538813 0)
(-0.00046390217 0.00035534459 0)
(-0.0004727814 0.00020600331 0)
(-0.00044797792 9.8778886e-05 0)
(-0.00043194584 2.3191575e-05 0)
(-0.00043208315 -2.3384781e-05 0)
(-0.00042383143 -8.3861558e-06 0)
(-0.00041627385 2.1607934e-05 0)
(-0.00040852742 3.9399186e-05 0)
(-0.00040387069 3.4002043e-05 0)
(-0.00039901565 2.3554699e-05 0)
(-0.00040092157 5.7059944e-06 0)
(-0.0012194065 0.0049338889 0)
(-0.0066609487 -0.00057444955 0)
(-0.0014385355 -0.0042515662 0)
(0.004683099 -0.0043718358 0)
(0.0062648378 0.001362533 0)
(0.00037224679 0.0046437909 0)
(-0.0035936579 0.003596068 0)
(-0.0035749039 -0.00033376055 0)
(-0.00096686038 -0.0020601249 0)
(0.00074397897 -0.0011997071 0)
(0.00074266165 0.00010517743 0)
(0.0001919957 0.00056956275 0)
(-0.0002741547 0.00067461039 0)
(-0.00052649786 0.00046361767 0)
(-0.00053790552 0.00023355739 0)
(-0.00047601654 9.4895116e-05 0)
(-0.00043625876 1.8595964e-05 0)
(-0.00043235243 -2.4093028e-05 0)
(-0.00042930539 -4.4195097e-06 0)
(-0.0004282188 3.0943653e-05 0)
(-0.00042291497 5.3275521e-05 0)
(-0.00041815155 5.2325351e-05 0)
(-0.00041143363 3.9613856e-05 0)
(-0.00040613571 1.977652e-05 0)
(-0.00040492705 2.0393476e-06 0)
(-0.001489431 0.0056071359 0)
(-0.0087138013 0.00011682838 0)
(-0.00094410619 -0.007136877 0)
(0.0068653546 -0.0069024018 0)
(0.0080755991 0.002386144 0)
(0.0001907326 0.0064412056 0)
(-0.0049538343 0.0049325888 0)
(-0.0050783519 -0.00071581355 0)
(-0.0012787555 -0.0031425896 0)
(0.0013102232 -0.0019414574 0)
(0.0014628679 6.009415e-05 0)
(0.00039327419 0.00081836647 0)
(-0.00023259157 0.00098550715 0)
(-0.000641387 0.00063932145 0)
(-0.00065479503 0.00026935825 0)
(-0.00052675268 7.0961968e-05 0)
(-0.00044115863 -5.4300636e-06 0)
(-0.00042505333 -3.1819675e-05 0)
(-0.00042812709 1.0806262e-06 0)
(-0.00043632749 4.482678e-05 0)
(-0.00043835384 7.0509545e-05 0)
(-0.00043383864 7.4286947e-05 0)
(-0.00042905499 5.5660931e-05 0)
(-0.00041856026 3.8100512e-05 0)
(-0.00041218866 1.0614298e-05 0)
(-0.00040589861 -2.850268e-06 0)
(-0.0044526203 0.0066893306 0)
(-0.0097537324 -0.0011296334 0)
(-0.0017541014 -0.0072301705 0)
(0.0084932986 -0.0076019448 0)
(0.010150646 0.0024494651 0)
(0.00042879949 0.009029825 0)
(-0.0070218206 0.0068653178 0)
(-0.007186329 -0.0012457266 0)
(-0.0016663462 -0.0046721421 0)
(0.0021073369 -0.0029922917 0)
(0.0024821241 -2.6695595e-05 0)
(0.0007900742 0.00126261 0)
(-0.00024998459 0.0014038596 0)
(-0.00083875002 0.00094323795 0)
(-0.00086723718 0.00032095727 0)
(-0.00061777313 1.4029498e-05 0)
(-0.00044881074 -6.2827437e-05 0)
(-0.00040496445 -5.3145971e-05 0)
(-0.00041523598 6.4948459e-06 0)
(-0.00043798252 6.397427e-05 0)
(-0.00045136017 9.3260034e-05 0)
(-0.00045252182 9.8044049e-05 0)
(-0.00044750409 8.0679893e-05 0)
(-0.00043814001 5.2153437e-05 0)
(-0.0004252028 2.5049752e-05 0)
(-0.00041518223 -3.873135e-06 0)
(-0.00040265346 -8.4749741e-06 0)
(-0.0077055558 0.0077119089 0)
(-0.014498786 0.00074050944 0)
(-0.0035872939 -0.012548213 0)
(0.010807545 -0.011309015 0)
(0.013141079 0.0045343824 0)
(8.105509e-06 0.011368451 0)
(-0.0091123407 0.0085018391 0)
(-0.0097944971 -0.001983813 0)
(-0.0021813023 -0.0066717788 0)
(0.0031715601 -0.0044776134 0)
(0.0039281787 -0.00016176596 0)
(0.001492543 0.0019508102 0)
(-0.00030219854 0.0020007701 0)
(-0.0011511894 0.0013583154 0)
(-0.0011911719 0.00039051718 0)
(-0.00078299767 -0.00010360046 0)
(-0.00046344898 -0.00017718848 0)
(-0.00036440387 -9.8880692e-05 0)
(-0.00038272214 8.894096e-06 0)
(-0.00042820764 8.9010535e-05 0)
(-0.00045976893 0.0001237972 0)
(-0.00047101635 0.00012685501 0)
(-0.00046876781 0.00010761341 0)
(-0.00046059486 7.2231994e-05 0)
(-0.00044486796 3.7845483e-05 0)
(-0.00043027761 -1.0066261e-06 0)
(-0.00041323781 -2.214731e-05 0)
(-0.00039523764 -1.4166625e-05 0)
(-0.0088757063 0.0085713937 0)
(-0.014164765 -0.0032636139 0)
(0.00070855009 -0.012703529 0)
(0.013892065 -0.011187564 0)
(0.017123943 0.0043549685 0)
(-0.00024446478 0.015235192 0)
(-0.012450215 0.011761839 0)
(-0.01349009 -0.0029745441 0)
(-0.0027558151 -0.0093441098 0)
(0.0046298996 -0.0064329662 0)
(0.0059140264 -0.0003880261 0)
(0.0025599814 0.0029285767 0)
(-0.00036950591 0.0029454021 0)
(-0.0016683092 0.0019240947 0)
(-0.0016705399 0.00047802999 0)
(-0.0010375781 -0.00031340022 0)
(-0.00048184925 -0.00037559834 0)
(-0.00029471512 -0.00018962949 0)
(-0.00031826894 2.2284508e-06 0)
(-0.00039858165 0.00012155304 0)
(-0.00045963064 0.00016473901 0)
(-0.00048777628 0.00016404282 0)
(-0.00049230777 0.00013918496 0)
(-0.00048465562 9.7102061e-05 0)
(-0.00047057515 4.9637551e-05 0)
(-0.00045013456 7.6699996e-06 0)
(-0.00043083499 -3.3305527e-05 0)
(-0.0004062703 -4.0329641e-05 0)
(-0.00038438431 -1.901988e-05 0)
(-0.010261153 0.008632482 0)
(-0.01341489 -0.0031479371 0)
(0.0053093699 -0.017793161 0)
(0.020322548 -0.016363148 0)
(0.020432316 0.0077907291 0)
(0.00019209611 0.020165709 0)
(-0.016970199 0.01416214 0)
(-0.017556366 -0.0041500888 0)
(-0.0035217256 -0.012792203 0)
(0.0065897434 -0.0091451801 0)
(0.0086229988 -0.00071029573 0)
(0.004066071 0.0042746717 0)
(-0.00043828039 0.0043422027 0)
(-0.0024692398 0.0027432837 0)
(-0.0024628707 0.00058299674 0)
(-0.0013892879 -0.00062629257 0)
(-0.00052364771 -0.00071673743 0)
(-0.00017786455 -0.00035441311 0)
(-0.00020208133 -2.2636982e-05 0)
(-0.00033500965 0.00016375187 0)
(-0.00044470945 0.00022149648 0)
(-0.00050064457 0.00021360458 0)
(-0.00051714585 0.00017888133 0)
(-0.00051308149 0.00012811607 0)
(-0.00049925275 7.0578811e-05 0)
(-0.00047726083 1.6701115e-05 0)
(-0.00045221332 -3.0895976e-05 0)
(-0.00042661021 -6.2750131e-05 0)
(-0.00039612131 -5.4756811e-05 0)
(-0.00037131112 -2.2391841e-05 0)
(-0.011077358 0.009201641 1.2206113e-23)
(-0.012606069 -0.0060214 0)
(0.0071605926 -0.020704984 0)
(0.026836046 -0.015731347 0)
(0.022123988 0.0071141143 0)
(-0.0016029165 0.025681393 0)
(-0.021610086 0.018493733 0)
(-0.021951982 -0.0062379281 0)
(-0.0039254576 -0.017215168 0)
(0.0092145095 -0.012473867 0)
(0.012194178 -0.0011687441 0)
(0.0061685317 0.0060710008 0)
(-0.00049152586 0.0064065261 0)
(-0.0036467219 0.0038989592 0)
(-0.0036828271 0.00069241124 0)
(-0.0019497722 -0.0011152402 0)
(-0.00058182827 -0.0012573844 0)
(1.5823556e-05 -0.00063087064 0)
(-1.8439206e-06 -7.9072643e-05 0)
(-0.0002146979 0.00021928137 0)
(-0.00040389863 0.0003029512 0)
(-0.00050706608 0.00028325646 0)
(-0.0005438432 0.00023046461 0)
(-0.00054569142 0.00016718559 0)
(-0.00053319153 9.9985035e-05 0)
(-0.00051123168 3.2415847e-05 0)
(-0.00048142752 -2.7117025e-05 0)
(-0.00045227088 -7.4254684e-05 0)
(-0.00041781907 -8.4760835e-05 0)
(-0.0003837921 -6.4573603e-05 0)
(-0.00035710855 -2.4158371e-05 0)
(-0.011893153 0.0093681691 -5.8078227e-26)
(-0.013087679 -0.0071308167 -1.2745777e-23)
(0.0098140997 -0.025742544 0)
(0.030551997 -0.018920556 0)
(0.022595686 0.011635544 0)
(-0.0024960778 0.030698272 0)
(-0.018937631 0.021244965 0)
(-0.027641803 -0.0079873634 0)
(-0.0044453204 -0.022554137 0)
(0.012744108 -0.017038842 0)
(0.016834014 -0.0016629206 0)
(0.0088979226 0.0083774497 0)
(-0.00053089834 0.0092271325 0)
(-0.005328981 0.0055991473 0)
(-0.0054997088 0.00082793399 0)
(-0.002816913 -0.0018871816 0)
(-0.00063110781 -0.0020566217 0)
(0.00030993806 -0.0010885768 0)
(0.00033038277 -0.00018030932 0)
(-2.9403548e-06 0.00029589991 0)
(-0.00032481629 0.00042574255 0)
(-0.00050647325 0.00038377901 0)
(-0.00057531609 0.00030204243 0)
(-0.0005853432 0.00021818746 0)
(-0.00057277017 0.00013615289 0)
(-0.00054964511 5.379802e-05 0)
(-0.00051752874 -2.0433896e-05 0)
(-0.00048229395 -7.8872321e-05 0)
(-0.0004464531 -0.0001116801 0)
(-0.00040613733 -0.00010116516 0)
(-0.00037015012 -7.0166057e-05 0)
(-0.00034284242 -2.4495008e-05 0)
(-0.01213659 0.009556504 5.8297056e-26)
(-0.013231717 -0.0096086679 5.3627944e-23)
(0.011556841 -0.030365895 0)
(0.033306515 -0.017121081 0)
(0.020994338 0.013438061 0)
(-0.0057602964 0.037718751 0)
(-0.025975041 0.028990669 0)
(-0.040128797 -0.01019167 0)
(-0.0063640007 -0.028516598 0)
(0.017236718 -0.022118654 0)
(0.022661994 -0.0023210724 0)
(0.012524626 0.011341516 0)
(-0.00054062603 0.013137817 0)
(-0.0076552368 0.0078689975 0)
(-0.0080684654 0.00098093013 0)
(-0.0041039884 -0.0030316509 0)
(-0.00069329571 -0.0032547165 0)
(0.00077355449 -0.0017870144 0)
(0.00084419086 -0.00033098887 0)
(0.00030288102 0.00040087887 0)
(-0.00020752494 0.00060860699 0)
(-0.00050131673 0.00054171754 0)
(-0.00061827729 0.00041043171 0)
(-0.00063884574 0.00028688531 0)
(-0.00062181947 0.00018013621 0)
(-0.00059358591 8.0476776e-05 0)
(-0.00055874398 -9.0842364e-06 0)
(-0.00052000312 -7.9321901e-05 0)
(-0.00047949838 -0.00012578081 0)
(-0.00043655664 -0.00013529351 0)
(-0.0003929427 -0.00011114556 0)
(-0.00035640168 -7.1868488e-05 0)
(-0.00032919178 -2.3723754e-05 0)
(-0.011884632 0.0094976617 0)
(-0.012827591 -0.011407395 -5.3716453e-23)
(0.012704163 -0.035361413 0)
(0.034648157 -0.017533219 0)
(0.018096062 0.018465807 0)
(-0.013435805 0.044662565 0)
(-0.047180667 0.032472951 0)
(-0.050991842 -0.010563432 0)
(-0.011438335 -0.037867915 0)
(0.022179504 -0.02887663 0)
(0.029697754 -0.0029492459 0)
(0.016728361 0.014942396 0)
(-0.00052804559 0.018208264 0)
(-0.010838183 0.011160831 0)
(-0.011680934 0.0011772653 0)
(-0.0059289522 -0.004712043 0)
(-0.00078907926 -0.0050055219 0)
(0.0014926169 -0.0028230804 0)
(0.0016216887 -0.00059631839 0)
(0.00083858512 0.00060237025 0)
(-5.2053674e-05 0.00091924681 0)
(-0.00048920308 0.00079772278 0)
(-0.00068154446 0.0005739474 0)
(-0.00071684816 0.00038002944 0)
(-0.00068885046 0.00023298909 0)
(-0.00064733386 0.00011022161 0)
(-0.00060480838 6.7527512e-06 0)
(-0.00056342845 -7.5293434e-05 0)
(-0.00052077292 -0.00013299153 0)
(-0.000472191 -0.00016054987 0)
(-0.00042462466 -0.00015120564 0)
(-0.0003790233 -0.0001144033 0)
(-0.00034298602 -7.0579561e-05 0)
(-0.00031627507 -2.2291851e-05 0)
(-0.011027024 0.0093904364 -5.4008014e-24)
(-0.012162353 -0.013288524 0)
(0.013239873 -0.041021747 4.2779135e-23)
(0.035097562 -0.016928564 0)
(0.017850522 0.020873583 0)
(-0.017808191 0.053672089 0)
(-0.052076642 0.038460269 0)
(-0.046088289 -0.015821308 0)
(-0.010897218 -0.047116256 0)
(0.028357169 -0.035960317 0)
(0.037781173 -0.0025857087 0)
(0.021701386 0.01976614 0)
(-0.00057654043 0.024910366 0)
(-0.01507591 0.015259446 0)
(-0.0165291 0.001404094 0)
(-0.0084726821 -0.0070324464 0)
(-0.00091385597 -0.0075226782 0)
(0.0024963612 -0.0042779376 0)
(0.0027819588 -0.0010892557 0)
(0.0016552698 0.00084101576 0)
(0.00029395055 0.0013553303 0)
(-0.00039824957 0.0011583394 0)
(-0.00076703147 0.00081160361 0)
(-0.00083465911 0.00050680835 0)
(-0.00078426258 0.00029560109 0)
(-0.00071813837 0.00014183045 0)
(-0.00065978759 2.222824e-05 0)
(-0.00061020689 -6.8521857e-05 0)
(-0.00056365435 -0.00013489054 0)
(-0.0005163424 -0.00017522934 0)
(-0.00046330803 -0.00018089514 0)
(-0.00041124344 -0.00015772528 0)
(-0.0003641722 -0.00011387904 0)
(-0.00032918523 -6.7797147e-05 0)
(-0.00030469838 -2.0528741e-05 0)
(-0.0095522935 0.0092709852 1.0670185e-23)
(-0.010887891 -0.014997141 6.9488728e-23)
(0.012906671 -0.04623465 -4.2761107e-23)
(0.034357702 -0.016199626 -6.1591774e-23)
(0.01797039 0.023467717 -1.0865889e-22)
(-0.020837043 0.062458223 0)
(-0.05487378 0.036530613 0)
(-0.040837599 -0.019982681 0)
(-0.0012646817 -0.057089257 0)
(0.034724283 -0.047330959 0)
(0.048000959 -0.0040859638 0)
(0.027615578 0.023925656 0)
(-0.00084788735 0.033455107 0)
(-0.020887708 0.021060255 0)
(-0.023048332 0.0016310607 0)
(-0.011850666 -0.010265635 0)
(-0.0010359312 -0.011002263 0)
(0.0039939028 -0.0063058774 0)
(0.0044707912 -0.0016874266 0)
(0.0028429167 0.0011691577 0)
(0.00088122235 0.0020217755 0)
(-0.00038328981 0.0016231588 0)
(-0.00087387039 0.001169666 0)
(-0.0010135272 0.00068479787 0)
(-0.0009288452 0.00036743281 0)
(-0.00081609026 0.00016920985 0)
(-0.00072644362 3.305281e-05 0)
(-0.0006633022 -6.3240392e-05 0)
(-0.00061190412 -0.00013549266 0)
(-0.0005605313 -0.00018316222 0)
(-0.0005095981 -0.00020161713 0)
(-0.00045300049 -0.0001917924 0)
(-0.00039797725 -0.0001563995 0)
(-0.00035156951 -0.0001144417 0)
(-0.00031680365 -6.3970528e-05 0)
(-0.0002942423 -1.8846307e-05 0)
(-0.0076613148 0.0091428984 -8.9503769e-24)
(-0.0092006429 -0.016534066 -8.4373381e-23)
(0.012051215 -0.051373698 0)
(0.032614317 -0.015421319 2.6020156e-22)
(0.017333118 0.026786294 1.0815331e-22)
(-0.021608797 0.070410713 6.7431131e-23)
(-0.05648676 0.039571476 3.2739978e-23)
(-0.03985231 -0.027679176 0)
(0.0017544473 -0.067085217 0)
(0.04052552 -0.057258315 0)
(0.060321323 -0.0029355894 0)
(0.035804231 0.032681188 0)
(-0.0017982682 0.043965336 0)
(-0.028930084 0.027738924 0)
(-0.031468105 0.0019278396 0)
(-0.016322173 -0.014509476 0)
(-0.0011292896 -0.015777031 0)
(0.0060793975 -0.0090665966 0)
(0.0068321956 -0.0024306889 0)
(0.0046406549 0.0016218885 0)
(0.0017425082 0.0030127159 0)
(-0.00032699173 0.0024622308 0)
(-0.0010773865 0.0016960341 0)
(-0.00128178 0.00095050712 0)
(-0.0011521805 0.00045659689 0)
(-0.00095962942 0.00018301735 0)
(-0.00081364523 2.8079611e-05 0)
(-0.00072054884 -6.7688976e-05 0)
(-0.00066092063 -0.00013815854 0)
(-0.00060998207 -0.00018991348 0)
(-0.00055673919 -0.00021575423 0)
(-0.0005005346 -0.00021674806 0)
(-0.00044057231 -0.00019388562 0)
(-0.0003853925 -0.00014986377 0)
(-0.00033993833 -0.00010564137 0)
(-0.00030578075 -5.9409892e-05 0)
(-0.00028492496 -1.7530711e-05 0)
(-0.0058158125 0.0089371968 6.1739559e-24)
(-0.0070645284 -0.017773875 2.0273554e-23)
(0.010473521 -0.055949692 6.0111351e-23)
(0.029679951 -0.014641503 -1.1054189e-22)
(0.016834568 0.029247204 -2.0635473e-22)
(-0.022264117 0.078850408 -2.0028822e-22)
(-0.057059403 0.043282997 -6.3507338e-23)
(-0.039544117 -0.030544409 8.3507108e-23)
(0.0031015624 -0.077463477 0)
(0.050036344 -0.067715485 0)
(0.072970229 -0.005031371 0)
(0.048861297 0.034593811 0)
(0.00018889867 0.056327629 0)
(-0.03778329 0.037106064 0)
(-0.041970892 0.0016308572 0)
(-0.021687859 -0.02012561 0)
(-0.0011270772 -0.022054395 0)
(0.00890604 -0.012757569 0)
(0.010047493 -0.0035387112 0)
(0.0070577047 0.0022334958 0)
(0.0029924902 0.0043876077 0)
(-0.00015225922 0.0037363142 0)
(-0.0014513839 0.0024388047 0)
(-0.0016970914 0.001366956 0)
(-0.0015080874 0.00056055556 0)
(-0.0011742648 0.00017511563 0)
(-0.00093177752 -9.1694996e-06 0)
(-0.00078586229 -9.5250491e-05 0)
(-0.00070726411 -0.0001500583 0)
(-0.0006554773 -0.00019626315 0)
(-0.00060639167 -0.00022619476 0)
(-0.00055166064 -0.00023332629 0)
(-0.0004918321 -0.00022212597 0)
(-0.00042681882 -0.00019027736 0)
(-0.00037366225 -0.00014178412 0)
(-0.00032846253 -9.7862426e-05 0)
(-0.00029584684 -5.5284522e-05 0)
(-0.00027652814 -1.6831238e-05 0)
(-0.0034749513 0.0087210783 -5.2510157e-24)
(-0.0047783263 -0.018830929 4.8140052e-24)
(0.0087156843 -0.05974742 0)
(0.025465289 -0.013872398 -6.4795313e-23)
(0.015777176 0.03200679 -3.0263927e-23)
(-0.021562006 0.087272127 0)
(-0.056265787 0.044625593 -8.2292858e-23)
(-0.038912254 -0.032884815 -3.0070095e-23)
(0.0037111582 -0.089350662 0)
(0.061993629 -0.07518376 0)
(0.080812494 -0.0047349189 0)
(0.050007594 0.048608204 0)
(0.0044661798 0.069941713 0)
(-0.044969502 0.045875245 0)
(-0.053098748 0.00096323226 0)
(-0.027852967 -0.02733558 0)
(-0.00081228846 -0.030355292 0)
(0.012718829 -0.017438926 0)
(0.014302717 -0.0049832998 0)
(0.010368364 0.0030422039 0)
(0.0047484764 0.0062365084 0)
(0.00012895897 0.0055771869 0)
(-0.0019938946 0.0035721316 0)
(-0.0023888732 0.0019020311 0)
(-0.0020223169 0.00072978371 0)
(-0.0015188483 0.00011186127 0)
(-0.0011001295 -0.00010791776 0)
(-0.00086097474 -0.00016853019 0)
(-0.00074727443 -0.00018611149 0)
(-0.00069225939 -0.00020846516 0)
(-0.00065086266 -0.00023215157 0)
(-0.00060288749 -0.00024527416 0)
(-0.0005449421 -0.00024069111 0)
(-0.0004845384 -0.00022057776 0)
(-0.00041839885 -0.00018340043 0)
(-0.00036274521 -0.00013490102 0)
(-0.00031835607 -9.128224e-05 0)
(-0.00028703541 -5.2332869e-05 0)
(-0.00026872251 -1.6882852e-05 0)
(-0.00077020923 0.0086621581 0)
(-0.0023502993 -0.01947464 0)
(0.006817337 -0.062740394 -4.9887056e-24)
(0.020284881 -0.013147904 0)
(0.014251182 0.034371128 -7.6462131e-25)
(-0.020745434 0.096069827 2.5386469e-23)
(-0.053804251 0.047090235 -1.1674461e-22)
(-0.036030402 -0.035166628 -4.4887651e-22)
(0.0032621273 -0.098955539 0)
(0.068321913 -0.087836627 0)
(0.083545543 -0.00061450717 0)
(0.0481069 0.050831975 0)
(-0.00038922881 0.085235216 0)
(-0.052827366 0.059883885 0)
(-0.066053315 1.7887757e-07 0)
(-0.035293958 -0.036295879 0)
(4.8296698e-05 -0.040678069 0)
(0.017747943 -0.02347746 0)
(0.019815652 -0.0067096985 0)
(0.014783103 0.0040460487 0)
(0.0071769721 0.0087526928 0)
(0.0005918731 0.0081577084 0)
(-0.0027605272 0.0052531897 0)
(-0.0034522674 0.002660245 0)
(-0.0028432584 0.00091178471 0)
(-0.0020257573 -3.3474229e-06 0)
(-0.0013481829 -0.00029262256 0)
(-0.00095332953 -0.00032169423 0)
(-0.00077416385 -0.00026995386 0)
(-0.00071057357 -0.00023920667 0)
(-0.00068231394 -0.00023785233 0)
(-0.00064957864 -0.00024764028 0)
(-0.00060041889 -0.00025143438 0)
(-0.00053895363 -0.00023929794 0)
(-0.000471744 -0.00021488507 0)
(-0.00041005116 -0.00017316939 0)
(-0.00035194051 -0.00012785274 0)
(-0.00030879378 -8.724453e-05 0)
(-0.00027854041 -5.148672e-05 0)
(-0.0002610667 -1.7716512e-05 0)
(-0.00035493856 -0.019751306 -7.9423924e-26)
(0.0014504707 0.0087002073 0)
(0.003197966 -0.06479449 9.4409927e-24)
(0.015112732 -0.012428933 -3.6441946e-23)
(0.011795916 0.036216845 3.0356237e-23)
(-0.018864067 0.10386968 -4.2772412e-23)
(-0.049415048 0.048409466 -1.3037075e-23)
(-0.033830928 -0.037055797 -1.5824416e-22)
(0.0026607724 -0.11018397 6.5764931e-22)
(0.067883168 -0.10084528 0)
(0.088183557 -0.0022654995 -1.6587822e-21)
(0.047246036 0.066036279 0)
(-0.0030406835 0.10592114 0)
(-0.055088595 0.075214416 0)
(-0.086355028 0.0015802149 0)
(-0.04830997 -0.046798663 0)
(0.0017367623 -0.053394992 0)
(0.024287343 -0.030513545 0)
(0.026729938 -0.0089259167 0)
(0.020462437 0.0053282104 0)
(0.010440471 0.012018964 0)
(0.0013131178 0.0116873 0)
(-0.0038152092 0.0077341166 0)
(-0.0050205068 0.0037649788 0)
(-0.0041402323 0.0011052264 0)
(-0.0027511253 -0.00019240043 0)
(-0.0017441599 -0.00065500847 0)
(-0.0010718077 -0.00059148399 0)
(-0.00078115365 -0.00042812607 0)
(-0.00069642812 -0.00030561314 0)
(-0.00068713145 -0.00025128747 0)
(-0.00068151044 -0.00024226872 0)
(-0.0006524794 -0.00024888162 0)
(-0.00059957495 -0.0002491922 0)
(-0.00053276972 -0.00023283842 0)
(-0.00045830624 -0.00020554861 0)
(-0.00039818101 -0.00016534046 0)
(-0.00034158431 -0.0001229483 0)
(-0.00029957895 -8.6531311e-05 0)
(-0.00027041062 -5.2675091e-05 0)
(-0.00025341371 -1.9207651e-05 0)
(-0.0001539729 -0.065630135 -1.043694e-23)
(0.0018336921 -0.019757801 0)
(0.0040065192 0.0089123202 -3.1211646e-23)
(0.0089732247 -0.011985694 3.6415679e-23)
(0.0091722294 0.03789714 -7.3075294e-24)
(-0.016491801 0.11127807 2.0814798e-22)
(-0.043592894 0.049536937 -4.9823922e-23)
(-0.029777143 -0.03861942 1.0447251e-22)
(0.0017805443 -0.12073564 4.7010813e-22)
(0.066249859 -0.11404095 1.950386e-22)
(0.088512971 -0.0047628135 -1.9137408e-21)
(0.045797153 0.07487907 1.7369072e-21)
(-0.013225877 0.12024666 0)
(-0.083470959 0.094411497 0)
(-0.11788671 0.0017920316 0)
(-0.065989222 -0.058056986 0)
(0.0013576614 -0.069600406 0)
(0.032888866 -0.03933697 0)
(0.035303457 -0.011144042 0)
(0.027563332 0.0067514555 0)
(0.014859914 0.016178537 0)
(0.0023234962 0.016453355 0)
(-0.0052348205 0.01115479 0)
(-0.0072675836 0.0053617897 0)
(-0.0060582473 0.0013367476 0)
(-0.0039013562 -0.0005881053 0)
(-0.0022734896 -0.001165645 0)
(-0.0012448325 -0.0010626358 0)
(-0.00075898253 -0.00072579995 0)
(-0.00062882845 -0.00043721064 0)
(-0.00064522464 -0.00028385604 0)