/*--------------------------------*- C++ -*----------------------------------*\
| =========                 |                                                 |
| \\      /  F ield         | OpenFOAM: The Open Source CFD Toolbox           |
|  \\    /   O peration     | Version:  5.0                                   |
|   \\  /    A nd           | Web:      www.OpenFOAM.org                      |
|    \\/     M anipulation  |                                                 |
\*---------------------------------------------------------------------------*/
FoamFile
{
    version     2.0;
    format      ascii;
    class       volScalarField;
    location    "280";
    object      nut;
}
// * * * * * * * * * * * * * * * * * * * * * * * * * * * * * * * * * * * * * //

dimensions      [0 2 -1 0 0 0 0];

internalField   nonuniform List<scalar> 
9520
(
1.5257711e-117
1.9376171e-109
1.3400824e-117
1.4102715e-102
1.7040151e-109
1.1724114e-117
1.830565e-96
1.2411016e-102
1.4920117e-109
1.0296547e-117
6.8046565e-91
1.611959e-96
1.0872187e-102
1.3122776e-109
9.1671433e-118
9.4524865e-86
5.9952983e-91
1.413144e-96
9.5750715e-103
1.1723456e-109
8.3206793e-118
5.8564511e-81
8.3307506e-86
5.2611065e-91
1.2465536e-96
8.5797576e-103
1.0696944e-109
7.6818093e-118
1.8236475e-76
5.1632439e-81
7.317498e-86
4.6497131e-91
1.1201396e-96
7.8608549e-103
9.920529e-110
7.133694e-118
3.0751195e-72
1.6095037e-76
4.5401055e-81
6.4795266e-86
4.1892183e-91
1.0295469e-96
7.3090387e-103
9.213423e-110
6.5453849e-118
2.9752067e-68
2.7193319e-72
1.4178015e-76
4.0284616e-81
5.8514611e-86
3.8589818e-91
9.5817746e-97
6.77235e-103
8.397226e-110
5.8280007e-118
1.7424042e-64
2.6386536e-68
2.4015134e-72
1.2613612e-76
3.6460716e-81
5.3972358e-86
3.5892677e-91
8.8426973e-97
6.1188542e-103
7.3870496e-110
4.9919612e-118
6.9022007e-61
1.5487485e-64
2.3378917e-68
2.142651e-72
1.1445471e-76
3.3654154e-81
5.0094596e-86
3.2943582e-91
7.912266e-97
5.3143854e-103
6.2516418e-110
4.1543401e-118
3.4653922e-57
6.0425099e-61
1.3761244e-64
2.0910971e-68
1.9489153e-72
1.0572523e-76
3.1136241e-81
4.5660345e-86
2.9177118e-91
6.786927e-97
4.4493332e-103
5.1824828e-110
3.4729157e-118
2.3140493e-52
2.6550972e-57
5.3076869e-61
1.2309263e-64
1.9050783e-68
1.8016161e-72
9.7488737e-77
2.814989e-81
4.000172e-86
2.4740989e-91
5.632447e-97
3.685042e-103
4.3828847e-110
3.0663004e-118
3.0989722e-46
1.341398e-52
2.0634993e-57
4.6692792e-61
1.1202088e-64
1.7623128e-68
1.65639e-72
8.7405851e-77
2.4378705e-81
3.3560295e-86
2.04023e-91
4.6757438e-97
3.1626404e-103
3.9800657e-110
2.9885225e-118
5.3794737e-40
1.8986573e-46
7.1052758e-53
1.5622182e-57
4.1876216e-61
1.0366545e-64
1.6173104e-68
1.4735026e-72
7.4836235e-77
2.0250724e-81
2.7564386e-86
1.7028747e-91
4.0834062e-97
2.955475e-103
4.018779e-110
3.2441698e-118
4.3155027e-34
4.0227934e-40
8.6078911e-47
2.8010982e-53
1.2242368e-57
3.8540881e-61
9.5145992e-65
1.4291584e-68
1.247932e-72
6.1612476e-77
1.6603692e-81
2.3195099e-86
1.5159417e-91
3.9250351e-97
3.0787303e-103
4.4787429e-110
3.7753151e-118
1.2693696e-28
3.8501574e-34
1.9047363e-40
1.9976455e-47
1.0384733e-53
1.0426896e-57
3.5381278e-61
8.3661799e-65
1.1977556e-68
1.0192865e-72
5.0539968e-77
1.4125338e-81
2.1067592e-86
1.4958733e-91
4.1966631e-97
3.4931068e-103
5.23152e-110
4.3972821e-118
1.2373927e-23
1.2927316e-28
1.9129051e-34
3.9692934e-41
3.1650884e-48
5.277354e-54
9.2933205e-58
3.0982973e-61
6.9380763e-65
9.7077935e-69
8.3794759e-73
4.3575504e-77
1.3103019e-81
2.1276342e-86
1.6313456e-91
4.8076302e-97
4.0561573e-103
5.9567485e-110
4.7752733e-118
3.6185278e-19
1.378287e-23
6.6748767e-29
3.8882549e-35
5.421618e-42
8.2113668e-49
3.8294862e-54
7.9942133e-58
2.5369021e-61
5.5734441e-65
8.0055046e-69
7.3332285e-73
4.1309714e-77
1.3506404e-81
2.3504816e-86
1.8711777e-91
5.5039064e-97
4.4782995e-103
6.1852249e-110
4.5798684e-118
2.9342969e-15
4.2284435e-19
7.325488e-24
1.3577258e-29
5.7318925e-36
1.6344093e-42
5.3936243e-49
3.0042852e-54
6.3398534e-58
2.0112798e-61
4.6081273e-65
7.1178798e-69
7.1002285e-73
4.3349671e-77
1.5021356e-81
2.6773354e-86
2.0965352e-91
5.8566522e-97
4.4234067e-103
5.5920584e-110
3.7617177e-118
6.0047861e-12
3.4401064e-15
2.3603059e-19
1.5529187e-24
2.3220037e-30
2.6565504e-36
1.7026315e-42
4.3835027e-49
1.9465831e-54
4.8387408e-58
1.6622279e-61
4.1639599e-65
7.0336948e-69
7.5579744e-73
4.8284606e-77
1.6864219e-81
2.9160906e-86
2.1408056e-91
5.4860093e-97
3.7643441e-103
4.3091885e-110
2.6333446e-118
3.0626469e-09
6.8565355e-12
2.0026407e-15
5.7061916e-20
3.3082627e-25
1.6877953e-30
4.5025203e-36
1.8592799e-42
1.6552557e-49
1.0998339e-54
3.9238323e-58
1.5254324e-61
4.1978675e-65
7.5708608e-69
8.3858289e-73
5.3116642e-77
1.7738862e-81
2.8470475e-86
1.9002574e-91
4.3961151e-97
2.7296658e-103
2.8508731e-110
1.6148296e-118
3.8882981e-07
3.3882817e-09
4.2462658e-12
5.7049714e-16
1.7083413e-20
3.5341258e-25
4.1241184e-30
6.1286666e-36
5.9711943e-43
2.5003653e-50
7.1182737e-55
3.6295963e-58
1.5693609e-61
4.5596708e-65
8.3289585e-69
8.9933638e-73
5.3695878e-77
1.6490132e-81
2.3952689e-86
1.4383532e-91
3.0147245e-97
1.7226317e-103
1.6944134e-110
9.3328467e-119
1.1422973e-05
4.1614639e-07
2.2137228e-09
1.4735421e-12
2.3534357e-16
2.1925127e-20
1.0671282e-24
6.3594563e-30
1.947377e-36
3.86135e-44
3.4863775e-51
6.0348344e-55
3.8097622e-58
1.7197034e-61
4.9566362e-65
8.6689446e-69
8.7088e-73
4.7392322e-77
1.3139387e-81
1.7208582e-86
9.4050095e-92
1.8367741e-97
1.0108188e-103
9.9877843e-111
5.7994379e-119
6.3862724e-05
1.1908898e-05
2.8914024e-07
9.2530668e-10
7.8241459e-13
3.4091967e-16
6.9366519e-20
1.7234147e-24
1.9922296e-30
1.0135135e-37
8.5408324e-46
1.1349418e-51
6.2879766e-55
4.2196601e-58
1.8439509e-61
4.9871494e-65
8.0172204e-69
7.2938434e-73
3.5769092e-77
8.9965717e-82
1.0847148e-86
5.6185752e-92
1.0876167e-97
6.2532896e-104
6.8251682e-111
4.5941461e-119
0.00013206075
6.5143885e-05
9.1950934e-06
1.4480029e-07
6.0245114e-10
1.217365e-12
1.036194e-15
1.1083339e-19
5.3236486e-25
9.3750017e-32
1.3320059e-39
2.3592172e-47
8.4745927e-52
7.0159722e-55
4.4639207e-58
1.7876239e-61
4.3909322e-65
6.3697116e-69
5.2310158e-73
2.3451309e-77
5.5288178e-82
6.4754602e-87
3.4389939e-92
7.2727274e-98
4.838927e-104
6.365859e-111
5.2361047e-119
0.00019048953
0.00013352392
5.7423319e-05
5.6415182e-06
1.101561e-07
9.790994e-10
3.3942254e-12
1.5787547e-15
3.414559e-20
2.4596191e-26
1.0522109e-33
1.3326836e-41
3.4005339e-48
8.8394873e-52
7.3251558e-55
4.1578345e-58
1.4929656e-61
3.3070704e-65
4.3577214e-69
3.3117471e-73
1.4215567e-77
3.366484e-82
4.2020462e-87
2.5503847e-92
6.5101956e-98
5.3527193e-104
8.6220682e-111
8.3850042e-119
0.00023617652
0.00019064019
0.00012340315
4.4567125e-05
4.8182521e-06
1.8093862e-07
2.4433121e-09
4.8437021e-12
4.9292199e-16
1.6821286e-21
3.1676771e-28
1.0826133e-35
7.7262963e-43
2.441958e-48
9.0094342e-52
6.5338002e-55
3.2787146e-58
1.0641992e-61
2.1665844e-65
2.6904335e-69
2.0103438e-73
9.0013935e-78
2.3762911e-82
3.5237391e-87
2.6621822e-92
8.4749701e-98
8.3959888e-104
1.5473968e-110
1.6315117e-118
0.00027369992
0.00023538373
0.00017844332
0.00010660399
4.1300684e-05
7.4170355e-06
3.9839133e-07
3.2128519e-09
1.5625615e-12
2.7766698e-17
3.0507292e-23
5.3953469e-30
1.5430027e-36
8.0607447e-43
2.5564244e-48
7.5533414e-52
4.8319206e-55
2.2053854e-58
6.6987619e-62
1.3182754e-65
1.6629007e-69
1.3501243e-73
7.0504724e-78
2.2867548e-82
4.2651202e-87
3.9895547e-92
1.4883025e-97
1.6219799e-103
3.1155559e-110
3.286175e-118
0.00030519193
0.00027176136
0.00022178619
0.00016071396
0.00010236005
5.3249973e-05
1.316887e-05
4.8063391e-07
1.0884624e-09
1.0728364e-13
7.4897127e-19
9.9927545e-25
2.0208052e-30
4.3475821e-36
1.4078029e-42
1.6690722e-48
5.0705913e-52
3.0491934e-55
1.3374888e-58
4.0600209e-62
8.4378442e-66
1.2064869e-69
1.1884157e-73
7.8180548e-78
3.1721701e-82
7.1315979e-87
7.5564419e-92
2.9835646e-97
3.2686237e-103
6.1021208e-110
6.1265253e-118
0.00033151939
0.00030187439
0.00025698519
0.00020351212
0.0001573883
0.00011875091
7.1009999e-05
1.4480618e-05
1.7667564e-07
9.4943619e-11
4.4010017e-15
4.9425318e-20
7.6858415e-25
9.9232013e-30
1.0857044e-35
6.1074944e-43
6.4121039e-49
2.9294312e-52
1.7829904e-55
8.1622126e-59
2.7356389e-62
6.7171453e-66
1.2008318e-69
1.5047883e-73
1.2205793e-77
5.7404875e-82
1.4049743e-86
1.5228586e-91
5.8659932e-97
6.0982613e-103
1.0649312e-109
9.9393233e-118
0.00035193131
0.00032650116
0.00028654177
0.00023838937
0.00020121246
0.00017619055
0.00014055555
7.3213213e-05
6.688524e-06
2.0377487e-08
6.1116143e-12
5.932521e-16
6.7473719e-20
4.9433797e-24
2.8269018e-29
4.6325177e-36
4.1094381e-44
2.3434269e-49
1.6405606e-52
1.1065724e-55
5.878064e-59
2.4177892e-62
7.5580199e-66
1.7087461e-69
2.572443e-73
2.3291495e-77
1.141754e-81
2.7724637e-86
2.864588e-91
1.0275789e-96
9.8515902e-103
1.583027e-109
1.3623477e-117
0.00036683391
0.00034551258
0.00031053234
0.00026833412
0.00023651321
0.00022113027
0.00019978353
0.00014234069
4.8713418e-05
1.1601887e-06
2.1142061e-09
1.6445047e-12
1.2420073e-15
4.772705e-19
1.4649026e-23
1.2542854e-29
1.9304097e-37
1.0591725e-45
1.1024325e-49
1.0431373e-52
8.6311619e-56
5.8090987e-59
3.057653e-62
1.1851754e-65
3.1102534e-69
5.0330776e-73
4.5855673e-77
2.1621581e-81
4.9151823e-86
4.6634913e-91
1.525362e-96
1.3339857e-102
1.9637607e-109
1.5581795e-117
0.00037695969
0.00035926615
0.00032937259
0.00029315986
0.00026668127
0.00025623953
0.00024416736
0.00019940186
0.00011120794
1.6858109e-05
1.9868748e-07
1.0547318e-09
4.6369323e-12
8.6197699e-15
1.3905113e-18
6.7232524e-24
5.3122835e-31
8.9214681e-40
8.7114643e-47
7.061943e-50
8.9032211e-53
9.5643754e-56
8.1711413e-59
5.173869e-62
2.2392618e-65
6.0913685e-69
9.627607e-73
8.2390281e-77
3.5733124e-81
7.3837238e-86
6.3291955e-91
1.8745729e-96
1.4929416e-102
2.0167207e-109
1.481285e-117
0.00038252665
0.0003685515
0.00034336981
0.00031321818
0.00029190534
0.00028524335
0.00027750846
0.00024156026
0.00016462429
6.3110904e-05
5.2677859e-06
1.622923e-07
3.5570158e-09
2.9172427e-11
2.3689433e-14
6.5742904e-19
3.121721e-25
2.2650552e-33
1.9418249e-42
3.8071386e-47
6.6231925e-50
1.1050758e-52
1.4770693e-55
1.4612786e-58
9.9247989e-62
4.305378e-65
1.1157818e-68
1.6246131e-72
1.2584306e-76
4.9214241e-81
9.1427268e-86
7.042285e-91
1.8890282e-96
1.3740945e-102
1.711414e-109
1.170733e-117
0.00038424467
0.00037382753
0.00035332942
0.00032886604
0.00031248084
0.0003089679
0.00030383314
0.00027308645
0.00020578095
0.00011380143
3.5260832e-05
5.9058078e-06
5.7966651e-07
1.9166576e-08
7.3042063e-11
1.1520044e-14
3.491019e-20
1.643484e-27
2.947383e-36
4.3210812e-44
3.6827765e-47
9.1625557e-50
1.8489083e-52
2.7403896e-55
2.7928454e-58
1.8445676e-61
7.4648201e-65
1.7538293e-68
2.282893e-72
1.5765143e-76
5.5225382e-81
9.2066848e-86
6.3823241e-91
1.5562885e-96
1.0395074e-102
1.2014618e-109
7.7115184e-118
0.00038344566
0.00037604899
0.00035979916
0.00034084884
0.00032879991
0.00032799953
0.00032466982
0.00029791415
0.00023752383
0.000155849
8.4254937e-05
4.3058533e-05
1.7129909e-05
2.4529577e-06
4.2466639e-08
3.6481992e-11
7.2500764e-16
2.5362957e-22
3.3167297e-30
4.0463722e-39
1.8108839e-44
5.5921365e-47
1.6428743e-49
3.5046136e-52
5.1405306e-55
4.9542726e-58
2.9998728e-61
1.0872855e-64
2.261196e-68
2.6011509e-72
1.5947282e-76
5.0042552e-81
7.5013936e-86
4.7032866e-91
1.0485359e-96
6.4743975e-103
6.9976968e-110
4.2499136e-118
0.00038077054
0.00037624219
0.00036383548
0.00034960904
0.00034166772
0.00034277874
0.00034080494
0.0003174259
0.00026456603
0.00018921098
0.00012903621
0.00010007344
7.9255606e-05
4.1365852e-05
4.5234041e-06
2.1865631e-08
2.8049038e-12
7.6094552e-18
8.1911783e-25
4.3537703e-33
3.7325977e-41
2.6480752e-44
1.0678727e-46
3.1477998e-49
6.3779317e-52
8.6163439e-55
7.4999445e-58
4.0330595e-61
1.2831602e-64
2.3419907e-68
2.3744861e-72
1.294194e-76
3.6504963e-81
4.9411299e-86
2.8204842e-91
5.7894052e-97
3.3306456e-103
3.3958144e-110
1.9699783e-118
0.00037629635
0.00037509194
0.00036694029
0.00035603829
0.00035132044
0.00035420254
0.00035275563
0.00033242961
0.00028653714
0.00021942645
0.00016536228
0.00014957183
0.00014669301
0.00012037806
5.526509e-05
2.5320991e-06
2.1102093e-09
4.3386105e-14
3.7975951e-20
1.6173476e-27
5.7656933e-36
1.4034455e-41
5.3481163e-44
2.0588636e-46
5.5089023e-49
1.0018591e-51
1.2060794e-54
9.2796444e-58
4.3487555e-61
1.206994e-64
1.930543e-68
1.7282232e-72
8.410691e-77
2.1434807e-81
2.6350361e-86
1.380076e-91
2.6291585e-97
1.4220037e-103
1.3812028e-110
7.7350396e-119
0.00037354212
0.00037417881
0.00036954237
0.00036129055
0.00035825395
0.00036231942
0.00036125848
0.00034331792
0.00030441678
0.00024534676
0.00019588224
0.00018885127
0.00020063225
0.00019168394
0.00013682981
3.9919884e-05
3.3292377e-07
4.8324384e-11
3.2376444e-16
1.1549075e-22
2.7606434e-30
1.1848313e-37
2.8946389e-41
1.0456492e-43
3.4457341e-46
8.0448714e-49
1.2884374e-51
1.3676595e-54
9.1299599e-58
3.7120694e-61
8.9831922e-65
1.261883e-68
1.0017316e-72
4.3801836e-77
1.0149433e-81
1.1414749e-86
5.5338152e-92
9.8774804e-98
5.0756722e-104
4.7506736e-111
2.599606e-119
0.00037167188
0.0003753174
0.00037569878
0.00036537724
0.00036335272
0.00036760552
0.00036647925
0.00035074889
0.00031853791
0.0002674164
0.0002224606
0.00021919915
0.00024069783
0.00024695469
0.00020679941
0.00011417796
1.062485e-05
1.1339796e-08
5.265485e-13
1.526921e-18
4.0518754e-25
8.5935835e-32
4.4349021e-37
7.0060453e-41
1.6738138e-43
4.6384956e-46
9.4286699e-49
1.3296222e-51
1.2263706e-54
7.0680237e-58
2.49374e-61
5.2752793e-65
6.5364117e-69
4.6299165e-73
1.8333153e-77
3.8916504e-82
4.0414366e-87
1.8326335e-92
3.1011877e-98
1.5338704e-104
1.4028349e-111
7.6095879e-120
0.00036835818
0.00037625966
0.0003764593
0.00037622401
0.00036645628
0.00037069317
0.00036903114
0.000355158
0.00032945984
0.00028612236
0.00024532185
0.00024372419
0.00027013255
0.00028477232
0.00025905285
0.00017928727
5.8590979e-05
6.4435772e-07
1.7842322e-10
4.0351004e-15
1.4301912e-20
6.6937243e-26
1.0011354e-30
4.1889034e-36
1.1802737e-40
2.0448944e-43
4.9013784e-46
8.7874401e-49
1.085312e-51
8.6057808e-55
4.2854322e-58
1.3158274e-61
2.44441e-65
2.6884717e-69
1.713482e-73
6.2065195e-78
1.219133e-82
1.1840345e-87
5.0931933e-93
8.3051034e-99
4.0244248e-105
3.6632113e-112
2.0059815e-120
0.00036740849
0.00037176788
0.00037885348
0.00037596727
0.00037549255
0.00037154028
0.00036934186
0.00035722174
0.00033769094
0.00030190795
0.00026494316
0.00026430156
0.00029120816
0.00030934478
0.00029246884
0.00022762655
0.00011624377
9.4344314e-06
1.5203206e-08
2.4789886e-12
1.3134926e-16
1.1629264e-20
1.289137e-24
1.6547075e-29
1.1629113e-35
1.1111109e-40
1.9019545e-43
4.0794078e-46
6.5027545e-49
6.898584e-52
4.7088947e-55
2.0325946e-58
5.4588343e-62
8.9676871e-66
8.8362131e-70
5.1300748e-74
1.7248267e-78
3.1854219e-83
2.9528076e-88
1.2321849e-93
1.9866367e-99
9.6895752e-106
9.0143092e-113
5.104934e-121
0.0003700782
0.00036641118
0.00037469358
0.00037919848
0.00037393008
0.00037267555
0.00036769765
0.00035753789
0.00034392523
0.000315075
0.00028174878
0.00028148247
0.00030805673
0.00032652209
0.00031343161
0.00026053039
0.0001623671
3.9851373e-05
4.0698126e-07
4.5152425e-10
3.3270753e-13
3.623599e-16
2.5565891e-19
2.0268489e-23
5.3000435e-29
5.0677614e-36
6.8678773e-41
1.3841162e-43
2.7110222e-46
3.7399718e-49
3.4060188e-52
2.0089702e-55
7.5609951e-59
1.7910737e-62
2.6322038e-66
2.3606277e-70
1.2753827e-74
4.0842113e-79
7.3111493e-84
6.7120424e-89
2.834146e-94
4.7251328e-100
2.4233053e-106
2.3950472e-113
1.4457207e-121
0.0003643356
0.00036579081
0.00036644188
0.00037620708
0.00037745359
0.00036978417
0.00036627104
0.0003567024
0.00034891701
0.00032612583
0.00029607492
0.00029579814
0.00032122472
0.00033922432
0.00032829941
0.00028435291
0.00019724472
7.9038212e-05
4.234727e-06
2.9944269e-08
2.3282885e-10
1.9932188e-12
7.4630703e-15
3.4518814e-18
6.2181643e-23
2.0466726e-29
3.82384e-37
3.7051811e-41
8.1180138e-44
1.4070243e-46
1.665516e-49
1.3082973e-52
6.7175392e-56
2.2289366e-59
4.7329841e-63
6.3680915e-67
5.3701913e-71
2.8211272e-75
9.0764618e-80
1.678853e-84
1.6407895e-89
7.5675678e-95
1.4027299e-100
8.0424884e-107
8.8294829e-114
5.8251956e-122
0.00035560954
0.00035929878
0.00036158458
0.00036634086
0.00037574528
0.0003734411
0.00036202532
0.00035554846
0.00035285795
0.00033584033
0.0003082979
0.00030757038
0.00033154403
0.00034767537
0.00033811678
0.00030184169
0.00022985349
0.00011356658
1.9337984e-05
8.002606e-07
4.308305e-08
2.0261943e-09
3.4237545e-11
8.2782475e-14
9.7548591e-18
2.5490936e-23
7.4087755e-31
1.9581814e-38
1.8219485e-41
3.7718563e-44
5.6470802e-47
5.7677408e-50
3.9479584e-53
1.7931143e-56
5.3762414e-60
1.0618565e-63
1.3799922e-67
1.1786893e-71
6.6200282e-76
2.3857691e-80
5.1337214e-85
5.9932478e-90
3.3383456e-95
7.4118844e-101
4.9663686e-107
6.1524454e-114
4.4000175e-122
0.0003569947
0.00035334681
0.00035304263
0.00035706271
0.00036505971
0.0003729499
0.00036591204
0.00035019558
0.00034021776
0.00034432364
0.00031876803
0.00031711259
0.00033913435
0.00035325799
0.00034349511
0.00031398272
0.00025549555
0.00015216052
4.6623627e-05
8.1521283e-06
2.0551244e-06
4.0269177e-07
2.6924741e-08
3.0021371e-10
2.1071069e-13
4.2213377e-18
1.124808e-24
2.5643316e-33
3.6007134e-39
7.4372287e-42
1.3611514e-44
1.7664185e-47
1.5805651e-50
9.6647873e-54
4.0404472e-57
1.1639199e-60
2.3396827e-64
3.3223716e-68
3.3517948e-72
2.3785719e-76
1.1233127e-80
3.2003393e-85
4.8603146e-90
3.3957457e-95
9.005969e-101
6.8436178e-107
9.1519393e-114
6.7564201e-122
0.00035232125
0.00035869685
0.00034959301
0.00034622317
0.0003516523
0.00036185548
0.00036705927
0.00035437244
0.00033410982
0.00031948197
0.00032778357
0.00032476615
0.00034441249
0.00035589144
0.00034541697
0.00032139076
0.00027591166
0.00018560382
8.1920677e-05
3.275501e-05
2.2253349e-05
1.4074645e-05
3.653676e-06
1.7884441e-07
6.7509974e-10
9.5415457e-14
2.3879105e-19
4.6261219e-27
5.6845537e-36
1.1359973e-39
2.3954073e-42
3.856013e-45
4.4387291e-48
3.6219848e-51
2.1125775e-54
8.9978124e-58
2.8814581e-61
7.1215604e-65
1.3669989e-68
1.9862526e-72
2.0495034e-76
1.3540263e-80
5.0802259e-85
9.4861616e-90
7.6473037e-95
2.216616e-100
1.7624074e-106
2.3824423e-113
1.7284823e-121
0.00033561172
0.00035808241
0.00035833842
0.00034420079
0.00033826161
0.00034476154
0.00035604561
0.00035736916
0.00033874462
0.00031299567
0.00029321633
0.00033056301
0.00034767988
0.00035627526
0.00034444051
0.00032503748
0.0002916519
0.00021494352
0.00011664844
6.4464722e-05
6.9003582e-05
7.2298267e-05
5.3043269e-05
1.465643e-05
3.469325e-07
3.1952342e-10
6.8939949e-15
1.6133078e-21
2.9384074e-30
2.1188393e-37
3.1828674e-40
6.1616322e-43
9.0181761e-46
9.8299674e-49
8.1386182e-52
5.318241e-55
2.8647892e-58
1.3067215e-61
4.9824735e-65
1.4960862e-68
3.2320797e-72
4.5287524e-76
3.7031085e-80
1.5895057e-84
3.2026608e-89
2.6728573e-94
7.7926904e-100
6.1090764e-106
8.0264863e-113
5.5947826e-121
0.00033475329
0.00034202431
0.00036165645
0.00035588396
0.00033683105
0.00032867573
0.00033576576
0.00034695438
0.00034365029
0.00031820017
0.00028667053
0.00026139791
0.00034891668
0.0003544751
0.00034121026
0.00032591491
0.00030337228
0.00024054435
0.00014854434
9.6915994e-05
0.00010978803
0.00013766372
0.00013658102
9.5773912e-05
2.1763148e-05
1.7385672e-07
2.9681277e-11
7.5852074e-17
1.8901269e-24
2.1281087e-33
3.5046174e-38
7.4285649e-41
1.3709449e-43
2.0237668e-46
2.4665293e-49
2.6178479e-52
2.5253158e-55
2.2125074e-58
1.6660419e-61
9.8193795e-65
4.0850831e-68
1.0925211e-71
1.7286913e-75
1.4987532e-79
6.5280531e-84
1.3023493e-88
1.060449e-93
2.9909377e-99
2.2574437e-105
2.8471574e-112
1.9003348e-120
0.00034817165
0.00033743356
0.00034720849
0.00036311923
0.00035127253
0.00032759009
0.00031698081
0.00032431398
0.00033413594
0.00032517504
0.00029246838
0.00025519578
0.00022457876
0.00035059214
0.00033598659
0.00032491999
0.00031195626
0.00026251794
0.00017763683
0.00012658546
0.00014203065
0.00018719634
0.00020675959
0.00018485971
0.00011014377
1.3410182e-05
2.1273697e-08
5.2735968e-13
1.7947942e-19
1.1924168e-27
1.1000258e-35
7.0478734e-39
1.6198342e-41
3.3303248e-44
6.3022044e-47
1.1555852e-49
2.0770622e-52
3.4669257e-55
4.8623423e-58
5.1496621e-61
3.7518088e-64
1.7444098e-67
4.8686929e-71
7.7099071e-75
6.525186e-79
2.7351555e-83
5.224639e-88
4.0676506e-93
1.0976799e-98
7.9400867e-105
9.6157244e-112
6.2219132e-129
0.00034453063
0.00034527118
0.00033863421
0.00035092274
0.00036245311
0.00034462755
0.00031607681
0.00030281941
0.00030990329
0.00031689875
0.0003015536
0.00026176642
0.00021878178
0.00017991874
0.0003290498
0.00032251475
0.00031846107
0.00028110578
0.00020423115
0.00015324314
0.00016926342
0.00021973412
0.00025900667
0.00025299233
0.00019873053
8.9354863e-05
2.7085414e-06
6.1409656e-10
2.4331137e-15
2.139504e-22
5.7760817e-31
6.7091343e-37
1.5541088e-39
4.628767e-42
1.4428342e-44
4.7640031e-47
1.5830929e-49
4.7522568e-52
1.1421278e-54
1.9901066e-57
2.3410407e-60
1.7605232e-63
8.0913357e-67
2.1801012e-70
3.2960745e-74
2.6438744e-78
1.0498014e-82
1.904651e-87
1.4136139e-92
3.6514232e-98
2.5385487e-104
4.5545193e-120
9.5364449e-139
0.00032058423
0.0003361044
0.00034012098
0.00033874913
0.00035300144
0.00035962233
0.00033560358
0.00030185208
0.00028581988
0.00029160841
0.00029485785
0.00027266307
0.00022539584
0.00017431876
0.00012403781
0.00031908563
0.00032374041
0.00029702885
0.00022848467
0.00017746188
0.00019255303
0.00024623817
0.00029114838
0.00029935681
0.00026328032
0.00017515299
4.2873444e-05
1.3726515e-07
5.36215e-12
5.5131362e-18
1.3939088e-25
6.8725819e-34
1.2980574e-37
5.7142687e-40
3.0701547e-42
1.8264583e-44
1.064314e-46
5.2974353e-49
2.0115038e-51
5.379784e-54
9.6187632e-57
1.1084504e-59
7.9690412e-63
3.4621383e-66
8.784622e-70
1.2513104e-73
9.4490801e-78
3.5497729e-82
6.1262968e-87
4.3488462e-92
1.0801118e-97
1.8225271e-112
9.8451468e-130
5.8152616e-150
0.00031480569
0.0003107305
0.00032548556
0.00033352403
0.00033808833
0.00035314309
0.00035444821
0.00032381898
0.00028465046
0.00026538151
0.00026889066
0.00026752138
0.0002371897
0.00018040299
0.00011824697
5.8121892e-05
0.00032839709
0.00031122087
0.00025065881
0.00019972846
0.00021302467
0.00026780622
0.00031663635
0.00032933229
0.00030287388
0.00023979872
0.00012040392
6.2788569e-06
2.2153615e-09
2.219947e-14
6.439e-21
5.8163426e-29
1.5877981e-35
6.4988727e-38
6.0897244e-40
6.2660753e-42
5.9389011e-44
4.5318387e-46
2.5434936e-48
9.9121888e-51
2.5818019e-53
4.3786162e-56
4.7295412e-59
3.1747528e-62
1.2887518e-65
3.0656942e-69
4.106428e-73
2.9263324e-77
1.0442156e-81
1.7227339e-86
1.1762102e-91
1.2020562e-105
6.164679e-122
6.8980292e-141
1.6153099e-162
0.00033211654
0.00030927913
0.00029936118
0.0003134073
0.0003267749
0.00033618943
0.00035103843
0.00034640265
0.00030910757
0.00026384177
0.00024074851
0.00024102752
0.00023358731
0.00019244169
0.00012290565
5.3972007e-05
9.5546436e-06
0.00032493811
0.00027095192
0.00022034077
0.00023124794
0.00028611148
0.00033650197
0.00035150039
0.00032902931
0.00027928615
0.00018754671
4.8601378e-05
2.0761677e-07
1.6094947e-11
4.5513916e-17
4.0144848e-24
4.0128502e-32
7.201677e-36
1.0977073e-37
1.8305213e-39
2.6184729e-41
2.8730874e-43
2.266912e-45
1.2366118e-47
4.5419476e-50
1.1001519e-52
1.7280426e-55
1.7297043e-58
1.0794944e-61
4.0941721e-65
9.1543737e-69
1.1560381e-72
7.8155637e-77
2.6646882e-81
4.2290753e-86
2.0517533e-99
6.6711771e-115
6.2465377e-133
1.4789292e-153
3.8970595e-176
0.00033750672
0.00033400287
0.00030228388
0.00028664892
0.00030055079
0.00031820058
0.00033239177
0.00034607827
0.00033549568
0.00029066078
0.00023884749
0.00021151095
0.00020769715
0.00019054631
0.00013417022
5.7612272e-05
8.2323507e-06
3.1106742e-07
0.00028986175
0.00023950415
0.00024742456
0.00030158352
0.00035288723
0.00036742611
0.00034618757
0.00030524935
0.0002378968
0.00011129765
5.0441094e-06
2.5809255e-09
5.5724944e-14
4.7662117e-20
1.5852889e-27
1.2615894e-33
1.7346188e-35
4.3658649e-37
8.8521786e-39
1.3295618e-40
1.4197172e-42
1.0508109e-44
5.2916647e-47
1.7848876e-49
3.9726183e-52
5.7533513e-55
5.3353381e-58
3.1029159e-61
1.1038298e-64
2.3304541e-68
2.7885844e-72
1.8002805e-76
5.9049223e-81
1.1632741e-93
1.9084628e-108
1.1050485e-125
1.4279516e-145
2.1289213e-167
1.5931003e-190
0.00030736196
0.00034757996
0.00033356915
0.00029378717
0.00027249358
0.00028560838
0.00030768235
0.00032590689
0.00033792332
0.00032076581
0.00026786941
0.00020909281
0.00017737317
0.00016576825
0.00013411623
6.6214161e-05
9.2901745e-06
2.4453697e-07
2.4789814e-09
0.00025734892
0.00026160123
0.00031402971
0.00036604325
0.00037926491
0.00035609046
0.00032009757
0.00027161897
0.00017470376
3.2065613e-05
1.1491647e-07
1.4558822e-11
9.5600437e-17
2.6948732e-23
1.7541771e-30
2.3973486e-33
8.2738216e-35
2.2651465e-36
4.4847398e-38
6.287204e-40
6.1516225e-42
4.1462937e-44
1.9012636e-46
5.8584717e-49
1.1973922e-51
1.602067e-54
1.3813682e-57
7.5219806e-61
2.5240525e-64
5.0556461e-68
5.7724641e-72
3.5845837e-76
2.5698119e-88
1.8311981e-102
5.4763623e-119
3.495236e-138
1.3871966e-159
5.7979033e-182
1.5468184e-205
0.0002738449
0.00032304855
0.00035447458
0.00033098864
0.00028355658
0.00025666104
0.00026864232
0.00029439298
0.00031601711
0.00032581143
0.00030146024
0.00023925436
0.00017347713
0.00013502889
0.00011181407
6.6286385e-05
1.2206047e-05
2.7999177e-07
1.7385999e-09
5.0553859e-12
0.00027362657
0.00032320595
0.00037532959
0.00038721294
0.00036040917
0.00032641714
0.00029164026
0.00022244957
9.1522998e-05
1.7824924e-06
1.0235192e-09
3.9503098e-14
8.5005573e-20
1.263228e-26
3.5529603e-31
1.2348282e-32
4.3849105e-34
1.1107935e-35
1.9923564e-37
2.5173992e-39
2.2214205e-41
1.3547935e-43
5.6487816e-46
1.5923392e-48
2.9981671e-51
3.722193e-54
2.9998178e-57
1.5385164e-60
4.9024824e-64
9.3677804e-68
1.0284359e-71
2.4712111e-83
6.8744594e-97
9.3559655e-113
2.7838858e-131
3.1263188e-152
2.0705069e-174
4.7253133e-197
4.4445134e-221
0.00028377263
0.00028879907
0.0003362236
0.00035843062
0.00032615041
0.00027154327
0.00023890085
0.00024894497
0.00027765885
0.00030197186
0.00030901073
0.00027617356
0.0002033546
0.00012904155
8.214581e-05
4.8594717e-05
1.2275945e-05
4.0866598e-07
1.9456506e-09
3.0627396e-12
2.6400927e-15
0.00032862527
0.00037971731
0.00039055576
0.00035957386
0.00032570697
0.00030123337
0.00025709631
0.00014903171
1.9751946e-05
2.5033444e-08
4.2272123e-12
5.4228076e-17
4.6603089e-23
1.0475109e-28
1.486365e-30
6.5103208e-32
2.0472669e-33
4.5884463e-35
7.3222626e-37
8.2806838e-39
6.57766e-41
3.6328613e-43
1.380814e-45
3.5742961e-48
6.2291935e-51
7.2159415e-54
5.4699165e-57
2.6600799e-60
8.1020136e-64
1.4876278e-67
1.1225644e-78
1.1246227e-91
6.338463e-107
8.2593949e-125
3.0128849e-145
2.7832069e-167
1.0822444e-189
1.3198663e-212
4.5708539e-237
0.00033047574
0.0002920577
0.00030252056
0.00034666993
0.00035953663
0.00031909756
0.00025742892
0.00021885176
0.0002261732
0.00025695079
0.00028331637
0.00028678568
0.0002423686
0.00015647183
7.4457836e-05
2.7069496e-05
6.686442e-06
4.237932e-07
3.0343972e-09
3.2620516e-12
1.328444e-15
3.6849939e-19
0.00037831386
0.00038781014
0.00035331472
0.00031899687
0.00030316901
0.00027959108
0.00019994625
6.5104006e-05
8.1823582e-07
1.4927884e-10
8.6647117e-15
4.3035818e-20
7.4824854e-26
1.5976286e-28
7.7012941e-30
2.8999781e-31
7.8337279e-33
1.5418624e-34
2.1872994e-36
2.2164479e-38
1.5884176e-40
7.9698397e-43
2.7726833e-45
6.6229189e-48
1.0743934e-50
1.1687703e-53
8.3925895e-57
3.8996078e-60
1.1427018e-63
2.5651716e-74
8.6803891e-87
1.8839623e-101
1.0132831e-118
1.2819034e-138
2.1289284e-160
7.5632806e-183
2.4753156e-205
1.399451e-228
3.1891737e-253
0.00037091952
0.00032877155
0.00029924156
0.00031496292
0.0003542721
0.00035780407
0.00030947887
0.00024087537
0.0001961253
0.00020003191
0.00023173298
0.00025903115
0.00025617177
0.00019428264
9.7367562e-05
2.1302749e-05
2.3252629e-06
1.8711881e-07
3.2877055e-09
5.4300629e-12
1.3140093e-15
1.5485858e-19
1.4827855e-23
0.00037818591
0.00034130969
0.00030713436
0.0002992504
0.00029354842
0.00024140107
0.00011911523
8.8406887e-06
1.0912157e-08
4.4210167e-13
1.1262131e-17
7.1687409e-23
2.4589483e-26
7.9613881e-28
3.3567417e-29
1.0517087e-30
2.4159098e-32
4.1740971e-34
5.2825187e-36
4.8121896e-38
3.122332e-40
1.429135e-42
4.5731641e-45
1.0137456e-47
1.5406356e-50
1.5851117e-53
1.0867391e-56
4.8663743e-60
3.1003079e-70
3.3598612e-82
2.6494646e-96
5.5924218e-113
2.4875476e-132
9.3945345e-154
3.1707454e-176
1.0885719e-198
2.4997322e-221
1.0304654e-244
2.0001235e-269
0.00036141438
0.00035795927
0.000325036
0.00030578438
0.00032552011
0.00035878423
0.00035310442
0.00029696805
0.00022140155
0.00017033209
0.00017025494
0.0002009423
0.00022853491
0.00021073847
0.0001317613
3.360719e-05
1.4255803e-06
4.5755061e-08
1.3059016e-09
6.1674723e-12
2.3065751e-15
1.3213153e-19
5.3406665e-24
1.8866107e-28
0.00032385413
0.00029100958
0.00029108898
0.00030169849
0.00027411986
0.00017137134
3.8576586e-05
2.5359842e-07
7.2468749e-11
1.3863917e-15
1.2555055e-19
4.5112033e-23
1.7223869e-25
3.7855423e-27
1.2016384e-28
3.0535701e-30
5.9471767e-32
9.0818949e-34
1.0297329e-35
8.4649727e-38
4.9932227e-40
2.0949762e-42
6.200967e-45
1.2838971e-47
1.8409878e-50
1.8054835e-53
1.191906e-56
2.0651907e-66
6.8447803e-78
1.8685132e-91
1.4848029e-107
2.3101838e-126
2.2405212e-147
9.9872641e-170
2.3019625e-192
8.8872083e-215
1.8843703e-237
6.8533211e-261
1.12571e-285
0.00030158824
0.00033851447
0.00034166894
0.00032048347
0.00031133735
0.00033357836
0.00036003779
0.00034506566
0.00028122009
0.00019839286
0.00014125207
0.0001366938
0.00016854056
0.00018585074
0.00014828621
5.8744597e-05
2.6467081e-06
2.1008753e-08
2.3781316e-10
2.2671873e-12
2.7034019e-15
2.3040743e-19
3.782828e-24
6.0147811e-29
7.9734138e-34
0.00027156516
0.00027997149
0.00030617568
0.0003012887
0.00022048564
8.5927635e-05
2.9103543e-06
3.1795609e-09
6.316413e-13
4.4600116e-16
1.288166e-18
1.711364e-21
2.4050222e-24
1.6396538e-26
3.3032595e-28
6.8218542e-30
1.15814e-31
1.5875006e-33
1.6192647e-35
1.206031e-37
6.4979437e-40
2.5128037e-42
6.9237276e-45
1.3485865e-47
1.8389405e-50
1.733743e-53
7.8506716e-63
7.6332981e-74
6.918132e-87
1.9993302e-102
1.0795818e-120
2.8226761e-141
2.2059573e-163
3.7526132e-186
1.175195e-208
6.3588079e-231
1.3162722e-253
4.0805702e-277
5.7004504e-302