/*--------------------------------*- C++ -*----------------------------------*\
| =========                 |                                                 |
| \\      /  F ield         | OpenFOAM: The Open Source CFD Toolbox           |
|  \\    /   O peration     | Version:  5.0                                   |
|   \\  /    A nd           | Web:      www.OpenFOAM.org                      |
|    \\/     M anipulation  |                                                 |
\*---------------------------------------------------------------------------*/
FoamFile
{
    version     2.0;
    format      ascii;
    class       volScalarField;
    location    "280";
    object      nuTilda;
}
// * * * * * * * * * * * * * * * * * * * * * * * * * * * * * * * * * * * * * //

dimensions      [0 2 -1 0 0 0 0];

internalField   nonuniform List<scalar> 
9520
(
4.834087e-33
5.1316562e-31
4.6795185e-33
2.6654137e-29
4.9691783e-31
4.5256761e-33
8.9967082e-28
2.5814678e-29
4.8068022e-31
4.3814143e-33
2.2214537e-26
8.7147113e-28
2.4974308e-29
4.6553531e-31
4.2564961e-33
4.2886487e-25
2.1521257e-26
8.4326345e-28
2.4195656e-29
4.5265539e-31
4.1551177e-33
6.7661353e-24
4.1551502e-25
2.0830013e-26
8.1730816e-28
2.3544082e-29
4.4245356e-31
4.0730688e-33
8.9880509e-23
6.5561267e-24
4.0226767e-25
2.0198592e-26
7.9586376e-28
2.3037016e-29
4.3419717e-31
3.9979087e-33
1.0242233e-21
8.7114649e-23
6.3488572e-24
3.9026265e-25
1.9681578e-26
7.7933249e-28
2.2620981e-29
4.2617422e-31
3.9117458e-33
1.0158007e-20
9.9319876e-22
8.4399111e-23
6.1625802e-24
3.8049367e-25
1.9283171e-26
7.6541531e-28
2.2189189e-29
4.1627604e-31
3.798526e-33
8.8862601e-20
9.8575799e-21
9.6285325e-22
8.1977371e-23
6.0116172e-24
3.7290612e-25
1.8935344e-26
7.5002566e-28
2.1626037e-29
4.0300732e-31
3.6532703e-33
7.0499847e-19
8.6283401e-20
9.5642158e-21
9.3589466e-22
8.0019564e-23
5.89265e-24
3.6597635e-25
1.8528735e-26
7.2920545e-28
2.0870184e-29
3.864546e-31
3.4892547e-33
5.9354057e-18
6.8195204e-19
8.3774317e-20
9.3021858e-21
9.1408673e-22
7.8449232e-23
5.7783439e-24
3.5748766e-25
1.7968232e-26
7.0154895e-28
1.9960599e-29
3.6879115e-31
3.3377817e-33
9.5485647e-17
5.5535677e-18
6.6019495e-19
8.1479167e-20
9.089017e-21
8.9629816e-22
7.6861015e-23
5.6327249e-24
3.4573174e-25
1.7237746e-26
6.6955651e-28
1.9046301e-29
3.5385498e-31
3.2381548e-33
3.2509727e-15
8.333193e-17
5.2129049e-18
6.3941802e-19
7.9590341e-20
8.913572e-21
8.7748612e-22
7.4766685e-23
5.4318911e-24
3.308102e-25
1.6426998e-26
6.393357e-28
1.8344481e-29
3.4574139e-31
3.2205591e-33
1.1806202e-13
2.8755352e-15
7.0979263e-17
4.8617872e-18
6.2232728e-19
7.8061601e-20
8.7223543e-21
8.5189636e-22
7.1896604e-23
5.1848679e-24
3.1496509e-25
1.5708569e-26
6.1852564e-28
1.8053396e-29
3.4689316e-31
3.2895139e-33
3.5343939e-12
1.0968954e-13
2.3524454e-15
5.616726e-17
4.57534e-18
6.0955865e-19
7.6388098e-20
8.4537278e-21
8.1698378e-22
6.8478863e-23
4.9348563e-24
3.0183573e-25
1.5271344e-26
6.1301219e-28
1.8253233e-29
3.5657981e-31
3.4165671e-33
8.232023e-11
3.429594e-12
9.0642081e-14
1.6283377e-15
4.3857818e-17
4.3964127e-18
5.9652344e-19
7.3942277e-20
8.0862042e-21
7.7665847e-22
6.5191067e-23
4.7425067e-24
2.9492181e-25
1.5234071e-26
6.2375688e-28
1.8842778e-29
3.7059713e-31
3.5466148e-33
1.4545666e-09
8.2522825e-11
2.8668507e-12
6.1055905e-14
1.0287759e-15
3.7101953e-17
4.2712028e-18
5.7680727e-19
7.0542052e-20
7.6728139e-21
7.3985014e-22
6.2864904e-23
4.6583846e-24
2.9588761e-25
1.557527e-26
6.4530544e-28
1.954952e-29
3.8243801e-31
3.6155035e-33
1.9017491e-08
1.4905818e-09
6.9626513e-11
1.9193281e-12
3.7218747e-14
7.3880252e-16
3.4283594e-17
4.1113783e-18
5.4852301e-19
6.6791536e-20
7.315576e-21
7.1615752e-22
6.2084927e-23
4.6970617e-24
3.0343622e-25
1.6114716e-26
6.6698242e-28
2.0015254e-29
3.8546367e-31
3.571705e-33
1.8040186e-07
1.9721292e-08
1.2666476e-09
4.6636572e-11
1.1945317e-12
2.783593e-14
6.6825607e-16
3.2240981e-17
3.8781455e-18
5.1768522e-19
6.3729852e-20
7.1097784e-21
7.1098268e-22
6.2872001e-23
4.8239972e-24
3.1333291e-25
1.6563271e-26
6.764897e-28
1.9920944e-29
3.7519762e-31
3.394019e-33
1.2127808e-06
1.8724189e-07
1.6969559e-08
8.5765158e-10
3.0174736e-11
9.9635573e-13
2.8262963e-14
6.3310116e-16
2.8874752e-17
3.6254637e-18
4.939575e-19
6.2190697e-20
7.0940321e-21
7.2245727e-22
6.4581979e-23
4.9623216e-24
3.1973033e-25
1.6624979e-26
6.6438396e-28
1.9099215e-29
3.5091835e-31
3.0996302e-33
5.7618739e-06
1.250875e-06
1.6289721e-07
1.1883251e-08
5.8698127e-10
2.8179095e-11
1.1406719e-12
2.8760305e-14
4.930389e-16
2.5019477e-17
3.4433484e-18
4.8392169e-19
6.2359579e-20
7.2273836e-21
7.4123741e-22
6.6084064e-23
5.0189803e-24
3.1731458e-25
1.6108765e-26
6.275012e-28
1.7596352e-29
3.1606923e-31
2.7406546e-33
1.9430097e-05
5.8978869e-06
1.1059177e-06
1.1895941e-07
8.859088e-09
6.032351e-10
3.5284877e-11
1.2242562e-12
2.1444937e-14
3.059168e-16
2.2465171e-17
3.3803883e-18
4.8766776e-19
6.3665187e-20
7.3980317e-21
7.5353932e-22
6.6170088e-23
4.9201046e-24
3.0337392e-25
1.5000609e-26
5.7023352e-28
1.566857e-29
2.7744102e-31
2.3911135e-33
4.8149432e-05
1.9735227e-05
5.2878289e-06
8.4913938e-07
9.6047967e-08
9.5146222e-09
7.9525203e-10
3.9021654e-11
9.092887e-13
1.0722408e-14
1.8714116e-16
2.1586922e-17
3.4235214e-18
4.9888912e-19
6.4961127e-20
7.4635628e-21
7.4638114e-22
6.4029031e-23
4.640733e-24
2.7888536e-25
1.3474033e-26
5.0354702e-28
1.3718837e-29
2.4346883e-31
2.1289419e-33
9.2660637e-05
4.8702274e-05
1.7956855e-05
4.2552988e-06
7.2958901e-07
1.0612949e-07
1.2683638e-08
8.890884e-10
2.8860506e-11
4.3010304e-13
4.124093e-15
1.4192768e-16
2.1824265e-17
3.5110846e-18
5.0719939e-19
6.4974256e-20
7.3076055e-21
7.1283268e-22
5.9586269e-23
4.2160697e-24
2.4830726e-25
1.184647e-26
4.4222967e-28
1.2196845e-29
2.2220609e-31
2.0183384e-33
0.00014698119
9.3555973e-05
4.499101e-05
1.5097639e-05
3.8439825e-06
8.1931079e-07
1.4003066e-07
1.413966e-08
6.5513824e-10
1.3305131e-11
1.4502903e-13
1.6914207e-15
1.3223756e-16
2.2420698e-17
3.5567895e-18
5.025347e-19
6.2836035e-20
6.8880428e-21
6.5505763e-22
5.3564999e-23
3.7317644e-24
2.1841214e-25
1.049909e-26
4.0125712e-28
1.1492165e-29
2.1952763e-31
2.096511e-33
0.00019913822
0.00014818236
8.7675655e-05
3.9140068e-05
1.4161303e-05
4.3579032e-06
1.0578291e-06
1.5428326e-07
1.0414251e-08
3.0068209e-10
4.3135811e-12
4.6179959e-14
1.0536343e-15
1.3363967e-16
2.2632718e-17
3.4884139e-18
4.7960321e-19
5.8446959e-20
6.2568134e-21
5.8394203e-22
4.7274975e-23
3.3010889e-24
1.9657846e-25
9.7835872e-27
3.9227375e-28
1.1847278e-29
2.3792102e-31
2.3667423e-33
0.000242139
0.00019924684
0.00013954222
7.801248e-05
3.7605836e-05
1.6094466e-05
5.4716673e-06
1.1470305e-06
1.140766e-07
4.859935e-09
1.0110631e-10
1.3898503e-12
2.3217844e-14
9.7584843e-16
1.3406635e-16
2.1954076e-17
3.2816409e-18
4.4005421e-19
5.253273e-20
5.544953e-21
5.1586205e-22
4.2262086e-23
3.0364728e-24
1.8899147e-25
9.9396302e-27
4.2097365e-28
1.3306263e-29
2.7599914e-31
2.7978849e-33
0.00027825253
0.000241362
0.00018799467
0.00012572323
7.5702429e-05
4.2561646e-05
1.9623106e-05
5.8165857e-06
8.5577887e-07
5.5130305e-08
1.7846175e-09
3.704823e-11
8.8177291e-13
2.3843596e-14
9.8549817e-16
1.2798482e-16
2.032261e-17
2.9681157e-18
3.917175e-19
4.6409006e-20
4.9237612e-21
4.6833222e-22
3.9922669e-23
3.0220271e-24
1.9917513e-25
1.1039559e-26
4.8579564e-28
1.5703523e-29
3.2871218e-31
3.3294837e-33
0.0003089012
0.00027635986
0.00022840997
0.00017198416
0.00012247048
8.4920336e-05
5.0430361e-05
2.0446497e-05
4.3972979e-06
4.3523046e-07
2.2393076e-08
7.7212656e-10
2.9965731e-11
1.1545239e-12
2.7249215e-14
8.8004025e-16
1.1560741e-16
1.80932e-17
2.6186227e-18
3.4590767e-19
4.1598863e-20
4.5601253e-21
4.55672e-22
4.1160754e-23
3.2930278e-24
2.2712669e-25
1.2967867e-26
5.7803086e-28
1.8690218e-29
3.8816681e-31
3.881555e-33
0.00033468639
0.00030565067
0.00026206955
0.00021122203
0.00016912326
0.00013592924
9.8157981e-05
5.1678103e-05
1.5746474e-05
2.3774908e-06
1.9663219e-07
1.1569186e-08
7.4510083e-10
4.4823032e-11
1.4365139e-12
2.1778883e-14
6.8886702e-16
1.0069427e-16
1.5825029e-17
2.3177696e-18
3.1426461e-19
3.9449842e-20
4.5756927e-21
4.8544367e-22
4.6156753e-23
3.8260422e-24
2.691664e-25
1.5437099e-26
6.8326974e-28
2.1792922e-29
4.4494655e-31
4.3678713e-33
0.00035475362
0.00032975385
0.00029069845
0.00024423452
0.00020914095
0.00018610297
0.00015435092
9.9533886e-05
4.0767259e-05
9.1213539e-06
1.2043547e-06
1.2156285e-07
1.2816679e-08
1.1879737e-09
5.7543625e-11
1.1408364e-12
1.0915741e-14
5.3494063e-16
8.7172211e-17
1.4075295e-17
2.1423484e-18
3.0601592e-19
4.0810114e-20
5.0157357e-21
5.5633045e-22
5.4289317e-23
4.541158e-24
3.1852472e-25
1.8037836e-26
7.8394733e-28
2.4496191e-29
4.8976378e-31
4.710859e-33
0.00036943801
0.00034843038
0.00031410518
0.00027304551
0.00024248832
0.00022789353
0.00020780305
0.00015571027
8.076586e-05
2.5386523e-05
5.2125413e-06
8.845555e-07
1.4900746e-07
2.0880522e-08
1.5392991e-09
4.6135175e-11
5.0567908e-13
4.3461338e-15
4.4382472e-16
7.806008e-17
1.3279185e-17
2.1454381e-18
3.2582258e-19
4.5798511e-20
5.8336413e-21
6.5788276e-22
6.4226418e-23
5.3162026e-24
3.6658351e-25
2.0314398e-26
8.62574e-28
2.633784e-29
5.1514661e-31
4.8553036e-33
0.00037942915
0.00036197222
0.00033256706
0.00029715532
0.0002714792
0.00026142329
0.00024979957
0.00020733517
0.00012916594
5.390854e-05
1.6328249e-05
4.4590225e-06
1.1617886e-06
2.4129839e-07
2.6939784e-08
1.2449328e-09
2.0529332e-11
1.2990931e-13
2.3445765e-15
3.9852884e-16
7.5355214e-17
1.3683317e-17
2.3445446e-18
3.7236187e-19
5.3720058e-20
6.8952427e-21
7.7228449e-22
7.4175931e-23
6.0103763e-24
4.0456642e-25
2.1853383e-26
9.0510452e-28
2.6996422e-29
5.1679462e-31
4.777751e-33
0.0003849262
0.00037112714
0.0003463202
0.00031674462
0.00029595671
0.00028948762
0.00028195481
0.00024723147
0.0001752972
9.1589616e-05
3.841204e-05
1.5752186e-05
6.097401e-06
1.8343187e-06
3.0691048e-07
2.1964745e-08
5.6715858e-10
5.1636507e-12
2.8133988e-14
1.9208634e-15
3.9403836e-16
7.9863568e-17
1.5296336e-17
2.7144951e-18
4.3809353e-19
6.3166289e-20
8.0036315e-21
8.7777502e-22
8.2206724e-23
6.4897564e-24
4.2531357e-25
2.2366154e-26
9.0365505e-28
2.6349231e-29
4.9427543e-31
4.4891394e-33
0.00038662308
0.00037633324
0.00035612275
0.0003320804
0.00031604084
0.00031261441
0.0003075796
0.00027761824
0.00021322033
0.00013132668
7.083773e-05
4.0136956e-05
2.1863099e-05
9.2596537e-06
2.2807911e-06
2.5224447e-07
1.0358069e-08
1.5081406e-10
9.7920355e-13
1.1058072e-14
1.9154438e-15
4.2896703e-16
9.1019335e-17
1.7859586e-17
3.1886444e-18
5.105306e-19
7.2296053e-20
8.9348585e-21
9.5258088e-22
8.6674942e-23
6.6561171e-24
4.2454177e-25
2.1744681e-26
8.5784378e-28
2.4486094e-29
4.5083521e-31
4.0300431e-33
0.00038583351
0.00037852636
0.00036249725
0.00034385097
0.00033202903
0.00033125018
0.00032796961
0.00030176711
0.00024331852
0.00016747832
0.00010818882
7.7541785e-05
5.5380848e-05
3.1654527e-05
1.1181319e-05
1.8894633e-06
1.2426996e-07
2.9921968e-09
3.1883038e-11
1.892148e-13
9.0155295e-15
2.1340456e-15
4.97081e-16
1.0676702e-16
2.0869477e-17
3.6713703e-18
5.7489383e-19
7.9171522e-20
9.4887091e-21
9.8073013e-22
8.6614324e-23
6.4707235e-24
4.0188218e-25
2.0073773e-26
7.7438704e-28
2.167456e-29
3.9244882e-31
3.4601464e-33
0.00038319101
0.00037871783
0.00036647679
0.00035246884
0.00034466643
0.0003457632
0.00034380977
0.00032084422
0.00026933812
0.00019781049
0.00014445353
0.00012104778
0.00010497694
7.6215948e-05
3.6990919e-05
9.3441434e-06
9.8005756e-07
3.9419467e-08
7.1116863e-10
6.0598286e-12
5.9877426e-14
9.9636504e-15
2.5105977e-15
5.8427132e-16
1.2375737e-16
2.3682783e-17
4.0599622e-18
6.1700082e-19
8.2232645e-20
9.5381709e-21
9.5514975e-22
8.190834e-23
5.9581065e-24
3.6071775e-25
1.760008e-26
6.6510405e-28
1.8290181e-29
3.2639047e-31
2.8451111e-33
0.00037877341
0.00037758343
0.00036953997
0.00035879949
0.00035416136
0.00035700202
0.00035556575
0.00033556119
0.00029066026
0.00022611768
0.0001762489
0.00016247677
0.00016002441
0.00013748042
8.6288045e-05
3.1268642e-05
5.1357102e-06
3.4286889e-07
1.0442102e-08
1.4963103e-10
1.1650699e-12
4.7863716e-14
1.1883874e-14
2.9537368e-15
6.703467e-16
1.3813865e-16
2.5676794e-17
4.267364e-18
6.2650843e-19
8.069036e-20
9.0549851e-21
8.7895634e-22
7.3269564e-23
5.1961867e-24
3.0711081e-25
1.4666028e-26
5.4401235e-28
1.4731919e-29
2.5974386e-31
2.2444836e-33
0.00037605547
0.00037668518
0.00037210818
0.00036397441
0.00036098835
0.00036499682
0.0003639405
0.0003462633
0.00030810284
0.00025083846
0.00020416829
0.00019784032
0.0002087882
0.00020040395
0.0001510648
7.4034049e-05
1.8299242e-05
1.9826524e-06
1.0040376e-07
2.4492217e-09
3.0705047e-11
4.649198e-13
5.7719178e-14
1.4023466e-14
3.3496337e-15
7.3450616e-16
1.4660743e-16
2.6404572e-17
4.2347372e-18
5.9998535e-19
7.4668035e-20
8.1113648e-21
7.6405617e-22
6.2010584e-23
4.2943322e-24
2.4823266e-25
1.1628308e-26
4.2439659e-28
1.1347606e-29
1.9825115e-31
1.7034521e-33
0.00037421044
0.00037781006
0.00037818634
0.00036800248
0.00036601192
0.00037020689
0.00036908623
0.00035357683
0.0003219263
0.00027211333
0.00022911132
0.00022616007
0.00024660491
0.0002525392
0.00021430814
0.0001315766
4.6270645e-05
7.7703225e-06
6.3813619e-07
2.6327627e-08
6.0710623e-10
1.3871557e-11
6.7252188e-13
7.2013636e-14
1.5717771e-14
3.5950669e-15
7.6152217e-16
1.4724254e-16
2.560063e-17
3.9574726e-18
5.4114936e-19
6.511749e-20
6.8553968e-21
6.2762365e-22
4.9692313e-23
3.3668466e-24
1.9079443e-25
8.7907206e-27
3.1662908e-28
8.3871191e-30
1.4571366e-31
1.2495625e-33
0.00037094062
0.00037873899
0.0003789387
0.00037870478
0.00036907041
0.00037325069
0.00037160186
0.00035792018
0.00033264282
0.00029026907
0.0002509003
0.00024946991
0.00027489877
0.00028904682
0.00026406543
0.00018858164
8.7668196e-05
2.1514295e-05
2.741672e-06
1.8960961e-07
8.4430357e-09
4.1615657e-10
2.6545939e-11
1.17577e-12
8.1588532e-14
1.6455318e-14
3.6312589e-15
7.4555075e-16
1.3943818e-16
2.3343356e-17
3.4789604e-18
4.5946906e-19
5.3522392e-20
5.4694658e-21
4.8772917e-22
3.7769428e-23
2.5101884e-24
1.3991445e-25
6.3637152e-27
2.2716908e-28
5.9888302e-30
1.0396355e-31
8.9398515e-34
0.00037000755
0.0003743018
0.00038130095
0.00037845376
0.00037798244
0.00037408454
0.00037190709
0.0003599549
0.00034073223
0.00030566065
0.00026978449
0.00026924282
0.00029533873
0.00031298949
0.00029646221
0.00023382959
0.00013291419
4.4405256e-05
8.3539531e-06
9.5106804e-07
8.3955003e-08
8.5182126e-09
8.8914726e-10
5.2744329e-11
1.4904352e-12
7.9605724e-14
1.6093237e-14
3.455713e-15
6.8893059e-16
1.2403454e-16
2.000078e-17
2.876176e-18
3.6736327e-19
4.1500669e-20
4.1264932e-21
3.5956126e-22
2.7337932e-23
1.7897455e-24
9.8650822e-26
4.4557564e-27
1.5872195e-28
4.1943401e-30
7.3264122e-32
6.357289e-34
0.00037264013
0.00036902075
0.00037718875
0.00038164278
0.0003764434
0.00037520171
0.0003702842
0.00036026848
0.00034686642
0.00031853997
0.00028606363
0.00028586762
0.00031176157
0.00032980443
0.00031693435
0.00026540102
0.00017300202
7.3163476e-05
1.9170915e-05
3.5300765e-06
6.0307272e-07
1.1297977e-07
1.8611219e-08
1.7420047e-09
6.8969482e-11
1.1808029e-12
7.0040497e-14
1.4807798e-14
3.1088134e-15
5.9768117e-16
1.0357755e-16
1.6103583e-17
2.2378856e-18
2.7704172e-19
3.0444384e-20
2.9578045e-21
2.5326983e-22
1.9036997e-23
1.2377854e-24
6.8143738e-26
3.0911797e-27
1.1120211e-28
2.9799572e-30
5.2910977e-32
4.6693745e-34
0.00036696846
0.00036840923
0.00036904856
0.00037868305
0.00037992096
0.00037235271
0.00036888294
0.00035944819
0.00035178241
0.00032937379
0.00030000335
0.00029978483
0.00032463796
0.00034226984
0.00033150603
0.00028850823
0.00020505523
0.00010297769
3.5529844e-05
1.0187343e-05
3.1223843e-06
9.6851408e-07
2.4122836e-07
3.5108743e-08
2.2551024e-09
5.2941492e-11
6.0351884e-13
5.9776576e-14
1.2913953e-14
2.6286801e-15
4.86406e-16
8.1239697e-17
1.2201881e-17
1.6434903e-18
1.9805116e-19
2.1302981e-20
2.0401032e-21
1.7371078e-22
1.3095459e-23
8.6033403e-25
4.8229884e-26
2.2422944e-27
8.3022437e-29
2.2920332e-30
4.1835316e-32
3.7776032e-34
0.00035837576
0.00036200394
0.00036426046
0.00036894696
0.00037822774
0.00037596118
0.00036470167
0.00035831419
0.00035566565
0.00033891369
0.00031193457
0.00031126622
0.00033475055
0.00035057528
0.0003411472
0.00030556734
0.00023589581
0.00013059857
5.618468e-05
2.3523591e-05
1.1539858e-05
5.4357865e-06
1.9684914e-06
4.3353342e-07
4.4582893e-08
1.7599068e-09
2.2436081e-11
2.8411401e-13
4.9904376e-14
1.0622146e-14
2.0844785e-15
3.717931e-16
6.0010988e-17
8.7450541e-18
1.1492622e-18
1.3616927e-19
1.4546141e-20
1.4009583e-21
1.2167911e-22
9.4701598e-24
6.4849041e-25
3.8131381e-26
1.8631884e-27
7.2288525e-29
2.0766479e-30
3.90711e-32
3.5986827e-34
0.00035974442
0.00035615058
0.00035584152
0.0003598019
0.000367682
0.00037546926
0.0003685347
0.00035304937
0.00034322795
0.00034725589
0.00032217843
0.00032059356
0.0003421988
0.00035606557
0.00034643464
0.00031744934
0.00026051951
0.00016383562
7.904498e-05
4.4014235e-05
3.0757882e-05
2.0370645e-05
1.034269e-05
3.3390084e-06
5.3709656e-07
3.5334301e-08
7.8532224e-10
5.2956578e-12
1.8655642e-13
3.9747734e-14
8.2029626e-15
1.5536076e-15
2.6820861e-16
4.2120393e-17
6.0198768e-18
7.8485394e-19
9.3683433e-20
1.0272575e-20
1.0361983e-21
9.5848639e-23
8.0105127e-24
5.8978256e-25
3.7067828e-26
1.9161104e-27
7.7637471e-29
2.2985504e-30
4.4026052e-32
4.0833234e-34
0.00035512794
0.00036142503
0.00035245827
0.00034913063
0.00035447075
0.0003645215
0.00036965848
0.00035716395
0.00033723388
0.00032287663
0.00033101405
0.00032808665
0.00034738212
0.00035865466
0.00034832433
0.00032471508
0.00028029624
0.00019423359
0.00010575296
6.9513457e-05
6.1182415e-05
5.2887835e-05
3.5934356e-05
1.6418653e-05
4.0171578e-06
4.3142342e-07
1.6819331e-08
1.934996e-10
1.1545602e-12
1.3950075e-13
2.9840818e-14
5.9662514e-15
1.0974615e-15
1.8539161e-16
2.8835702e-17
4.1542676e-18
5.5869296e-19
7.0601987e-20
8.3907146e-21
9.3055516e-22
9.4642953e-23
8.5956184e-24
6.7653134e-25
4.4653942e-26
2.3860307e-27
9.8629393e-29
2.9483056e-30
5.6560137e-32
5.2198864e-34
0.00033869621
0.00036080493
0.00036107504
0.00034715575
0.00034130239
0.00034768649
0.00035879507
0.00036010756
0.00034179084
0.00031653482
0.00029720967
0.00033376762
0.00035059106
0.00035902852
0.00034736271
0.00032829874
0.00029562527
0.00022171857
0.00013354645
9.3743388e-05
9.7974436e-05
0.00010059176
8.6086444e-05
5.3037069e-05
1.9108249e-05
3.2700155e-06
2.1886865e-07
4.7059531e-09
3.0455274e-11
5.1264267e-13
1.0119066e-13
2.1198239e-14
4.1439036e-15
7.5357138e-16
1.2820586e-16
2.0616722e-17
3.1684101e-18
4.6807928e-19
6.6147346e-20
8.7941817e-21
1.0743509e-21
1.1750921e-22
1.1213042e-23
9.0966038e-25
6.1030234e-26
3.2829665e-27
1.3571873e-28
4.0392719e-30
7.6905493e-32
7.0262347e-34
0.00033787601
0.00034499561
0.0003643299
0.00035866023
0.00033991405
0.00033188886
0.00033883985
0.00034984344
0.00034660463
0.00032163565
0.00029084888
0.00026634319
0.00035180315
0.00035725109
0.00034418497
0.00032916726
0.00030707871
0.00024612759
0.00016088221
0.00011850235
0.00012954952
0.00015274707
0.00015172459
0.00011799126
5.967303e-05
1.5789488e-05
1.7709892e-06
6.9382907e-08
8.6232035e-10
5.0150792e-12
3.2720505e-13
7.021857e-14
1.4564382e-14
2.8629168e-15
5.3805741e-16
9.8012136e-17
1.7474965e-17
3.0427951e-18
5.092926e-19
7.9963555e-20
1.1477631e-20
1.4721399e-21
1.6537237e-22
1.5970111e-23
1.2978793e-24
8.675058e-26
4.6340672e-27
1.8989955e-28
5.5970795e-30
1.0547674e-31
9.533838e-34
0.00035106489
0.00034050311
0.00035009331
0.00036577471
0.00035412275
0.00033084453
0.000320424
0.00032759595
0.00033724093
0.00032846133
0.00029650092
0.00026038048
0.00023108312
0.00035342336
0.00033905021
0.00032819953
0.00031548677
0.00026730604
0.00018704815
0.0001426237
0.00015639281
0.00019669707
0.00021468794
0.00019427625
0.00012890253
5.0319355e-05
9.1652319e-06
6.3458374e-07
1.5164035e-08
1.361557e-10
1.3616646e-12
2.1914533e-13
4.8114681e-14
1.0303324e-14
2.1689041e-15
4.542733e-16
9.4729228e-17
1.9355178e-17
3.7746469e-18
6.8421226e-19
1.1270271e-19
1.656895e-20
2.1422786e-21
2.4028676e-22
2.3040501e-23
1.8533284e-24
1.2248749e-25
6.4686412e-27
2.6214202e-28
7.6447289e-30
1.4262255e-31
7.2283304e-36
0.00034745404
0.00034820564
0.0003416767
0.00035374855
0.00036512103
0.00034758795
0.00031956409
0.00030657405
0.00031347928
0.00032033363
0.00030534888
0.00026672722
0.00022561484
0.00018938229
0.00033223842
0.00032585006
0.00032186902
0.00028534541
0.00021171159
0.00016556674
0.00018031981
0.00022692468
0.00026425999
0.00025838726
0.00020683752
0.0001117354
3.1483112e-05
3.7148871e-06
1.6395809e-07
2.8034373e-09
2.0187471e-11
6.8335578e-13
1.5108092e-13
3.561727e-14
8.5206448e-15
2.0699616e-15
5.0272169e-16
1.1862423e-16
2.6390412e-17
5.4046608e-18
1.0017981e-18
1.6589724e-19
2.4279275e-20
3.1085789e-21
3.4445224e-22
3.257866e-23
2.5848373e-24
1.6863445e-25
8.7997732e-27
3.5274877e-28
1.0186485e-29
1.1879814e-33
2.5401357e-38
0.00032393706
0.00033916598
0.00034313461
0.00034178315
0.00035579532
0.00036233404
0.00033872259
0.00030566106
0.00029000482
0.00029561684
0.00029879445
0.00027725006
0.00023189886
0.00018430571
0.00014013249
0.00032249975
0.00032705564
0.00030086974
0.00023464718
0.00018726665
0.00020149142
0.00025207475
0.000295349
0.00030326494
0.00026817383
0.00018484563
7.5751552e-05
1.4433975e-05
1.1258349e-06
3.5561228e-08
4.4587269e-10
3.7925715e-12
4.5869768e-13
1.1971893e-13
3.2878925e-14
9.2462079e-15
2.5771016e-15
6.8796584e-16
1.711766e-16
3.8953837e-17
8.0082331e-18
1.4744393e-18
2.4120979e-19
3.4789483e-20
4.3865805e-21
4.7881488e-22
4.4605736e-23
3.4904074e-24
2.2489463e-25
1.1606494e-26
4.6076443e-28
9.4213964e-32
4.5684974e-36
3.947972e-41
0.00031831941
0.00031429286
0.00032873745
0.0003366455
0.00034112769
0.00035593526
0.00035724012
0.00032716321
0.00028890823
0.0002701836
0.00027354976
0.00027224071
0.00024311133
0.00018988919
0.0001353475
8.8278988e-05
0.00033163538
0.00031475049
0.00025588501
0.00020776863
0.00022051409
0.00027278593
0.00032020329
0.00033257615
0.00030662102
0.00024547966
0.00013637393
3.9233805e-05
5.0879517e-06
2.8364138e-07
6.5378216e-09
6.3608287e-11
1.52279e-12
3.9449903e-13
1.2452364e-13
4.0061195e-14
1.2570848e-14
3.7247253e-15
1.0201054e-15
2.547684e-16
5.7501437e-17
1.1655468e-17
2.1103975e-18
3.3927946e-19
4.8103523e-20
5.9679266e-21
6.4150573e-22
5.8904536e-23
4.5506803e-24
2.8995115e-25
1.4820586e-26
4.7564809e-30
4.0595846e-34
7.4172691e-39
2.799029e-44
0.00033529732
0.00031292416
0.00030318876
0.00031689828
0.00033001382
0.0003392555
0.00035386356
0.00034932436
0.00031276676
0.00026874968
0.00024648182
0.00024671175
0.00023962682
0.00020095516
0.00013928787
8.5235389e-05
4.5571627e-05
0.0003282003
0.00027548973
0.00022710381
0.00023769781
0.00029049553
0.00033966505
0.0003543505
0.00033222032
0.00028359307
0.00019602248
7.9580092e-05
1.5920477e-05
1.4737938e-06
5.9976464e-08
1.0282438e-09
1.047993e-11
1.2896462e-12
4.5951813e-13
1.6629072e-13
5.7679284e-14
1.8679745e-14
5.5641258e-15
1.5104309e-15
3.7132141e-16
8.2256049e-17
1.6351757e-17
2.9044598e-18
4.5847691e-19
6.3907527e-20
7.8069422e-21
8.2699233e-22
7.4948963e-23
5.7251846e-24
3.6130897e-25
1.7120445e-28
2.3212178e-32
7.2632731e-37
4.9789709e-42
1.0762835e-47
0.0003405495
0.00033715951
0.00030610166
0.00029080776
0.00030432301
0.000321599
0.00033551929
0.00034898246
0.00033860644
0.0002947779
0.00024473783
0.00021871346
0.00021507835
0.00019912764
0.00014880577
8.804064e-05
4.36807e-05
1.832567e-05
0.00029386832
0.0002453147
0.00025310631
0.00030553848
0.00035576466
0.00037003186
0.00034907259
0.00030889822
0.00024359046
0.00012842522
3.6654467e-05
5.2532942e-06
3.5496494e-07
1.0728636e-08
1.4495096e-10
4.6650286e-12
1.6370288e-12
6.5475787e-13
2.4727948e-13
8.6507473e-14
2.7770643e-14
8.1321947e-15
2.1626243e-15
5.202941e-16
1.1282603e-16
2.1976329e-17
3.8295538e-18
5.9394036e-19
8.1478034e-20
9.8124677e-21
1.0256171e-21
9.1893505e-23
6.9527256e-24
4.6772503e-27
9.5086056e-31
4.7060948e-35
5.0028186e-40
1.6827666e-45
2.6806618e-51
0.00031095275
0.00035046382
0.00033674296
0.00029782835
0.00027707058
0.00028975295
0.00031129443
0.00032914879
0.00034096377
0.00032416001
0.00027267306
0.0002165462
0.00018701989
0.00017642179
0.00014863645
9.4457321e-05
4.5315487e-05
1.7273738e-05
5.4505482e-06
0.00026243203
0.0002667049
0.00031767901
0.00036871527
0.00038170492
0.00035881306
0.00032342979
0.00027612563
0.00018408903
6.6341566e-05
1.3621702e-05
1.4281095e-06
7.1784931e-08
1.6479767e-09
2.7397436e-11
5.6239247e-12
2.4306343e-12
9.8795946e-13
3.6998575e-13
1.2706414e-13
3.9882931e-14
1.1405102e-14
2.9622489e-15
6.9667041e-16
1.4788152e-16
2.8239363e-17
4.8322815e-18
7.3725586e-19
9.96785e-20
1.1848839e-20
1.2241585e-21
1.0863452e-22
1.0094267e-25
2.9630244e-29
2.2135082e-33
3.5353985e-38
1.5465943e-43
3.7539108e-49
4.7028193e-55
0.00027836496
0.0003263187
0.00035725889
0.00033421899
0.00028788957
0.00026177954
0.00027327842
0.00029830676
0.00031944884
0.00032907181
0.00030528465
0.00024517055
0.00018363025
0.00014940692
0.00012981136
9.4335466e-05
4.9166247e-05
1.7906059e-05
4.9981593e-06
1.1576199e-06
0.00027829806
0.0003266469
0.00037786692
0.00038954599
0.00036305608
0.00032962501
0.00029561207
0.00022879811
0.00011224624
2.7487001e-05
4.1396741e-06
3.2363656e-07
1.2332827e-08
2.4482824e-10
1.9503113e-11
8.4939766e-12
3.6796964e-12
1.4644982e-12
5.3466008e-13
1.7884181e-13
5.469321e-14
1.5252464e-14
3.8682087e-15
8.8968708e-16
1.8501801e-16
3.4676782e-17
5.8347521e-18
8.7702522e-19
1.1706167e-19
1.3754283e-20
1.4073102e-21
1.7693585e-24
7.3008537e-28
7.97e-32
1.8770985e-36
1.0811767e-41
2.9658168e-47
6.2527962e-53
6.1153081e-59
0.0002881143
0.00029288102
0.0003392582
0.00036116293
0.00032948221
0.00027625593
0.00024474087
0.00025426548
0.00028201075
0.0003057049
0.00031261689
0.00028069052
0.00021124038
0.00014454365
0.00010634791
8.086568e-05
4.9091788e-05
1.9696299e-05
5.1522745e-06
1.0236495e-06
1.7490638e-07
0.00033194453
0.0003821898
0.0003928391
0.00036221788
0.00032892374
0.00030498868
0.00026205949
0.00016078937
5.5422334e-05
9.2221431e-06
1.0411587e-06
6.1933578e-08
1.888942e-09
7.8789631e-11
2.8121625e-11
1.2828289e-11
5.3841114e-12
2.0772309e-12
7.3636805e-13
2.3955007e-13
7.1353005e-14
1.9410379e-14
4.810004e-15
1.0829674e-15
2.2090471e-16
4.0693705e-17
6.7435392e-18
1.0003257e-18
1.3203806e-19
1.5361864e-20
2.5709809e-23
1.4613995e-26
2.2762434e-30
7.7668064e-35
6.0568257e-40
1.8373231e-45
4.3825899e-51
8.0370886e-57
6.1644347e-63
0.00033374396
0.00029614808
0.0003062528
0.00034953757
0.00036225964
0.00032258094
0.0002626472
0.00022568806
0.00023248034
0.00026195387
0.00028751509
0.00029093689
0.00024812354
0.00016847192
0.00010083429
6.38453e-05
4.0893858e-05
1.9797002e-05
5.7562077e-06
1.0430251e-06
1.4766723e-07
1.9005428e-08
0.00038079529
0.00039011366
0.00035603503
0.00032233885
0.00030689604
0.00028389266
0.00020745793
9.1677172e-05
2.2382855e-05
2.5392194e-06
2.2018797e-07
1.0393573e-08
3.9566573e-10
9.0474227e-11
4.2292197e-11
1.8550458e-11
7.4907188e-12
2.7969419e-12
9.6270019e-13
3.0468918e-13
8.8447426e-14
2.348959e-14
5.6934611e-15
1.2563945e-15
2.5173792e-16
4.56533e-17
7.4643141e-18
1.0948201e-18
1.4314353e-19
3.1459924e-22
2.4241563e-25
5.2896195e-29
2.5742188e-33
2.7503001e-38
9.8107505e-44
2.3014987e-49
5.3171611e-55
8.1468813e-61
5.6452611e-67
0.00037348719
0.0003320548
0.00030312732
0.00031841687
0.00035702893
0.00036055949
0.00031318164
0.00024678546
0.0002043922
0.00020781791
0.00023773764
0.00026397384
0.00026129268
0.00020276508
0.00011876967
5.9007682e-05
3.0683272e-05
1.6026521e-05
5.8451625e-06
1.1846855e-06
1.4787422e-07
1.5336759e-08
1.5135457e-09
0.0003805933
0.00034420233
0.00031072211
0.00030308921
0.00029751647
0.00024690471
0.00013475082
4.2828725e-05
7.4708854e-06
5.8972267e-07
4.2164191e-08
2.2295262e-09
3.232227e-10
1.3535718e-10
6.0859533e-11
2.5483949e-11
9.8746095e-12
3.5672601e-12
1.1932711e-12
3.6773442e-13
1.0412656e-13
2.7025652e-14
6.4151168e-15
1.3894975e-15
2.7391536e-16
4.8991452e-17
7.9187403e-18
1.1509506e-18
3.2827827e-21
3.3835902e-24
1.019324e-27
6.9839429e-32
1.0235102e-36
4.5238426e-42
1.0655516e-47
2.4653923e-53
5.301696e-59
7.5553527e-65
5.0357937e-71
0.00036403142
0.00036069684
0.00032837194
0.00030949514
0.00032876149
0.00036148112
0.00035593839
0.00030098359
0.00022829513
0.00018074291
0.00018035962
0.0002086009
0.00023472072
0.00021800328
0.00014694083
6.9943487e-05
2.7199611e-05
1.1263707e-05
4.6146861e-06
1.2166259e-06
1.7021088e-07
1.4814522e-08
1.1748292e-09
9.0408499e-11
0.00032703899
0.00029498156
0.00029515695
0.00030550642
0.00027855237
0.00018087541
7.1315785e-05
1.6546377e-05
2.123338e-06
1.4539982e-07
1.5588013e-08
2.291867e-09
5.4344976e-10
2.0035079e-10
8.3374214e-11
3.3070682e-11
1.2295457e-11
4.3073412e-12
1.4017689e-12
4.2103016e-13
1.1641016e-13
2.9563675e-14
6.8822584e-15
1.4655245e-15
2.8475282e-16
5.0327635e-17
8.0590978e-18
2.9513967e-20
4.022323e-23
1.6527649e-26
1.5775685e-30
3.1642042e-35
1.7779425e-40
4.5606746e-46
9.5964349e-52
2.3135827e-57
4.9360065e-63
6.8369008e-69
4.3728349e-75
0.00030522422
0.0003414713
0.00034464771
0.0003238892
0.00031490722
0.00033667092
0.00036272291
0.00034803596
0.00028568325
0.00020675299
0.00015498823
0.00015058831
0.00017870253
0.00019465139
0.00016100293
8.9188813e-05
3.2182144e-05
9.3521312e-06
3.0161301e-06
9.4123582e-07
1.7610882e-07
1.7029165e-08
1.0835878e-09
6.8026795e-11
4.1004529e-12
0.00027609037
0.000284379
0.00030991926
0.00030505487
0.00022681621
0.00010756256
3.1235013e-05
5.5043249e-06
6.8084967e-07
1.2763065e-07
3.0944052e-08
5.9234159e-09
1.089645e-09
2.9007407e-10
1.0666183e-10
4.0160848e-11
1.4434e-11
4.9234888e-12
1.5604385e-12
4.5725895e-13
1.2359613e-13
3.0755683e-14
7.0329769e-15
1.4750083e-15
2.8303989e-16
4.9539463e-17
2.3062127e-19
4.1126991e-22
2.2808906e-25
3.0066688e-29
8.2342533e-34
5.9395469e-39
1.7698527e-44
3.5084971e-50
7.938767e-56
2.1174022e-61
4.5180214e-67
6.0201574e-73
3.6983249e-79
0.00025512596
0.00027967203
0.00031589868
0.00032735821
0.00031882118
0.00031876576
0.00034149411
0.00036024636
0.00033685501
0.00026642541
0.00018219552
0.00012773966
0.00012160884
0.0001420137
0.00014317573
0.00010037328