/*--------------------------------*- C++ -*----------------------------------*\
| =========                 |                                                 |
| \\      /  F ield         | OpenFOAM: The Open Source CFD Toolbox           |
|  \\    /   O peration     | Version:  5.0                                   |
|   \\  /    A nd           | Web:      www.OpenFOAM.org                      |
|    \\/     M anipulation  |                                                 |
\*---------------------------------------------------------------------------*/
FoamFile
{
    version     2.0;
    format      ascii;
    class       volScalarField;
    location    "280";
    object      nuTilda_0;
}
// * * * * * * * * * * * * * * * * * * * * * * * * * * * * * * * * * * * * * //

dimensions      [0 2 -1 0 0 0 0];

internalField   nonuniform List<scalar> 
9520
(
4.8341114e-33
5.1317066e-31
4.6798845e-33
2.6654531e-29
4.9695985e-31
4.5260971e-33
8.9968854e-28
2.5816967e-29
4.8072534e-31
4.3814459e-33
2.2215086e-26
8.715494e-28
2.4976572e-29
4.6553183e-31
4.2558431e-33
4.2887778e-25
2.1523162e-26
8.4333358e-28
2.4195052e-29
4.5257199e-31
4.1538439e-33
6.7663786e-24
4.1555083e-25
2.0831516e-26
8.172722e-28
2.3539077e-29
4.4230552e-31
4.0716672e-33
8.9884223e-23
6.5566719e-24
4.0229149e-25
2.0197302e-26
7.9567581e-28
2.3028883e-29
4.340512e-31
3.9971663e-33
1.0242693e-21
8.7121487e-23
6.3491435e-24
3.9022981e-25
1.9676569e-26
7.7905145e-28
2.2613856e-29
4.261243e-31
3.9124296e-33
1.015846e-20
9.9326934e-22
8.4401637e-23
6.1619367e-24
3.8039136e-25
1.9276275e-26
7.6519939e-28
2.2188316e-29
4.1639914e-31
3.800959e-33
8.8865866e-20
9.8581564e-21
9.6286778e-22
8.1967214e-23
6.0099331e-24
3.7277689e-25
1.8930812e-26
7.500575e-28
2.1634959e-29
4.03315e-31
3.6569707e-33
7.0500385e-19
8.6286509e-20
9.5642303e-21
9.3576437e-22
7.9996474e-23
5.8907107e-24
3.6590721e-25
1.853105e-26
7.2958407e-28
2.088818e-29
3.8686272e-31
3.4928624e-33
5.9341567e-18
6.8194004e-19
8.3773619e-20
9.3008237e-21
9.1381904e-22
7.8425084e-23
5.7775798e-24
3.5756176e-25
1.7979214e-26
7.0220419e-28
1.9981686e-29
3.6912841e-31
3.3394154e-33
9.5368112e-17
5.5517232e-18
6.6019067e-19
8.146796e-20
9.086368e-21
8.9604179e-22
7.6855412e-23
5.6343575e-24
3.4596977e-25
1.7254559e-26
6.7023686e-28
1.9060558e-29
3.5391849e-31
3.2361654e-33
3.2433449e-15
8.3209661e-17
5.2131456e-18
6.3936178e-19
7.9567899e-20
8.9111843e-21
8.7747038e-22
7.479441e-23
5.4359845e-24
3.3113669e-25
1.6442404e-26
6.3968417e-28
1.834171e-29
3.4538593e-31
3.2144013e-33
1.177068e-13
2.8696856e-15
7.1024497e-17
4.8630298e-18
6.221683e-19
7.8041189e-20
8.7225788e-21
8.5227496e-22
7.1954761e-23
5.1899037e-24
3.1522476e-25
1.5713528e-26
6.1822511e-28
1.8028011e-29
3.4611823e-31
3.2803156e-33
3.5223337e-12
1.0949119e-13
2.357133e-15
5.6304103e-17
4.5751538e-18
6.0938776e-19
7.6391778e-20
8.4580268e-21
8.1768151e-22
6.8542886e-23
4.9381969e-24
3.0185628e-25
1.5259024e-26
6.1195078e-28
1.8208282e-29
3.5556975e-31
3.4070573e-33
8.2026124e-11
3.4250765e-12
9.094106e-14
1.6375064e-15
4.3924597e-17
4.3948481e-18
5.9654107e-19
7.3983773e-20
8.0934344e-21
7.7734489e-22
6.5223982e-23
4.741568e-24
2.9459657e-25
1.520377e-26
6.2213973e-28
1.8790889e-29
3.6968653e-31
3.5403684e-33
1.4493825e-09
8.2458693e-11
2.8797479e-12
6.1506383e-14
1.0326347e-15
3.7062226e-17
4.2703676e-18
5.7715058e-19
7.0608233e-20
7.6791586e-21
7.400869e-22
6.283521e-23
4.6519713e-24
2.9524445e-25
1.5534424e-26
6.4364578e-28
1.950973e-29
3.8200973e-31
3.6157758e-33
1.8954744e-08
1.4902289e-09
7.0008034e-11
1.9355015e-12
3.7357752e-14
7.3545151e-16
3.4193462e-17
4.1132753e-18
5.4907032e-19
6.6843485e-20
7.3165287e-21
7.1562785e-22
6.1984108e-23
4.6862937e-24
3.0265986e-25
1.6077647e-26
6.6595349e-28
2.0006711e-29
3.8581789e-31
3.5802841e-33
1.7989235e-07
1.9724534e-08
1.2744377e-09
4.7056559e-11
1.1975449e-12
2.7595825e-14
6.6105502e-16
3.2188642e-17
3.8821894e-18
5.1807654e-19
6.3726324e-20
7.1026957e-21
7.0968035e-22
6.2724112e-23
4.8123704e-24
3.1272116e-25
1.6546661e-26
6.7668689e-28
1.9956023e-29
3.7643982e-31
3.4104812e-33
1.2101266e-06
1.8734753e-07
1.7074878e-08
8.6537489e-10
3.0199389e-11
9.8452382e-13
2.7832956e-14
6.2811776e-16
2.8896367e-17
3.6283954e-18
4.9384653e-19
6.2113412e-20
7.0798133e-21
7.2075794e-22
6.4440287e-23
4.9547163e-24
3.1959311e-25
1.6641676e-26
6.6609701e-28
1.9178572e-29
3.5290257e-31
3.1212193e-33
5.7523642e-06
1.2518609e-06
1.6386573e-07
1.1978305e-08
5.8647603e-10
2.7779383e-11
1.1220787e-12
2.8495445e-14
4.9346117e-16
2.5057706e-17
3.44219e-18
4.8320451e-19
6.2225281e-20
7.2107383e-21
7.3981177e-22
6.6014039e-23
5.0199004e-24
3.1785319e-25
1.6162495e-26
6.3058434e-28
1.7707366e-29
3.1841259e-31
2.7627981e-33
1.9406457e-05
5.9034048e-06
1.1117839e-06
1.1973191e-07
8.8373128e-09
5.9409626e-10
3.4714096e-11
1.214571e-12
2.1519747e-14
3.0812367e-16
2.2467082e-17
3.3745997e-18
4.8654678e-19
6.3523659e-20
7.3861227e-21
7.5311928e-22
6.6224409e-23
4.9318321e-24
3.0459097e-25
1.5083793e-26
5.7410321e-28
1.5787476e-29
2.7960263e-31
2.4084058e-33
4.8105165e-05
1.9755055e-05
5.3121163e-06
8.5320447e-07
9.5718614e-08
9.3779635e-09
7.8312114e-10
3.8781963e-11
9.1518262e-13
1.0882799e-14
1.8821752e-16
2.1548476e-17
3.4150727e-18
4.9782289e-19
6.4878805e-20
7.4633137e-21
7.4746507e-22
6.4224692e-23
4.6621674e-24
2.8056369e-25
1.3568929e-26
5.0729851e-28
1.3815831e-29
2.4486889e-31
2.1363171e-33
9.2587813e-05
4.8748246e-05
1.802607e-05
4.2698083e-06
7.2673832e-07
1.0476037e-07
1.2509128e-08
8.8526501e-10
2.9125284e-11
4.385415e-13
4.2006413e-15
1.4198e-16
2.1766175e-17
3.503782e-18
5.0673615e-19
6.5007286e-20
7.3227564e-21
7.154533e-22
5.9893394e-23
4.2427565e-24
2.5005396e-25
1.1929002e-26
4.4483711e-28
1.2242742e-29
2.2235359e-31
2.0121574e-33
0.00014686635
9.3622848e-05
4.5133523e-05
1.5133531e-05
3.8281991e-06
8.1018204e-07
1.3835589e-07
1.4103782e-08
6.6254771e-10
1.3611597e-11
1.4868783e-13
1.7090855e-15
1.3188023e-16
2.2373706e-17
3.5547668e-18
5.0306996e-19
6.3004901e-20
6.9172424e-21
6.5870939e-22
5.3912195e-23
3.7569121e-24
2.1974701e-25
1.0544312e-26
4.0180611e-28
1.1465001e-29
2.1812944e-31
2.0753694e-33
0.00019902088
0.00014827986
8.7909297e-05
3.9208631e-05
1.4104486e-05
4.3165881e-06
1.0472102e-06
1.5414294e-07
1.0547767e-08
3.0820885e-10
4.4362222e-12
4.6919083e-14
1.0492462e-15
1.3327711e-16
2.2626553e-17
3.4941221e-18
4.8118741e-19
5.8724436e-20
6.2935222e-21
5.8769792e-22
4.7566658e-23
3.3171476e-24
1.9704556e-25
9.7714918e-27
3.9017545e-28
1.1737537e-29
2.3495493e-31
2.3318957e-33
0.00024202578
0.00019939691
0.00013987527
7.8130023e-05
3.7467242e-05
1.5965406e-05
5.4276199e-06
1.1476068e-06
1.1564288e-07
4.9850317e-09
1.0389131e-10
1.40743e-12
2.2837129e-14
9.6392584e-16
1.3398338e-16
2.2002663e-17
3.2945482e-18
4.4234786e-19
5.2849421e-20
5.57913e-21
5.1860567e-22
4.2401181e-23
3.0369322e-24
1.8826902e-25
9.8600897e-27
4.1612081e-28
1.3119892e-29
2.7174173e-31
2.7532467e-33
0.00027813968
0.00024154158
0.00018839532
0.00012590005
7.5460082e-05
4.227162e-05
1.9501814e-05
5.826564e-06
8.6779498e-07
5.6489747e-08
1.8289894e-09
3.7354448e-11
8.5558204e-13
2.2957582e-14
9.7555268e-16
1.2830746e-16
2.0416053e-17
2.9848756e-18
3.9409314e-19
4.6672347e-20
4.9444136e-21
4.6902744e-22
3.9834365e-23
3.0030698e-24
1.9716224e-25
1.0895552e-26
4.7863474e-28
1.5462313e-29
3.2371657e-31
3.2811766e-33
0.00030880649
0.00027655538
0.00022884133
0.00017217326
0.0001221316
8.4426827e-05
5.0198158e-05
2.0500626e-05
4.4583077e-06
4.4517399e-07
2.2875758e-08
7.7373206e-10
2.889958e-11
1.1046041e-12
2.6443624e-14
8.7885226e-16
1.1622048e-16
1.820322e-17
2.634293e-18
3.476277e-19
4.1716548e-20
4.5579927e-21
4.5362505e-22
4.081284e-23
3.254708e-24
2.2399135e-25
1.2776384e-26
5.6953422e-28
1.8429287e-29
3.8318851e-31
3.837024e-33
0.00033461494
0.00030585261
0.00026251183
0.00021140012
0.00016868972
0.00013525199
9.7825557e-05
5.1842132e-05
1.5954734e-05
2.4268696e-06
2.0008936e-07
1.1520568e-08
7.17382e-10
4.295119e-11
1.3933459e-12
2.1570863e-14
6.9323434e-16
1.0135641e-16
1.591695e-17
2.3272207e-18
3.1466331e-19
3.9352426e-20
4.5456933e-21
4.8051159e-22
4.5572403e-23
3.77275e-24
2.6534294e-25
1.5227302e-26
6.7479958e-28
2.1555356e-29
4.4082166e-31
4.3346497e-33
0.000354712
0.00032996845
0.00029112006
0.00024439298
0.00020864747
0.00018529313
0.00015392054
9.9851788e-05
4.1261083e-05
9.2885066e-06
1.220093e-06
1.2043087e-07
1.2351264e-08
1.1419946e-09
5.6022547e-11
1.1327209e-12
1.104506e-14
5.3922947e-16
8.7658982e-17
1.411776e-17
2.1414425e-18
3.0466074e-19
4.0470486e-20
4.9587549e-21
5.490299e-22
5.3549162e-23
4.4811931e-24
3.1465351e-25
1.7846412e-26
7.7702403e-28
2.4325453e-29
4.8725791e-31
4.6952022e-33
0.00036942697
0.0003486537
0.00031450155
0.00027317058
0.00024196998
0.00022703307
0.00020736187
0.00015619319
8.1630823e-05
2.578331e-05
5.2563348e-06
8.7302892e-07
1.4395621e-07
2.0149584e-08
1.5045972e-09
4.599526e-11
5.1505054e-13
4.4348563e-15
4.4631195e-16
7.8204038e-17
1.3250257e-17
2.1320102e-18
3.2264679e-19
4.5244811e-20
5.7571874e-21
6.4936178e-22
6.345777e-23
5.2604188e-24
3.6339637e-25
2.0178742e-26
8.5858613e-28
2.6269312e-29
5.1480677e-31
4.8609973e-33
0.0003794512
0.00036220216
0.00033293111
0.00029723778
0.00027095959
0.00026057058
0.00024941794
0.0002079776
0.00013038197
5.4608914e-05
1.6397375e-05
4.3913028e-06
1.1262293e-06
2.338328e-07
2.6435356e-08
1.2456696e-09
2.100038e-11
1.3495543e-13
2.3691939e-15
3.9879206e-16
7.5059033e-17
1.3575216e-17
2.3191727e-18
3.6774075e-19
5.3037269e-20
6.8126088e-21
7.6413841e-22
7.352968e-23
5.9700979e-24
4.0273578e-25
2.1803939e-26
9.0502287e-28
2.7050204e-29
5.1884098e-31
4.8054057e-33
0.00038497805
0.00037136101
0.00034664592
0.00031678269
0.00029544164
0.00028866597
0.00028163241
0.00024795619
0.00017673752
9.2566327e-05
3.8459028e-05
1.5502792e-05
5.933667e-06
1.7855002e-06
3.0230083e-07
2.2044449e-08
5.8186407e-10
5.3946796e-12
2.9124017e-14
1.9214352e-15
3.9183327e-16
7.9117545e-17
1.5119224e-17
2.680853e-18
4.3282264e-19
6.2483736e-20
7.9315077e-21
8.7172719e-22
8.1827446e-23
6.4745931e-24
4.2531808e-25
2.2419837e-26
9.0782806e-28
2.6526171e-29
4.9856337e-31
4.5361764e-33
0.00038669253
0.00037656404
0.0003564056
0.00033207259
0.0003155364
0.00031184383
0.00030732385
0.00027835689
0.0002147243
0.00013246044
7.078912e-05
3.9525523e-05
2.1361768e-05
9.0547174e-06
2.2547176e-06
2.5378689e-07
1.0645094e-08
1.5741021e-10
1.0251314e-12
1.1183112e-14
1.9020722e-15
4.2441356e-16
8.9919162e-17
1.7642982e-17
3.1531063e-18
5.0568796e-19
7.1761791e-20
8.8897913e-21
9.5013704e-22
8.6668204e-23
6.6716144e-24
4.2656573e-25
2.1901152e-26
8.6593571e-28
2.4768196e-29
4.569013e-31
4.0913668e-33
0.00038591387
0.00037874141
0.00036273761
0.00034379744
0.00033154375
0.00033054147
0.00032777574
0.00030247568
0.00024480346
0.00016864553
0.00010800713
7.6455492e-05
5.4320364e-05
3.1094695e-05
1.1091599e-05
1.904764e-06
1.2781559e-07
3.1188532e-09
3.3391952e-11
1.9707366e-13
8.9582835e-15
2.1088695e-15
4.9088988e-16
1.0551787e-16
2.0658105e-17
3.6417398e-18
5.7160596e-19
7.8919299e-20
9.4835013e-21
9.827967e-22
8.7020985e-23
6.5170925e-24
4.0576329e-25
2.0316513e-26
7.8547691e-28
2.2029672e-29
3.9962168e-31
3.5292863e-33
0.00038327711
0.00037889428
0.00036667966
0.00035237692
0.00034420307
0.00034512355
0.00034367933
0.00032151516
0.00027072817
0.00019895243
0.00014415375
0.0001195277
0.0001033167
7.5174581e-05
3.6807003e-05
9.4334743e-06
1.0080473e-06
4.1033569e-08
7.4424561e-10
6.3590671e-12
6.0651429e-14
9.8347266e-15
2.4784061e-15
5.7772682e-16
1.2263882e-16
2.352638e-17
4.0436203e-18
6.1618054e-19
8.2351318e-20
9.5785191e-21
9.6181395e-22
8.2695542e-23
6.030309e-24
3.6599735e-25
1.7900343e-26
6.7791171e-28
1.8679353e-29
3.339339e-31
2.9154958e-33
0.00037884024
0.00037770387
0.00036967228
0.00035869452
0.00035373126
0.00035643737
0.00035550124
0.00033617887
0.00029190639
0.00022725807
0.00017583531
0.00016067793
0.00015791966
0.00013606783
8.6069164e-05
3.1594179e-05
5.2790955e-06
3.564505e-07
1.0918557e-08
1.5698286e-10
1.2099243e-12
4.7168789e-14
1.1722114e-14
2.921978e-15
6.6503864e-16
1.3743231e-16
2.5617498e-17
4.2695513e-18
6.2864342e-19
8.1199402e-20
9.1380935e-21
8.8947933e-22
7.4340881e-23
5.2853038e-24
3.1315222e-25
1.4989547e-26
5.571785e-28
1.5117228e-29
2.6699046e-31
2.3105058e-33
0.00037608605
0.00037664876
0.00037216729
0.00036387935
0.00036060779
0.00036451663
0.00036395147
0.00034682473
0.00030919125
0.00025193182
0.00020377031
0.00019591171
0.00020649063
0.00019889075
0.00015096152
7.4818648e-05
1.8788276e-05
2.0585833e-06
1.0489418e-07
2.5650631e-09
3.1807182e-11
4.501437e-13
5.6409178e-14
1.3870812e-14
3.3267474e-15
7.3186824e-16
1.4651906e-16
2.6466183e-17
4.257348e-18
6.0499274e-19
7.5513339e-20
8.2268466e-21
7.7708235e-22
6.3231553e-23
4.3897562e-24
2.5436704e-25
1.1942476e-26
4.3673344e-28
1.1698265e-29
2.0469387e-31
1.7611008e-33
0.00037420998
0.00037772018
0.00037810619
0.00036794473
0.00036569351
0.00036981565
0.00036917213
0.00035407933
0.00032283531
0.00027313864
0.00022876344
0.00022420703
0.00024431941
0.00025107439
0.00021441378
0.00013292724
4.7427459e-05
8.0573426e-06
6.659375e-07
2.7482736e-08
6.2047194e-10
1.3039914e-11
6.1799395e-13
7.0352211e-14
1.5620577e-14
3.5876913e-15
7.6239665e-16
1.4785068e-16
2.5785885e-17
3.998389e-18
5.4840704e-19
6.6187242e-20
6.9881242e-21
6.4152901e-22
5.0922259e-23
3.4585589e-24
1.9644834e-25
9.0700301e-27
3.2727847e-28
8.6826101e-30
1.5104063e-31
1.2965604e-33
0.00037096975
0.0003787123
0.00037877566
0.00037862743
0.00036882762
0.00037295573
0.00037175853
0.00035835632
0.0003333608
0.00029121091
0.00025061042
0.0002476146
0.00027272564
0.00028782554
0.00026446456
0.00019041516
8.9677671e-05
2.2273766e-05
2.8559224e-06
1.9675375e-07
8.4636333e-09
3.8612569e-10
2.3809846e-11
1.0843871e-12
8.0298893e-14
1.644548e-14
3.6420454e-15
7.4998643e-16
1.4070709e-16
2.3630197e-17
3.5326998e-18
4.6799287e-19
5.4676981e-20
5.6033171e-21
5.0098565e-22
3.8889073e-23
2.5904384e-24
1.446857e-25
6.5920145e-27
2.3564431e-28
6.2188816e-30
1.0804018e-31
9.2951675e-34
0.00036985873
0.00037447067
0.00038122028
0.00037825017
0.00037791877
0.00037388623
0.00037212833
0.00036031526
0.00034125508
0.00030650334
0.00026955923
0.00026751343
0.00029330741
0.0003120219
0.00029705604
0.00023593805
0.00013564364
4.5876995e-05
8.6736739e-06
9.7711656e-07
8.2423685e-08
7.8763729e-09
8.0358806e-10
4.8243651e-11
1.4082168e-12
7.9346795e-14
1.6172504e-14
3.4829307e-15
6.9646449e-16
1.2579521e-16
2.0349279e-17
2.9354191e-18
3.7606225e-19
4.2605611e-20
4.2476954e-21
3.7100117e-22
2.8265171e-23
1.8537461e-24
1.0232219e-25
4.6256896e-27
1.6484869e-28
4.35651e-30
7.6080271e-32
6.599298e-34
0.000372535
0.00036902689
0.00037738421
0.00038150067
0.00037621809
0.00037515862
0.0003705509
0.0003605345
0.00034719363
0.00031927371
0.00028590618
0.0002842806
0.00030989324
0.00032897898
0.00031756801
0.00026751589
0.00017613522
7.53712e-05
1.9800456e-05
3.5774688e-06
5.8231245e-07
1.0470598e-07
1.7004103e-08
1.6088505e-09
6.5032808e-11
1.1538196e-12
7.0536859e-14
1.4956123e-14
3.1485057e-15
6.072832e-16
1.0558093e-16
1.646678e-17
2.295296e-18
2.8495817e-19
3.1395142e-20
3.0568751e-21
2.6218673e-22
1.9728539e-23
1.2834288e-24
7.0642804e-26
3.2015307e-27
1.1499846e-28
3.0760335e-30
5.4514803e-32
4.8032322e-34
0.00036723959
0.00036840291
0.00036917403
0.00037886592
0.00037972399
0.00037211688
0.00036887053
0.00035958742
0.00035191454
0.00033000199
0.00029990664
0.00029834538
0.0003229527
0.0003416123
0.0003321487
0.00029040855
0.00020830533
0.00010572211
3.6450875e-05
1.0180492e-05
2.9884956e-06
9.0311209e-07
2.2288871e-07
3.2769656e-08
2.144982e-09
5.1722052e-11
6.0981014e-13
6.0536571e-14
1.3103537e-14
2.6757547e-15
4.9671618e-16
8.3221921e-17
1.2536784e-17
1.6931751e-18
2.0450828e-19
2.2035081e-20
2.1120501e-21
1.7980026e-22
1.3537038e-23
8.8723815e-25
4.9564481e-26
2.2944552e-27
8.4563809e-29
2.3244214e-30
4.2272288e-32
3.8073524e-34
0.0003583332
0.00036225356
0.000364339
0.00036916706
0.00037838065
0.00037571737
0.00036446618
0.00035833421
0.00035563812
0.00033944143
0.00031189888
0.00030998111
0.00033324274
0.00035009647
0.00034180596
0.00030722093
0.00023878524
0.00013363494
5.727027e-05
2.3272596e-05
1.1028129e-05
5.1103646e-06
1.8395738e-06
4.0884967e-07
4.2783463e-08
1.7307077e-09
2.2778485e-11
2.9110194e-13
5.0744717e-14
1.0831933e-14
2.1323927e-15
3.8149878e-16
6.1750282e-17
9.0200064e-18
1.1874397e-18
1.4079501e-19
1.5030311e-20
1.4440527e-21
1.2487427e-22
9.6608509e-24
6.568022e-25
3.8316419e-26
1.8578751e-27
7.1594244e-29
2.0455827e-30
3.8340319e-32
3.523941e-34
0.00035951416
0.00035596809
0.00035607272
0.00035999702
0.00036797607
0.00037558832
0.00036824445
0.00035282106
0.000343278
0.00034768055
0.00032221658
0.00031946937
0.00034087744
0.00035577706
0.00034711411
0.00031885397
0.00026304954
0.00016708549
8.014012e-05
4.333147e-05
2.9482423e-05
1.9325827e-05
9.7755614e-06
3.180844e-06
5.1976034e-07
3.4968436e-08
8.0032893e-10
5.5754053e-12
1.9045153e-13
4.0609216e-14
8.4056295e-15
1.5965252e-15
2.7629407e-16
4.3466864e-17
6.2164001e-18
8.0966076e-19
9.6328857e-20
1.0499807e-20
1.0500336e-21
9.6124728e-23
7.947035e-24
5.791082e-25
3.6070107e-26
1.8511001e-27
7.4601009e-29
2.200572e-30
4.2059052e-32
3.8978576e-34
0.00035549984
0.00036103021
0.00035214739
0.00034930606
0.00035478059
0.00036487889
0.00036973462
0.00035683318
0.0003370144
0.0003229548
0.00033115518
0.00032712508
0.00034624547
0.00035855745
0.00034903833
0.00032586311
0.00028240482
0.00019744869
0.00010715217
6.832273e-05
5.8924894e-05
5.0630364e-05
3.4344258e-05
1.5796341e-05
3.9183121e-06
4.2936838e-07
1.7192068e-08
2.0453643e-10
1.2078647e-12
1.4284288e-13
3.0627712e-14
6.1386188e-15
1.1312227e-15
1.9122464e-16
2.9708842e-17
4.2638885e-18
5.6938329e-19
7.1205099e-20
8.3543901e-21
9.1416054e-22
9.1856904e-23
8.2611721e-24
6.4534218e-25
4.2364484e-26
2.2552903e-27
9.3000735e-29
2.7761075e-30
5.3222548e-32
4.9120145e-34
0.00033895576
0.00036107336
0.00036053825
0.00034674623
0.00034146607
0.00034811664
0.00035920642
0.0003601348
0.00034142497
0.00031632828
0.00029730962
0.00033298007
0.00034964602
0.00035911887
0.00034811818
0.00032918582
0.00029727632
0.00022476516
0.00013518842
9.2366671e-05
9.4818947e-05
9.7067112e-05
8.3133205e-05
5.1510648e-05
1.8775243e-05
3.270319e-06
2.2422678e-07
4.9691438e-09
3.2564282e-11
5.2887468e-13
1.0402819e-13
2.1830165e-14
4.2706571e-15
7.7577226e-16
1.3146373e-16
2.0978502e-17
3.1867068e-18
4.6403017e-19
6.4600499e-20
8.4757619e-21
1.0249523e-21
1.1131676e-22
1.0573189e-23
8.5517032e-25
5.7268215e-26
3.0772406e-27
1.2713766e-28
3.7828214e-30
7.2019105e-32
6.5807976e-34
0.00033727879
0.00034537856
0.00036447404
0.0003579926
0.00033942045
0.00033205097
0.00033938948
0.0003502917
0.00034658574
0.0003212398
0.00029065951
0.00026645793
0.0003510562
0.00035753135
0.00034497219
0.00032978237
0.00030827036
0.00024890174
0.00016272852
0.00011712881
0.00012574868
0.00014837666
0.00014779022
0.0001155518
5.9008527e-05
1.5853883e-05
1.816978e-06
7.3141412e-08
9.2228637e-10
5.3353595e-12
3.3718265e-13
7.2345135e-14
1.4991129e-14
2.9356815e-15
5.4744972e-16
9.8509898e-17
1.7293842e-17
2.963437e-18
4.8921286e-19
7.6030702e-20
1.0840298e-20
1.3849006e-21
1.5524222e-22
1.4976112e-23
1.2164889e-24
8.1297411e-26
4.3427767e-27
1.7797247e-28
5.2457812e-30
9.8857573e-32
8.9353684e-34
0.00035053201
0.00034011815
0.00035054911
0.000365786
0.00035332981
0.00033027568
0.00032058937
0.00032824793
0.00033771151
0.00032839444
0.00029609095
0.00026020063
0.00023119576
0.00035388978
0.00033985001
0.00032853349
0.00031623521
0.00026972648
0.0001890395
0.00014136246
0.00015239794
0.00019176609
0.00021054879
0.00019153228
0.00012808855
5.0663105e-05
9.4079412e-06
6.6752028e-07
1.6180489e-08
1.4634878e-10
1.4246317e-12
2.2578771e-13
4.939193e-14
1.0497714e-14
2.1827754e-15
4.4986955e-16
9.2238772e-17
1.8576938e-17
3.5857616e-18
6.458341e-19
1.0601333e-19
1.5561192e-20
2.0111162e-21
2.2561334e-22
2.1641732e-23
1.7415458e-24
1.1514538e-25
6.0827767e-27
2.4654983e-28
7.1902844e-30
1.3412908e-31
6.7538851e-36
0.00034810009
0.00034791202
0.00034152716
0.00035422645
0.00036499307
0.00034667684
0.00031892879
0.00030675873
0.00031419678
0.00032081992
0.00030523332
0.00026630491
0.00022545351
0.00018949559
0.00033302565
0.00032588398
0.00032219042
0.00028736836
0.0002137913
0.00016449002
0.00017629563
0.00022197456
0.00026034583
0.00025603473
0.00020624974
0.00011263523
3.2297375e-05
3.8968405e-06
1.7447567e-07
3.0116126e-09
2.1715783e-11
7.0566442e-13
1.5441244e-13
3.5963331e-14
8.4626492e-15
2.0195825e-15
4.8304169e-16
1.1276315e-16
2.4927642e-17
5.0889437e-18
9.4218155e-19
1.5602441e-19
2.2848263e-20
2.9279474e-21
3.247489e-22
3.0739317e-23
2.4405235e-24
1.5929961e-25
8.315304e-27
3.3336799e-28
9.6259898e-30
1.1112267e-33
2.3773961e-38
0.00032466493
0.00033996539
0.00034311464
0.00034188362
0.0003562716
0.00036207042
0.00033769798
0.00030496734
0.00029021922
0.00029639231
0.00029928779
0.00027709234
0.00023149164
0.00018417424
0.00014024334
0.00032220668
0.00032695358
0.00030249208
0.00023675075
0.00018641502
0.00019755533
0.00024716701
0.00029164785
0.00030153072
0.00026803465
0.00018631601
7.7568526e-05
1.5090365e-05
1.194576e-06
3.8141609e-08
4.8187328e-10
4.0177884e-12
4.661376e-13
1.1954304e-13
3.2211125e-14
8.9085506e-15
2.4541688e-15
6.5076564e-16
1.6141746e-16
3.6699759e-17
7.5472e-18
1.3908751e-18
2.2782186e-19
3.2902116e-20
4.1539125e-21
4.5393203e-22
4.2324447e-23
3.3141068e-24
2.1363119e-25
1.1027643e-26
4.3777901e-28
8.8466311e-32
4.2567155e-36
3.7496444e-41
0.00031769974
0.00031487643
0.00032965295
0.00033691016
0.00034146089
0.00035639202
0.00035684145
0.00032603207
0.00028816089
0.00027044057
0.00027437828
0.00027274146
0.00024292742
0.00018951439
0.00013526491
8.8357162e-05
0.00033109503
0.00031601325
0.00025796284
0.00020716503
0.00021672994
0.00026799735
0.00031672318
0.00033121912
0.00030698176
0.00024721064
0.00013922059
4.085498e-05
5.3821435e-06
3.037032e-07
7.0640452e-09
6.8913415e-11
1.551113e-12
3.8921453e-13
1.2051477e-13
3.8254476e-14
1.1913486e-14
3.5181829e-15
9.6276484e-16
2.4058378e-16
5.4367549e-17
1.1037246e-17
2.0017504e-18
3.2233624e-19
4.5770868e-20
5.6862611e-21
6.1189876e-22
5.6231973e-23
4.346733e-24
2.7704872e-25
1.4162226e-26
4.4888803e-30
3.7879244e-34
6.9302997e-39
2.7437287e-44
0.00033433182
0.00031199041
0.00030363273
0.00031791611
0.00033052783
0.0003398281
0.00035429406
0.00034879749
0.00031152991
0.00026796238
0.00024678069
0.00024758449
0.00024010841
0.00020075017
0.00013899251
8.5173119e-05
4.5620573e-05
0.00032912106
0.00027750673
0.00022676498
0.00023411756
0.0002858544
0.00033642185
0.00035341098
0.00033293573
0.00028524557
0.00019932805
8.2499899e-05
1.6785234e-05
1.5752308e-06
6.4760888e-08
1.1179857e-09
1.1107676e-11
1.2596388e-12
4.4054098e-13
1.5794066e-13
5.4567546e-14
1.765703e-14
5.2634551e-15
1.4309876e-15
3.5244314e-16
7.8226389e-17
1.558075e-17
2.7726423e-18
4.3842232e-19
6.1206335e-20
7.4869955e-21
7.9386851e-22
7.1998466e-23
5.5022965e-24
3.473073e-25
1.6247818e-28
2.1748061e-32
6.7519209e-37
4.7372642e-42
1.090256e-47
0.00034113707
0.00033581498
0.00030487822
0.0002911059
0.00030551471
0.00032240335
0.00033631139
0.000349388
0.00033795997
0.00029344231
0.00024392234
0.000219049
0.00021595322
0.00019956003
0.00014859609
8.7835579e-05
4.364163e-05
1.8351362e-05
0.00029584507
0.00024525825
0.00024979189
0.0003010788
0.00035275162
0.00036954795
0.00035019713
0.00031052084
0.00024637171
0.00013249163
3.8510283e-05
5.6033025e-06
3.8301263e-07
1.1671714e-08
1.5759924e-10
4.591412e-12
1.5594601e-12
6.2028061e-13
2.3399812e-13
8.1936356e-14
2.6350993e-14
7.7332838e-15
2.061241e-15
4.9702589e-16
1.080142e-16
2.1082087e-17
3.6806931e-18
5.7183061e-19
7.856194e-20
9.4728164e-21
9.9096395e-22
8.8840325e-23
6.7237473e-24
4.4650072e-27
8.9559977e-31
4.3802467e-35
4.674745e-40
1.6543863e-45
2.7707162e-51
0.00031290438
0.00035071284
0.00033506303
0.00029632398
0.00027723625
0.00029108659
0.00031239672
0.00033013359
0.00034136461
0.00032340147
0.00027125383
0.00021573471
0.00018739629
0.00017725321
0.0001489685
9.4320092e-05
4.5192225e-05
1.725739e-05
5.4609546e-06
0.00026265716
0.00026374078
0.00031345763
0.00036600686
0.00038174652
0.00036039953
0.00032516817
0.00027837273
0.00018816703
6.9439782e-05
1.4494451e-05
1.5395061e-06
7.81149e-08
1.8021355e-09
2.8404001e-11
5.3434561e-12
2.3010207e-12
9.362189e-13
3.5137897e-13
1.2098639e-13
3.8076693e-14
1.0917218e-14
2.842706e-15
6.7015821e-16
1.4257143e-16
2.7281418e-17
4.6771083e-18
7.1476455e-19
9.6773692e-20
1.1515743e-20
1.1906009e-21
1.057017e-22
9.6946887e-26
2.8071032e-29
2.0688485e-33
3.2830013e-38
1.4751818e-43
3.8093776e-49
4.9010074e-55
0.00027885512
0.00032821492
0.00035717472
0.00033223582
0.00028611603
0.00026181679
0.00027474651
0.00029971047
0.00032062013
0.00032947635
0.00030442498
0.00024370489
0.00018286869
0.00014979617
0.00013052331
9.4571493e-05
4.9076313e-05
1.7847948e-05
4.9938854e-06
1.1605266e-06
0.00027573541
0.00032274437
0.00037549469
0.0003901813
0.00036526712
0.00033146987
0.00029731129
0.00023233302
0.00011648836
2.9169645e-05
4.4566045e-06
3.5219476e-07
1.3512009e-08
2.6432105e-10
1.8681876e-11
8.0431007e-12
3.4938796e-12
1.3949967e-12
5.109222e-13
1.7142968e-13
5.258043e-14
1.4704019e-14
3.7388667e-15
8.6203412e-16
1.7966864e-16
3.3742587e-17
5.6878636e-18
8.5629162e-19
1.1444376e-19
1.3458333e-20
1.3778041e-21
1.7098435e-24
6.958997e-28
7.4897694e-32
1.7444016e-36
1.0115109e-41
2.9234958e-47
6.4671132e-53
6.3835213e-59
0.00028599807
0.00029365306
0.00034101023
0.00036075853
0.0003272185
0.00027423068
0.00024463928
0.0002558438
0.00028370644
0.00030706237
0.00031301688
0.00027970713
0.00020976266
0.00014389247
0.00010670116
8.1379945e-05
4.9233995e-05
1.9646636e-05
5.1325712e-06
1.023085e-06
1.754673e-07
0.0003284566
0.00038021915
0.00039412083
0.00036511763
0.0003309232
0.00030620408
0.0002646694
0.00016554302
5.8303197e-05
9.9132204e-06
1.1326733e-06
6.7924173e-08
2.0669202e-09
7.8070719e-11
2.6645265e-11
1.220121e-11
5.1437338e-12
1.9921344e-12
7.0866634e-13
2.3128545e-13
6.9100003e-14
1.8850807e-14
4.6836912e-15
1.0571016e-15
2.1610624e-16
3.988843e-17
6.6214934e-18
9.8365491e-19
1.2998392e-19
1.5133584e-20
2.5001294e-23
1.4017513e-26
2.1520223e-30
7.2470335e-35
5.6256257e-40
1.7567569e-45
4.4544066e-51
8.3766186e-57
6.426281e-63
0.00033077635
0.00029455072
0.0003072699
0.00035106634
0.0003615397
0.00032006071
0.00026039653
0.0002254419
0.00023413217
0.00026391406
0.00028905239
0.0002913306
0.0002470226
0.00016711248
0.00010034361
6.4105853e-05
4.1205003e-05
1.9856795e-05
5.7364957e-06
1.0383031e-06
1.4766517e-07
1.9074129e-08
0.00037929287
0.00039204318
0.00035956118
0.00032447837
0.00030763233
0.00028546772
0.00021199082
9.5714958e-05
2.3858177e-05
2.7607868e-06
2.4149707e-07
1.14011e-08
4.075343e-10
8.5817396e-11
4.0243231e-11
1.7752998e-11
7.2067592e-12
2.7021684e-12
9.33392e-13
2.9638656e-13
8.6301467e-14
2.2985276e-14
5.5859835e-15
1.2356614e-15
2.4812084e-16
4.508278e-17
7.3829009e-18
1.084304e-18
1.4189881e-19
3.0787749e-22
2.3401905e-25
5.0327761e-29
2.415202e-33
2.5551521e-38
9.192027e-44
2.27418e-49
5.5026928e-55
8.503162e-61
5.8693463e-67
0.00037253925
0.00032970197
0.00030206965
0.0003195752
0.00035828924
0.00035953747
0.00031042712
0.00024433803
0.00020401182
0.00020950128
0.00023993383
0.00026569784
0.00026160918
0.00020163354
0.00011764611
5.8695414e-05
3.0845404e-05
1.6170294e-05
5.8619022e-06
1.1793959e-06
1.470597e-07
1.5345896e-08
1.5192151e-09
0.00038309933
0.00034823815
0.00031291541
0.00030329904
0.00029805238
0.00025039242
0.00013970417
4.5322274e-05
8.0596489e-06
6.4498543e-07
4.5724673e-08
2.2577115e-09
3.0084366e-10
1.2816246e-10
5.8226603e-11
2.4535858e-11
9.5670625e-12
3.4727027e-12
1.1658043e-12
3.6046339e-13
1.0238371e-13
2.6649601e-14
6.3425284e-15
1.377047e-15
2.7203171e-16
4.8742171e-17
7.8900801e-18
1.1480865e-18
3.2332993e-21
3.2878062e-24
9.7620338e-28
6.5931268e-32
9.5459267e-37
4.2044992e-42
1.0212231e-47
2.5094702e-53
5.5260894e-59
7.8738036e-65
5.2190082e-71
0.00036699211
0.00036036929
0.00032671049
0.00030896508
0.0003300204
0.00036245005
0.00035461842
0.00029802101
0.00022568546
0.00018024461
0.00018201928
0.00021097562
0.00023647052
0.00021815482
0.00014591554
6.9176012e-05
2.7051715e-05
1.1344017e-05
4.6618191e-06
1.2196704e-06
1.6927199e-07
1.4724186e-08
1.1761569e-09
9.0729676e-11
0.00033139411
0.00029709251
0.00029476398
0.00030494374
0.00028077292
0.00018618062
7.4991193e-05
1.7727282e-05
2.3030702e-06
1.5055634e-07
1.4232056e-08
1.9170172e-09
4.8407812e-10
1.8910544e-10
8.019963e-11
3.2090755e-11
1.2007347e-11
4.22585e-12
1.380197e-12
4.1593851e-13
1.1535994e-13
2.938091e-14
6.8575318e-15
1.4636506e-15
2.8496136e-16
5.0449169e-17
8.0892862e-18
2.925741e-20
3.9344667e-23
1.5935048e-26
1.4990583e-30
2.9674656e-35
1.6522235e-40
4.279544e-46
9.5043215e-52
2.3956229e-57
5.1505688e-63
7.1056795e-69
4.5166125e-75
0.00030963936
0.0003447536
0.00034496968
0.00032294143
0.00031486034
0.00033797529
0.00036340142
0.00034643824
0.00028252674
0.00020403092
0.00015439558
0.0001521342
0.00018106472
0.00019624936
0.00016100282
8.8391953e-05
3.1772099e-05
9.3056592e-06
3.0446102e-06
9.5174736e-07
1.7645536e-07
1.6918404e-08
1.0770665e-09
6.8145673e-11
4.1133517e-12
0.00027797356
0.00028329036
0.00030819064
0.00030592788
0.00023186619
0.00011243914
3.3254626e-05
5.9142048e-06
6.9246567e-07
1.0774208e-07
2.4606881e-08
4.6936972e-09
9.2442079e-10
2.7248301e-10
1.0349108e-10
3.9321028e-11
1.4214005e-11
4.8686139e-12
1.5486338e-12
4.5532738e-13
1.234569e-13
3.0808419e-14
7.0630445e-15
1.4846354e-15
2.8542917e-16
5.0034491e-17
2.3010577e-19
4.0499853e-22
2.2142151e-25
2.8764577e-29
7.7708548e-34
5.5406526e-39
1.6461839e-44
3.3702535e-50
8.0917783e-56
2.206899e-61
4.7067828e-67
6.2368124e-73
3.806797e-79
0.00025667593
0.00028392322
0.00031941518
0.00032833976
0.00031857592
0.00031915926
0.00034279918
0.00036064151
0.00033498494
0.0002630954
0.00017941635
0.00012711504
0.00012314607
0.00014421735
0.00014443637
0.00010028453
4.1952685e-05