/*--------------------------------*- C++ -*----------------------------------*\
| =========                 |                                                 |
| \\      /  F ield         | OpenFOAM: The Open Source CFD Toolbox           |
|  \\    /   O peration     | Version:  5.0                                   |
|   \\  /    A nd           | Web:      www.OpenFOAM.org                      |
|    \\/     M anipulation  |                                                 |
\*---------------------------------------------------------------------------*/
FoamFile
{
    version     2.0;
    format      ascii;
    class       volScalarField;
    location    "280";
    object      p;
}
// * * * * * * * * * * * * * * * * * * * * * * * * * * * * * * * * * * * * * //

dimensions      [0 2 -2 0 0 0 0];

internalField   nonuniform List<scalar> 
9520
(
4.3017093e-05
4.3435604e-05
-7.1290373e-06
4.3917172e-05
-4.9289221e-06
-1.5739105e-05
4.4103488e-05
-1.2147667e-06
-1.1697328e-05
-4.1092088e-05
4.3730605e-05
3.2874705e-06
-4.8618502e-06
-3.4700856e-05
-5.9996647e-05
4.2553992e-05
7.8277025e-06
3.3773209e-06
-2.3768558e-05
-5.0981925e-05
-8.7701927e-05
4.0324373e-05
1.1595948e-05
1.1721542e-05
-1.0371003e-05
-3.5523967e-05
-7.5320634e-05
-0.00011764487
3.6650342e-05
1.4112142e-05
1.8929466e-05
3.643705e-06
-1.6345434e-05
-5.4040674e-05
-0.00010180941
-0.00015550469
3.121407e-05
1.4985076e-05
2.405837e-05
1.6610591e-05
4.0484907e-06
-2.7297793e-05
-7.4127361e-05
-0.00013597791
-0.00020034552
2.4322316e-05
1.4195492e-05
2.64785e-05
2.7040667e-05
2.3348324e-05
1.6548791e-06
-3.8535526e-05
-0.00010133999
-0.00017653947
-0.00025452214
1.6798278e-05
1.1650857e-05
2.6170294e-05
3.3815953e-05
3.9450296e-05
2.9921218e-05
1.1794409e-06
-5.5933503e-05
-0.00013398285
-0.00022631653
-0.00031848481
8.0538442e-06
6.5527161e-06
2.3053174e-05
3.6322007e-05
5.0627244e-05
5.4879954e-05
4.132309e-05
-3.6671497e-06
-7.7509697e-05
-0.00017547306
-0.00028588853
-0.0003929672
-2.9248161e-06
3.0262254e-06
1.8134778e-05
3.4315658e-05
5.5690009e-05
7.39775e-05
7.8768147e-05
5.1237438e-05
-1.1492383e-05
-0.00010721101
-0.00022669086
-0.00035615804
-0.00047830611
-1.3932366e-05
6.888384e-06
1.2903448e-05
2.9919484e-05
5.3640615e-05
8.4370022e-05
0.00011045998
0.00010492964
5.969938e-05
-2.6393365e-05
-0.0001463368
-0.00028884971
-0.00043762434
-0.00057457768
-2.0706269e-05
9.8446037e-06
1.1553666e-05
2.101493e-05
4.120004e-05
8.3332304e-05
0.00013347945
0.00015403682
0.00013192103
6.2431819e-05
-4.9721461e-05
-0.0001965739
-0.00036276319
-0.00053052057
-0.00068153015
-2.9458125e-05
7.6857229e-06
1.5337353e-05
-7.2081587e-07
1.2487063e-05
6.7487698e-05
0.00014467663
0.00019579951
0.00020160646
0.00015519932
5.8473936e-05
-8.4191282e-05
-0.00025924432
-0.00044896978
-0.00063476394
-0.00079861587
-2.2081775e-05
5.9058397e-06
3.888004e-05
-3.5811087e-05
-2.4566646e-05
3.5298835e-05
0.00014190259
0.00022867895
0.00026619951
0.00024818025
0.00017406916
4.3727915e-05
-0.00013167394
-0.00033516014
-0.00054763292
-0.0007499826
-0.00092500732
-4.0094713e-05
8.3867608e-06
8.0634233e-05
-6.2736659e-05
-6.9152997e-05
-1.2865827e-05
0.00012604557
0.00025302667
0.00032439151
0.00033802047
0.00029288509
0.00018275427
1.5629145e-05
-0.00019320972
-0.00042467931
-0.00065871415
-0.0008754852
-0.0010596372
-1.911883e-05
7.2273553e-06
0.00011457114
-8.338425e-05
-0.00013721064
-8.0700092e-05
9.4428442e-05
0.0002688858
0.0003761275
0.0004217486
0.00041090421
0.00032818661
0.00017799224
-2.7168037e-05
-0.00026956442
-0.00052873796
-0.00078192469
-0.0010102773
-0.0012012582
-6.561037e-05
2.2951695e-05
0.00019170569
-6.7733186e-05
-0.00022837271
-0.00017864687
4.1969275e-05
0.00027603761
0.00042170614
0.00049770522
0.00052450605
0.00047544752
0.00035057894
0.00015848089
-8.6085874e-05
-0.00036283061
-0.00064745394
-0.00091631731
-0.0011531708
-0.0013485253
-4.637317e-05
3.3070269e-05
0.00025804085
-1.8997296e-05
-0.00033499746
-0.00032018489
-3.2526058e-05
0.00027672141
0.00046569719
0.00056485626
0.00063054615
0.00061975178
0.00052831086
0.00035909325
0.00012194522
-0.00016417127
-0.00047397691
-0.00077994741
-0.0010608136
-0.0013028434
-0.0015000544
-9.9083474e-05
2.9098998e-05
0.00044611691
6.0483055e-05
-0.00047470969
-0.00051733259
-0.00013474525
0.00026847846
0.00051480312
0.00062936123
0.00072666756
0.00075545817
0.00070563054
0.00056971087
0.00035036068
6.4105684e-05
-0.00026360172
-0.00060219073
-0.0009252538
-0.0012142008
-0.0014579233
-0.0016543854
-9.4302312e-05
1.7341755e-05
0.00060653118
0.00018448308
-0.0006252831
-0.00079608997
-0.00026766896
0.00025246807
0.00057146845
0.00068289333
0.00080687054
0.00087606092
0.00087622315
0.00078498711
0.00059469487
0.00031842584
-1.8682252e-05
-0.00038375816
-0.00074603155
-0.0010824096
-0.0013751727
-0.0016169814
-0.0018099933
-0.00011219512
-2.6040974e-05
0.00097486212
0.00026379429
-0.00085797042
-0.0011419938
-0.00043289914
0.00023385782
0.00064339246
0.00074125048
0.00085121922
0.00097175061
0.0010332561
0.00099923317
0.00085025839
0.00059489713
0.00025799111
-0.0001257933
-0.0005227311
-0.00090547718
-0.0012501938
-0.0015423017
-0.0017784425
-0.0019654336
-9.9791849e-05
-1.4319281e-05
0.0012530578
0.00044355902
-0.0010481913
-0.0015866038
-0.00065301358
0.0002064305
0.00074470298
0.00081859068
0.00086458553
0.0010458774
0.0011691817
0.0012067463
0.0011125788
0.00088936788
0.00056291487
0.00016960484
-0.00025537514
-0.00068155765
-0.0010794306
-0.0014271824
-0.0017139376
-0.0019407121
-0.0021193583
-0.00012706379
-0.00012616161
0.0015963275
0.00068017699
-0.0013120613
-0.0020814788
-0.00096934167
0.00017438792
0.00088798861
0.00092920677
0.00086234111
0.0010864637
0.0012824791
0.0014024409
0.0013774755
0.0011983963
0.00089253606
0.00049954752
5.480191e-05
-0.0004094288
-0.00085947384
-0.0012664608
-0.0016117648
-0.0018884406
-0.0021023871
-0.0022704282
-6.7400551e-05
-0.00031698936
0.0018596912
0.0010943084
-0.0015650012
-0.0027947397
-0.0013903408
0.00013705269
0.0011032091
0.0010814456
0.00085683676
0.0010670786
0.0013615589
0.0015801772
0.0016417369
0.0015189418
0.0012439174
0.00086072785
0.00040542576
-8.9286239e-05
-0.00058758313
-0.0010551563
-0.0014650762
-0.0018023269
-0.0020643216
-0.0022621329
-0.0024174099
9.8077632e-05
-0.00057110762
0.0024846503
0.0017162719
-0.0019272027
-0.0035715315
-0.0019126164
9.5501333e-05
0.0014094706
0.0012956575
0.00084041858
0.00097792757
0.0013832954
0.0017316618
0.0019055593
0.001852428
0.0016153673
0.0012494864
0.00079284586
0.00027713557
-0.00026264804
-0.00078875258
-0.0012671833
-0.0016736961
-0.0019969747
-0.0022398325
-0.0024185511
-0.0025592182
0.00019376651
-0.00052522588
0.0030988251
0.002271372
-0.0023214403
-0.0047124526
-0.0025902567
3.6232347e-05
0.001824293
0.0015713146
0.00082700887
0.00079974589
0.0013270042
0.0018434858
0.0021681429
0.0022009876
0.0020070997
0.0016626415
0.0012124432
0.00068623811
0.00011458261
-0.00046455332
-0.0010118008
-0.0014940718
-0.0018901615
-0.0021934421
-0.0024132855
-0.0025704112
-0.00269488
0.00028539454
-0.00027762274
0.0033198876
0.0027773
-0.0030537501
-0.0057485491
-0.0034492435
-2.0986965e-05
0.0023787841
0.0019432683
0.00080656246
0.00052639526
0.0011614962
0.0019043982
0.0024204475
0.0025673855
0.0024189829
0.0020975989
0.0016591132
0.0011327147
0.00054098528
-8.203201e-05
-0.00069435167
-0.0012555197
-0.0017337365
-0.0021123214
-0.0023904823
-0.0025835644
-0.0027166166
-0.0028235863
0.00025163205
4.1305368e-05
0.0032110764
0.0033655979
-0.0037256759
-0.0070808657
-0.004297862
-3.5921204e-05
0.0030617961
0.0024081082
0.00080455014
0.00011056442
0.00086242808
0.0018944645
0.0026659512
0.0029543728
0.0028558498
0.0025525851
0.0021267933
0.001609262
0.0010111938
0.00035693044
-0.00031248219
-0.00095114834
-0.0015179591
-0.0019840751
-0.002338581
-0.0025867664
-0.002749506
-0.0028563023
-0.0029446542
0.00013941522
0.00039730047
0.0030241214
0.0040284064
-0.004515195
-0.0081510041
-0.0054536639
-0.0001598172
0.0038737696
0.0029719775
0.00081796378
-0.00046769255
0.00037393194
0.0017920767
0.0029006976
0.0033756436
0.0033249277
0.0030294482
0.00260953
0.0021063935
0.0015183439
0.0008489728
0.00013436111
-0.00057637604
-0.0012335748
-0.0017969219
-0.0022428632
-0.0025664644
-0.0027802243
-0.0029097329
-0.0029886349
-0.0030574182
-4.1712243e-05
0.00075036396
0.0029877948
0.0045002632
-0.0055705758
-0.0095621774
-0.0072128295
-0.00068359892
0.0047899809
0.0036151657
0.00087675947
-0.0012899893
-0.00033519227
0.001570056
0.0031256699
0.0038392813
0.0038391061
0.003530069
0.0031079132
0.0026166818
0.0020571013
0.0013886636
0.00064412729
-0.00012899486
-0.00087385957
-0.0015392391
-0.002089504
-0.0025073321
-0.0027937995
-0.0029692068
-0.0030630795
-0.0031126518
-0.0031613558
-0.00021152295
0.0010686578
0.0028469891
0.0048198741
-0.0068106755
-0.010467821
-0.0090739991
-0.0012341065
0.0061611639
0.0042677775
0.0009771599
-0.0023795841
-0.0013530644
0.0011922967
0.0033299561
0.0043653326
0.0044083646
0.0040659887
0.0036129993
0.0031288587
0.0026160592
0.0019658647
0.0012100335
0.00039037181
-0.00043460165
-0.0012027108
-0.0018652468
-0.0023927687
-0.0027748132
-0.0030192978
-0.0031524321
-0.0032083248
-0.0032276899
-0.0032564207
-0.00036196701
0.0012227726
0.0027190402
0.0049707408
-0.0079797245
-0.011387709
-0.010834118
-0.0012826942
0.0075761381
0.004933892
0.00092347023
-0.0038979205
-0.0027231113
0.00062812892
0.0035014645
0.0049646228
0.0050545933
0.0046425307
0.0041272001
0.0036292332
0.0031517529
0.0025652239
0.0018213256
0.00097606208
8.5660461e-05
-0.00078080791
-0.0015602691
-0.002209484
-0.0027042255
-0.0030435604
-0.0032407285
-0.0033292174
-0.0033449831
-0.0033340433
-0.0033425973
-0.00047671207
0.0011969177
0.0025005865
0.0047890431
-0.0088388867
-0.012889522
-0.012244782
-0.0012932244
0.0084364468
0.0055857058
0.00087500607
-0.0055965235
-0.0045538496
-0.00016954423
0.0036141957
0.0056580689
0.0057861677
0.0052757739
0.0046457119
0.0041105615
0.0036593719
0.0031623274
0.0024621586
0.0016202947
0.00068439261
-0.00026930165
-0.0011656235
-0.0019447104
-0.0025685966
-0.0030213028
-0.0033111601
-0.0034565908
-0.0034984094
-0.0034730772
-0.0034314051
-0.0034197727
-0.00054424203
0.00096933213
0.0020897875
0.0043575972
-0.0096509479
-0.013975687
-0.01344296
-0.0010930433
0.0086589832
0.0062919183
0.00075788175
-0.0079260987
-0.0068233565
-0.0012505879
0.0036120112
0.0064525449
0.0066261905
0.0059562117
0.0051776828
0.0045520002
0.0041287836
0.0037376966
0.0031296134
0.0023116799
0.0013571562
0.00033269375
-0.00067297151
-0.0015860039
-0.0023516227
-0.0029391096
-0.0033420407
-0.0035753979
-0.0036665189
-0.00365742
-0.0035917409
-0.0035194803
-0.0034879868
-0.0005584066
0.0005540577
0.0014836026
0.003732581
-0.01034255
-0.014986701
-0.014736929
-0.0014249266
0.008926023
0.0067431552
0.00013583765
-0.010268148
-0.0097254591
-0.0026844474
0.0034609761
0.0073421669
0.0075745375
0.0067219596
0.0057095286
0.0049482913
0.0045262278
0.0042626981
0.003796549
0.0030493262
0.0020971511
0.0010228954
-7.9540403e-05
-0.0011235222
-0.0020387796
-0.0027775718
-0.0033181015
-0.0036628385
-0.0038340578
-0.0038675711
-0.0038060808
-0.0037003414
-0.0035981681
-0.0035473572
-0.00051433485
-2.962953e-05
0.00071539738
0.0028975728
-0.010765141
-0.015884356
-0.015792407
-0.0021060288
0.0084158674
0.006761492
-0.00067908159
-0.013649529
-0.013415266
-0.0044552103
0.0030275077
0.0083518894
0.0086226066
0.0075440642
0.0062631527
0.0052633984
0.0048272287
0.004703151
0.0044362848
0.0038122055
0.0029024425
0.0018009749
0.00061567434
-0.00055148836
-0.0016179889
-0.0025200893
-0.0032191267
-0.0037022215
-0.0039809202
-0.0040859974
-0.0040577463
-0.0039445766
-0.0037988982
-0.0036675133
-0.0035980787
-0.00043403277
-0.00076457151
-0.00016537778
0.0018161474
-0.010902969
-0.016292896
-0.016558931
-0.0029360726
0.0073638459
0.0066114005
-0.001931069
-0.016739338
-0.018187138
-0.0069379463
0.002174645
0.0094022786
0.0097343652
0.0084173514
0.0068038742
0.005497621
0.0049710556
0.0050307363
0.0050193246
0.0045824957
0.0037625884
0.002660402
0.0014136543
0.00013465983
-0.0010801392
-0.0021521956
-0.0030261558
-0.0036723675
-0.0040878732
-0.0042938326
-0.0043282554
-0.0042364208
-0.0040723647
-0.0038873141
-0.0037276648
-0.003640432
-0.001589808
-0.00034909065
-0.0011510504
0.00050335518
-0.010680764
-0.016259117
-0.016930179
-0.0040032382
0.005641867
0.0063292288
-0.0024831067
-0.020478492
-0.021202157
-0.010751288
0.00051322323
0.01038883
0.010763415
0.0092866981
0.0073460204
0.0055959905
0.0049343501
0.0051747052
0.0055141976
0.0053412421
0.0046636231
0.0035996058
0.0023112412
0.00093455194
-0.00041940373
-0.0016620744
-0.002722278
-0.0035524814
-0.0041329868
-0.0044715132
-0.0045985691
-0.0045589794
-0.0044037806
-0.0041892325
-0.0039657241
-0.0037789222
-0.0036747521
-0.0022297808
-0.0024028003
-0.00030738499
-0.00097486081
-0.010106304
-0.015677826
-0.016781543
-0.0052568594
0.0032833041
0.0050946562
-0.0023070378
-0.024618062
-0.027424417
-0.015321876
-0.002220988
0.011298418
0.011741452
0.010075562
0.0078179736
0.0055597668
0.0046362415
0.0050850316
0.0058755551
0.0060684597
0.0055947806
0.0046143756
0.0033047032
0.0018506888
0.00036798989
-0.0010411588
-0.0022929536
-0.0033232979
-0.0040939609
-0.0045965133
-0.0048494715
-0.0048925033
-0.0047769835
-0.004559102
-0.0042949635
-0.0040343079
-0.0038215668
-0.0037013996
-0.0025561563
-0.0033333085
-0.0031255835
-0.00031147149
-0.0091535752
-0.014521018
-0.016021692
-0.0066619101
0.00025603162
0.0028878534
-0.0024065636
-0.028002276
-0.032679165
-0.019958644
-0.0048229027
0.012122603
0.012487644
0.010672209
0.0082205602
0.0052821927
0.0040702777
0.0046370541
0.0060631452
0.0067339036
0.0065510381
0.0056968591
0.0043933348
0.0028793791
0.0012807286
-0.0002845011
-0.0017267771
-0.0029674073
-0.0039492805
-0.004645261
-0.0050584138
-0.0052183609
-0.0051736572
-0.0049817837
-0.0047019492
-0.0043895354
-0.0040931919
-0.0038559357
-0.0037207919
-0.0078101586
-0.0042005522
-0.0043327004
-0.0036606325
-0.00035695451
-0.012816259
-0.014651336
-0.0081831366
-0.0033546368
-0.00019219435
-0.0029769974
-0.030791495
-0.038947431
-0.024978761
-0.0066825842
0.012045852
0.013111668
0.010881002
0.0084157836
0.0047775467
0.0030118076
0.0041664249
0.0059962058
0.0073095777
0.0075143295
0.0068447616
0.005577456
0.0040122068
0.0023183314
0.00060799494
-0.0010172447
-0.0024707713
-0.0036789757
-0.0045942334
-0.0052009637
-0.0055143892
-0.0055753137
-0.0054406846
-0.0051727474
-0.0048320431
-0.0044730103
-0.0041427644
-0.0038824966
-0.0037333589
-0.010684123
-0.0062296271
-0.0056961701
-0.0051432054
-0.0040029305
-0.00044538593
-0.012701438
-0.0098640455
-0.0074816193
-0.0039156948
-0.0038311357
-0.033696364
-0.044014936
-0.030921649
-0.010607708
0.011452598
0.012684862
0.010567022
0.0084304987
0.0038711674
0.0014600732
0.0027453008
0.0056261165
0.0077469895
0.0084838118
0.0080520042
0.0068539623
0.0052462011
0.0034718175
0.0016320306
-0.00016202497
-0.0018232447
-0.0032653612
-0.0044204664
-0.0052519041
-0.0057557647
-0.0059605499
-0.0059180695
-0.0056924875
-0.0053492375
-0.0049492638
-0.0045456373
-0.0041834762
-0.0039016669
-0.0037395359
-0.010094309
-0.0081124303
-0.0046161224
-0.0069947961
-0.0057225531
-0.0041473321
-0.00057235061
-0.011682184
-0.011988281
-0.0080550166
-0.0052690215
-0.036260103
-0.048919482
-0.036257952
-0.015976503
0.0077132403
0.012695966
0.0095471562
0.0079454885
0.0026473087
-0.0008613224
0.00074939377
0.0047278236
0.0079935593
0.0094277229
0.0093290104
0.0082157992
0.0065807032
0.0047264905
0.002780741
0.00083347971
-0.0010219401
-0.0026953083
-0.0041034369
-0.0051856009
-0.0059160175
-0.006304659
-0.0063935568
-0.0062447601
-0.0059280013
-0.0055107929
-0.0050537787
-0.0046079354
-0.0042157215
-0.0039138875
-0.003739729
-0.013332946
-0.0070915422
-0.005452103
-0.0030452053
-0.0080443367
-0.0060689976
-0.0040741903
-0.00072461824
-0.01657031
-0.012343057
-0.0074791257
-0.038191306
-0.053026096
-0.041161981
-0.021868216
0.0031624277
0.010445744
0.0077794773
0.0071772678
0.00068654309
-0.003929801
-0.0023673999
0.0032137902
0.0079542951
0.010336866
0.010656587
0.0096632617
0.0079981653
0.0060780365
0.0040350955
0.0019581994
-6.9494407e-05
-0.0019619012
-0.0036255314
-0.0049779298
-0.0059673392
-0.0065804389
-0.0068431141
-0.0068105525
-0.0065536316
-0.0061463373
-0.0056574054
-0.0051460642
-0.0046602735
-0.0042398642
-0.0039194417
-0.0037343691
-0.020973326
-0.014765063
-0.0042231919
-0.0021663986
-0.0016896123
-0.0088273789
-0.0061728665
-0.0038202131
-0.00089989058
-0.01661149
-0.010287273
-0.039367509
-0.056063084
-0.045079047
-0.028257149
-0.0025947158
0.0076874161
0.0048316345
0.0055773442
-0.0015234666
-0.0082672797
-0.006477848
0.00091422311
0.0074819921
0.011119096
0.012030336
0.011166096
0.0095036066
0.007501039
0.005379014
0.003193574
0.0010210719
-0.0010664321
-0.0029754913
-0.0046072142
-0.0058816346
-0.0067583549
-0.0072393919
-0.0073670558
-0.007208889
-0.0068431586
-0.0063472063
-0.0057894953
-0.0052263563
-0.0047025559
-0.0042558838
-0.003918748
-0.0037240906
-0.020486405
-0.024892067
-0.015805023
-0.0015739943
2.9580434e-05
-0.00059025679
-0.0093359193
-0.0060928784
-0.0034015311
-0.0010492862
-0.013759231
-0.039603799
-0.057629834
-0.048222358
-0.034389039
-0.0091103405
0.0025759387
0.0021281384
0.0037066149
-0.0050545819
-0.013291426
-0.012317634
-0.0022959198
0.0063808415
0.011694209
0.013395428
0.012721726
0.011045316
0.0089923939
0.0067809629
0.0045143925
0.0022290585
-1.933445e-05
-0.0021501768
-0.0040565129
-0.0056334261
-0.0068072805
-0.007551791
-0.0078874667
-0.0078726331
-0.0075861445
-0.007112587
-0.0065308952
-0.005907077
-0.0052940354
-0.0047345566
-0.0042645133
-0.0039129728
-0.0037094762
-0.017640104
-0.023675258
-0.027939344
-0.016253562
0.00078665763
0.0018744802
0.0002567956
-0.0095766291
-0.0058710639
-0.0028775351
-0.0010964263
-0.038593694
-0.057459178
-0.050187081
-0.039402717
-0.016211932
-0.0044422535
-0.0019084981
0.0017884914
-0.0081579634
-0.020521199
-0.019251633
-0.0066660574
0.0043183707
0.011890519
0.014680569
0.014281151
0.012606371
0.01048639
0.00822296
0.0058830556
0.0035248391
0.0011581759
-0.0011560682
-0.0033162462
-0.0051990484
-0.0066967183
-0.007746837
-0.0083408391
-0.0085193633
-0.008356272
-0.0079407924
-0.0073619465
-0.0066971095
-0.0060088797
-0.0053485652
-0.0047576999
-0.0042679614
-0.0039031501
-0.0036903127
-0.036096539
-0.021546172
-0.026128828
-0.030088751
-0.016196971
0.0027708968
0.003340864
0.00082115782
-0.0095750798
-0.0055372463
-0.0024166728
-0.0010671806
-0.055271844
-0.05065293
-0.042766639
-0.023627436
-0.013502961
-0.0081011562
-0.0020384354
-0.01037019
-0.027206973
-0.029056954
-0.012826805
0.001204095
0.011443793
0.015804623
0.015738877
0.014112903
0.011967303
0.009634018
0.0072703452
0.0048652092
0.00243438
-1.1039687e-05
-0.0023865606
-0.0045614409
-0.0063972241
-0.0077891724
-0.008692041
-0.0091186333
-0.0091300056
-0.0088154546
-0.0082724164
-0.0075904912
-0.0068437396
-0.0060938964
-0.0053923884
-0.0047758209
-0.004267658
-0.0038877892
-0.0036648242
-0.051160898
-0.03214649
-0.024383976
-0.027855674
-0.031247114
-0.015733624
0.0042696206
0.0043935428
0.0011366438
-0.0093522602
-0.0058605158
-0.0019536165
-0.00090674759
-0.049592944
-0.044191406
-0.031172456
-0.024209684
-0.016757855
-0.0078448748
-0.013068362
-0.033912182
-0.038921587
-0.022509264
-0.0037716562
0.010056712
0.016596314
0.017055219
0.01544319
0.01332972
0.01100046
0.0086001417
0.0062109635
0.00376309
0.0012540558
-0.001278668
-0.0037117029
-0.0058828161
-0.0076441701
-0.0089022602
-0.0096346469
-0.0098783246
-0.0097154958
-0.0092490168
-0.0085798557
-0.0077950996
-0.0069690909
-0.006165803
-0.0054315381
-0.00479043
-0.0042593255
-0.0038623634
-0.0036336892
-0.046921836
-0.045058499
-0.027333165
-0.025443544
-0.028758205
-0.031472248
-0.014944831
0.0053013155
0.0050583745
0.0012116531
-0.0088699939
-0.0055014912
-0.0015626878
-0.00076370477
-0.043232562
-0.038669109
-0.036034129
-0.027688283
-0.014889902
-0.017351286
-0.039734807
-0.052327964
-0.03593615
-0.011003314
0.0072027671
0.01663803
0.017943058
0.016588825
0.014489856
0.012198655
0.0098537217
0.0074802848
0.0050964285
0.0025938763
-1.8092019e-05
-0.0026513966
-0.0051339532
-0.0072764271
-0.0089311097
-0.010026449
-0.010565925
-0.010614253
-0.010273655
-0.0096548521
-0.0088585585
-0.0079730676
-0.0070782935
-0.0062335456
-0.0054673444
-0.0047925832
-0.0042337598
-0.0038310974
-0.0035973034
-0.039053023
-0.042490452
-0.037558461
-0.022038609
-0.025187365
-0.028718074
-0.030840069
-0.013838407
0.0059136805
0.005455668
0.001163485
-0.0082175669
-0.0054662659
-0.0012689687
-0.00052921451
-0.045425886
-0.048570717
-0.040249966
-0.02338027
-0.022760414
-0.046894285
-0.065086891
-0.055308841
-0.021517291
0.0039506718
0.015642134
0.018265624
0.017064854
0.015388093
0.0131872
0.010898211
0.0086471719
0.0063469754
0.0039542185
0.0013550705
-0.0013959289
-0.0041398167
-0.0066550282
-0.0087354418
-0.01024777
-0.011150931
-0.011478059
-0.011322724
-0.010801297
-0.010026767
-0.0091042513
-0.0081310198
-0.0071839955
-0.0062982927
-0.0054842022
-0.0047668512
-0.0042016325
-0.0037943448
-0.0035556246
-0.050784486
-0.0327034
-0.03645047
-0.029263981
-0.016749874
-0.023914309
-0.027838732
-0.029510091
-0.012492463
0.0060526462
0.0055510436
0.00082156821
-0.0073569663
-0.0052278556
-0.0011944405
-0.00037790834
-0.061087972
-0.053699138
-0.033674748
-0.02885646
-0.054962275
-0.079462275
-0.073807482
-0.037683095
-0.0042768145
0.014890534
0.017459486
0.017216348
0.015671178
0.013846515
0.011721302
0.0095654167
0.0074781479
0.0052456755
0.0027853874
2.4727113e-05
-0.002901565
-0.005755239
-0.0082727346
-0.01024992
-0.011583918
-0.012265629
-0.012365358
-0.011999038
-0.011290001
-0.010358978
-0.0093252946
-0.0082861722
-0.0072872203
-0.0063352226
-0.0054586236
-0.0047332417
-0.0041636902
-0.0037520896
-0.0035085901
-0.07234941
-0.054199252
-0.025981846
-0.02908781
-0.020866721
-0.011767051
-0.021698473
-0.026424376
-0.027621901
-0.011209612
0.0058459475
0.0054059575
0.00022727978
-0.0063266071
-0.0047369088
-0.0013146701
-0.00026970441
-0.067508403
-0.045851365
-0.035166816
-0.063514228
-0.093589948
-0.094297233
-0.05565992
-0.016765508
0.0085640485
0.016786714
0.015518535
0.015519097
0.013988882
0.012160355
0.010240321
0.0083256039
0.006416729
0.0041873645
0.0015614763
-0.0014342601
-0.0045607531
-0.0075039222
-0.009979669
-0.01181038
-0.012927345
-0.013362251
-0.013221042
-0.012632189
-0.011731102
-0.010661089
-0.0095443826
-0.0084394124
-0.0073511299
-0.0063105724
-0.0054230581
-0.0046933274
-0.0041198903
-0.0037041734
-0.0034560902
-0.080183703
-0.081472772
-0.055373035
-0.019509479
-0.021318779
-0.012888504
-0.0069892905
-0.018682657
-0.024428948
-0.025542028
-0.0099641451
0.0058978077
0.0053594116
-0.00025586691
-0.00527259
-0.0041736149
-0.0011793891
-0.0001868932
-0.058102661
-0.04124671
-0.071891351
-0.10641542
-0.11408035
-0.075105841
-0.033271845
0.00117825
0.012536597
0.015634597
0.01419118
0.013635589
0.012154356
0.010463499
0.0089027133
0.0072866089
0.0054941083
0.0031404698
0.00022757071
-0.0030673009
-0.0063935965
-0.009383777
-0.011769866
-0.013404751
-0.014264798
-0.014431257
-0.014030784
-0.01321005
-0.012135541
-0.010961852
-0.0097619245
-0.0085391339
-0.0073289493
-0.0062727343
-0.0053805933
-0.0046472062
-0.004070287
-0.0036505762
-0.0033981926
-0.067723734
-0.089996857
-0.087040651
-0.054555697
-0.014199299
-0.013555975
-0.0057811218
-0.0024848931
-0.015244171
-0.02193469
-0.022878236
-0.0083652539
0.0057730539
0.0054433013
-0.00059690551
-0.0040400904
-0.0035724081
-0.0011184055
-0.00018121095
-0.047867184
-0.078653603
-0.11661311
-0.13223547
-0.09670273
-0.052276749
-0.0099347817
0.0085410034
0.0097416019
0.012213158
0.012358366
0.011590399
0.010273288
0.0089478408
0.0078645049
0.006518108
0.0046861127
0.0020299921
-0.0012885016
-0.0049188135
-0.0084090756
-0.011400036
-0.01363294
-0.01501426
-0.015583508
-0.015454437
-0.014778076
-0.013744126
-0.012540386
-0.011261867
-0.009908399
-0.0085223359
-0.0072887583
-0.0062273249
-0.0053315604
-0.0045950974
-0.0040148117
-0.0035914132
-0.0033347613
-0.054860967
-0.074327047
-0.09546556
-0.089002193
-0.052005168
-0.010194403
-0.0064022609
0.00016999046
0.0015736041
-0.011881455
-0.018847126
-0.020094857
-0.006851959
0.005174306
0.0050927652
-0.00046775481
-0.0031527031
-0.0033069081
-0.00099525483
-0.00010630693
-0.082481453
-0.12273102
-0.14604992
-0.11883962
-0.070889342
-0.023568635
-0.0009334834
0.0067429447
0.0080453108
0.010452436
0.010314458
0.0093605035
0.0085418785
0.0078201232
0.0072493376
0.0060189575
0.0039014785
0.0007472707
-0.0030645296
-0.0070186577
-0.010623609
-0.013537823
-0.015540881
-0.016620076
-0.016861467
-0.016409745
-0.01547452
-0.014279998
-0.012946199
-0.011470242
-0.0099011863
-0.008480331
-0.0072401626
-0.0061749078
-0.0052762947
-0.0045368223
-0.0039535069
-0.003526395
-0.0032659465
-0.082653614
-0.061109809
-0.077508145
-0.096794153
-0.087318459
-0.048372062
-0.0073898783
-0.00063997906
0.0047780021
0.0050483501
-0.0086497651
-0.015946449
-0.017363676
-0.005631523
0.0045431517
0.0042788682
-0.00022656014
-0.0024653621
-0.0020411471
-0.00083828218
-0.0001025083
-0.12318153
-0.15297491
-0.13674304
-0.087084544
-0.039364254
-0.012510587
-0.00019428118
0.0036973513
0.0068558024
0.0083396715
0.0078983656
0.0071992248
0.0072505991
0.0072884761
0.0071039919
0.0056882739
0.0029864581
-0.00083226122
-0.0051645531
-0.0093741091
-0.013031931
-0.015760501
-0.017469637
-0.018197581
-0.018069587
-0.017307108
-0.016175452
-0.014819262
-0.013235572
-0.011478526
-0.0098590407
-0.0084287632
-0.007184195
-0.0061159572
-0.0052145019
-0.0044724787
-0.0038862227
-0.0034559582
-0.0031915849
-0.11769413
-0.078274942
-0.06404634
-0.07773361
-0.094288945
-0.082582647
-0.044029592
-0.0052245617
0.0035217522
0.0081213212
0.0077647707
-0.0062346937
-0.013108162
-0.014424349
-0.0041345071
0.0037182876
0.0034788417
-0.00014016212
-0.0018158443
-0.0018227592
-0.00061889516
-5.3228203e-05
-0.15138668
-0.14700249
-0.10018336
-0.055511609
-0.026907521
-0.010760685
-0.0030918401
0.0029082236
0.005373326
0.0053684763
0.0054123394
0.0055749309
0.0067629237
0.0075061164
0.00734211
0.005319513
0.0017495174
-0.002819332
-0.0076118043
-0.012004589
-0.015581438
-0.018045425
-0.019393635
-0.019709417
-0.019213348
-0.01821256
-0.016883824
-0.015214075
-0.013267872
-0.011438327
-0.009805599
-0.0083693272
-0.0071212771
-0.006050133
-0.0051463974
-0.0044020606
-0.0038134136
-0.0033797426
-0.0031118134
-0.14146464
-0.10615582
-0.070266817
-0.061751966
-0.075006622
-0.088531136
-0.075330226
-0.039265955
-0.0034610871
0.0060468325
0.009907582
0.0097717451
-0.0047812467
-0.010040985
-0.011610421
-0.0028972423
0.0029432747
0.0029929518
-8.8090193e-05
-0.0012491063
-0.0011697152
-0.0004396641
-5.7624119e-05
-0.14837593
-0.10817354
-0.070467345
-0.043320723
-0.026375398
-0.012958982
-0.0041502713
0.0023860758
0.0024727324
0.0020400583
0.0034010978
0.0049443271
0.0073560181
0.0084313753
0.0076974487
0.0046285802
1.7169757e-05
-0.0052697079
-0.010417293
-0.014899825
-0.018254043
-0.020365622
-0.021266145
-0.021152747
-0.020370409
-0.01913304
-0.017414994
-0.015283059
-0.013233002
-0.011384932
-0.0097432493
-0.008302371
-0.0070510251
-0.0059775733
-0.0050720977
-0.0043259965
-0.0037346421
-0.0032978515
-0.0030266366
-0.14038607
-0.12423315
-0.090573873
-0.059467794
-0.055132914
-0.068853919
-0.080035956
-0.066362109
-0.034418556
-0.0024838115
0.0072997848
0.013676718
0.0099623405
-0.003402614
-0.0069261584
-0.008975365
-0.0020092493
0.0024039705
0.0025176842
9.5746689e-05
-0.00080260361
-0.00097907043
-0.00028920855
-9.9125205e-06
-0.10905733
-0.082345341
-0.060757934
-0.045563398
-0.027401783
-0.015145528
-0.0032215083
-0.00031244943
-0.0011931292
-0.00097382312
0.0023980387
0.0057816936
0.0090397968
0.0097584452
0.0077469503
0.0033398889
-0.0023143649
-0.0082020175
-0.013614503
-0.018001291
-0.021023773
-0.022661473
-0.023070524
-0.022616687
-0.021555729
-0.019841872
-0.017537767
-0.015258742
-0.013183043
-0.011321042
-0.0096725662
-0.0082274654
-0.0069734703
-0.0058986573
-0.0049920192
-0.0042437469
-0.0036496787
-0.0032104963
-0.0029362307
-0.10358759
-0.12356804
-0.10343283
-0.072347595
-0.04700938
-0.045911215
-0.059739511
-0.069595812
-0.05641067
-0.030199074
-0.0016396433
0.0088078771
0.012392564
0.010195465
-0.0019658785
-0.0047092918
-0.0061324152
-0.0013243988
0.0019865507
0.0021096789
0.00027650123
-0.0004571115
-0.00053872511
-0.00015012246
1.7621771e-05
-0.088059725
-0.077238233
-0.067114413
-0.04767144
-0.030629797
-0.012904367
-0.0043982087
-0.0051513349
-0.0047165462
-0.002860448
0.0032318829
0.0083200774
0.011499768
0.010877118
0.0070902487
0.0012825036
-0.0052876625
-0.011651618
-0.017159045
-0.021261535
-0.023806396
-0.024896364
-0.024905506
-0.024131013
-0.022494704
-0.020043359
-0.017531376
-0.01521786
-0.013120071
-0.011247602
-0.0095930216
-0.0081445397
-0.0068892692
-0.0058138504
-0.0049054272
-0.0041545789
-0.0035591591
-0.0031178962
-0.0028406121
-0.085830601
-0.092899541
-0.10171651
-0.081581798
-0.054010521
-0.03392301
-0.035397318
-0.049246277
-0.057330512
-0.046995088
-0.025317281
0.00016185089
0.0098840666
0.012838853
0.0099472048
-0.00028375212
-0.0033114864
-0.0041559936
-0.0006527752
0.001703394
0.0018035359
0.00045506394
-0.00015291601
-0.00027912292
-2.3883767e-05
5.761597e-05
-0.090737087
-0.089574744
-0.072953746
-0.052073157
-0.027155077
-0.011512121
-0.0095529136
-0.0107068
-0.0074912544
-0.0021399906
0.0064807901
0.012326038
0.014000262
0.011140091
0.0054728982
-0.0016203418
-0.0089363261
-0.015614485
-0.020952459
-0.024595913
-0.026547073
-0.027178067
-0.026826414
-0.025367047
-0.022808351
-0.020065868
-0.017508093
-0.015159721
-0.013045752
-0.011163894
-0.0095045256
-0.0080544763
-0.0067989895
-0.0057220007
-0.0048109287
-0.0040597315
-0.0034632864
-0.0030201586
-0.0027399305
-0.099090284
-0.078127734
-0.078012442
-0.078896188
-0.060663039
-0.036596845
-0.02131858
-0.024662247
-0.038473265
-0.044048072
-0.037144655
-0.019807279
0.0025493417