/*--------------------------------*- C++ -*----------------------------------*\
| =========                 |                                                 |
| \\      /  F ield         | OpenFOAM: The Open Source CFD Toolbox           |
|  \\    /   O peration     | Version:  5.0                                   |
|   \\  /    A nd           | Web:      www.OpenFOAM.org                      |
|    \\/     M anipulation  |                                                 |
\*---------------------------------------------------------------------------*/
FoamFile
{
    version     2.0;
    format      ascii;
    class       surfaceScalarField;
    location    "280";
    object      phi;
}
// * * * * * * * * * * * * * * * * * * * * * * * * * * * * * * * * * * * * * //

dimensions      [0 3 -1 0 0 0 0];

internalField   nonuniform List<scalar> 
18820
(
-0.00039652706
-1.3579786
-0.00076555182
-1.2699733
-0.00037804821
-1.3576006
-0.0011068047
-1.187762
-0.00073131908
-1.26962
-0.0003611421
-1.3572394
-0.001419649
-1.1109376
-0.0010597631
-1.1874336
-0.00069865793
-1.2692825
-0.00035317574
-1.3568863
-0.0017035196
-1.0391333
-0.0013630992
-1.1106342
-0.0010130868
-1.1871191
-0.00068279246
-1.2689529
-0.00035311776
-1.3565331
-0.001958216
-0.97200214
-0.0016406982
-1.0388557
-0.0013053122
-1.110342
-0.00099039795
-1.1868115
-0.00068272971
-1.2686232
-0.0003533556
-1.3561798
-0.0021832954
-0.90922869
-0.0018920933
-0.97175075
-0.0015754578
-1.0385855
-0.0012778844
-1.1100545
-0.00099117553
-1.1865031
-0.00068479979
-1.2682918
-0.00034484415
-1.3558349
-0.0023777349
-0.85052243
-0.0021172742
-0.90900351
-0.0018226629
-0.97150354
-0.0015464672
-1.038317
-0.0012802842
-1.1097654
-0.00099728191
-1.1861906
-0.00067082979
-1.2679658
-0.0003266378
-1.3555083
-0.0025398428
-0.79561535
-0.0023168142
-0.85032289
-0.0020465158
-0.90877966
-0.0017959
-0.97125411
-0.0015516149
-1.0380456
-0.0012922232
-1.1094705
-0.00098123595
-1.1858802
-0.00063757985
-1.2676549
-0.00030321843
-1.3552051
-0.0026675302
-0.74425701
-0.0024925868
-0.79543958
-0.0022477418
-0.85012167
-0.0020258011
-0.90854975
-0.0018060164
-0.97099971
-0.0015712436
-1.0377666
-0.0012773043
-1.1091744
-0.00093647715
-1.1855813
-0.00059279861
-1.2673653
-0.00028113754
-1.3549239
-0.0027600712
-0.69621943
-0.0026475012
-0.74410209
-0.00242968
-0.79525764
-0.0022360164
-0.84991145
-0.0020436544
-0.90831212
-0.0018363606
-0.97073459
-0.0015602866
-1.0374836
-0.0012256185
-1.1088853
-0.00087255614
-1.1853015
-0.00054957094
-1.2670969
-0.00026445898
-1.3546595
-0.0028170828
-0.65128891
-0.0027855487
-0.69608138
-0.0025998211
-0.74393195
-0.002426698
-0.79506696
-0.0022638694
-0.84969124
-0.0020885773
-0.9080599
-0.0018324573
-0.97046242
-0.0015061673
-1.0372031
-0.0011461512
-1.1086117
-0.00080950619
-1.1850416
-0.0005162797
-1.266845
-0.00025302842
-1.3544065
-0.0028553192
-0.60924221
-0.0029300142
-0.65114444
-0.0027733758
-0.69590783
-0.0025991253
-0.74375952
-0.0024641576
-0.79486667
-0.0023271828
-0.84945263
-0.0020955945
-0.90779676
-0.001779837
-0.97018875
-0.0014156215
-1.0369336
-0.0010649816
-1.1083562
-0.00076055832
-1.1847973
-0.00049329046
-1.2666048
-0.00024348961
-1.354163
-0.0028792605
-0.5698892
-0.0031030077
-0.60906922
-0.0029637094
-0.65095411
-0.0027544827
-0.69575247
-0.0026381622
-0.74358552
-0.0025482151
-0.79464564
-0.0023510792
-0.84919715
-0.0020485517
-0.90752805
-0.0016814779
-0.96992289
-0.0013189729
-1.0366796
-0.0010014132
-1.1081153
-0.00072645222
-1.1845642
-0.00047463962
-1.2663736
-0.00023177069
-1.3539312
-0.0028997168
-0.53307052
-0.0032893229
-0.56970289
-0.0031472669
-0.60888566
-0.0028713711
-0.65083722
-0.0027687883
-0.69562184
-0.0027434906
-0.74339024
-0.002600543
-0.79439617
-0.0023149599
-0.84893074
-0.0019443621
-0.90726516
-0.0015719775
-0.96966989
-0.0012417967
-1.0364392
-0.00095679744
-1.107885
-0.00069877171
-1.18434
-0.00045244935
-1.2661529
-0.00021520376
-1.353716
-0.0029240425
-0.49862643
-0.0035072695
-0.53285258
-0.0033029945
-0.56954716
-0.0029275209
-0.60882951
-0.002834814
-0.6507712
-0.002903839
-0.6954615
-0.0028469938
-0.74314379
-0.0025841149
-0.79412702
-0.0022055985
-0.8486695
-0.001823675
-0.90701346
-0.0014830076
-0.96942868
-0.0011873249
-1.0362087
-0.00092017857
-1.1076636
-0.00066643645
-1.184126
-0.00042103849
-1.2659471
-0.00019348296
-1.3535225
-0.0029694346
-0.46640288
-0.0037662095
-0.49836749
-0.0034382715
-0.5327173
-0.002938711
-0.56953597
-0.0028333189
-0.60883101
-0.0030267587
-0.65064828
-0.0030969577
-0.69521153
-0.0028647883
-0.74286312
-0.002467884
-0.79386473
-0.0020731966
-0.84841998
-0.0017251271
-0.90677134
-0.0014203079
-0.96919569
-0.0011423444
-1.0359865
-0.00087740532
-1.1074526
-0.00062135132
-1.1839257
-0.00037918651
-1.2657614
-0.00016852829
-1.353354
-0.0030169026
-0.43626383
-0.004108679
-0.46606041
-0.0035824076
-0.49822336
-0.0028771707
-0.53277884
-0.0027771045
-0.56959218
-0.0031191951
-0.60873857
-0.0033640875
-0.65038115
-0.003169933
-0.69490639
-0.0027356372
-0.74259537
-0.0023185717
-0.79361936
-0.0019667449
-0.84817836
-0.0016571176
-0.90653453
-0.0013684363
-0.9689696
-0.001089399
-1.0357745
-0.00081869581
-1.1072553
-0.00056098236
-1.1837439
-0.00033036475
-1.2655996
-0.00014347915
-1.3532105
-0.0031327849
-0.40804681
-0.0045512104
-0.4358213
-0.0037473553
-0.46589547
-0.0027417754
-0.49835875
-0.0026283389
-0.5329276
-0.0031869055
-0.56952447
-0.0036618486
-0.60844081
-0.0035206194
-0.65003046
-0.0030163321
-0.69462569
-0.002556343
-0.74235759
-0.0022041434
-0.79338196
-0.0018976418
-0.84793784
-0.001601265
-0.90630171
-0.0013064908
-0.96875251
-0.0010169937
-1.0355762
-0.00074098982
-1.1070753
-0.00048893564
-1.1835854
-0.00028085194
-1.2654622
-0.00012126893
-1.3530892
-0.003231228
-0.38165511
-0.0051587559
-0.40743927
-0.0039729173
-0.43559574
-0.002482193
-0.46615505
-0.0023328034
-0.49865429
-0.0032433594
-0.53287115
-0.0040013655
-0.56918496
-0.003936778
-0.60802465
-0.0033183487
-0.64972844
-0.0027821845
-0.69439985
-0.0024309763
-0.74213076
-0.0021396071
-0.79313999
-0.0018427066
-0.8476964
-0.0015326243
-0.90607557
-0.0012209833
-0.96854852
-0.0009218603
-1.0353954
-0.00064717943
-1.106917
-0.00041413845
-1.1834521
-0.00023654819
-1.2653469
-0.00010355882
-1.3529857
-0.0034434332
-0.35687723
-0.0058961009
-0.38091776
-0.0042318073
-0.40718038
-0.002078848
-0.43599909
-0.0018374749
-0.46665038
-0.0032589749
-0.49863867
-0.004414976
-0.53245754
-0.0044381854
-0.56868355
-0.0036542271
-0.60768877
-0.0029879777
-0.64952265
-0.0026364291
-0.6941944
-0.0023777611
-0.74189261
-0.0020936899
-0.79288901
-0.0017715849
-0.84745744
-0.0014349063
-0.90586165
-0.0011079541
-0.96836243
-0.00080692389
-1.0352356
-0.00054663977
-1.1067845
-0.00034635748
-1.1833423
-0.00020067126
-1.2652498
-9.051785e-05
-1.3528952
-0.0035754843
-0.33369097
-0.0068465445
-0.35592679
-0.0046164729
-0.3805331
-0.0014669306
-0.40779229
-0.0010880586
-0.4367485
-0.0032282921
-0.46668106
-0.0049530395
-0.49810061
-0.005053483
-0.53184224
-0.0040162961
-0.56832148
-0.0031652468
-0.6075115
-0.0028038221
-0.64935526
-0.0026015937
-0.69397056
-0.0023535104
-0.74163279
-0.0020276977
-0.79263289
-0.0016633529
-0.84722899
-0.0013030179
-0.90566658
-0.00097060257
-0.96819875
-0.00068073051
-1.0351015
-0.00045358444
-1.1066773
-0.00029122869
-1.1832517
-0.00017354293
-1.2651668
-8.1290199e-05
-1.3528139
-0.0039351947
-0.31172653
-0.007870446
-0.33266707
-0.0050641715
-0.35547909
-0.00066747446
-0.38133255
-2.6410117e-05
-0.40885394
-0.003113716
-0.43686308
-0.0056733053
-0.46596079
-0.005847126
-0.49730697
-0.0044195739
-0.53143896
-0.0032810199
-0.56820571
-0.0029002075
-0.60741512
-0.0027930607
-0.64916379
-0.0026186922
-0.69370538
-0.0023061265
-0.74135436
-0.0019122956
-0.79238395
-0.0015111086
-0.8470209
-0.0011408575
-0.90549633
-0.00081754601
-0.96806193
-0.00056108725
-1.034994
-0.00037707484
-1.1065914
-0.00024931062
-1.1831759
-0.00015375693
-1.2650943
-7.4655068e-05
-1.3527392
-0.0044903536
-0.29099632
-0.0092272655
-0.31036971
-0.0057029599
-0.33202828
0.00048422862
-0.35663079
0.0014140193
-0.38277298
-0.0029205253
-0.40904713
-0.0066379664
-0.43589842
-0.0068894107
-0.46491851
-0.0048771781
-0.49684936
-0.0033026838
-0.5314173
-0.002891988
-0.56821392
-0.002919442
-0.60728874
-0.002882354
-0.64890013
-0.0026142056
-0.6933973
-0.0021902203
-0.74107643
-0.0017372619
-0.7921578
-0.0013203034
-0.84684145
-0.00095855949
-0.90535532
-0.00066968769
-0.96795333
-0.00046115653
-1.03491
-0.00031847862
-1.1065223
-0.00021810376
-1.1831116
-0.00013944251
-1.2650295
-6.9480385e-05
-1.3526697
-0.0050894759
-0.27214558
-0.010753502
-0.28947009
-0.0063408139
-0.30973185
0.0017888265
-0.33333288
0.0033130952
-0.35852987
-0.0025650629
-0.38312845
-0.0079264921
-0.40775861
-0.0082684135
-0.43451941
-0.0054142562
-0.46438143
-0.0031897022
-0.49696234
-0.002720066
-0.53158922
-0.0029734529
-0.56815991
-0.0031364807
-0.60703461
-0.0029624884
-0.64855184
-0.0025105622
-0.69307696
-0.0019885438
-0.74082515
-0.001511326
-0.79196678
-0.0011046855
-0.84669533
-0.00078053554
-0.90524447
-0.00054488037
-0.96786961
-0.00038327618
-1.0348452
-0.00027443351
-1.1064659
-0.00019458805
-1.1830565
-0.00012876867
-1.2649702
-6.4864234e-05
-1.3526049
-0.0056450362
-0.25422616
-0.012520876
-0.2703782
-0.0069592634
-0.28885164
0.0036815709
-0.3116246
0.0056740508
-0.33569383
-0.0021421799
-0.35895275
-0.0096181414
-0.3814368
-0.010063417
-0.4059636
-0.0060608295
-0.43387284
-0.0029010189
-0.46467011
-0.0023133131
-0.4973691
-0.0029410242
-0.53162165
-0.0033866727
-0.56790972
-0.0033710525
-0.60662605
-0.0028934937
-0.64816891
-0.00227575
-0.69278976
-0.0017163251
-0.74062015
-0.001255557
-0.79181591
-0.00089403515
-0.84658183
-0.00062949951
-0.90515985
-0.000446159
-0.96780673
-0.00032372309
-1.0347959
-0.00024046867
-1.1064201
-0.00017645189
-1.1830088
-0.0001198098
-1.2649153
-6.0120575e-05
-1.3525447
-0.0070002104
-0.23556264
-0.014303866
-0.25244317
-0.0079021425
-0.26943533
0.0059431898
-0.29111325
0.0085072784
-0.31445782
-0.0014279537
-0.33640806
-0.011836662
-0.35673423
-0.012396434
-0.37910378
-0.0068490123
-0.40517542
-0.0023839669
-0.43438989
-0.0015871061
-0.46539632
-0.0027523131
-0.49755781
-0.0036576398
-0.53135068
-0.0038608999
-0.56741988
-0.0033722113
-0.60614733
-0.0026149077
-0.64782976
-0.0019376913
-0.69256839
-0.0014090708
-0.74046664
-0.0010087216
-0.79170122
-0.00071574893
-0.84649558
-0.0005089415
-0.90509707
-0.00036897887
-0.96776147
-0.00027716266
-1.0347592
-0.00021300503
-1.1063835
-0.00016152063
-1.1829671
-0.00011062589
-1.2648648
-5.4827637e-05
-1.3524899
-0.0087674406
-0.2169831
-0.016719764
-0.23314674
-0.0090350013
-0.25131031
0.0086863257
-0.27217846
0.011862596
-0.29446857
-0.00076006911
-0.31512571
-0.01461403
-0.33363069
-0.015340421
-0.35379024
-0.0078292634
-0.37812353
-0.0015811395
-0.40597825
-0.00043495118
-0.43554205
-0.0023274008
-0.46582123
-0.0039538839
-0.49726156
-0.0044676807
-0.5307439
-0.0039772223
-0.56681486
-0.0030300504
-0.60573219
-0.0021790884
-0.64758836
-0.0015601878
-0.69241727
-0.0011200259
-0.74035534
-0.00080260394
-0.79161436
-0.00057329814
-0.84643122
-0.00041287978
-0.90505317
-0.00030715402
-0.96773148
-0.0002385767
-1.0347336
-0.00018936588
-1.1063557
-0.00014706737
-1.1829306
-0.00010001692
-1.2648196
-4.8990139e-05
-1.3524409
-0.010584555
-0.20005534
-0.019079584
-0.21462328
-0.0094600019
-0.23272174
0.011657989
-0.25428198
0.015899472
-0.27621534
-5.4891211e-05
-0.29517375
-0.018045304
-0.31169443
-0.019075318
-0.32989579
-0.00901672
-0.35260279
-0.00041417157
-0.37929049
0.0012578931
-0.40767109
-0.001577688
-0.43629176
-0.0042675481
-0.46550757
-0.0052546732
-0.49647457
-0.0047475168
-0.52997361
-0.0035466268
-0.56629829
-0.002443782
-0.60546749
-0.0017004128
-0.64744813
-0.0012188244
-0.69231847
-0.00088597244
-0.74027197
-0.00063978867
-0.79154787
-0.00045837385
-0.84638573
-0.0003339389
-0.90502638
-0.00025475863
-0.9677153
-0.00020418386
-1.0347188
-0.00016713294
-1.1063356
-0.00013113292
-1.1828995
-8.8124536e-05
-1.2647805
-4.3088296e-05
-1.3523978
-0.01244935
-0.184177
-0.021254926
-0.19788
-0.0088324669
-0.21525081
0.015913639
-0.23697739
0.020260615
-0.25864312
0.00085140703
-0.27712163
-0.022335234
-0.29088382
-0.023587095
-0.30718266
-0.010483073
-0.32842944
0.0012086878
-0.35422565
0.0036385469
-0.38167115
-0.00040356006
-0.40884522
-0.0045861426
-0.43597317
-0.0062941728
-0.46446807
-0.0057672482
-0.49545484
-0.004189467
-0.52933077
-0.0027375217
-0.56600455
-0.0018144989
-0.60535341
-0.0012896887
-0.64737727
-0.00095716584
-0.69224728
-0.00070705547
-0.7402047
-0.00050821184
-0.79149804
-0.00036166818
-0.846358
-0.00026545659
-0.90501568
-0.00020755605
-0.96771193
-0.00017196944
-1.034714
-0.00014459519
-1.1063221
-0.00011325544
-1.1828744
-7.6294639e-05
-1.2647473
-3.7756669e-05
-1.3523601
-0.016212241
-0.19909776
-0.023237908
-0.18219402
-0.0077064432
-0.19900602
0.021214368
-0.22055154
0.025104425
-0.2418212
0.002740618
-0.26053233
-0.027506592
-0.27195028
-0.028853832
-0.28561708
-0.012131432
-0.3055343
0.0034073165
-0.33062807
0.0068444489
-0.35743155
0.0013131356
-0.38338784
-0.0048963926
-0.40853497
-0.007672492
-0.43459485
-0.0071377811
-0.46309754
-0.0050123124
-0.49463199
-0.0030606648
-0.52900763
-0.0018813941
-0.56593765
-0.0013083236
-0.60533477
-0.0010009616
-0.64733347
-0.00077055601
-0.69218378
-0.00056471083
-0.7401482
-0.00039527215
-0.79146443
-0.00027566018
-0.84634779
-0.00020311301
-0.90502013
-0.00016321452
-0.96772068
-0.00014004938
-1.0347185
-0.000120203
-1.1063152
-9.4850038e-05
-1.1828558
-6.574123e-05
-1.2647193
-3.3478386e-05
-1.3523266
-0.019519201
-0.19563962
-0.027038229
-0.19529744
-0.0060268781
-0.18387359
0.026757219
-0.20454887
0.03000303
-0.22545015
0.0043940949
-0.24347468
-0.032620826
-0.2554181
-0.03512716
-0.26567695
-0.013964873
-0.28378364
0.0063498165
-0.3084768
0.011045222
-0.33482884
0.0036842652
-0.35980268
-0.005178353
-0.38310588
-0.0094878635
-0.4067196
-0.0089865322
-0.4327461
-0.0060877743
-0.46202208
-0.003409737
-0.49428292
-0.001873882
-0.52901514
-0.001240679
-0.5660053
-0.00099354977
-0.60534218
-0.00082159353
-0.64728243
-0.00062964865
-0.69211884
-0.00044111099
-0.74010236
-0.00029205573
-0.79144804
-0.0001958211
-0.84635509
-0.00014358877
-0.90503975
-0.00011875289
-0.96774198
-0.00010662639
-1.0347321
-9.4952823e-05
-1.1063151
-7.8554189e-05
-1.182843
-5.7257313e-05
-1.2646955
-3.0551646e-05
-1.352296
-0.022338949
-0.19188002
-0.03036371
-0.19231414
-0.0058557223
-0.1954686
0.03231383
-0.1894302
0.034388167
-0.20893401
0.0040531588
-0.22510921
-0.038538063
-0.23755744
-0.043153916
-0.24739134
-0.016320376
-0.26332145
0.0101297
-0.28756352
0.016359329
-0.31379091
0.0068503715
-0.33799495
-0.005427313
-0.35955372
-0.011862128
-0.38073162
-0.011456696
-0.40424943
-0.0075061585
-0.43132771
-0.0037885652
-0.46164325
-0.0017474728
-0.49440933
-0.0010371641
-0.52921865
-0.00090747188
-0.56609137
-0.0008478434
-0.60531593
-0.00070466023
-0.64720742
-0.00050767727
-0.69205227
-0.00032390658
-0.74007051
-0.00019281092
-0.79145105
-0.00011744359
-0.84638123
-8.3244101e-05
-0.90507526
-7.3439185e-05
-0.96777516
-7.3498534e-05
-1.0347535
-7.2162886e-05
-1.1063215
-6.5383208e-05
-1.1828349
-5.1438504e-05
-1.2646746
-2.9103483e-05
-1.3522669
-0.024659049
-0.18807107
-0.033192359
-0.18905137
-0.0049208991
-0.19324896
0.036441793
-0.19959656
0.038229916
-0.19327195
0.0025224629
-0.20740332
-0.046360915
-0.21728636
-0.052015037
-0.22869632
-0.019963055
-0.24374866
0.014755304
-0.26794705
0.022910807
-0.294115
0.010881313
-0.31782185
-0.0056109702
-0.33781129
-0.014930303
-0.35648554
-0.014727104
-0.37746121
-0.0093702302
-0.40238536
-0.0042024459
-0.43091383
-0.0014445634
-0.46194616
-0.00063359995
-0.4948129
-0.00068923953
-0.52943689
-0.00083134145
-0.56610788
-0.00079064368
-0.60522995
-0.00060507735
-0.64711002
-0.00038342988
-0.69199275
-0.000204268
-0.74005905
-9.1654143e-05
-0.79147684
-3.7024614e-05
-0.84642745
-2.2696387e-05
-0.905126
-3.0044034e-05
-0.96781862
-4.3480001e-05
-1.0347822
-5.3717267e-05
-1.1063331
-5.6079465e-05
-1.1828302
-4.8490116e-05
-1.2646552
-2.9054738e-05
-1.3522379
-0.026439584
-0.18430399
-0.035531053
-0.18573237
-0.0033797387
-0.19059253
0.041246201
-0.19805337
0.041142683
-0.20250933
0.00039638197
-0.19114586
-0.054707009
-0.19905722
-0.059831845
-0.20946955
-0.023726818
-0.22493255
0.020256954
-0.24925031
0.030719575
-0.27575582
0.015860978
-0.29909467
-0.0057675195
-0.3176653
-0.018857832
-0.33388376
-0.01897918
-0.35223347
-0.011804858
-0.37502658
-0.0046591969
-0.40192861
-0.00089558955
-0.43146281
5.2921709e-05
-0.46263268
-0.00027232971
-0.49522981
-0.0007430404
-0.52952519
-0.00087711157
-0.56602141
-0.00074411419
-0.60509091
-0.00048653241
-0.64700692
-0.00024374042
-0.69195328
-7.5875139e-05
-0.74007483
1.4301157e-05
-0.79152816
4.3858135e-05
-0.84649401
3.4790656e-05
-0.90519084
8.5095312e-06
-0.96787061
-1.9076865e-05
-1.0348169
-4.0718129e-05
-1.1063485
-5.1123333e-05
-1.1828276
-4.7872234e-05
-1.2646364
-3.0288952e-05
-1.3522076
-0.027646634
-0.18078837
-0.037325106
-0.18250994
-0.0014374463
-0.18767467
0.046452285
-0.19579862
0.04466726
-0.20157794
-0.0017776716
-0.20033527
-0.063043934
-0.18280894
-0.066755928
-0.19213314
-0.025816376
-0.20737999
0.026951937
-0.23162754
0.040012652
-0.25854339
0.021796906
-0.28169175
-0.0059396504
-0.29892254
-0.023842651
-0.31268048
-0.024433737
-0.32842921
-0.014933221
-0.3491051
-0.0051587598
-0.37452702
-1.9590882e-05
-0.40280461
0.0011312872
-0.43254117
0.0004259579
-0.46333097
-0.00053232421
-0.49544052
-0.00097491549
-0.52942738
-0.00093265144
-0.56583287
-0.00065406781
-0.60492338
-0.00032988917
-0.64692077
-8.2630078e-05
-0.69194652
6.3494561e-05
-0.74012403
0.00012222887
-0.79160653
0.00012044958
-0.84657966
8.6458245e-05
-0.90526879
4.0973845e-05
-0.96793066
-1.9232628e-06
-1.0348556
-3.3692684e-05
-1.1063659
-5.0185043e-05
-1.1828253
-5.0152332e-05
-1.2646165
-3.2663587e-05
-1.3521749
-0.028277101
-0.17772854
-0.038546722
-0.17956675
0.00075579726
-0.18470318
0.051823177
-0.19304556
0.048564058
-0.19969541
-0.0035786929
-0.19977692
-0.071537801
-0.1918414
-0.073212818
-0.17635205
-0.026851936
-0.19109758
0.035017179
-0.21544523
0.051099134
-0.24271402
0.029083705
-0.26583019
-0.0062076196
-0.28142378
-0.030127966
-0.29263722
-0.031275023
-0.30583919
-0.018903115
-0.32445931
-0.0056985984
-0.34856526
0.0012854957
-0.37583211
0.0027186435
-0.40439197
0.0015043039
-0.43361952
-0.00014388507
-0.46371941
-0.0010772836
-0.49533815
-0.0011987009
-0.52916133
-0.00091265486
-0.56557429
-0.00048789354
-0.60476537
-0.00012976385
-0.64687364
9.9282727e-05
-0.69198231
0.00020667761
-0.74020847
0.00022414778
-0.79171023
0.00018866774
-0.84668187
0.00012874617
-0.90535656
6.3922448e-05
-0.9679965
7.4438181e-06
-1.0348968
-3.2428196e-05
-1.1063837
-5.3739806e-05
-1.1828217
-5.4820196e-05
-1.2645944
-3.5916173e-05
-1.352139
-0.028387284
-0.17531353
-0.039159188
-0.17711608
0.0030013407
-0.18181229
0.057077862
-0.18995786
0.052747925
-0.19722942
-0.0050754365
-0.19819867
-0.079675381
-0.19163934
-0.081826907
-0.18322732
-0.026904622
-0.17629936
0.044110059
-0.20019046
0.063409577
-0.22775568
0.038143177
-0.25177349
-0.0060185057
-0.2660193
-0.037813716
-0.27373803
-0.03968808
-0.28422416
-0.023781648
-0.30096066
-0.0062676038
-0.32389031
0.0031319402
-0.35041171
0.0049534212
-0.37806689
0.0030845983
-0.40597226
0.00049154569
-0.43425495
-0.0011633215
-0.46363337
-0.0015835549
-0.4949533
-0.0012936537
-0.52878033
-0.00075404222
-0.56530814
-0.00024016718
-0.60465497
0.00010814494
-0.6468825
0.00029046313
-0.6920661
0.00034342835
-0.74032776
0.00031526939
-0.79183683
0.00024482286
-0.84679795
0.00015926827
-0.90545191
7.7016658e-05
-0.96806608
9.6710617e-06
-1.0349389
-3.6711016e-05
-1.1064007
-6.0788366e-05
-1.1828157
-6.1247639e-05
-1.264569
-3.9756152e-05
-1.3520993
-0.027946882
-0.17365826
-0.039211664
-0.17526105
0.0052150063
-0.17932974
0.061925674
-0.1866601
0.05693436
-0.1941443
-0.0061651771
-0.19613968
-0.08730701
-0.19056704
-0.09014845
-0.1833178
-0.03175727
-0.17837467
0.053982543
-0.18617185
0.076146967
-0.21292785
0.047498962
-0.23711146
-0.0049136903
-0.25287831
-0.046644417
-0.2571886
-0.049713932
-0.26371218
-0.029614154
-0.27839166
-0.0068085605
-0.30041971
0.0056588978
-0.32641726
0.0079834832
-0.35344177
0.0053013245
-0.38028361
0.001461989
-0.40694271
-0.0012117137
-0.43420656
-0.0021180467
-0.46309888
-0.0018602039
-0.49438675
-0.0011608614
-0.52837352
-0.00044810528
-0.5651002
7.3248857e-05
-0.60462007
0.0003658843
-0.64695792
0.0004754932
-0.69219816
0.00046595704
-0.74047844
0.00039045849
-0.79198247
0.00028594497
-0.84692463
0.00017726882
-0.90555216
8.038714e-05
-0.96813679
4.4959782e-06
-1.0349801
-4.5951234e-05
-1.1064156
-7.0525757e-05
-1.1828065
-6.8926613e-05
-1.2645399
-4.390628e-05
-1.3520554
-0.17291525
-0.027057229
-0.038751659
-0.17411827
0.0073194261
-0.17736547
0.066151539
-0.1835556
0.060918779
-0.19064452
-0.0069628487
-0.19334663
-0.094327213
-0.18911948
-0.097948844
-0.18276665
-0.036272428
-0.17880264
0.059375751
-0.18376788
0.088664409
-0.19868929
0.056487846
-0.22191673
-0.002744252
-0.2392809
-0.056659109
-0.24286361
-0.06162537
-0.24527716
-0.036530337
-0.25679599
-0.0072157909
-0.27798443
0.0090160467
-0.30377685
0.011970252
-0.33040403
0.0083012269
-0.35644167
0.0028690946
-0.38169072
-0.0011981533
-0.40695627
-0.0028415399
-0.43348306
-0.0026861551
-0.46227293
-0.0017695934
-0.49377802
-0.00078786228
-0.52803376
-2.8550792e-05
-0.5649984
0.00042247956
-0.60467667
0.00061772497
-0.64710015
0.0006412192
-0.69237342
0.00056709154
-0.74065508
0.00044597866
-0.7921425
0.00031091985
-0.84705828
0.00018287116
-0.90565464
7.4785527e-05
-0.96820708
-6.4354044e-06
-1.0350196
-5.9068697e-05
-1.106427
-8.2203616e-05
-1.1827932
-7.7215557e-05
-1.2645066
-4.8070572e-05
-1.3520073
-0.17371597
-0.037950937
-0.17330242
-0.025702544
0.008952467
-0.17575131
0.069637964
-0.18085189
0.064421778
-0.1870586
-0.0074279819
-0.19017939
-0.10053933
-0.18713451
-0.10516099
-0.18190734
-0.040422979
-0.1786161
0.065318326
-0.18474522
0.099623113
-0.19472658
0.064723686
-0.20692513
-0.0016697079
-0.22299128
-0.067283467
-0.22865654
-0.075873078
-0.22861591
-0.045287192
-0.2365203
-0.0074116379
-0.25660015
0.013372539
-0.28234092
0.017061781
-0.30886838
0.012238914
-0.33434172
0.0048344445
-0.35840702
-0.0010823041
-0.38180657
-0.0038007747
-0.40599703
-0.0038585857
-0.43231063
-0.0026693036
-0.46137322
-0.0013005196
-0.49326536
-0.00022809542
-0.52783421
0.00045103316
-0.56502695
0.00076831388
-0.60482726
0.00084287671
-0.64730181
0.00077747185
-0.6925838
0.00064202484
-0.74085112
0.00048054919
-0.79231213
0.00032003285
-0.84719544
0.00017702577
-0.90575688
6.1235295e-05
-0.96827475
-2.3071227e-05
-1.0350556
-7.493046e-05
-1.1064343
-9.4926428e-05
-1.1827755
-8.5634533e-05
-1.264469
-5.2092454e-05
-1.3519552
-0.17486866
0.010105158
-0.17455624
-0.036697108
-0.1749788
-0.023907686
0.07206806
-0.1781814
0.067253363
-0.18368348
-0.0076373413
-0.18684924
-0.10577111
-0.18494761
-0.11146672
-0.18082878
-0.044225369
-0.17810495
0.071691422
-0.18498919
0.11112112
-0.19624322
0.075527827
-0.20553072
-0.0031379907
-0.20545685
-0.079126215
-0.21114853
-0.09257831
-0.21195131
-0.05626139
-0.21764171
-0.0078565186
-0.23607542
0.018936563
-0.26216417
0.023415427
-0.28869457
0.017250394
-0.31387986
0.007487808
-0.33699508
-0.00083714564
-0.35865218
-0.0050492652
-0.38055808
-0.0054790675
-0.40437655
-0.0039618003
-0.43101814
-0.0020597137
-0.46061402
-0.00054856351
-0.49294489
0.00043394079
-0.52781712
0.00092728672
-0.56518592
0.0010762028
-0.60506058
0.0010267934
-0.64755113
0.000878218
-0.69282
0.00068943188
-0.74106
0.00049478236
-0.79248688
0.00031459019
-0.847333
0.00016110811
-0.90585676
4.0958562e-05
-0.96833878
-4.3535753e-05
-1.035087
-9.2496882e-05
-1.1064367
-0.00010799534
-1.1827531
-9.3888139e-05
-1.2644272
-5.5803051e-05
-1.3518994
-0.17636653
0.073565923
-0.17523924
0.010788151
-0.17658953
-0.035086376
-0.17739733
-0.021711518
0.069424429
-0.18035247
-0.0076403862
-0.18368043
-0.10986886
-0.18275149
-0.11669747
-0.17971686
-0.047584016
-0.17747013
0.078213215
-0.18462674
0.12304014
-0.19690822
0.086961038
-0.20767643
0.0013400997
-0.21000881
-0.091972536
-0.19261053
-0.10900195
-0.19472489
-0.068392752
-0.19981995
-0.0088021631
-0.21669606
0.025815055
-0.24295392
0.031133897
-0.26988264
0.023480803
-0.29492498
0.010957804
-0.31734986
-0.00038113529
-0.33745109
-0.0066443596
-0.35705709
-0.0076787357
-0.37835841
-0.0057684778
-0.40256987
-0.0031533579
-0.42992449
-0.0010243153
-0.46013827
0.00035805533
-0.49286901
0.0010968596
-0.52798669
0.0013480926
-0.56545781
0.0013233806
-0.60535717
0.0011610167
-0.64783393
0.00094205964
-0.69307262
0.00071050724
-0.74127573
0.0004905295
-0.79266282
0.00029644204
-0.84746834
0.00013675889
-0.90595256
1.5499787e-05
-0.96839782
-6.6442937e-05
-1.0351131
-0.00011077019
-1.1064339
-0.00012089376
-1.1827261
-0.0001015252
-1.2643815
-5.9085067e-05
-1.3518403
-0.17776357
0.070821468
-0.17558239
0.073909076
-0.17670431
0.010902926
-0.17942823
-0.033055472
-0.1802675
-0.019279512
-0.0071600532
-0.1808328
-0.11272081
-0.18082849
-0.12068344
-0.17876553
-0.050303954
-0.17699692
0.084549111
-0.18380603
0.1348823
-0.1964689
0.098785442
-0.20873262
0.006797273
-0.21313361
-0.099659069
-0.20232228
-0.12304223
-0.17857025
-0.079527139
-0.1835905
-0.0099492721
-0.19867284
0.034010659
-0.22489167
0.040404875
-0.25222489
0.030997128
-0.27739897
0.015398949
-0.29936612
0.00033113956
-0.31806213
-0.0086537134
-0.33544174
-0.010601115
-0.35413471
-0.0082409179
-0.37588597
-0.004681556
-0.40104167
-0.0017075923
-0.42924121
0.00022297038
-0.46000318
0.0012807096
-0.49305286
0.0016751431
-0.52831375
0.0016812695
-0.5658157
0.0015003705
-0.60569652
0.0012448617
-0.64813673
0.00097134161
-0.69333346
0.00070799341
-0.74149319
0.00047028035
-0.79283666
0.00026771336
-0.84759929
0.00010581997
-0.90604288
-1.3330631e-05
-0.96845093
-9.0544861e-05
-1.0351333
-0.00012896323
-1.1064259
-0.00013302868
-1.1826946
-0.00010841955
-1.2643321
-6.1922417e-05
-1.3517784
-0.17860401
-0.0063196046
-0.17604588
0.071284955
-0.17615901
0.07336378
-0.17907501
0.0105497
-0.18261512
-0.030707852
-0.18377369
-0.01668583
-0.11412854
-0.17942507
-0.12332241
-0.17818952
-0.052373948
-0.17669553
0.090496573
-0.18294438
0.1461918
-0.19511553
0.11077027
-0.20845373
0.012033602
-0.21396895
-0.10684843
-0.20594425
-0.13727222
-0.18809229
-0.08918646
-0.16891093
-0.01116207
-0.18237771
0.043217467
-0.20787965
0.051273477
-0.23576027
0.039919241
-0.26114701
0.020902855
-0.28290287
0.0014129838
-0.30044797
-0.01115128
-0.31556457
-0.014440222
-0.33160263
-0.011548128
-0.3508275
-0.0067621878
-0.37380534
-0.0026559189
-0.40009335
2.5382815e-05
-0.42904363
0.0014925112
-0.46021499
0.0020797766
-0.49345749
0.0021215442
-0.52875402
0.0019121209
-0.56622745
0.0016074449
-0.60605911
0.0012827717
-0.64844816
0.00097035145
-0.69359582
0.00068537844
-0.74170829
0.00043681092
-0.79300576
0.00023067988
-0.84772415
7.0270849e-05
-0.90612648
-4.4061131e-05
-0.96849741
-0.00011479297
-1.0351474
-0.00014638765
-1.1064125
-0.00014413737
-1.1826589
-0.00011445815
-1.2642796
-6.4254088e-05
-1.3517141
-0.17877303
-0.11395953
-0.17733057
-0.0050349089
-0.17593499
0.071060937
-0.17742507
0.07171385
-0.18194576
0.0098803434
-0.1863333
-0.028148236
-0.1876314
-0.014093705
-0.12479533
-0.17795215
-0.053808451
-0.17675502
0.095784964
-0.18198393
0.15642228
-0.19317486
0.12238832
-0.20673358
0.01774593
-0.21416606
-0.1139092
-0.20690817
-0.15154043
-0.19167604
-0.10590696
-0.17137179
-0.012364111
-0.16770889
0.0529083
-0.19206854
0.063709176
-0.22031535
0.050224616
-0.24606565
0.027599737
-0.26784389
0.0029280887
-0.28441798
-0.014195988
-0.29740326
-0.019388643
-0.31061615
-0.015904495
-0.32724627
-0.0095218166
-0.34806787
-0.0039280038
-0.37253325
-0.00024504922
-0.39982291
0.0017605505
-0.42931167
0.0025902522
-0.46072546
0.0026742584
-0.4940102
0.0024183881
-0.52926029
0.0020438028
-0.56666381
0.0016522412
-0.60642858
0.0012814572
-0.64875927
0.0009441682
-0.69385461
0.0006464106
-0.74191789
0.00039299041
-0.79316807
0.00018767556
-0.84784156
3.2027849e-05
-0.90620257
-7.5299663e-05
-0.9685369
-0.00013836186
-1.0351555
-0.00016256379
-1.1063941
-0.00015402511
-1.1826193
-0.00011949215
-1.2642244
-6.6116131e-05
-1.351648
-0.1788025
-0.12476586
-0.17941541
-0.11187469
-0.1771799
-0.0037900014
-0.17640675
0.070042609
-0.17933179
0.069099876
-0.18527464
0.0088216841
-0.19023515
-0.025544493
-0.19156038
-0.011691793
-0.054172791
-0.17758781
0.10011921
-0.18108926
0.16519706
-0.19075871
0.1331015
-0.20388804
0.0232982
-0.21228585
-0.12063056
-0.2074447
-0.164801
-0.1936476
-0.12234534
-0.17523765
-0.025397833
-0.15833807
0.063089291
-0.17788988
0.077283552
-0.20564292
0.061941325
-0.23203205
0.035400848
-0.25386676
0.0049388452
-0.26985465
-0.017905414
-0.28070855
-0.025699697
-0.2910922
-0.021511784
-0.30500886
-0.013101775
-0.32366631
-0.0055817899
-0.34641408
-0.00058705071
-0.37219125
0.002118701
-0.40018106
0.0032470643
-0.42996848
0.0033818753
-0.46143308
0.003051144
-0.49464296
0.002574481
-0.52979097
0.0020905409
-0.56710211
0.0016460369
-0.60679316
0.0012486879
-0.64906379
0.00089803992
-0.69410624
0.00059479986
-0.7421197
0.00034163977
-0.79332203
0.00014094173
-0.84795047
-7.2856455e-06
-0.90627058
-0.00010606787
-0.9685692
-0.00016063459
-1.0351574
-0.00017727606
-1.1063708
-0.00016250511
-1.1825763
-0.00012364842
-1.2641668
-6.7523377e-05
-1.3515805
-0.17966574
-0.053309556
-0.18127503
-0.12290624
-0.18062391
-0.10843068
-0.1780077
-0.0021890444
-0.17749863
0.068209449
-0.18172264
0.065547877
-0.18877937
0.0073659119
-0.19403063
-0.023074242
-0.19541033
-0.0096743305
0.1036798
-0.18114841
0.17230021
-0.18819241
0.14235989
-0.2000171
0.028673402
-0.20926324
-0.12686162
-0.20605479
-0.1775525
-0.1946932
-0.13818595
-0.17780699
-0.038890752
-0.16174473
0.063907345
-0.15915612
0.091926791
-0.19253312
0.074969685
-0.21867128
0.044415336