/*--------------------------------*- C++ -*----------------------------------*\
| =========                 |                                                 |
| \\      /  F ield         | OpenFOAM: The Open Source CFD Toolbox           |
|  \\    /   O peration     | Version:  5.0                                   |
|   \\  /    A nd           | Web:      www.OpenFOAM.org                      |
|    \\/     M anipulation  |                                                 |
\*---------------------------------------------------------------------------*/
FoamFile
{
    version     2.0;
    format      ascii;
    class       surfaceScalarField;
    location    "280";
    object      phi_0;
}
// * * * * * * * * * * * * * * * * * * * * * * * * * * * * * * * * * * * * * //

dimensions      [0 3 -1 0 0 0 0];

internalField   nonuniform List<scalar> 
18820
(
-0.00039658164
-1.3579907
-0.00076563211
-1.2699845
-0.00037815824
-1.3576125
-0.0011068867
-1.1877723
-0.00073152277
-1.2696311
-0.00036099791
-1.3572515
-0.0014197091
-1.1109469
-0.0010600365
-1.1874438
-0.00069840765
-1.2692937
-0.00035261851
-1.3568989
-0.0017035406
-1.0391417
-0.0013633895
-1.1106436
-0.0010127496
-1.1871295
-0.00068174787
-1.2689646
-0.00035236207
-1.3565466
-0.001958191
-0.97200962
-0.0016409383
-1.0388642
-0.0013048773
-1.1103515
-0.00098891629
-1.1868223
-0.00068125983
-1.2686357
-0.00035269758
-1.3561939
-0.0021832115
-0.90923526
-0.0018922319
-0.97175833
-0.0015748859
-1.0385941
-0.0012760104
-1.1100644
-0.00098902449
-1.1865145
-0.00068346821
-1.2683049
-0.00034449428
-1.3558494
-0.0023775502
-0.85052813
-0.0021172628
-0.90901023
-0.0018219083
-0.9715113
-0.0015442239
-1.0383259
-0.0012775071
-1.1097759
-0.00099525821
-1.1862027
-0.00067008337
-1.2679793
-0.00032654619
-1.3555228
-0.0025394376
-0.79562022
-0.0023165803
-0.85032881
-0.002045533
-0.9087866
-0.0017932772
-0.97126225
-0.0015482685
-1.0380552
-0.0012895182
-1.1094816
-0.00098004359
-1.1858928
-0.00063736835
-1.2676685
-0.00030314629
-1.3552197
-0.0026666317
-0.7442611
-0.0024919714
-0.79544482
-0.0022464861
-0.85012786
-0.0020227732
-0.90855711
-0.001802122
-0.9710084
-0.0015678864
-1.0377768
-0.0012756101
-1.1091861
-0.00093612067
-1.185594
-0.00059266843
-1.267379
-0.00028085461
-1.3549388
-0.0027581358
-0.69622283
-0.0026461507
-0.74410692
-0.002428123
-0.79526319
-0.0022325783
-0.84991806
-0.0020392132
-0.90832002
-0.0018323598
-0.97074392
-0.0015580587
-1.0374944
-0.0012250442
-1.1088971
-0.00087237857
-1.1853143
-0.00054905991
-1.2671108
-0.00026387689
-1.354675
-0.0028133085
-0.65129195
-0.0027826834
-0.6960863
-0.0025979757
-0.74393707
-0.0024229585
-0.79507281
-0.0022588933
-0.84969838
-0.002083918
-0.90806846
-0.0018296793
-0.9704723
-0.0015052985
-1.0372141
-0.0011459097
-1.1086236
-0.00080878765
-1.1850546
-0.00051519076
-1.2668594
-0.00025223395
-1.3544227
-0.0028485913
-0.60924587
-0.0029245316
-0.6511501
-0.0027714514
-0.69591282
-0.0025954139
-0.74376461
-0.0024587057
-0.79487299
-0.0023218129
-0.84946048
-0.0020922439
-0.90780589
-0.0017786607
-0.97019894
-0.0014152673
-1.0369447
-0.0010640772
-1.1083683
-0.00075899296
-1.1848108
-0.00049176016
-1.2666199
-0.0002426753
-1.35418
-0.0028687586
-0.56989322
-0.0030950408
-0.60907536
-0.002962679
-0.65095887
-0.0027516823
-0.69575655
-0.0026324873
-0.74359083
-0.0025420156
-0.79465279
-0.0023470831
-0.84920564
-0.0020470901
-0.90753746
-0.0016810033
-0.96993321
-0.0013179013
-1.0366909
-0.00099939521
-1.1081279
-0.00072422756
-1.1845783
-0.00047302469
-1.2663896
-0.00023113069
-1.3539489
-0.0028842112
-0.53307557
-0.0032794734
-0.56970879
-0.0031489534
-0.60888909
-0.0028710007
-0.65083956
-0.0027633759
-0.69562566
-0.0027362036
-0.74339664
-0.0025956835
-0.79440419
-0.0023132423
-0.84893949
-0.0019438203
-0.90727465
-0.0015707422
-0.96968037
-0.0012393586
-1.036451
-0.00095390635
-1.1078982
-0.00069638722
-1.184355
-0.00045113696
-1.2661696
-0.00021485325
-1.3537341
-0.0029021141
-0.49863298
-0.0034964846
-0.53285856
-0.003308218
-0.56954952
-0.0029305603
-0.60882953
-0.0028298285
-0.6507731
-0.0028947309
-0.69546714
-0.0028406875
-0.74315164
-0.0025821391
-0.7941353
-0.0022051261
-0.84867818
-0.0018222974
-0.90702309
-0.0014801469
-0.96943958
-0.0011837827
-1.0362211
-0.00091706066
-1.1076776
-0.00066443018
-1.1841417
-0.00042028265
-1.2659641
-0.00019342143
-1.3535406
-0.0029393122
-0.46641153
-0.0037554277
-0.49837404
-0.0034484879
-0.53271829
-0.0029460455
-0.56953404
-0.0028279865
-0.60883137
-0.0030143627
-0.65065347
-0.0030881437
-0.69521968
-0.0028625407
-0.74287124
-0.0024677669
-0.79387265
-0.002071769
-0.84842871
-0.0017218144
-0.90678143
-0.0014161012
-0.96920726
-0.0011384958
-1.0359996
-0.00087472424
-1.1074673
-0.00062010228
-1.1839418
-0.00037901149
-1.2657785
-0.00016865111
-1.353372
-0.0029761756
-0.43627505
-0.004098602
-0.46606836
-0.0035990333
-0.4982235
-0.0028904587
-0.53277388
-0.00277044
-0.56959159
-0.0031018923
-0.60874384
-0.0033512129
-0.6503904
-0.0031674057
-0.69491481
-0.0027364361
-0.74260257
-0.0023173283
-0.7936271
-0.0019629432
-0.84818758
-0.0016521913
-0.90654534
-0.0013638349
-0.96898192
-0.0010860451
-1.0357883
-0.00081690126
-1.1072705
-0.00056059693
-1.1837603
-0.00033057078
-1.2656166
-0.00014363464
-1.3532284
-0.0030778138
-0.40806271
-0.0045417562
-0.4358319
-0.0037734588
-0.46589393
-0.0027643565
-0.4983496
-0.0026185583
-0.53292576
-0.0031633277
-0.56953015
-0.0036430636
-0.60845199
-0.0035179767
-0.65003983
-0.003018987
-0.69463226
-0.0025557141
-0.74236418
-0.002199819
-0.79339022
-0.0018918831
-0.84794789
-0.001595843
-0.90631333
-0.0013024289
-0.96876554
-0.0010146426
-1.0355906
-0.00074025587
-1.1070908
-0.00048919333
-1.1836016
-0.00028113453
-1.2654791
-0.00012133139
-1.353107
-0.0031594166
-0.3816738
-0.0051507943
-0.40745367
-0.0040133087
-0.43559205
-0.0025177059
-0.46614058
-0.002318657
-0.4986495
-0.0032109311
-0.53287815
-0.0039743447
-0.56919887
-0.0039342546
-0.60803571
-0.0033243691
-0.64973445
-0.0027829617
-0.69440502
-0.0024261178
-0.74213788
-0.0021328273
-0.79314928
-0.0018363283
-0.84770741
-0.0015277994
-0.90608796
-0.0012180505
-0.96856213
-0.00092071209
-1.0354101
-0.0006473732
-1.1069326
-0.000414557
-1.1834682
-0.00023666296
-1.2653638
-0.00010347318
-1.3530035
-0.0033497091
-0.35690239
-0.0058887971
-0.3809358
-0.004294083
-0.4071729
-0.0021324741
-0.43597728
-0.0018174706
-0.46664177
-0.0032125973
-0.49864783
-0.0043772546
-0.53247524
-0.0044366134
-0.56869651
-0.0036656561
-0.60769442
-0.0029914525
-0.64952596
-0.0026311053
-0.69420003
-0.0023696889
-0.74190102
-0.002086099
-0.79289951
-0.0017658968
-0.84746931
-0.0014313854
-0.90587462
-0.0011063976
-0.96837644
-0.00080692214
-1.0352506
-0.00054717147
-1.1068
-0.00034651784
-1.1833584
-0.0002005188
-1.2652667
-9.0300375e-05
-1.3529132
-0.0034576159
-0.33371735
-0.0068414091
-0.35594978
-0.0047064743
-0.3805234
-0.0015444387
-0.40776093
-0.001059981
-0.43673477
-0.0031608835
-0.46669348
-0.0049005189
-0.49812457
-0.0050536557
-0.5318582
-0.0040363492
-0.56832582
-0.0031737003
-0.60751218
-0.0027982635
-0.6493588
-0.002591883
-0.69397783
-0.0023442503
-0.74164287
-0.0020209482
-0.79264445
-0.0016592473
-0.84724145
-0.0013011047
-0.90567992
-0.0009703787
-0.96821299
-0.00068129995
-1.0351164
-0.00045379113
-1.1066927
-0.00029096135
-1.1832679
-0.00017315177
-1.2651839
-8.1000456e-05
-1.3528322
-0.003785803
-0.31176419
-0.0078650115
-0.33269375
-0.005191559
-0.35546469
-0.00077705473
-0.38129079
1.3216095e-05
-0.40883413
-0.0030163935
-0.43687926
-0.0056002627
-0.46599374
-0.0058509861
-0.49732724
-0.0044530363
-0.53144151
-0.0032971784
-0.56820234
-0.0028952997
-0.60741514
-0.0027813166
-0.64916937
-0.0026069398
-0.69371515
-0.002297919
-0.7413659
-0.0019076078
-0.79239609
-0.001508954
-0.8470336
-0.0011404737
-0.90550982
-0.00081811988
-0.96807617
-0.00056129388
-1.0350089
-0.00037667724
-1.106607
-0.00024867858
-1.1831924
-0.00015321708
-1.2651117
-7.4364491e-05
-1.3527579
-0.0043119556
-0.29104094
-0.0092276085
-0.31040159
-0.005871422
-0.33201388
0.00033134066
-0.35657309
0.0014675985
-0.38274517
-0.002781402
-0.40906912
-0.0065358447
-0.43594368
-0.0068998038
-0.46494492
-0.004930786
-0.49684949
-0.0033311365
-0.53140756
-0.0028882253
-0.56820941
-0.0029046993
-0.60729176
-0.002866634
-0.64890967
-0.0026037531
-0.69340931
-0.0021849183
-0.74108859
-0.0017350916
-0.79216996
-0.0013199339
-0.84685414
-0.00095914671
-0.90536879
-0.00066983201
-0.96796763
-0.00046060567
-1.034925
-0.00031754878
-1.1065381
-0.00021727232
-1.1831283
-0.00013885775
-1.2650472
-6.9255117e-05
-1.3526886
-0.0048725676
-0.27219603
-0.010767353
-0.28950119
-0.0065680504
-0.30970497
0.0015793485
-0.33326189
0.0033874689
-0.35849296
-0.0023692108
-0.38315736
-0.00778553
-0.40781944
-0.0082894095
-0.43455407
-0.0054970832
-0.46437862
-0.0032365855
-0.49694404
-0.0027170739
-0.53157871
-0.0029534908
-0.56816062
-0.0031140805
-0.60704431
-0.0029483435
-0.64856508
-0.002504532
-0.6930897
-0.0019867507
-0.74083693
-0.001511315
-0.79197858
-0.0011053763
-0.84670791
-0.00078057392
-0.90525805
-0.00054408404
-0.96788415
-0.00038203188
-1.0348605
-0.00027321431
-1.1064822
-0.00019370785
-1.1830735
-0.00012825804
-1.2649882
-6.4762423e-05
-1.3526239
-0.0053877263
-0.25428055
-0.012543147
-0.27042024
-0.0072544547
-0.28881479
0.0034110339
-0.31153665
0.0057735171
-0.33564794
-0.0018680231
-0.35899415
-0.0094264217
-0.38151647
-0.010100661
-0.40600819
-0.006184748
-0.43386641
-0.0029745381
-0.46464067
-0.0023115692
-0.49734954
-0.0029112846
-0.53162091
-0.0033543052
-0.5679204
-0.0033507664
-0.60664189
-0.0028864849
-0.64818313
-0.0022750173
-0.69280143
-0.0017172932
-0.74063095
-0.0012565646
-0.79182739
-0.00089394572
-0.84659454
-0.00062835305
-0.90517378
-0.00044451045
-0.96782167
-0.00032206223
-1.0348117
-0.00023921005
-1.1064367
-0.00017565621
-1.1830261
-0.00011951976
-1.2649334
-6.0190138e-05
-1.3525637
-0.0066958682
-0.23564651
-0.014330472
-0.25249323
-0.0082839957
-0.2693907
0.0056057007
-0.29100946
0.008644202
-0.31440734
-0.0010581115
-0.33645785
-0.011583562
-0.35683701
-0.012455846
-0.37916129
-0.0070283876
-0.40516455
-0.0024950363
-0.43434591
-0.0015878554
-0.46536438
-0.0027064595
-0.49755437
-0.0036114015
-0.53136382
-0.0038314015
-0.56743976
-0.003363875
-0.6061645
-0.002616377
-0.64784177
-0.0019406804
-0.69257804
-0.0014108187
-0.7404767
-0.0010085323
-0.7917128
-0.00071413072
-0.84650876
-0.00050675349
-0.90511154
-0.00036680907
-0.96777693
-0.00027542435
-1.0347755
-0.00021190982
-1.1064004
-0.00016100316
-1.1829846
-0.00011069412
-1.2648829
-5.5091974e-05
-1.3525086
-0.0084331837
-0.21707259
-0.016784955
-0.23319203
-0.009515009
-0.25126221
0.0082712638
-0.27205626
0.012043321
-0.29440858
-0.00027292332
-0.31519252
-0.014281749
-0.33375966
-0.015430753
-0.3538621
-0.0080824525
-0.37810722
-0.0017435256
-0.40591606
-0.00043999595
-0.43549377
-0.0022577514
-0.46581309
-0.0038867996
-0.49727897
-0.0044255926
-0.53076963
-0.0039671711
-0.56683647
-0.0030356355
-0.60574524
-0.0021857308
-0.64759672
-0.0015634429
-0.69242542
-0.0011198564
-0.74036537
-0.0008003677
-0.79162656
-0.0005703845
-0.84644513
-0.00041006943
-0.90506828
-0.00030487428
-0.96774748
-0.0002370852
-1.0347503
-0.0001886436
-1.1063728
-0.00014704564
-1.1829482
-0.00010049258
-1.2648375
-4.9431967e-05
-1.3524592
-0.010230176
-0.20013939
-0.01921071
-0.21464683
-0.010074047
-0.23263299
0.011152408
-0.25414336
0.016125791
-0.27613873
0.00057902676
-0.29526053
-0.017620781
-0.31185349
-0.019203857
-0.32998656
-0.0093654174
-0.35257913
-0.00064565133
-0.37920509
0.0012461391
-0.40760219
-0.0014746937
-0.43627683
-0.0041687693
-0.46553112
-0.0051948464
-0.49650972
-0.0047355032
-0.53000129
-0.0035588045
-0.5663133
-0.0024567624
-0.60547421
-0.0017065046
-0.64745366
-0.0012189469
-0.69232633
-0.0008829242
-0.74028282
-0.00063588056
-0.79156107
-0.00045472188
-0.84640048
-0.00033099636
-0.90504216
-0.00025277197
-0.96773179
-0.00020318239
-1.0347358
-0.00016697189
-1.1063529
-0.000131688
-1.182917
-8.8952245e-05
-1.264798
-4.3658213e-05
-1.3524155
-0.012084719
-0.18425622
-0.021453891
-0.19789621
-0.0095989547
-0.21512192
0.01533841
-0.23681899
0.020544384
-0.25856195
0.00166495
-0.27722465
-0.021805423
-0.29107588
-0.023767657
-0.30728969
-0.010955092
-0.32839689
0.00088698436
-0.35411177
0.003617472
-0.38157643
-0.00025558052
-0.40882131
-0.0044407201
-0.43600488
-0.0062089561
-0.46451701
-0.005753156
-0.49549206
-0.004211672
-0.52934843
-0.0027608592
-0.5660092
-0.0018254916
-0.60535522
-0.0012906221
-0.64738198
-0.0009530445
-0.69225621
-0.00070174207
-0.74021695
-0.00050340525
-0.79151238
-0.00035787891
-0.84637359
-0.00026284372
-0.90503209
-0.00020612463
-0.96772885
-0.00017160787
-1.0347311
-0.00014511044
-1.1063395
-0.00011435899
-1.1828916
-7.7364345e-05
-1.2647643
-3.8400552e-05
-1.3523771
-0.015840481
-0.19918759
-0.023509922
-0.18220019
-0.0086354257
-0.19885973
0.020598927
-0.22038244
0.025464502
-0.24173911
0.0037277308
-0.26062473
-0.026854779
-0.2721753
-0.029103135
-0.28574041
-0.012757401
-0.30548738
0.0029694785
-0.33047938
0.0068118662
-0.35730616
0.0015202164
-0.38335222
-0.0046848223
-0.4085772
-0.0075508793
-0.43466295
-0.0071214921
-0.46314868
-0.0050502322
-0.4946535
-0.0030996346
-0.52900965
-0.0019005106
-0.56593418
-0.0013108965
-0.60533495
-0.00099539427
-0.64733963
-0.00076318363
-0.69219477
-0.00055824844
-0.74016211
-0.00039033382
-0.79147993
-0.00027223989
-0.8463642
-0.00020112134
-0.90503709
-0.00016255284
-0.9677379
-0.00014048929
-1.0347357
-0.00012143881
-1.1063324
-9.6354062e-05
-1.1828727
-6.6959137e-05
-1.2647357
-3.4149091e-05
-1.3523429
-0.019145108
-0.1957309
-0.027386273
-0.19531124
-0.00712334
-0.18371227
0.026130591
-0.2043914
0.030465977
-0.22538392
0.0055870905
-0.24359847
-0.031804638
-0.25567487
-0.035452349
-0.26582608
-0.014777687
-0.28372012
0.0057693205
-0.30828722
0.010999509
-0.33466702
0.0039670869
-0.35975303
-0.0048757234
-0.38316132
-0.0093151721
-0.40681291
-0.0089678204
-0.43281663
-0.0061495815
-0.46204933
-0.0034720437
-0.4942811
-0.0019057866
-0.52900438
-0.0012457473
-0.56599933
-0.00098589916
-0.60534444
-0.00081103856
-0.64729178
-0.00062062967
-0.69213239
-0.00043447726
-0.74011797
-0.00028756313
-0.79146461
-0.00019314577
-0.84637217
-0.00014253825
-0.9050571
-0.00011905481
-0.96775934
-0.00010791447
-1.0347493
-9.6768225e-05
-1.106332
-8.028816e-05
-1.1828593
-5.8535741e-05
-1.2647113
-3.1210066e-05
-1.3523117
-0.021967149
-0.19196843
-0.03078957
-0.1923276
-0.0071370416
-0.19529754
0.031709291
-0.18929097
0.034974511
-0.20889993
0.0055274975
-0.22532432
-0.037534846
-0.23786826
-0.043525274
-0.24760195
-0.017356297
-0.26324747
0.0093753865
-0.28732619
0.016301858
-0.31358957
0.0072278057
-0.33792774
-0.0050031003
-0.35962566
-0.011618828
-0.38085767
-0.011435242
-0.40434549
-0.007603101
-0.43136311
-0.0038853365
-0.46163603
-0.0017984033
-0.49438848
-0.0010465944
-0.52920353
-0.00089641816
-0.56608881
-0.00083202931
-0.60532345
-0.00069157177
-0.64722084
-0.0004984938
-0.69206837
-0.00031796589
-0.74008757
-0.00018931182
-0.79146844
-0.00011593849
-0.84639877
-8.3344277e-05
-0.90509282
-7.4695644e-05
-0.96779256
-7.5489883e-05
-1.0347705
-7.432546e-05
-1.1063379
-6.7230603e-05
-1.1828506
-5.2700348e-05
-1.2646899
-2.9722586e-05
-1.352282
-0.024292426
-0.1881545
-0.033694297
-0.18906371
-0.0063965592
-0.19306809
0.035857683
-0.19944593
0.038944306
-0.19326077
0.0042828046
-0.20765524
-0.045231654
-0.21762752
-0.052465394
-0.22892814
-0.021281408
-0.24367683
0.013791564
-0.26766365
0.022848016
-0.29387234
0.011374496
-0.31773626
-0.0050274066
-0.33790344
-0.014592092
-0.35665239
-0.014702475
-0.37759043
-0.0095169335
-0.40243166
-0.0043490398
-0.4308994
-0.0015230164
-0.46191142
-0.00064993931
-0.49478513
-0.00067324632
-0.5294267
-0.00080812871
-0.56611271
-0.00077163466
-0.60524339
-0.0005921665
-0.64712716
-0.00037553911
-0.6920108
-0.0001997944
-0.74007708
-8.9660267e-05
-0.79149472
-3.6887973e-05
-0.84644523
-2.388671e-05
-0.90514362
-3.2083673e-05
-0.96783596
-4.5948786e-05
-1.0347989
-5.6045788e-05
-1.1063491
-5.7923526e-05
-1.1828454
-4.9695112e-05
-1.2646699
-2.962463e-05
-1.3522524
-0.026080329
-0.18437868
-0.036104392
-0.1857444
-0.0050502999
-0.19040996
0.040690652
-0.19790106
0.041955417
-0.20245704
0.0024319493
-0.19140991
-0.053520933
-0.19936596
-0.060458718
-0.20963419
-0.025369856
-0.22483969
0.019024929
-0.2489102
0.030651423
-0.27546706
0.016492884
-0.29899073
-0.0049799674
-0.3177837
-0.018394177
-0.33410135
-0.018951412
-0.35240346
-0.012020539
-0.37508683
-0.0048758381
-0.40190486
-0.0010124558
-0.43140996
2.6614471e-05
-0.46258797
-0.00024976545
-0.49520861
-0.00070839433
-0.52952644
-0.00084998347
-0.56603436
-0.00072578624
-0.60510977
-0.00047596167
-0.64702674
-0.00023814264
-0.69197245
-7.3430865e-05
-0.74009331
1.4656182e-05
-0.79154626
4.2745232e-05
-0.84651186
3.2671141e-05
-0.90520838
5.8141912e-06
-0.96788772
-2.1759033e-05
-1.0348332
-4.307089e-05
-1.106364
-5.2884483e-05
-1.1828422
-4.9020884e-05
-1.2646505
-3.0804438e-05
-1.3522216
-0.027295368
-0.18085138
-0.037962699
-0.18252038
-0.0032966785
-0.18749802
0.045930731
-0.19565004
0.045579501
-0.20152514
0.00053921866
-0.20056431
-0.061833018
-0.18309783
-0.067560545
-0.19226413
-0.027770352
-0.20723369
0.025418292
-0.23123306
0.039940035
-0.25819881
0.022597654
-0.28157183
-0.0048947712
-0.29907593
-0.023217698
-0.31296018
-0.024403424
-0.32864934
-0.015241717
-0.34918228
-0.005471565
-0.3744911
-0.00018947743
-0.40272784
0.0010901854
-0.43247353
0.00045736757
-0.46329511
-0.0004807182
-0.49543629
-0.00093500337
-0.52944141
-0.00090591196
-0.56585424
-0.00063959952
-0.60494613
-0.00032297277
-0.64694191
-7.9876613e-05
-0.691966
6.3863422e-05
-0.74014252
0.0001211093
-0.79162463
0.00011832097
-0.84659751
8.3688527e-05
-0.90528625
3.8017773e-05
-0.9679475
-4.6197947e-06
-1.0348717
-3.5966434e-05
-1.1063809
-5.1843107e-05
-1.1828394
-5.1179887e-05
-1.2646301
-3.312403e-05
-1.3521885
-0.027933845
-0.17777745
-0.039238338
-0.17957575
-0.0012778937
-0.18453916
0.051335433
-0.19290272
0.049575666
-0.19964621
-0.00097009332
-0.20001583
-0.070254866
-0.19214246
-0.074190284
-0.17646809
-0.02912414
-0.19091035
0.033190503
-0.21500591
0.050997583
-0.2422906
0.030070047
-0.2656712
-0.0048527415
-0.28161386
-0.029301969
-0.29299166
-0.031247504
-0.3061161
-0.019334253
-0.3245568
-0.0061402317
-0.34851361
0.0010444476
-0.37572503
0.0026578251
-0.40429548
0.0015478906
-0.43356406
-6.8341356e-05
-0.46370748
-0.0010169603
-0.49535433
-0.0011601513
-0.52918718
-0.00089212003
-0.56560172
-0.00047938144
-0.60478972
-0.00012703754
-0.64689475
9.9264249e-05
-0.6920014
0.00020529397
-0.74022671
0.0002219023
-0.79172821
0.00018581639
-0.84669964
0.00012561914
-0.90537385
6.0873313e-05
-0.96801299
4.6935458e-06
-1.0349123
-3.4552048e-05
-1.1063982
-5.5239598e-05
-1.1828353
-5.5737871e-05
-1.2646075
-3.6329527e-05
-1.3521521
-0.028051953
-0.17534878
-0.039894268
-0.17712152
0.00081508989
-0.18166873
0.056623314
-0.18982704
0.053854552
-0.19718161
-0.0021763062
-0.19844
-0.078328293
-0.1919424
-0.082880179
-0.18345257
-0.029514987
-0.17607724
0.042001243
-0.19972108
0.063302714
-0.22731104
0.039334944
-0.2515555
-0.0043022625
-0.26622168
-0.036753037
-0.27416279
-0.039676274
-0.28456289
-0.024371405
-0.30107895
-0.0068786025
-0.32381843
0.0027983785
-0.35026754
0.004867049
-0.37793425
0.0031441882
-0.40589177
0.00060057578
-0.43423297
-0.0010726186
-0.46365182
-0.0015276085
-0.49498688
-0.0012647577
-0.52881454
-0.00074337344
-0.56533773
-0.00023810897
-0.60467865
0.0001069733
-0.64690246
0.00028826468
-0.69208437
0.00034081392
-0.74034562
0.00031228136
-0.79185467
0.000241586
-0.84681561
0.00015602082
-0.905469
7.4000181e-05
-0.9680823
7.0907551e-06
-1.034954
-3.8658259e-05
-1.1064148
-6.2145719e-05
-1.1828289
-6.2072192e-05
-1.2645818
-4.0135146e-05
-1.352112
-0.027617106
-0.17367851
-0.039981345
-0.1752617
0.0029053925
-0.17921182
0.061501432
-0.18654685
0.05812861
-0.1941011
-0.0029838405
-0.19637408
-0.085907646
-0.19086064
-0.091273639
-0.18354894
-0.034683609
-0.17828394
0.051609482
-0.18568548
0.076073927
-0.2124923
0.048941912
-0.23691801
-0.002773206
-0.25308456
-0.04529891
-0.25767581
-0.049727556
-0.26411151
-0.030404745
-0.27852955
-0.0076358317
-0.30032172
0.0052081171
-0.32622817
0.0078646298
-0.35326512
0.0053816019
-0.38017166
0.00161618
-0.40690738
-0.0010778094
-0.43422778
-0.002035885
-0.46314355
-0.0018199476
-0.49443169
-0.0011473871
-0.52841052
-0.00044775709
-0.56512808
6.969752e-05
-0.60464138
0.00036189628
-0.64697609
0.00047197276
-0.69221553
0.00046265852
-0.74049599
0.00038714322
-0.79200023
0.00028260613
-0.84694219
0.00017405941
-0.90556906
7.7507862e-05
-0.96815272
2.206308e-06
-1.0349948
-4.7731591e-05
-1.1064292
-7.1756377e-05
-1.1828192
-6.9684723e-05
-1.2645522
-4.4268059e-05
-1.3520677
-0.17292128
-0.026727196
-0.039540678
-0.17411918
0.0049182306
-0.17727454
0.065756248
-0.18346663
0.062188404
-0.19060664
-0.0035172759
-0.19356767
-0.0928814
-0.18940032
-0.09913595
-0.18299833
-0.039521462
-0.17871109
0.056642543
-0.183317
0.088666008
-0.19827756
0.058191258
-0.22174164
-0.00018891211
-0.2395023
-0.054945703
-0.24343776
-0.061643763
-0.2457596
-0.037562301
-0.25695395
-0.0083122876
-0.27785309
0.00842133
-0.30353493
0.011811866
-0.33017541
0.0084074498
-0.35629097
0.0030825171
-0.381638
-0.0010042534
-0.40698093
-0.0027208489
-0.43354282
-0.0026295499
-0.46233394
-0.0017532744
-0.4938258
-0.00079034619
-0.52806793
-3.6603672e-05
-0.56502178
0.0004151411
-0.60469462
0.00061237604
-0.6471165
0.00063722458
-0.6923901
0.00056365045
-0.7406725
0.00044266532
-0.79216029
0.00030766276
-0.8470758
0.0001798028
-0.90567136
7.2092907e-05
-0.96822261
-8.6198428e-06
-1.0350339
-6.0705559e-05
-1.1064402
-8.3342485e-05
-1.1828056
-7.7939991e-05
-1.2645185
-4.8430322e-05
-1.3520193
-0.17371715
-0.038744814
-0.17329541
-0.025368947
0.0064971343
-0.17569808
0.069268786
-0.18078708
0.065751867
-0.1870301
-0.003746132
-0.19037778
-0.099059968
-0.1873891
-0.10640155
-0.18213472
-0.043993909
-0.17852588
0.062218586
-0.18428713
0.099566482
-0.19421748
0.066728501
-0.2068148
0.0013950875
-0.22332564
-0.065116801
-0.2293312
-0.075866749
-0.22921478
-0.046592805
-0.2367291
-0.0088409424
-0.2564253
0.01260571
-0.28203747
0.016857344
-0.30858041
0.012376319
-0.33414428
0.0051248635
-0.35833332
-0.00080730105
-0.38183495
-0.0036251919
-0.40607659
-0.0037783697
-0.432394
-0.0026499486
-0.46143727
-0.0013082462
-0.4933079
-0.00024346197
-0.52786108
0.00043785894
-0.5650445
0.00075956077
-0.60484181
0.00083747365
-0.64731675
0.00077372935
-0.69260018
0.00063882999
-0.74086867
0.00047742851
-0.79233006
0.00031695152
-0.84721295
0.00017414015
-0.9057734
5.8727573e-05
-0.96828995
-2.5098291e-05
-1.0350695
-7.6460267e-05
-1.1064471
-9.6016641e-05
-1.1827875
-8.6348341e-05
-1.2644806
-5.2462106e-05
-1.3519668
-0.17485186
0.0076318506
-0.17455577
-0.037484449
-0.17495789
-0.023565517
0.071712059
-0.17814135
0.068630063
-0.18366528
-0.0037574188
-0.18701881
-0.10426937
-0.18516838
-0.11274999
-0.18104065
-0.04810651
-0.17802212
0.068216769
-0.18452407
0.11100783
-0.19572848
0.077695204
-0.20518418
0.00046486629
-0.20588458
-0.076536281
-0.21190616
-0.09253963
-0.21265832
-0.057884503
-0.21792308
-0.0097085122
-0.23586153
0.017971746
-0.26179133
0.023159997
-0.28834012
0.01742416
-0.31362825
0.0078746245
-0.33689404
-0.00045634275
-0.35868428
-0.0047968003
-0.38066334
-0.0053651524
-0.40448981
-0.0039389222
-0.43110502
-0.0020769041
-0.46066861
-0.00057496589
-0.49297639
0.00041107676
-0.52783429
0.00091284493
-0.56519778
0.0010682109
-0.60507254
0.0010223617
-0.64756538
0.00087519405
-0.69283654
0.00068667106
-0.74107791
0.00049192552
-0.79250503
0.00031170774
-0.84735051
0.00015840312
-0.90587308
3.8615262e-05
-0.96835367
-4.5447675e-05
-1.0351006
-9.3966e-05
-1.1064492
-0.00010907153
-1.1827648
-9.4619238e-05
-1.2644385
-5.6194727e-05
-1.3519106
-0.17635441
0.073214602
-0.17526069
0.0083367715
-0.17659122
-0.035851113
-0.17736093
-0.021358504
0.070825732
-0.18033702
-0.0036080848
-0.18381461
-0.10835783
-0.18293036
-0.11801419
-0.17990418
-0.051745519
-0.17740164
0.074364081
-0.18416944
0.12287993
-0.19639617
0.089263787
-0.20729706
0.0054240572
-0.21014337
-0.08907224
-0.19334862
-0.10905176
-0.19539403
-0.070404511
-0.20013831
-0.011182542
-0.21644905
0.024611595
-0.24250138
0.030826935
-0.26945827
0.023695723
-0.29461169
0.0114586
-0.31721223
0.00013608572
-0.33748647
-0.0062863122
-0.35719476
-0.0075174193
-0.37851108
-0.0057414069
-0.40268732
-0.0031857556
-0.42999617
-0.0010681954
-0.46017538
0.00032060099
-0.49288592
0.0010730052
-0.52799445
0.0013355925
-0.56546516
0.001317609
-0.60536779
0.0011581777
-0.64784836
0.000939939
-0.69308981
0.00070820523
-0.74129419
0.00048792298
-0.79268125
0.00029373417
-0.84748584
0.00013419929
-0.90596866
1.3263437e-05
-0.96841238
-6.8295744e-05
-1.0351262
-0.00011222681
-1.106446
-0.00012199428
-1.1827374
-0.00010229672
-1.2643924
-5.9504403e-05
-1.3518511
-0.17775825
0.072229576
-0.17560166
0.073555569
-0.17676307
0.0085086181
-0.17942819
-0.033783858
-0.18021671
-0.01891648
-0.0030294843
-0.18091562
-0.11121114
-0.18096129
-0.1220251
-0.17891945
-0.05470949
-0.17694021
0.080333204
-0.18337076
0.134681
-0.1959705
0.10124863
-0.20838102
0.011383691
-0.21325669
-0.096296735
-0.20291888
-0.12325391
-0.17914648
-0.081908057
-0.18389048
-0.012914931
-0.19840592
0.03251988
-0.22435733
0.040048918
-0.25172336
0.031257515
-0.27702006
0.016034929
-0.29918801
0.0010295988
-0.31810574
-0.0081524592
-0.33562032
-0.010374393
-0.35433779
-0.0082089667
-0.37604352
-0.0047368615
-0.40113622
-0.0017784596
-0.42928591
0.0001642979
-0.46001908
0.0012419399
-0.49305485
0.0016553645
-0.52831423
0.0016730632
-0.56582061
0.0014976428
-0.60570726
0.0012437481
-0.64815217
0.00097005803
-0.69335166
0.00070606574
-0.74151233
0.00046785723
-0.79285537
0.00026512161
-0.84761677
0.00010334257
-0.90605874
-1.5524874e-05
-0.96846515
-9.2396819e-05
-1.0351461
-0.00013045287
-1.1064375
-0.00013418528
-1.1827055
-0.00010924088
-1.2643426
-6.237343e-05
-1.3517888
-0.17862948
-0.002158257
-0.1760501
0.072678023
-0.17619567
0.072988168
-0.17916813
0.0082485554
-0.18260973
-0.031390844
-0.18370858
-0.016313376
-0.11261349
-0.17951328
-0.12468355
-0.17830284
-0.056978648
-0.17665029
0.085940893
-0.1825479
0.14596074
-0.19465051
0.11336924
-0.20809111
0.017108918
-0.21410625
-0.10298157
-0.20657186
-0.13732485
-0.18884793
-0.09187315
-0.16918139
-0.014697374
-0.18210804
0.041382972
-0.20726902
0.050873025
-0.23518144
0.040230056
-0.2606959
0.021693727
-0.28267886
0.0023350013
-0.30049342
-0.0104643
-0.3157939
-0.014124287
-0.33187043
-0.011511054
-0.3510357
-0.0068510947
-0.37392928
-0.0027663564
-0.40014832
-6.4271627e-05
-0.42905734
0.0014320627
-0.4602092
0.0020487217
-0.49344821
0.0021094059
-0.52875057
0.0019093735
-0.56623235
0.001607826
-0.60607133
0.001283155
-0.64846527
0.00096969091
-0.69361529
0.00068367741
-0.74172815
0.0004344699
-0.79302472
0.00022812099
-0.84774155
6.7794773e-05
-0.90614206
-4.6288199e-05
-0.96851126
-0.00011669559
-1.0351598
-0.00014794986
-1.1064238
-0.00014536687
-1.1826694
-0.00011534259
-1.2642897
-6.4738174e-05
-1.351724
-0.17881095
-0.11243202
-0.17729553
-0.00091282959
-0.17595456
0.072436916
-0.1774903
0.071310344
-0.18206666
0.0077054839
-0.18632466
-0.028774769
-0.18755461
-0.013713431
-0.12616986
-0.17802697
-0.05855617
-0.17672532
0.090929242
-0.18163864
0.15617723
-0.19276439
0.12510958
-0.20639084
0.023311322
-0.21429351
-0.10958231
-0.2075055
-0.15144838
-0.19244834
-0.10861293
-0.17210815
-0.016435175
-0.16744359
0.050687905
-0.19141298
0.063262628
-0.21965862
0.050595618
-0.245547
0.028566535
-0.26756871
0.0041246076
-0.28446847
-0.013263701
-0.29769402
-0.018955604
-0.31096258
-0.015863313
-0.32751817
-0.0096587505
-0.34822805
-0.0040947255
-0.37260092
-0.0003791844
-0.39983341
0.0016699032
-0.42929518
0.0025424204
-0.4607029
0.0026560871
-0.49399489
0.002415298
-0.52925649
0.0020463107
-0.56667083
0.0016552138
-0.60644339
0.0012829086
-0.64877849
0.00094384136
-0.69387545
0.00064475611
-0.74193844
0.0003906107
-0.79318721
0.00018505305
-0.8478588
2.9473997e-05
-0.90621783
-7.7613095e-05
-0.96855034
-0.00014035669
-1.0351674
-0.00016422028
-1.1064049
-0.0001553447
-1.1826294
-0.00012044058
-1.2642339
-6.6631032e-05
-1.3516574
-0.17882767
-0.12615313
-0.17938787
-0.11033968
-0.17710049
0.00023309823
-0.17642922
0.071375829
-0.17942343
0.06866712
-0.18542042
0.0068012478
-0.19022428
-0.0261051
-0.19147493
-0.011306937
-0.059024136
-0.17755901
0.09501988
-0.18081596
0.16495646
-0.19041786
0.13591407
-0.20356889
0.029323023
-0.21240254
-0.11582173
-0.2080541
-0.16456383
-0.19439005
-0.12506158
-0.17599969
-0.029947079
-0.15859624
0.060429101
-0.17718478
0.076769639
-0.20491999
0.062381781
-0.23144478
0.036567795
-0.25354826
0.0064694897
-0.26991359
-0.016657761
-0.28107441
-0.025114494
-0.29153513
-0.021470159
-0.30535574
-0.013307321
-0.3238696
-0.0058261486
-0.34649663
-0.00078322773
-0.37219687
0.0019866805
-0.40015019
0.0031756976
-0.42992846
0.0033546565
-0.46140147
0.0030472081
-0.4946268
0.0025799179
-0.5297901
0.0020973545
-0.56711297
0.0016508083
-0.60681129
0.0012506866
-0.64908533
0.00089773105
-0.69412843
0.00059300374
-0.74214083
0.00033909544
-0.79334125
0.00013816249
-0.84796749
-9.9803221e-06
-0.90628546
-0.00010850795
-0.96858219
-0.00016274673
-1.0351689
-0.00017904325
-1.1063812
-0.000163918
-1.1825859
-0.00012465827
-1.2641759
-6.8066714e-05
-1.3515893
-0.17963827
-0.058213541
-0.18124094
-0.12430006
-0.18053352
-0.10690665
-0.17788053
0.0016844102
-0.17752778
0.069480175
-0.1818367
0.065083397
-0.18894496
0.0055219252
-0.19401741
-0.023562625
-0.19531979
-0.0092889446
0.098425668
-0.18096479
0.17207337
-0.18793288
0.14523895
-0.19974274
0.03511193
-0.2093578
-0.12158729
-0.20663698
-0.17721284
-0.19540509
-0.14087621
-0.17857543
-0.04385391
-0.16209285
0.06049734
-0.15866448
0.091336875
-0.19175202
0.075477609
-0.21801581
0.045794317
-0.2406713