/*--------------------------------*- C++ -*----------------------------------*\
| =========                 |                                                 |
| \\      /  F ield         | OpenFOAM: The Open Source CFD Toolbox           |
|  \\    /   O peration     | Version:  5.0                                   |
|   \\  /    A nd           | Web:      www.OpenFOAM.org                      |
|    \\/     M anipulation  |                                                 |
\*---------------------------------------------------------------------------*/
FoamFile
{
    version     2.0;
    format      ascii;
    class       volScalarField;
    location    "280";
    object      pMean;
}
// * * * * * * * * * * * * * * * * * * * * * * * * * * * * * * * * * * * * * //

dimensions      [0 2 -2 0 0 0 0];

internalField   nonuniform List<scalar> 
9520
(
8.3124332e-05
8.316952e-05
0.00021108754
8.3093622e-05
0.00021156426
0.00034487239
8.2642438e-05
0.00021207924
0.00034589065
0.00046882482
8.1612413e-05
0.00021207009
0.00034726483
0.00047091452
0.00059029342
7.977107e-05
0.00021099769
0.00034805668
0.00047404713
0.0005938252
0.0007041351
7.6964651e-05
0.00020828746
0.00034735536
0.00047692314
0.00059947736
0.00070959021
0.00081188454
7.299681e-05
0.00020349044
0.00034423187
0.00047825676
0.00060554559
0.00071869405
0.00081968503
0.00091133074
6.7819157e-05
0.00019623222
0.00033793404
0.00047675505
0.00061035612
0.00072934692
0.00083305682
0.00092181766
0.0010023782
6.1415052e-05
0.00018636675
0.00032775384
0.00047133093
0.00061224373
0.00073951669
0.00084951729
0.00094017208
0.001015869
0.0010837914
5.4351086e-05
0.00017349332
0.00031332894
0.00046104489
0.00060978449
0.00074718273
0.00086669704
0.0009635876
0.0010398301
0.0011004237
0.0011552053
4.5600746e-05
0.00015747896
0.00029432894
0.00044524806
0.0006017455
0.00075056935
0.0008822499
0.00098941042
0.0010711523
0.0011303155
0.001175043
0.001216108
3.5141621e-05
0.00013714635
0.0002708901
0.00042315242
0.00058722568
0.00074806049
0.00089407477
0.001015
0.0011069434
0.0011701509
0.0012110585
0.0012390326
0.0012662797
2.0603861e-05
0.00011444948
0.00024214168
0.00039448645
0.00056539471
0.00073832278
0.00090025647
0.0010379128
0.0011443157
0.0012168988
0.0012598087
0.001281016
0.0012920668
0.0013056943
7.4083836e-06
8.785047e-05
0.00020865343
0.00035908279
0.00053581884
0.00072017824
0.00089921214
0.0010558707
0.0011806063
0.0012675131
0.0013182073
0.0013385942
0.0013396704
0.0013339577
0.0013345092
-1.0121656e-05
6.1703132e-05
0.00016872253
0.00031846834
0.0004977337
0.00069352967
0.00088961028
0.0010669655
0.0012133021
0.0013191303
0.001383132
0.0014087511
0.0014057337
0.0013865286
0.001364741
0.0013531665
-2.3103316e-05
2.9421439e-05
0.00012706756
0.00027065235
0.00045265903
0.00065769921
0.00087050773
0.0010696932
0.0012402025
0.0013689869
0.001451591
0.0014884139
0.0014874368
0.0014602874
0.001421403
0.0013847384
0.0013622007
-4.3946601e-05
1.2737042e-06
7.8536124e-05
0.00021911876
0.00039895876
0.00061352071
0.00084120106
0.0010629618
0.0012593196
0.0014146002
0.0015206367
0.001574586
0.001581882
0.0015527501
0.001501767
0.0014443718
0.0013944129
0.0013624447
-5.7228936e-05
-3.6333416e-05
3.1890852e-05
0.00015883122
0.00034008073
0.00055907685
0.00080237221
0.0010455622
0.0012691975
0.0014537097
0.0015875053
0.0016642292
0.0016861496
0.0016613373
0.0016038259
0.0015298758
0.0014557286
0.001394509
0.0013547851
-7.9839315e-05
-6.1717203e-05
-2.3723058e-05
9.8809741e-05
0.0002713817
0.00049753675
0.00075190836
0.0010178213
0.0012684992
0.0014844817
0.0016496162
0.0017543779
0.001797172
0.0017833643
0.0017254617
0.0016398737
0.0015446409
0.0014560474
0.0013858367
0.0013403268
-9.411607e-05
-0.00010483652
-7.126304e-05
2.9607722e-05
0.00020122868
0.00042485762
0.00069249729
0.00097761565
0.0012572349
0.0015052748
0.0017048665
0.0018421593
0.001911845
0.0019158745
0.0018643573
0.0017728597
0.0016605485
0.0015463747
0.001446036
0.0013694622
0.0013201108
-0.00011587454
-0.00013099718
-0.00013494095
-3.5073401e-05
0.00011942752
0.00034847974
0.00062070808
0.00092684731
0.0012332778
0.001515685
0.0017512986
0.0019251082
0.002027115
0.0020557355
0.0020177781
0.0019270444
0.0018027154
0.0016657948
0.0015356093
0.0014266691
0.0013464312
0.0012953339
-0.0001324216
-0.00017657642
-0.00018021704
-0.0001126653
4.0386963e-05
0.00025821605
0.0005433239
0.00086235481
0.0011977912
0.0015136084
0.0017879914
0.0020008888
0.0021401599
0.0021996978
0.0021826579
0.0021000747
0.0019700339
0.0018144777
0.0016558729
0.0015131587
0.001398969
0.001317977
0.0012671195
-0.00014507523
-0.0002076782
-0.00025059037
-0.00017870693
-5.2006374e-05
0.00016870987
0.00044990927
0.00079093685
0.0011476643
0.0014999851
0.0018126231
0.0020680736
0.0022482611
0.002344586
0.0023556617
0.0022890853
0.0021606791
0.0019921528
0.0018080309
0.0016313576
0.0014799786
0.0013641718
0.0012852455
0.0012366785
-0.00016428464
-0.00025862354
-0.00029585963
-0.0002669666
-0.00013655134
6.3227626e-05
0.00035508542
0.00070181324
0.0010896881
0.0014712446
0.0018262463
0.0021241996
0.0023494757
0.0024873571
0.0025333553
0.0024907347
0.0023721269
0.0021977057
0.0019928046
0.0017836107
0.0015930594
0.0014372794
0.0013234742
0.0012494983
0.0012050993
-0.0001808534
-0.00029193376
-0.00037716432
-0.00033417218
-0.00024315046
-3.806031e-05
0.00024136644
0.00060913187
0.0010129687
0.0014339047
0.0018247257
0.002169742
0.0024411343
0.0026255241
0.002712343
0.002701402
0.0026011686
0.0024291298
0.002209953
0.0019717576
0.0017417864
0.0015421049
0.0013863139
0.0012782421
0.0012119079
0.0011734378
-0.00019354562
-0.00034890915
-0.00043527529
-0.00043884098
-0.00033469807
-0.000164326
0.00012794136
0.00049467919
0.0009309172
0.001377332
0.0018140687
0.0022003424
0.0025227938
0.0027560142
0.0028895789
0.0029173556
0.002844111
0.0026835012
0.0024581539
0.0021966033
0.00192924
0.0016835015
0.0014797585
0.0013285332
0.0012297634
0.0011736366
0.001142626
-0.00021132809
-0.00038941525
-0.00051460143
-0.00052545567
-0.00045960506
-0.00028211322
-1.435821e-05
0.00037682925
0.00082480803
0.0013139926
0.0017838357
0.0022213765
0.002589977
0.0028775288
0.0030616208
0.0031350384
0.0030969451
0.0029571803
0.002734955
0.0024576994
0.0021574074
0.0018658721
0.0016099422
0.0014075177
0.0012653358
0.0011793635
0.0011356783
0.0011135282
-0.0002263945
-0.00042339104
-0.00059292485
-0.0006403664
-0.00057919374
-0.00043335309
-0.000156182
0.00022615563
0.00071278655
0.0012240948
0.0017462418
0.0022219832
0.002647256
0.0029854454
0.0032262319
0.003350651
0.003355621
0.0032459407
0.003036941
0.0027532642
0.0024269009
0.0020925264
0.0017826526
0.0015225868
0.00132687
0.0011982161
0.0011281662
0.0010989717
0.0010869084
-0.00023989529
-0.00046809086
-0.00066516406
-0.00076786912
-0.00073735448
-0.00059337184
-0.00033727539
6.7574811e-05
0.00056502949
0.0011258074
0.0016792229
0.0022149739
0.0026834317
0.0030834116
0.0033785275
0.0035610831
0.0036160118
0.0035453392
0.0033598165
0.0030802724
0.0027368129
0.0023653301
0.0020026367
0.0016809316
0.0014230203
0.0012394882
0.0011285448
0.0010772975
0.0010643955
0.0010634318
-0.0002498259
-0.00050656436
-0.0007468557
-0.00089339468
-0.00091692834
-0.00080105766
-0.00053544737
-0.00013981658
0.0004011719
0.00098843246
0.0016005596
0.0021769765
0.0027106741
0.0031599595
0.0035212143
0.0037609444
0.0038742177
0.0038509041
0.0036988618
0.0034345557
0.0030847395
0.0026844736
0.0022731768
0.0018888331
0.0015623479
0.0013130966
0.0011471146
0.001057827
0.0010278388
0.0010327414
0.0010436572
-0.00025550469
-0.00055787996
-0.00082289949
-0.0010251999
-0.0011088701
-0.0010467553
-0.0007970872
-0.00037328746
0.0001794896
0.00082712281
0.0014782819
0.0021237753
0.002705066
0.0032266196
0.0036427153
0.0039520494
0.0041241344
0.004158038
0.0040491382
0.00381125
0.003466826
0.0030483958
0.0025957692
0.0021511
0.0017526574
0.0014288607
0.0011948286
0.0010516371
0.00098742629
0.00098081369
0.0010046873
0.001028026
-0.00026247484
-0.00060311338
-0.00091964665
-0.0011507825
-0.001304442
-0.001321406
-0.0011168011
-0.00069218481
-7.6253636e-05
0.00060056405
0.0013244094
0.0020212084
0.0026825984
0.0032578278
0.0037535144
0.0041227034
0.0043666995
0.0044598401
0.0044054831
0.0042050035
0.003878256
0.003453797
0.0029699469
0.0024707537
0.0020003242
0.0015959969
0.0012826417
0.0010703822
0.00095466334
0.00091856161
0.00093708421
0.00098076752
0.00101685
-0.00026409092
-0.00066615686
-0.001012779
-0.0013049184
-0.0014994101
-0.0016022317
-0.0014885097
-0.001086251
-0.00044830022
0.00032280924
0.0010942241
0.0018782318
0.0026046921
0.0032706043
0.0038271543
0.0042821888
0.0045900068
0.0047562146
0.0047603168
0.0046100763
0.0043134399
0.0038961214
0.0033932812
0.0028486174
0.0023100892
0.0018225639
0.0014211391
0.001126102
0.00094169867
0.0008577038
0.00085229797
0.00089739859
0.00096137752
0.0010103366
-0.00026518024
-0.00073279988
-0.0011268477
-0.0014590132
-0.0017348948
-0.001887795
-0.0018784324
-0.0015751185
-0.00091446783
-8.8358814e-05
0.0007932262
0.0016464721
0.0024791177
0.0032227165
0.0038810065
0.0044034801
0.0048020958
0.0050349082
0.0051121733
0.0050183157
0.0047659974
0.0043697037
0.003861692
0.003283536
0.0026844491
0.0021151308
0.0016199785
0.0012305492
0.00096156639
0.00081080681
0.00076218343
0.00078960542
0.00086238895
0.00094679689
0.0010086153
-0.00026571305
-0.00079955037
-0.0012485302
-0.0016385938
-0.00197228
-0.0022351395
-0.0022717299
-0.0020951102
-0.0015228794
-0.00062002176
0.00034849394
0.0013230966
0.002253074
0.003121717
0.0038690144
0.0045043237
0.0049754848
0.0053027833
0.0054482464
0.005426691
0.0052271574
0.004867739
0.0043695562
0.003772173
0.0031236657
0.0024780946
0.0018878063
0.0013953131
0.0010270912
0.00079151244
0.00067955718
0.00066946802
0.0007314411
0.0008324318
0.00093724464
0.0010117347
-0.00026269171
-0.00086572705
-0.0013687354
-0.0018356945
-0.0022394082
-0.0025855262
-0.00276236
-0.0026114524
-0.0021840564
-0.0013535564
-0.00025159325
0.00084547358
0.0019165845
0.002908986
0.003799195
0.0045350279
0.0051278441
0.0055317131
0.0057746164
0.0058220775
0.0056926855
0.0053807548
0.0049100813
0.0043092239
0.003625612
0.0029134829
0.0022310441
0.0016307482
0.001151534
0.00081370464
0.00061832493
0.00054977296
0.0005808146
0.00067869702
0.00080781691
0.0009328221
0.0010196748
-0.00025769298
-0.00092209282
-0.0014873881
-0.0020301671
-0.0025347418
-0.0029689136
-0.0032579532
-0.0032734966
-0.0028427762
-0.00217875
-0.0011141147
0.00016289766
0.0014036556
0.0025691381
0.0036067389
0.0045048735
0.005206665
0.0057390032
0.0060621572
0.0062089521
0.0061486847
0.0059034298
0.005473335
0.0048883231
0.004185565
0.0034206402
0.0026536704
0.001945435
0.001346917
0.0008918411
0.00059322652
0.00044439314
0.00042311113
0.00049746957
0.00063180577
0.00078882937
0.00093357525
0.0010323512
-0.00025077773
-0.00096709601
-0.0015896702
-0.0022217847
-0.0028254001
-0.0033961612
-0.0037906553
-0.0039493232
-0.0037058222
-0.0030094374
-0.0021071504
-0.00083106923
0.00065180943
0.0020259952
0.0032704065
0.0043420957
0.0052227751
0.0058692887
0.0063275538
0.0065577413
0.0065978794
0.0064211388
0.0060525456
0.0054990752
0.0047980653
0.0039960513
0.0031568721
0.002345609
0.001624043
0.0010397057
0.00061961072
0.00036858672
0.0002719236
0.0003012553
0.00042040597
0.0005911338
0.00077563505
0.00093944552
0.0010496206
-0.00024174758
-0.00099696932
-0.001671695
-0.0023907291
-0.0031090027
-0.0038167457
-0.0043881943
-0.0046667393
-0.0046023347
-0.0040932082
-0.0031281592
-0.0019992221
-0.00046770225
0.0012242604
0.0027042683
0.0040224011
0.0050976021
0.0059350204
0.0065127114
0.0068839552
0.0070102212
0.0069345007
0.0066326611
0.0061334432
0.0054524506
0.0046352846
0.0037390708
0.0028347338
0.0019915963
0.0012702308
0.00071286144
0.00033836049
0.00014264261
0.00010316035
0.00018562532
0.00035030846
0.00055702541
0.00076826372
0.00095033529
0.0010712884
-0.0010062606
-0.0002398396
-0.0017290993
-0.0025305566
-0.0033603727
-0.0042231197
-0.0049774394
-0.0054772283
-0.0055456331
-0.0052424789
-0.0044519814
-0.0032300949
-0.0018280647
-2.1812122e-06
0.0018624983
0.0034487007
0.004806542
0.0058515705
0.0066316995
0.0071271975
0.0073997075
0.0074127761
0.0072122036
0.0067762681
0.006139592
0.0053279925
0.0043965005
0.0034134316
0.0024556126
0.0015946342
0.00088791965
0.00037041639
5.1641746e-05
-8.1699796e-05
-5.9950719e-05
7.7431074e-05
0.00028766993
0.00052968393
0.00076668916
0.00096606841
0.0010971229
-0.0017533809
-0.0010026657
-0.00024529458
-0.0026333955
-0.0035706018
-0.0045853443
-0.0055436882
-0.0062805096
-0.0066143409
-0.006451154
-0.0058778488
-0.0048209976
-0.0032938443
-0.0015634483
0.00054067124
0.0025831616
0.0042425699
0.0055961693
0.0065934294
0.0073034624
0.0077040574
0.0078686636
0.0077595814
0.0074236403
0.0068443723
0.0060641815
0.0051205826
0.0040791406
0.0030191913
0.0020217576
0.001158522
0.00048150005
1.6588215e-05
-0.00023690448
-0.00030179289
-0.00021559714
-2.2422464e-05
0.00023290078
0.00050920181
0.0007707988
0.00098644358
0.0011268752
-0.0026836395
-0.0017533805
-0.00098605403
-0.00025004413
-0.0037263479
-0.0048878715
-0.0060521295
-0.0070520278
-0.0076840501
-0.007822021
-0.0073850558
-0.0065530461
-0.0051776758
-0.0032715737
-0.0012025519
0.0011980568
0.0033615007
0.005048953
0.0063779209
0.0073145237
0.0079407025
0.0082373721
0.008285571
0.0080434508
0.0075606943
0.0068290794
0.0059004923
0.0048256376
0.003681594
0.0025574241
0.0015364245
0.00068774118
5.5756953e-05
-0.00034422256
-0.00052379652
-0.00051512485
-0.00036234122
-0.00011319163
0.00018629
0.00049559097
0.00078043934
0.0010112072
0.0011602707
-0.0038030556
-0.0026900486
-0.0017286705
-0.00094851244
-0.00025351938
-0.005108272
-0.0064769226
-0.0077525779
-0.0087177416
-0.0092079928
-0.0090962856
-0.0083928023
-0.0072459002
-0.0054565609
-0.0031474218
-0.00069586116
0.0019518968
0.004156079
0.0058529189
0.0071449258
0.0080045434
0.008537662
0.0087231552
0.0086443941
0.0082561076
0.0076143511
0.006722042
0.0056420565
0.0044395793
0.0032036284
0.0020305077
0.0010038059
0.00018743812
-0.00038421503
-0.00070760897
-0.00080568692
-0.00071956865
-0.00049893766
-0.00019433548
0.00014803781
0.00048877597
0.00079536567
0.0010400704
0.0011970185
-0.0052165013
-0.0038110051
-0.0026523034
-0.0016705231
-0.00089627707
-0.00025525122
-0.006785346
-0.0083425968
-0.0096663648
-0.010557796
-0.010844084
-0.010488162
-0.0094565475
-0.0078806583
-0.0056332889
-0.0028670191
-6.2630397e-05
0.0027297557
0.0049561923
0.0066510255
0.0078849269
0.0086583088
0.0090927177
0.0091573981
0.0089369447
0.0083877002
0.0075749573
0.0065148684
0.0052831505
0.0039600136
0.0026461194
0.0014418921
0.00042907981
-0.0003367269
-0.00083308004
-0.0010692564
-0.0010795647
-0.00091320259
-0.00062444742
-0.00026538587
0.00011819924
0.00048853365
0.00081524829
0.0010727136
0.0012368322
-0.0069371372
-0.0052171448
-0.0037489819
-0.002560349
-0.0015880146
-0.00083458428
-0.00025371906
-0.0087735321
-0.010472269
-0.011804773
-0.012558933
-0.012641159
-0.011978646
-0.010488384
-0.0084209218
-0.0056547297
-0.0024525232
0.00061999363
0.0035181824
0.005764965
0.0074309779
0.0085935629
0.0092769283
0.009604181
0.0095323326
0.0091529933
0.0084273772
0.0074320593
0.0061992932
0.0048186783
0.0033857704
0.0020110948
0.00079633497
-0.00018175826
-0.00087862577
-0.0012854589
-0.0014251039
-0.0013426853
-0.0010944673
-0.00073797467
-0.00032609318
9.6597154e-05
0.00049448321
0.00083975596
0.0011088833
0.0012794485
-0.0089868006
-0.0069284621
-0.0051095676
-0.0036066889
-0.0024288746
-0.0014858146
-0.0007645052
-0.0002513556
-0.011070286
-0.012873273
-0.01414998
-0.014764637
-0.014584594
-0.013475844
-0.011441158
-0.0088100055
-0.0055348281
-0.0019594357
0.0013447856
0.0043207931
0.0065680571
0.0081844994
0.0092746822
0.0098613432
0.010065644
0.009837322
0.0092804112
0.0083629884
0.0071753747
0.0057676781
0.0042448065
0.0027169778
0.0013021189
9.9645261e-05
-0.00082198181
-0.0014318113
-0.0017361061
-0.0017713752
-0.0015926861
-0.0012619105
-0.00083894686
-0.00037650446
8.2814815e-05
0.00050632515
0.00086875231
0.0011484073
0.0013245754
-0.011377742
-0.008970461
-0.006758799
-0.004889173
-0.0034075671
-0.0022662993
-0.0013676336
-0.00069542869
-0.00024819539
-0.013679843
-0.015522513
-0.016739376
-0.017163618
-0.016575127
-0.014920251
-0.012260225
-0.0090605058
-0.0053203628
-0.001387203
0.0021233953
0.00512657
0.0073531197
0.0089183494
0.0099330745
0.010406653
0.010465803
0.010059583
0.0093054928
0.0081819146
0.006794353
0.0052133693
0.0035592016
0.0019554758
0.00052428438
-0.00064119856
-0.0014842737
-0.0019897614
-0.0021800131
-0.0021046634
-0.0018273502
-0.0014144551
-0.00092724358
-0.00041706284
7.6628971e-05
0.00052415935
0.00090224016
0.0011909533
0.0013717834
-0.014105957
-0.011370541
-0.0087278633
-0.0064331403
-0.0045865507
-0.0031649158
-0.0020788998
-0.0012477587
-0.00062813621
-0.00023954074
-0.016570567
-0.01845033
-0.019565557
-0.01965227
-0.018544396
-0.016253082
-0.012944433
-0.0092073495
-0.0050064389
-0.00072164422
0.0029262656
0.0059203053
0.0081326487
0.0096440691
0.010566703
0.010901128
0.010790787
0.0101844
0.0092134894
0.0078710501
0.0062791767
0.0045308967
0.0027614092
0.0011053163
-0.00031565691
-0.001418222
-0.0021608881
-0.0025460786
-0.0026124949
-0.0024217476
-0.0020448621
-0.0015516138
-0.0010032528
-0.00044786713
7.8504578e-05
0.00054822039
0.00093964385
0.0012356451
0.0014206509
-0.017132546
-0.014111853
-0.011049489
-0.0082707053
-0.0059940329
-0.0042241149
-0.0028877415
-0.001886619
-0.0011259949
-0.00056541491
-0.0002325064
-0.01976011
-0.021647346
-0.022521961
-0.022153466
-0.020433314
-0.017469753
-0.013520864
-0.0092445191
-0.0045867942
-2.4055363e-06
0.00373188
0.0067229922
0.0089243096
0.010360723
0.011163692
0.011330239
0.011025344
0.010195427
0.008988557
0.0074171592
0.0056209303
0.0037165754
0.0018532211
0.00017248521
-0.0012094767
-0.002222665
-0.002843922
-0.0030945765
-0.0030290411
-0.0027198125
-0.0022441771
-0.001673707
-0.0010668863
-0.00046796091
8.896546e-05
0.00057739703
0.00097913323
0.0012816677
0.0014713373
-0.020461515
-0.017153413
-0.01369737
-0.010439424
-0.0076592208
-0.0054749952
-0.003818146
-0.0026008051
-0.0016894665
-0.0010118252
-0.00052129939
-0.00022249963
-0.023240261
-0.02501383
-0.025525541
-0.024611792
-0.022236596
-0.018581644
-0.01397684
-0.0091641365
-0.0040732672
0.00074461611
0.0045558528
0.0075610815
0.0097315753
0.011056577
0.011707951
0.011677919
0.011152285
0.010074784
0.0086146141
0.006807467
0.0048123225
0.0027690949
0.00083860714
-0.00083555676
-0.0021478073
-0.0030452631
-0.0035255187
-0.0036291675
-0.0034255262
-0.0029970143
-0.0024253122
-0.001780377
-0.0011165461
-0.00047639309
0.00010610918
0.00060840344
0.0010194627
0.0013302955
0.0015269696
-0.024087374
-0.020481687
-0.016629798
-0.012901835
-0.0096243282
-0.0069430548
-0.0049024081
-0.0033976553
-0.00230638
-0.0015081249
-0.00091795027
-0.00047171227
-0.00020925754
-0.026917052
-0.028459211
-0.028528569
-0.02702347
-0.023957449
-0.019571829
-0.014296308
-0.0089851056
-0.0034791867
0.0015494078
0.0054303132
0.0084407743
0.010539758
0.011713192
0.012183076
0.011926624
0.011151669
0.009803177
0.0080753819
0.0060304273
0.0038480164
0.0016895609
-0.00027648628
-0.0019095054
-0.0031202327
-0.0038764207
-0.0041977605
-0.0041440683
-0.0037989815
-0.0032528766
-0.0025875985
-0.001869176
-0.0011506527
-0.00047608516
0.00012465141
0.0006396968
0.00106445
0.0013866951
0.0015877424
-0.027924202
-0.024090894
-0.019817012
-0.01561459
-0.011843443
-0.0086700211
-0.0061627175
-0.0043100636
-0.0029703073
-0.002038834
-0.0013511208
-0.00081913312
-0.00043382543
-0.00019518185
-0.030697927
-0.031944158
-0.031528279
-0.029386622
-0.025572451
-0.020420539
-0.014507209
-0.0086931528
-0.002788525
0.0024405748
0.0063725195
0.0093495589
0.01132121
0.012313129
0.012570994
0.012055157
0.011001175
0.0093603099
0.0073546053
0.0050761813
0.0027252934
0.00048178264
-0.0014832129
-0.0030383465
-0.0041155655
-0.0047061644
-0.0048528505
-0.0046348024
-0.0041481628
-0.0034861879
-0.0027274528
-0.0019376119
-0.0011733351
-0.00047495296
0.00014285599
0.00067914661
0.0011230578
0.0014478712
0.0016522403
-0.031878233
-0.027910808
-0.023251516
-0.018537327
-0.014267888
-0.010603831
-0.0076349923
-0.0053563192
-0.0037128252
-0.0025867472
-0.0017987248
-0.0011921195
-0.00074085279
-0.0003913435
-0.00017909476
-0.034550841
-0.035467017
-0.034521496
-0.031672049
-0.027052593
-0.021151632
-0.014621649
-0.0082648943
-0.0019882261
0.0034413634
0.0073766158
0.010256565
0.012061718
0.012839817
0.01285052
0.012039414
0.010676681
0.0087254506
0.0064374696
0.0039372549
0.0014445573
-0.00084724353
-0.0027701612
-0.0042094772
-0.0051217614
-0.0055243505
-0.0054843742
-0.0050990261
-0.0044710865
-0.0036919428
-0.0028411615
-0.0019911708
-0.0011958987
-0.00047495598
0.00017435287
0.00074116426
0.0011860284
0.0015132285
0.0017204768
-0.03592739
-0.031848162
-0.026878138
-0.021662994
-0.016849529
-0.012695425
-0.0092611212
-0.00656708
-0.004548477
-0.003181996
-0.0022349651
-0.0015589436
-0.0010619807
-0.00065695602
-0.00036066964
-0.00016763088
-0.038479051
-0.039019721
-0.037469172
-0.033841949
-0.028430237
-0.021782076
-0.014593896
-0.0076658041
-0.0010148068
0.0045464968
0.0084012313
0.011143462
0.012745886
0.01327133
0.012995086
0.011852929
0.010152972
0.0078789484
0.0053112038
0.0026094855
9.7959236e-06
-0.0022875958
-0.0041242021
-0.0054089395
-0.0061261311
-0.0063222161
-0.0060884876
-0.0055336768
-0.004760904
-0.0038646788
-0.0029357144
-0.0020454739
-0.0012206537
-0.00045463035
0.00024084105
0.00080716507
0.0012537753
0.0015826584
0.0017924643
-0.040081143
-0.035892458
-0.03061126
-0.024949872
-0.019581408
-0.014889538
-0.010993117
-0.0078814252
-0.0055027245
-0.0038354518
-0.0026891164
-0.0018873946
-0.0013608997
-0.00092510877
-0.00058322498
-0.00032297134
-0.00015167384
-0.04246368
-0.042555223
-0.040327928
-0.035936945
-0.029718745
-0.022275583
-0.01438512
-0.0068732401
0.00014026612
0.0056823504
0.0094277082
0.01199379
0.013353161
0.013578806
0.012975842
0.011466734
0.0094049523
0.0068019484
0.0039658147
0.0010924175
-0.0015716971
-0.0038266594
-0.0055301105
-0.0066214497
-0.0071171959
-0.0070939877
-0.0066606853
-0.0059294919
-0.0050097887
-0.0040129899
-0.0030321073
-0.002103352
-0.0012158367
-0.00038275671
0.00031104477
0.00087876578
0.001325835
0.0016561791
0.0018682077
-0.044309285
-0.040062286
-0.034453728
-0.028322074
-0.022434775
-0.017177663
-0.012774329
-0.0092531206
-0.0065158126
-0.0045645923
-0.0031668476
-0.0022038709
-0.0016042824
-0.0011600529
-0.00079506768
-0.00050491474
-0.00027136421
-0.00013367523
-0.046448186
-0.04602087
-0.043144564
-0.037972794
-0.030882207
-0.022577761
-0.013952136
-0.0058420636
0.0013843865
0.0068318265
0.010451886
0.012786554
0.013855265
0.01373177
0.012760733
0.010849947
0.008407892
0.0054775253
0.0023951026
-0.00061060452
-0.003288636
-0.0054476168
-0.006970275
-0.0078327008
-0.0080868031
-0.0078332789
-0.0071886897
-0.0062755549
-0.005227996
-0.0041645681
-0.0031338679
-0.0021198602
-0.0011379088
-0.00030714025
0.00038790433
0.00095492006
0.0014023052
0.0017337635
0.0019476912
-0.048544693
-0.044313144
-0.038426188
-0.031793182
-0.02534467
-0.019545783
-0.014595702
-0.010625055
-0.0075431429
-0.0053097146
-0.0036738426
-0.0025128818
-0.001817881
-0.0013250117
-0.00096125926
-0.00066262661
-0.00042634329
-0.00024095829
-0.00012267355
-0.050370485
-0.049469042
-0.045938008
-0.039916007
-0.031858578
-0.022628572
-0.013263242
-0.0046141784
0.0026615839
0.0079971578
0.011459165
0.013491788
0.014220894
0.01369553
0.012313759
0.0099722056
0.0071377252
0.0038922969
0.00059755692
-0.0024909818
-0.005124923
-0.0071306272
-0.0084273818
-0.0090318689
-0.0090262301
-0.0085240609
-0.0076573777
-0.0065836579
-0.0054513957
-0.0043239237
-0.0031793197
-0.0020355379
-0.0010556872
-0.00022356218
0.00046954576
0.0010358726
0.0014831046
0.0018153828
0.0020308836
-0.052718087
-0.048571289
-0.042478435
-0.035387505
-0.028335287
-0.021941698
-0.016456887
-0.011987453
-0.0085271094
-0.0060320774
-0.0041589285
-0.0028147417
-0.0020044633
-0.0014351438
-0.0010502436
-0.00077321318
-0.00054218003
-0.00036807539
-0.00019406363
-0.00010700989
-0.054282385
-0.052924436
-0.04868076
-0.041691788
-0.032571113
-0.022406745
-0.012334358
-0.0032939255
0.0039791618
0.0091798346
0.012401666
0.014074759
0.014414719
0.013430551
0.011596372
0.0088025658
0.00557339
0.0020372169
-0.0014234675
-0.004534595
-0.0070600914
-0.0088562371
-0.0098879615
-0.010207276
-0.0099147966
-0.0091457808
-0.0080799769
-0.0068996397
-0.0056857658
-0.004408363
-0.0030887716
-0.0019455651
-0.00096391549
-0.00013494736
0.00055642881
0.0011214499
0.0015682106
0.0019009336
0.0021177448
-0.056876837
-0.052766042
-0.046524699
-0.039043462
-0.031425855
-0.024389957
-0.018316189
-0.013352977
-0.0094603906
-0.0066786614
-0.0045941742
-0.0030715216
-0.0021568296
-0.0014935371
-0.0010718648
-0.00080260221
-0.00060651068
-0.00045233317
-0.00028775503
-0.00016486379
-8.6668831e-05
-0.058215437
-0.056360633
-0.051294274
-0.043211717
-0.032996807
-0.021928726
-0.011207519
-0.0019167186
0.0053578642
0.010336299
0.013240809
0.014496703
0.014393022
0.012893612
0.0105703
0.0073111116
0.0036978669
-9.0958322e-05
-0.0036577119
-0.0067215111
-0.0090725528
-0.010608587
-0.011336944
-0.011332731
-0.010725147
-0.0097125952
-0.0085142394
-0.0072311271
-0.0058223159
-0.0043125425
-0.0029900642
-0.0018441294
-0.00086681116
-4.0598558e-05
0.00064827692
0.0012116493
0.0016574533
0.0019903337
0.0022082503
-0.06104896
-0.056927727
-0.050502997
-0.042673927
-0.034549459
-0.026906073
-0.02020003
-0.014689372
-0.010362651
-0.0072418775
-0.004929953
-0.0032591877
-0.0022317116
-0.0014977984
-0.0010178598
-0.00075890097
-0.00059469109
-0.00048068859
-0.00034296866
-0.00024376091
-0.00012231515
-7.3578863e-05
-0.062145754
-0.059710388
-0.053681298
-0.044444798
-0.03314471
-0.02122431
-0.0099241431
-0.00042304442
0.0067405487
0.01143276
0.01394138
0.014714563
0.014108553
0.012040106
0.0091980195
0.0054716004
0.0014994686
-0.0024868987
-0.0060869875
-0.0090297837
-0.011143509
-0.012369053
-0.012741795
-0.012372499
-0.011471644
-0.010296612
-0.0089704686
-0.007437012
-0.0057232265
-0.0042044315
-0.0028776047
-0.0017369765
-0.00076338284
5.9129651e-05
0.00074510356
0.0013061973
0.0017506952
0.0020835488
0.0023023747
-0.065220772
-0.061088179
-0.05442477
-0.046220833
-0.037616848
-0.029419646
-0.02211751
-0.016023937
-0.011214781
-0.0077542248
-0.0051644377
-0.0033272948
-0.0022238153
-0.0014013128
-0.00089405284
-0.00063655563
-0.00050471833
-0.00043394859
-0.00034960253
-0.00027395098
-0.00017384619
-9.8264731e-05
-5.2552733e-05
-0.066016861
-0.06287101
-0.055805126
-0.045387721
-0.033043444
-0.020303657
-0.008482194
0.0011697856
0.0080975436
0.012440509
0.014461757
0.014676693
0.013509179
0.010826029
0.0074412921
0.0032620875
-0.0010246606
-0.0051372456
-0.0086904668
-0.011440236
-0.013251595
-0.014097853
-0.014056529
-0.013340143
-0.012243207
-0.010911789
-0.0092678643
-0.0073382804
-0.0056055373
-0.0040798049
-0.002758849
-0.0016227745
-0.00065406808
0.00016423331
0.00084652132
0.0014048994
0.0018479826
0.0021806259
0.0023999706
-0.06934291
-0.065233604
-0.058319558
-0.049680852
-0.040570551
-0.031837556
-0.023995267
-0.017360651
-0.012045111
-0.0082055898
-0.0053377315
-0.0032785202
-0.0020874808
-0.0012156614
-0.00065914405
-0.00043197814
-0.0003289499
-0.00031157237
-0.00028194867
-0.00025367206
-0.00018227177
-0.00012931271
-5.63112e-05
-4.0558755e-05
-0.069734528
-0.065807141
-0.057666972
-0.046067938
-0.032700094
-0.019161824
-0.006879168
0.0027854312
0.0094063181
0.013308516
0.014751568
0.014323862
0.012540359
0.0092041943
0.0052661395
0.00066874003
-0.0038670739
-0.0080245107
-0.011450452
-0.013928577
-0.015349139
-0.015736945
-0.015292761
-0.014344137
-0.013059278
-0.011329065
-0.0091754727
-0.0072116631
-0.0054680623
-0.0039480094
-0.0026321406
-0.0015020451
-0.0005388816
0.00027421146
0.00095227556
0.0015079376
0.0019495652
0.0022812139
0.0025009535
-0.073333363
-0.06932246
-0.062174327
-0.053075587
-0.043396199
-0.034105612
-0.025744418
-0.018627558
-0.01285116
-0.0086179988
-0.0054422398
-0.0031618664
-0.0018174293
-0.00090658784
-0.00033258514
-0.0001218529
-6.2651534e-05
-0.00010421988
-0.00013561218
-0.00016305791
-0.00014263283
-0.00011508348
-6.5966443e-05
-3.1646637e-05
-2.0363728e-05
-0.073259549
-0.06852693
-0.059288951
-0.046492335
-0.032110441
-0.017802441
-0.005184797
0.004388033
0.010613125
0.013967598
0.014749154
0.013591661
0.011144138
0.0071276728
0.0026463966
-0.0023113107
-0.0070152923
-0.011133642
-0.014342479
-0.016437579
-0.017364292
-0.017294735
-0.016581429
-0.015411581
-0.013632361
-0.011252303
-0.0090418972
-0.0070614244
-0.0053220706
-0.0038070956
-0.0024980517
-0.0013747972
-0.00041847644
0.00038875614
0.0010627646
0.0016158839
0.0020547731
0.0023851878
0.0026052138
-0.077150953
-0.073282276
-0.065952527
-0.056394868
-0.046111181
-0.036202077
-0.027315744
-0.019744099
-0.013573001
-0.0089871819
-0.0054949441
-0.0029761784
-0.0014734936
-0.00045611616
0.00010410507
0.0002843183
0.00029784882
0.0001911676
9.5395026e-05
2.4393703e-06
-3.5878773e-05
-5.5353535e-05
-3.5297337e-05
-1.9214297e-05
5.5234697e-06
-7.9739546e-06
-0.076624342
-0.071060322
-0.060674389
-0.046656982
-0.031271176
-0.016250911
-0.0034087199
0.0059398305
0.011654592
0.014335496
0.014387217
0.012413758
0.0092611063
0.0045583029
-0.00043166132
-0.0056749765
-0.010460905
-0.014441706
-0.017301194
-0.018881011
-0.019301176
-0.018927453
-0.017960218
-0.016185705
-0.013585032
-0.011115696
-0.008880241
-0.0069005824
-0.0051654143
-0.0036576353
-0.0023565913
-0.0012418748
-0.0002931947
0.00050859704
0.0011789957
0.0017275965
0.0021634624
0.0024923494
0.002712648
-0.080842116
-0.077077919
-0.069592131
-0.059605458
-0.048707977
-0.038144925
-0.028684174
-0.020669021
-0.014143129
-0.009270878
-0.005489636
-0.0027292735
-0.0010597776
7.3516964e-05
0.00066064759
0.00080117877
0.00074329582
0.00058053117
0.00041126229
0.0002477913
0.00014173204
6.5747222e-05