/*--------------------------------*- C++ -*----------------------------------*\
| =========                 |                                                 |
| \\      /  F ield         | OpenFOAM: The Open Source CFD Toolbox           |
|  \\    /   O peration     | Version:  5.0                                   |
|   \\  /    A nd           | Web:      www.OpenFOAM.org                      |
|    \\/     M anipulation  |                                                 |
\*---------------------------------------------------------------------------*/
FoamFile
{
    version     2.0;
    format      ascii;
    class       volScalarField;
    location    "280";
    object      pPrime2Mean;
}
// * * * * * * * * * * * * * * * * * * * * * * * * * * * * * * * * * * * * * //

dimensions      [0 4 -4 0 0 0 0];

internalField   nonuniform List<scalar> 
9520
(
2.2699938e-07
2.1107542e-07
1.5341002e-06
1.8422084e-07
1.4256754e-06
4.150822e-06
1.516362e-07
1.242685e-06
3.8587973e-06
8.1481295e-06
1.1787121e-07
1.0203912e-06
3.3657046e-06
7.5762053e-06
1.3737996e-05
8.6440435e-08
7.8978128e-07
2.7662844e-06
6.6100234e-06
1.2778262e-05
2.1168355e-05
5.9738415e-08
5.7481319e-07
2.143859e-06
5.4346328e-06
1.1155817e-05
1.9697544e-05
3.0782326e-05
3.9146999e-08
3.9164902e-07
1.562921e-06
4.2130078e-06
9.1799557e-06
1.7209167e-05
2.8658314e-05
4.2974818e-05
2.5260532e-08
2.4932352e-07
1.0671905e-06
3.0715653e-06
7.1236422e-06
1.4174856e-05
2.506081e-05
4.0033907e-05
5.8209878e-05
1.8102638e-08
1.5108753e-07
6.8126344e-07
2.0964324e-06
5.1993879e-06
1.1011899e-05
2.0666779e-05
3.5046268e-05
5.4264505e-05
7.7009226e-05
1.740527e-08
9.604451e-08
4.1391459e-07
1.3363006e-06
3.5528312e-06
8.046653e-06
1.6077071e-05
2.8942301e-05
4.7563604e-05
7.1847539e-05
9.99529e-05
2.3029117e-08
8.0768696e-08
2.6249326e-07
8.0896611e-07
2.2671615e-06
5.5043281e-06
1.1764377e-05
2.255079e-05
3.9344749e-05
6.3066464e-05
9.3338672e-05
0.0001276667
3.5161805e-08
1.0020957e-07
2.1653076e-07
5.0881745e-07
1.3737727e-06
3.5153295e-06
8.0575809e-06
1.6528103e-05
3.0714355e-05
5.2269375e-05
8.2066082e-05
0.00011934086
0.00016081778
5.4772034e-08
1.4829703e-07
2.6030324e-07
4.1378602e-07
8.650774e-07
2.1308488e-06
5.1499726e-06
1.1335306e-05
2.2554742e-05
4.0895381e-05
6.8166715e-05
0.00010512265
0.00015050094
0.00020010282
8.3553768e-08
2.2092802e-07
3.7736246e-07
4.9435222e-07
7.0699048e-07
1.3422198e-06
3.1204283e-06
7.2475601e-06
1.5492739e-05
3.0100924e-05
5.347222e-05
8.7537143e-05
0.00013284418
0.00018749922
0.00024623748
1.2485194e-07
3.1579083e-07
5.5236596e-07
7.1941457e-07
8.5185889e-07
1.1015549e-06
1.9605016e-06
4.3815825e-06
9.9092398e-06
2.0717636e-05
3.9466886e-05
6.8871849e-05
0.00011093244
0.0001658781
0.00023104022
0.00029994092
1.8165042e-07
4.3339302e-07
7.720422e-07
1.055584e-06
1.24372e-06
1.3362854e-06
1.6019826e-06
2.7314108e-06
5.9729033e-06
1.3261167e-05
2.7232655e-05
5.0997516e-05
8.75741e-05
0.00013894929
0.00020490439
0.00028183861
0.00036192243
2.5999159e-07
5.6749034e-07
1.0255571e-06
1.4675546e-06
1.82683e-06
1.9596554e-06
1.9391537e-06
2.2037401e-06
3.6848389e-06
7.9709639e-06
1.7455451e-05
3.5297831e-05
6.5088929e-05
0.00011010723
0.00017222646
0.00025062419
0.00034060659
0.00043286394
3.6524428e-07
7.441008e-07
1.3090069e-06
1.9329937e-06
2.5469165e-06
2.8864399e-06
2.8487679e-06
2.6518807e-06
2.9260663e-06
4.8659933e-06
1.0470397e-05
2.2670837e-05
4.5218954e-05
8.2185446e-05
0.00013705016
0.00021143624
0.00030374848
0.00040803747
0.00051340692
5.0499341e-07
9.2156571e-07
1.6235429e-06
2.4315033e-06
3.3593618e-06
4.0409093e-06
4.203631e-06
3.9042797e-06
3.501762e-06
3.8029726e-06
6.3278674e-06
1.3578161e-05
2.9122485e-05
5.7346026e-05
0.00010278777
0.00016902619
0.00025727559
0.00036498383
0.00048479149
0.00060413478
6.7641778e-07
1.2189183e-06
1.9615531e-06
2.9498216e-06
4.2268096e-06
5.3544163e-06
5.8948762e-06
5.780157e-06
5.1786622e-06
4.5345452e-06
4.8658265e-06
8.1208532e-06
1.7424922e-05
3.7062707e-05
7.2086462e-05
0.00012744834
0.00020669803
0.00031045511
0.00043501888
0.00057148
0.0007055607
8.8460584e-07
1.454055e-06
2.3841164e-06
3.4936061e-06
5.1355029e-06
6.7755546e-06
7.8308792e-06
8.1173037e-06
7.7141589e-06
6.7562813e-06
5.7822982e-06
6.1266251e-06
1.0303276e-05
2.2169559e-05
4.6796633e-05
8.9902262e-05
0.00015677113
0.00025076031
0.00037168716
0.00051450726
0.00066865243
0.00081811106
1.1196962e-06
1.9749516e-06
2.8122242e-06
4.0805554e-06
6.0718148e-06
8.2782652e-06
9.9326387e-06
1.0780982e-05
1.0872514e-05
1.0152003e-05
8.6947119e-06
7.2365346e-06
7.5868878e-06
1.2951146e-05
2.8014202e-05
5.8682357e-05
0.00011131399
0.00019140766
0.0003019301
0.00044166902
0.00060405733
0.0007767795
0.00094211744
1.3870547e-06
2.2740667e-06
3.5156473e-06
4.719799e-06
7.0704838e-06
9.842206e-06
1.2149481e-05
1.3651429e-05
1.4448017e-05
1.4398502e-05
1.3197056e-05
1.0981725e-05
8.8594755e-06
9.2556585e-06
1.6172699e-05
3.5208629e-05
7.3136963e-05
0.00013690038
0.00023205108
0.00036093521
0.00052107257
0.00070421362
0.00089624387
0.0010778052
1.6304609e-06
3.1242843e-06
4.1468853e-06
5.5676335e-06
8.1288227e-06
1.1513566e-05
1.4460955e-05
1.664655e-05
1.8266408e-05
1.9206997e-05
1.8870587e-05
1.6848553e-05
1.3555221e-05
1.0612556e-05
1.1165106e-05
2.0115311e-05
4.4055118e-05
9.0639397e-05
0.00016729626
0.00027942882
0.00042849937
0.00061052799
0.00081544586
0.0010273272
0.0012252899
1.9001273e-06
3.7268825e-06
5.3525934e-06
6.4823353e-06
9.440087e-06
1.3285468e-05
1.6903221e-05
1.9727406e-05
2.2205852e-05
2.4332641e-05
2.5339789e-05
2.4314822e-05
2.1032587e-05
1.6348552e-05
1.2477536e-05
1.3377594e-05
2.4967129e-05
5.4913653e-05
0.00011173192
0.00020319092
0.00033429361
0.00050533146
0.00071061038
0.00093813361
0.0011702054
0.0013845722
2.1967946e-06
4.8829637e-06
6.4771653e-06
7.9274849e-06
1.0886683e-05
1.540248e-05
1.9502439e-05
2.2909227e-05
2.6186024e-05
2.9600586e-05
3.227694e-05
3.2903682e-05
3.0647302e-05
2.5675565e-05
1.9322635e-05
1.4459817e-05
1.5981792e-05
3.0961949e-05
6.8205711e-05
0.00013702456
0.00024532304
0.0003974075
0.00059211143
0.00082182307
0.0010725599
0.0013249421
0.0015555388
2.6833934e-06
6.0186432e-06
8.4073648e-06
9.5178122e-06
1.2977261e-05
1.7766951e-05
2.2497307e-05
2.6257e-05
3.020075e-05
3.4878033e-05
3.9441473e-05
4.2193864e-05
4.1797374e-05
3.7794415e-05
3.0750908e-05
2.2463382e-05
1.6575609e-05
1.9092639e-05
3.8383641e-05
8.4424039e-05
0.00016719484
0.00029447323
0.00046953469
0.00068947276
0.00094458779
0.001218901
0.0014914874
0.0017379639
3.1911655e-06
7.1999817e-06
1.0381317e-05
1.2096452e-05
1.5395175e-05
2.0946458e-05
2.5881483e-05
2.9977341e-05
3.4322183e-05
4.0138511e-05
4.6638475e-05
5.1867e-05
5.3945275e-05
5.1946966e-05
4.5771068e-05
3.6270242e-05
2.5756424e-05
1.8843835e-05
2.2854273e-05
4.7579319e-05
0.00010413806
0.00020298732
0.00035145054
0.00055142442
0.00079798989
0.0010792298
0.0013772237
0.0016696774
0.0019315142
3.7044758e-06
8.3539653e-06
1.2278485e-05
1.4944486e-05
1.9153296e-05
2.4672726e-05
3.0247563e-05
3.4192851e-05
3.8743163e-05
4.5427286e-05
5.3818047e-05
6.1657027e-05
6.6670413e-05
6.7443535e-05
6.3432303e-05
5.4666609e-05
4.2238399e-05
2.9163327e-05
2.1283702e-05
2.7454158e-05
5.8970475e-05
0.00012800083
0.00024520746
0.00041708471
0.0006437968
0.00091815938
0.0012259726
0.0015474783
0.0018592377
0.0021357571
4.2067124e-06
9.0506542e-06
1.4216919e-05
1.790642e-05
2.3437629e-05
3.0209097e-05
3.5350627e-05
3.9500054e-05
4.3698583e-05
5.0948673e-05
6.0984438e-05
7.1473741e-05
7.9622765e-05
8.372448e-05
8.2850178e-05
7.6469952e-05
6.457148e-05
4.8606829e-05
3.2608498e-05
2.3927137e-05
3.3139282e-05
7.3066947e-05
0.0001567491
0.00029471294
0.000492212
0.00074732205
0.0010503897
0.0013849284
0.0017295011
0.0020597904
0.0023501689
4.527655e-06
1.0046149e-05
1.5585368e-05
2.0776732e-05
2.8138538e-05
3.6706139e-05
4.2824653e-05
4.5753198e-05
4.978031e-05
5.6987228e-05
6.8360444e-05
8.1268233e-05
9.2649837e-05
0.00010032513
0.00010328097
0.00010055997
9.1302869e-05
7.5490856e-05
5.5247918e-05
3.5987991e-05
2.6837776e-05
4.0236346e-05
9.0474166e-05
0.00019120416
0.00035240324
0.00057765341
0.00086260439
0.001194988
0.0015560953
0.0019230201
0.002270861
0.0025741454
4.692077e-06
1.0460522e-05
1.7372069e-05
2.3145447e-05
3.2476983e-05
4.3883353e-05
5.1888151e-05
5.4877319e-05
5.7027037e-05
6.4171457e-05
7.6230764e-05
9.1267475e-05
0.00010564061
0.0001169983
0.00012410488
0.00012596507
0.00012103948
0.00010806377
8.7294228e-05
6.1957516e-05
3.9190915e-05
3.0136809e-05
4.916597e-05
0.00011190234
0.00023226233
0.00041920331
0.00067419593
0.00099016466
0.0013521538
0.001739354
0.0021276591
0.0024918884
0.0028070145
4.5381451e-06
1.0721942e-05
1.8433049e-05
2.5918033e-05
3.6379419e-05
5.0194585e-05
6.206857e-05
6.6173466e-05
6.755082e-05
7.2718052e-05
8.5269067e-05
0.00010173671
0.00011880062
0.00013356002
0.00014493383
0.00015186249
0.0001525426
0.00014462449
0.00012668453
9.9717115e-05
6.8478897e-05
4.2132121e-05
3.402371e-05
6.0460182e-05
0.0001381648
0.00028088397
0.00049604755
0.00078257697
0.0011304326
0.0015219677
0.001934472
0.0023429432
0.0027222364
0.0030480481
4.0875229e-06
1.045179e-05
1.9094748e-05
2.7840055e-05
4.060803e-05
5.6219733e-05
7.0933516e-05
7.9751547e-05
8.0830497e-05
8.4687425e-05
9.583928e-05
0.00011336856
0.00013236324
0.0001501642
0.0001654829
0.00017768354
0.00018473909
0.00018363019
0.00017137782
0.00014689062
0.00011239617
7.4542458e-05
4.4777725e-05
3.880034e-05
7.4768636e-05
0.00017017718
0.00033808411
0.00058386191
0.00090346823
0.0012837288
0.0017043915
0.0021411068
0.0025683074
0.0029612054
0.003296474
3.3902258e-06
9.6366581e-06
1.894731e-05
2.9104727e-05
4.3745647e-05
6.2425418e-05
7.9648072e-05
9.1771892e-05
9.7845959e-05
9.993969e-05
0.00010988033
0.00012663991
0.0001470501
0.00016700034
0.00018582142
0.00020299489
0.00021684562
0.00022371307
0.00021948845
0.00020107032
0.00016825727
0.00012491589
7.9895635e-05
4.717374e-05
4.4883763e-05
9.2865232e-05
0.00020894553
0.00040491781
0.00068354213
0.0010374508
0.0014502558
0.0018992658
0.0023588114
0.00280311
0.0032080422
0.003551488
2.5603953e-06
8.3074258e-06
1.7840172e-05
2.9329381e-05
4.5761817e-05
6.7305067e-05
8.8527865e-05
0.00010368684
0.0001134252
0.00012054674
0.00012769046
0.0001433035
0.00016339133
0.0001848015
0.00020609124
0.00022775507
0.00024823399
0.00026383978
0.00026930834
0.00025998189
0.00023326012
0.00019027161
0.00013684605
8.4333273e-05
4.9462654e-05
5.282182e-05
0.00011565093
0.00025556627
0.00048245907
0.00079592944
0.0011850019
0.0016300884
0.0021063125
0.0025870404
0.0030466436
0.0034619554
0.0038122667
1.7640012e-06
6.5836253e-06
1.5818825e-05
2.8143617e-05
4.6354971e-05
7.0332383e-05
9.6062153e-05
0.00011603399
0.00012925359
0.00014029007
0.00015245858
0.00016442757
0.00018302875
0.00020412549
0.00022699699
0.00025202959
0.00027872477
0.00030313912
0.00031950898
0.00032152728
0.00030469156
0.00026739081
0.00021238466
0.00014776956
8.7710922e-05
5.1900227e-05
6.3302217e-05
0.00014415455
0.00031121069
0.00057177777
0.00092179111
0.0013464778
0.0018231735
0.0023251361
0.0028251662
0.0032981471
0.0037221262
0.0040779779
1.1370227e-06
4.7671933e-06
1.3090474e-05
2.560417e-05
4.4836036e-05
7.1390781e-05
0.00010080166
0.00012737835
0.00014572245
0.00016118901
0.00017694535
0.00019380646
0.00020749714
0.00022660263
0.00024914266
0.00027646085
0.00030825146
0.00034126949
0.00036892809
0.00038402321
0.00038000676
0.00035306614
0.00030286463
0.00023403684
0.0001572919
8.9963481e-05
5.4871206e-05
7.7168595e-05
0.00017953041
0.0003771052
0.00067391412
0.0010617956
0.001522106
0.0020293241
0.0025552344
0.0030724887
0.003556818
0.0039877201
0.0043477914
7.8688248e-07
3.2169195e-06
1.0156002e-05
2.1981148e-05
4.1289933e-05
6.9348059e-05
0.00010301132
0.00013492266
0.00016201597
0.00018218555
0.00020381161
0.00022344394
0.00024120772
0.00025388643
0.00027419633
0.00030169809
0.00033739334
0.00037796549
0.000417024
0.00044596163
0.00045708785
0.00044423687
0.00040453472
0.00033907141
0.00025465324
0.00016504466
9.1117577e-05
5.8915547e-05
9.542634e-05
0.0002230506
0.00045450689
0.00078985094
0.0012164959
0.0017119708
0.0022482247
0.0027960093
0.0033282455
0.0038218254
0.0042578988
0.0046208883
2.3177062e-06
7.7714474e-07
7.6176584e-06
1.7976909e-05
3.6113302e-05
6.4325439e-05
0.00010097007
0.00013954346
0.00017350715
0.00020432263
0.00022966857
0.0002572468
0.00027669346
0.00029108222
0.0003037652
0.00032941548
0.00036676802
0.00041373723
0.00046327087
0.00050655053
0.0005340199
0.00053825772
0.00051373586
0.00045854322
0.00037536498
0.00027362489
0.00017068444
9.1323547e-05
6.4750802e-05
0.00011924898
0.00027608763
0.0005446757
0.00092048868
0.0013863069
0.001916013
0.0024794372
0.0030467772
0.0035916259
0.0040923222
0.0045318291
0.0048964691
6.1404526e-06
2.3238113e-06
1.1086681e-06
1.4478867e-05
3.032352e-05
5.6893099e-05
9.4780857e-05
0.00013877971
0.0001818827
0.00022063231
0.00025847258
0.00028858962
0.00031868896
0.00033242228
0.00034363486
0.0003610729
0.00039803362
0.0004490777
0.00050808857
0.00056493574
0.00060968337
0.00063272424
0.00062719489
0.00058811793
0.00051451199
0.0004110101
0.00029028798
0.00017391477
9.0881455e-05
7.3295687e-05
0.00014997928
0.00034009201
0.0006488445
0.0010666156
0.0015714958
0.0021340264
0.0027224106
0.00330678
0.003861784
0.0043674546
0.004808693
0.0051737604
1.2441352e-05
6.1473257e-06
3.2316024e-06
1.7166246e-06
2.5270194e-05
4.8526574e-05
8.515533e-05
0.0001325719
0.0001838797
0.00023387823
0.00028043013
0.00032508871
0.00035657899
0.00038268527
0.00038989609
0.00040283158
0.00043264871
0.00048564063
0.00055174262
0.00062142788
0.00068285261
0.00072609106
0.00074191315
0.00072378595
0.00066702449
0.00057173546
0.00044512408
0.00030392416
0.00017453025
9.0285413e-05
8.5681468e-05
0.00018911836
0.00041656333
0.00076818458
0.0012288854
0.0017721687
0.0023656648
0.0029764898
0.0035751993
0.0041378508
0.0046463747
0.0050876944
0.0054520209
2.2305673e-05
1.2462432e-05
7.6357681e-06
4.7861681e-06
2.4970445e-06
4.1215705e-05
7.4121434e-05
0.00012166762
0.00017910422
0.00023990564
0.00029957667
0.0003537468
0.00040283315
0.00042764365
0.00044777386
0.00045271611
0.00047626116
0.00052477517
0.00059589276
0.00067594374
0.00075367597
0.00081671214
0.0008557908
0.00086183273
0.00082805842
0.00074996938
0.00062927262
0.00047664846
0.00031379421
0.0001724767
9.0269643e-05
0.00010327192
0.00023830695
0.00050701606
0.00090377182
0.0014077948
0.0019882699
0.002610445
0.0032409286
0.0038511696
0.0044189468
0.0049282481
0.0053680662
0.0057305462
3.6865689e-05
2.2332613e-05
1.4535943e-05
1.0183605e-05
6.6030861e-06
3.3178064e-06
6.4375496e-05
0.00010865176
0.00016819805
0.00023783068
0.0003108713
0.00038040685
0.00044043636
0.00048541427
0.00049994243
0.00051775124
0.00052928661
0.00057163017
0.00064161506
0.00073018441
0.00082166706
0.00090449298
0.00096669141
0.00099945482
0.00099305409
0.00093995198
0.00083615723
0.00068586982
0.00050435554
0.00031920474
0.00016790774
9.1843796e-05
0.00012766272
0.00029929901
0.00061293942
0.0010565536
0.0016036696
0.0022195767
0.0028677587
0.003514902
0.0041337925
0.0047041933
0.0052122631
0.0056490759
0.0060086722
5.8481979e-05
3.6821681e-05
2.5343364e-05
1.8062086e-05
1.3123292e-05
8.3235158e-06
4.0151123e-06
9.6848108e-05
0.00015426461
0.00022808817
0.00031280309
0.00039871556
0.00047725448
0.00053423795
0.00057019796
0.00057711072
0.00060168424
0.00062826105
0.00069395528
0.00078476686
0.00088860047
0.00098853244
0.0010741564
0.0011339214
0.0011583482
0.0011361537
0.0010590489
0.00092434104
0.0007399285
0.00052690457
0.00031957807
0.00016125005
9.6320898e-05
0.00016067262
0.00037392374
0.00073575445
0.001227321
0.0018166497
0.0024657063
0.0031368811
0.0037975234
0.0044221506
0.0049927228
0.0054976367
0.005930029
0.0062857779
8.957058e-05
5.8354448e-05
4.1085884e-05
3.0433692e-05
2.2086267e-05
1.5854181e-05
9.6480284e-06
4.4736515e-06
0.00014112924
0.00021413962
0.00030541525
0.00040661474
0.00050559777
0.00058456336
0.00063220591
0.00066045583
0.00066779195
0.00070799626
0.00075553642
0.0008449603
0.00095450903
0.0010706457
0.0011768558
0.001264241
0.0013204757
0.0013339086
0.00129134
0.0011843609
0.0010127454
0.00078954005
0.00054292204
0.00031454859
0.00015326714
0.00010533948
0.00020431791
0.00046403971
0.00087677344
0.0014166801
0.0020466851
0.0027261183
0.0034169889
0.0040878581
0.0047153206
0.0052836871
0.0057836194
0.0062102725
0.0065612868
0.00013296561
8.9373313e-05
6.4011037e-05
4.8328831e-05
3.6247924e-05
2.5718651e-05
1.787893e-05
1.0456941e-05
4.6405659e-06
0.00020031434
0.00029237222
0.00040341684
0.00052252406
0.00062655032
0.00069927404
0.00073724222
0.00076428407
0.00078011553
0.00084276935
0.00091240254
0.0010250094
0.0011503828
0.0012765454
0.0013886319
0.0014777288
0.0015288365
0.0015272206
0.0014581514
0.0013141837
0.0010990608
0.00083256144
0.00055111894
0.00030406811
0.00014511689
0.00012086463
0.00026077545
0.00057148355
0.0010371564
0.0016250329
0.0022935301
0.0030001316
0.0037071753
0.004384942
0.0050123828
0.0055762626
0.0060695005
0.0064891991
0.0068346692
0.00019172494
0.00013291279
9.6282014e-05
7.3558054e-05
5.6654503e-05
4.1436429e-05
2.8259724e-05
1.8985893e-05
1.0723386e-05
4.4896583e-06
0.00027844359
0.00039278131
0.00052612299
0.00065658986
0.00075886873
0.00082429888
0.00085651986
0.000888901
0.00092046778
0.0010074386
0.0011004695
0.0012336677
0.0013724801
0.0015086161
0.0016278208
0.0017183637
0.0017612028
0.0017386139
0.0016352393
0.0014460468
0.0011804948
0.00086673208
0.00055041764
0.00028852099
0.00013840406
0.00014517538
0.00033233146
0.00069801547
0.001217873
0.0018525586
0.0025567526
0.0032869366
0.0040064684
0.00468779
0.0053124281
0.0058696587
0.0063546155
0.0067662503
0.0071054415
0.00026972287
0.00019198267
0.00014096068
0.00010777548
8.4463802e-05
6.4067784e-05
4.4987111e-05
2.9436508e-05
1.9130316e-05
1.0464314e-05
4.1821889e-06
0.00037984135
0.00051989959
0.00067091891
0.00080663689
0.00090574666
0.00096618265
0.00099659212
0.0010406695
0.0010910683
0.0012049978
0.0013198215
0.001470674
0.001623264
0.0017717459
0.0018995391
0.0019896696
0.0020189514
0.0019673982
0.0018202791
0.0015767336
0.0012538841
0.00088981786
0.00054010415
0.00026879315
0.00013519963
0.00018082785
0.00042132
0.00084526115
0.0014196663
0.0020992099
0.002835743
0.003585616
0.0043138422
0.0049954064
0.0056145701
0.0061631321
0.0066383528
0.007040913
0.0073731637
0.00037154966
0.00027022181
0.00020101932
0.00015398806
0.00012059219
9.4034e-05
6.9093511e-05
4.6497657e-05
2.919885e-05
1.8464004e-05
1.0050619e-05
3.6918261e-06
0.00050919435
0.00067250175
0.00083637838
0.00097649759
0.001073254
0.001130478
0.0011636614
0.001223921
0.001294332
0.0014357857
0.0015698346
0.001738449
0.0019084287
0.0020726204
0.0022087984
0.0022943075
0.0023023371
0.0022117153
0.0020099357
0.0017023647
0.0013158362
0.00089978946
0.00051995869
0.00024633642
0.00013802954
0.00023060127
0.00053005112
0.0010146543
0.0016430302
0.0023647138
0.0031297311
0.0038951509
0.0046282286
0.0053068018
0.0059179691
0.0064559961
0.0069201423
0.0073127086
0.0076502652
0.00050174978
0.00037213881
0.00027978775
0.00021514721
0.00016784329
0.00013140972
0.00010023
7.1149566e-05
4.5886429e-05
2.7921706e-05
1.7400457e-05
9.0522762e-06
3.1883368e-06
0.0006664994
0.00085002841
0.0010271214
0.0011718297
0.0012660695
0.0013229032
0.0013620782
0.0014408841
0.0015312236
0.001697886
0.0018527789
0.002043354
0.0022362752
0.0024179495
0.0025596904
0.0026337329
0.0026102997
0.0024684818
0.0021999205
0.0018185192
0.0013629022
0.0008949944
0.0004903877
0.00022323177
0.00014985681
0.00029742179
0.00066073325
0.0012073909
0.0018881962
0.0026485786
0.0034377886
0.0042144372
0.0049485409
0.0056210291
0.0062218446
0.0067475978
0.0071994329
0.0075927668
0.007942824
0.00066108039
0.00050172283
0.00038143723
0.00029429422
0.00022921917
0.00017870303
0.00013763313
0.00010232485
7.0119895e-05
4.3852174e-05
2.5983845e-05
1.5610614e-05
8.3541889e-06
2.6854572e-06
0.00085213116
0.0010577799
0.0012485902
0.001396583
0.0014892878
0.001548556
0.001595214
0.0016933518
0.0018002838
0.0019935954
0.0021751051
0.0023953649
0.0026153729
0.0028134314
0.0029550917
0.0030080042
0.0029404056
0.0027333838
0.002385063
0.0019203937
0.0013917854
0.0008743578
0.00045255493
0.00020222903
0.00017402071
0.00038427174
0.00081540114
0.0014243949
0.0021551236
0.0029500873
0.0037588414
0.004542317
0.0052737246
0.0059372002
0.0065254372
0.0070372798
0.0074867162
0.0078874321
0.0082429235
0.00085075346
0.0006602566
0.00050917136
0.00039505262
0.00030760295
0.00023894677
0.00018348135
0.0001384822
0.00010020324
6.7117427e-05
4.070149e-05
2.3192365e-05
1.4234543e-05
7.2028916e-06
2.202112e-06
0.0010717136
0.0013010052
0.0015041084
0.0016551673
0.0017487165
0.0018112699
0.0018673767
0.0019770008
0.002103753
0.0023290463
0.0025486977
0.0028051025
0.0030529922
0.0032635374
0.0033964506
0.0034156998
0.0032887739
0.0030009045
0.002559432
0.0020030003
0.0013995817
0.00083757757
0.00040846807
0.00018671872
0.00021414783
0.00049409691
0.00099585662
0.0016662838
0.0024434738
0.0032683039
0.004091714
0.0048776467
0.0056027786
0.0062544273
0.0068279479
0.0073354947
0.0077885155
0.0081908547
0.0085504567
0.001076474
0.0008494821
0.00066421604
0.00051973956
0.00040595474
0.00031495542
0.00024090085
0.00018150707
0.00013401649
9.5553209e-05
6.2267883e-05
3.6453555e-05
2.0808627e-05
1.2289795e-05
6.0265731e-06
1.9079231e-06
0.0013304236
0.0015823392
0.0017971447
0.0019536671
0.0020496022
0.0021163776
0.0021749136
0.002289721
0.0024445039
0.0027182248
0.0029861554
0.0032814321
0.0035553004
0.0037713277
0.0038837316
0.003853855
0.0036500712
0.0032643957
0.0027164999
0.0020614161
0.0013840322
0.00078529805
0.00036102126
0.00018066194
0.0002740511
0.00062972126
0.0012036005
0.0019333118
0.0027526049
0.0036021286
0.0044352169
0.005219321
0.0059346688
0.006571734
0.0071403848
0.007648857
0.0081003507
0.0085028827
0.0088652914
0.0013436961
0.0010749471
0.00084861921
0.00066902513
0.00052570787
0.00040904508
0.00031277908
0.00023470021
0.00017317942
0.0001266117
8.8122944e-05
5.6099831e-05
3.2537384e-05
1.7925645e-05
1.0392802e-05
4.8848064e-06
1.6419401e-06
0.0016301179
0.0019038093
0.002134158
0.0022993148
0.0023990769
0.0024620899
0.0025103218
0.0026355116
0.0028375064
0.0031771288
0.0034977247
0.0038324357
0.0041270913
0.0043384663
0.0044153293
0.0043178517
0.0040174716
0.0035161629
0.0028493535
0.0020910683
0.0013437831
0.00071925348
0.00031400931
0.00018852613
0.00035762902
0.00079374167
0.0014397325
0.0022253413
0.0030816368
0.0039504082
0.0047881723
0.0055661501
0.0062682049
0.0069013232
0.0074693564
0.0079736395
0.0084220372
0.0088233244
0.0091872684
0.0016537757
0.0013429623
0.0010676385
0.00084481083
0.00066664768
0.00052181483
0.00040078298
0.0003011507
0.0002212837
0.00016174118
0.00011543463
7.9343499e-05
5.0099925e-05
2.818255e-05
1.4960903e-05
8.4160075e-06
3.7257785e-06
1.3987398e-06
0.0019709629
0.002271602
0.0025240564
0.0027010106
0.0027970991
0.0028389527
0.0028751834
0.0030261009
0.0033027215
0.0037171528
0.0040932039
0.0044647347
0.0047719603
0.0049651539
0.0049879602
0.0048013282
0.0043826659
0.0037475939
0.0029509687
0.0020880528
0.0012786417
0.00064238414
0.00027211609
0.0002151774
0.00046872215
0.00098837003
0.0017048848
0.0025419189
0.0034295846
0.0043119558
0.0051492414
0.0059166986
0.0066174968
0.0072496921
0.0078112804
0.0083096374
0.0087533425
0.0091519411
0.0095162042
0.0020050249
0.0016549623
0.0013285072
0.0010518056
0.00083009385
0.00065198775
0.00050463711
0.00038201296
0.00028161198
0.00020478309
0.00014552474
0.00010323265
7.0700292e-05
4.3822883e-05
2.3466601e-05
1.2108986e-05
6.4790011e-06
3.1251429e-06
1.1300546e-06
0.002358075
0.002695949
0.0029776631
0.0031616862
0.0032332484
0.0032437341
0.0032809733
0.0034829421
0.0038517856
0.0043501612
0.0047810522
0.005184223
0.0054923547
0.0056499596
0.0055964391
0.0052960724
0.0047358936
0.0039493744
0.0030145622
0.0020495066
0.0011898131
0.00055888894
0.00024083722
0.00026571615
0.00061089226
0.0012153137
0.0019993021
0.0028824272
0.0037953668
0.0046853152
0.0055167219
0.0062877669
0.0069888137
0.0076127428
0.0081659457
0.0086565926
0.0090939688
0.0094884553
0.0098518874
0.0024011085
0.0020079512
0.001633509
0.0012983205
0.0010200266
0.00080001043
0.00062202509
0.00047617875
0.00035490502
0.00025933255
0.00018249525
0.00012908586
9.141518e-05
6.1909826e-05
3.6652425e-05
1.9171264e-05
9.5252171e-06
5.3576561e-06
2.2768968e-06
8.9455219e-07
0.0028028196
0.0031891702
0.0035008672
0.0036703009
0.0036998254
0.0036852515
0.0037477311
0.0040199223
0.0044991868
0.0050858861
0.0055696807
0.0059958491
0.0062892447
0.0063895077
0.0062334806
0.0057919555
0.0050660361
0.0041117779
0.0030339774
0.0019739568
0.0010801012
0.00047427064
0.00022633182
0.00034519467
0.00078723446
0.0014758545
0.0023230165
0.0032460684
0.0041774862
0.0050685122
0.0059109825
0.0066852725
0.007376798
0.0079902703
0.0085330841
0.0090141658
0.0094435657
0.0098325423
0.010194084
0.002854617
0.0024051476
0.0019790817
0.0015873943
0.0012453483
0.00096912297
0.0007525054
0.0005804351
0.00043938677
0.00032592037
0.00023027469
0.00016134285
0.0001132842
7.9513116e-05
5.1792241e-05
3.015699e-05
1.5404272e-05
7.934115e-06
4.1520006e-06
1.9751573e-06
6.8399714e-07
0.0033177225
0.0037585699
0.0040841199
0.0042169321
0.0042044494
0.0041798444
0.0042862388
0.0046582894
0.00525415
0.0059353402
0.0064667805
0.0069033545
0.0071617217
0.007178266
0.006889568
0.0062768419
0.005360767
0.004225054
0.0030041704
0.0018616913
0.00095408838
0.00039525302
0.00023510691
0.00045836046
0.0010004526
0.001771037
0.0026757731
0.0036314353
0.0045737216
0.0054864628
0.0063374989
0.007101771
0.0077812665
0.008382014
0.0089123329
0.0093819525
0.0098017201
0.010183841
0.010542532
0.0033767783
0.0028590713
0.0023689024
0.0019155709
0.0015097073
0.0011683376
0.00089874641
0.00069362967
0.00053082216
0.00040194477
0.0002890468
0.00020415995
0.00014040685
9.7756702e-05
6.6031288e-05
4.274096e-05
2.4636243e-05
1.2985293e-05
6.4869302e-06
3.5201372e-06
1.4563844e-06
5.1040908e-07
0.0039099794
0.0043981283
0.0047164114
0.0048091213
0.0047615839
0.0047546176
0.0049191931
0.0054033247
0.0061302419
0.0069095814
0.0074791904
0.007908824
0.008106793
0.0080082966
0.0075526384
0.0067365703
0.0056068209
0.0042799605
0.0029217643
0.0017151447
0.00081818584
0.00032946126
0.0002736847
0.00060972083
0.0012530465
0.0021015118
0.0030564652
0.0040361349
0.0050145692
0.0059441833
0.0067857952
0.0075371218
0.0082019873
0.0087876046
0.0093032507
0.0097594708
0.010167968
0.010541947
0.010896949
0.0039741616
0.0033807771
0.0028153573
0.0022869958
0.0018102498
0.0014019724
0.0010698338
0.00081816014
0.00062766333
0.00048283114
0.00035588882
0.00025752788
0.00017713589
0.00012054106
8.0771764e-05
5.4760979e-05
3.5289944e-05
2.0920116e-05
1.0889852e-05
5.5721044e-06
2.8172862e-06
1.2187292e-06
3.6920299e-07
0.004576152
0.0050972768
0.0054060204
0.005462009
0.0053977325
0.0054163004
0.0056544652
0.0062694302
0.0071411748
0.0080194923
0.0086124929
0.0090124257
0.0091190873
0.0088688338
0.008207835
0.0071549913
0.0057904635
0.0042683747
0.0027856124
0.0015391609
0.00068041009
0.00028507067
0.00034867704
0.00080372218
0.0015470322
0.0024667786
0.0034626744
0.0044972777
0.0055046966
0.0064270998
0.0072557962
0.0079911486
0.0086386057
0.0092065835
0.0097053059
0.010146173
0.010541785
0.010906436
0.011257078
0.0046446399
0.0039752562
0.0033287323
0.0027137137
0.0021511921
0.0016675605
0.0012703291
0.00096307432
0.00073245086
0.00056684572
0.00042589461
0.00031820782
0.00022356798
0.00015251797
9.9932065e-05
6.7504653e-05
4.5676478e-05
3.0209547e-05
1.77509e-05
9.4420584e-06
4.7232791e-06
2.3877341e-06
9.2262035e-07
2.627111e-07
0.0053086416
0.0058673338
0.0061711607
0.0061944609
0.0061192955
0.0061744014
0.0065066116
0.0072748628
0.0083009736
0.0092745117
0.0098707304
0.01021228
0.010190468
0.0097457487
0.0088372402
0.0075142164
0.0058981394
0.0041840984
0.0025973616
0.0013409623
0.0005500908
0.00027089933
0.00046695544
0.0010443031
0.0018829506
0.0028646433
0.0039390522
0.0050195289
0.0060243036
0.0069352195
0.0077474047
0.008463536
0.009090667
0.0096383893
0.010117886
0.010541438
0.010922635
0.011276915
0.011622597
0.0053838958
0.004641118
0.003912668
0.0032047207
0.0025436329
0.0019697092
0.0014993506
0.0011336284
0.0008541246
0.00065703417
0.00049777338
0.00038154002
0.00027639295
0.00019379953
0.00012766196
8.4672139e-05
5.6996135e-05
3.9452414e-05
2.5854812e-05
1.5388571e-05
8.1287546e-06
4.0837247e-06
1.964824e-06
7.4458565e-07
1.835423e-07
0.0061202449
0.0067292979
0.007028979
0.0070171521
0.0069420577
0.0070383684
0.0074991737
0.0084358751
0.0096226434
0.010682505
0.011256161
0.011504021
0.011309243
0.010620913
0.0094197506
0.0077951095
0.0059173504
0.0040237445
0.0023617562
0.0011299891
0.00043799555
0.00029659688
0.00063498867
0.001333599
0.002259203
0.0033479007
0.0044909663
0.0055767433
0.0065734857
0.0074685488
0.0082603717
0.0089538584
0.0095576013
0.010082365
0.01054029
0.010944635
0.011309999
0.011652907
0.01199317
0.0062051696
0.0053771212
0.0045664965
0.003762346
0.0029944629
0.0023175206
0.0017615797
0.0013303343
0.00099889929
0.00076262529
0.00057494802
0.00044638629
0.00033179591
0.0002409788
0.00016435003
0.00010982753
7.2678928e-05
4.9755098e-05
3.4163863e-05
2.2477814e-05
1.3276223e-05
7.0700486e-06
3.4964069e-06
1.626273e-06
5.6830011e-07
1.2622033e-07
0.007035206
0.0077025848
0.0079896342
0.0079402211
0.0078644212
0.0080325431
0.0086489896
0.0097682539
0.011118472
0.012250016
0.012769319
0.012880096
0.012459156
0.011471655
0.0099312322
0.0079780998
0.0058378018
0.0037874248
0.0020867237
0.00091819368
0.00035662991
0.00037174088
0.00085717421
0.0016711369
0.0027366958
0.0039238749
0.0050849811
0.0061690938
0.0071523701
0.0080269303
0.0087943276
0.00946156
0.010038727
0.010537748
0.010971812
0.01135513
0.011703274
0.012033888
0.012368446
0.0071328559
0.0061968804
0.0052910851
0.0043853282
0.0035046435
0.0027162017
0.0020640126
0.0015578574
0.0011687664
0.00089058622
0.00066683405
0.00051641767
0.00038915003