/*--------------------------------*- C++ -*----------------------------------*\
| =========                 |                                                 |
| \\      /  F ield         | OpenFOAM: The Open Source CFD Toolbox           |
|  \\    /   O peration     | Version:  5.0                                   |
|   \\  /    A nd           | Web:      www.OpenFOAM.org                      |
|    \\/     M anipulation  |                                                 |
\*---------------------------------------------------------------------------*/
FoamFile
{
    version     2.0;
    format      ascii;
    class       volVectorField;
    location    "280";
    object      U;
}
// * * * * * * * * * * * * * * * * * * * * * * * * * * * * * * * * * * * * * //

dimensions      [0 1 -1 0 0 0 0];

internalField   nonuniform List<vector> 
9520
(
(1.014317 0.000166408 0)
(1.0144157 0.00048765213 0)
(1.0138223 0.00016425051 0)
(1.0145897 0.00078591551 0)
(1.0139231 0.0004824163 0)
(1.0136332 0.00016283484 0)
(1.0148226 0.0010606544 0)
(1.0141021 0.00077932018 0)
(1.0137334 0.00047784106 0)
(1.0133251 0.00016544718 0)
(1.0151002 0.0013112562 0)
(1.0143441 0.0010542877 0)
(1.0139127 0.00077222544 0)
(1.0134258 0.00048443269 0)
(1.0130848 0.00017164204 0)
(1.0154097 0.0015373831 0)
(1.0146354 0.0013074997 0)
(1.014156 0.0010456428 0)
(1.0136059 0.00078263841 0)
(1.0131862 0.00050229089 0)
(1.012808 0.00017778124 0)
(1.0157399 0.0017389671 0)
(1.014963 0.0015379121 0)
(1.0144501 0.0012998772 0)
(1.0138498 0.0010605643 0)
(1.0133671 0.00081178662 0)
(1.0129093 0.00052163643 0)
(1.0125521 0.00017936753 0)
(1.0160813 0.0019154306 0)
(1.0153166 0.0017454468 0)
(1.0147827 0.0015336388 0)
(1.0141451 0.0013209891 0)
(1.0136114 0.0011014427 0)
(1.0130886 0.00084542222 0)
(1.0126521 0.00052864409 0)
(1.012296 0.00017575405 0)
(1.0164269 0.0020659383 0)
(1.0156882 0.0019303587 0)
(1.015143 0.0017464573 0)
(1.0144813 0.0015635986 0)
(1.0139071 0.0013733075 0)
(1.013331 0.0011511683 0)
(1.0128287 0.00086037967 0)
(1.0123917 0.00051993368 0)
(1.0120617 0.00016911892 0)
(1.0167721 0.0021887722 0)
(1.0160724 0.0020929425 0)
(1.0155218 0.0019383294 0)
(1.0148477 0.0017882224 0)
(1.0142448 0.0016284792 0)
(1.013624 0.0014395841 0)
(1.013068 0.001177103 0)
(1.0125617 0.00084948826 0)
(1.0121527 0.00050080988 0)
(1.0118439 0.00016288875 0)
(1.0171177 0.0022785362 0)
(1.0164675 0.002235096 0)
(1.0159104 0.0021100996 0)
(1.0152343 0.0019944255 0)
(1.0146146 0.0018675806 0)
(1.0139582 0.0017131537 0)
(1.0133574 0.0014788919 0)
(1.0127933 0.0011674896 0)
(1.0123153 0.00081991697 0)
(1.01193 0.00048150643 0)
(1.0116414 0.00015936844 0)
(1.0174674 0.0023430803 0)
(1.0168771 0.0023633933 0)
(1.016301 0.0022673828 0)
(1.0156295 0.0021822093 0)
(1.0150067 0.0020903189 0)
(1.0143245 0.0019735227 0)
(1.0136866 0.0017681919 0)
(1.0130737 0.001475658 0)
(1.0125371 0.0011294841 0)
(1.0120848 0.00078864324 0)
(1.0117235 0.00046954888 0)
(1.0114489 0.00015850469 0)
(1.0178119 0.0023786298 0)
(1.0173029 0.0024821157 0)
(1.0166825 0.0024178524 0)
(1.0160201 0.0023534126 0)
(1.0154109 0.0022955876 0)
(1.0147158 0.0022210148 0)
(1.0140473 0.0020472468 0)
(1.0133914 0.0017752774 0)
(1.0128071 0.0014343703 0)
(1.0122946 0.0010874096 0)
(1.0118707 0.000768353 0)
(1.0115278 0.00046582609 0)
(1.0112635 0.00015826528 0)
(1.0181232 0.002412221 0)
(1.0176647 0.0026070151 0)
(1.0169995 0.0025804635 0)
(1.0163852 0.0025068034 0)
(1.0158153 0.0024795803 0)
(1.0151274 0.0024540274 0)
(1.0144334 0.0023176461 0)
(1.0137377 0.0020683559 0)
(1.013113 0.0017348806 0)
(1.0125488 0.0013838597 0)
(1.0120695 0.0010601802 0)
(1.0116675 0.00076129322 0)
(1.0113397 0.00046507954 0)
(1.0110853 0.00015603134 0)
(1.0184377 0.0024083761 0)
(1.0179728 0.0027789727 0)
(1.0172536 0.0027590216 0)
(1.0167176 0.0026398218 0)
(1.0162122 0.0026319773 0)
(1.0155601 0.0026661439 0)
(1.0148423 0.0025805446 0)
(1.0141054 0.0023571612 0)
(1.0134451 0.0020315648 0)
(1.0128379 0.0016791227 0)
(1.0123092 0.0013503837 0)
(1.0118548 0.0010506221 0)
(1.0114724 0.00075989863 0)
(1.0111587 0.0004595665 0)
(1.0109173 0.00014992428 0)
(1.0187579 0.0024669388 0)
(1.0182555 0.0029331618 0)
(1.0175257 0.0029157827 0)
(1.0170494 0.0027291192 0)
(1.0166288 0.0027386333 0)
(1.0160258 0.0028469705 0)
(1.0152754 0.002837537 0)
(1.0144894 0.0026452437 0)
(1.0137945 0.0023254644 0)
(1.0131528 0.0019732687 0)
(1.0125821 0.0016410297 0)
(1.0120797 0.0013386963 0)
(1.0116486 0.0010482623 0)
(1.0112848 0.00075188822 0)
(1.0109873 0.00044311729 0)
(1.0107638 0.00013952645 0)
(1.0191058 0.0024010427 0)
(1.0185148 0.0031675157 0)
(1.0177141 0.0030407477 0)
(1.0174022 0.0027644609 0)
(1.0170729 0.002759343 0)
(1.0165322 0.0029939988 0)
(1.015736 0.0030959931 0)
(1.0148856 0.0029402285 0)
(1.0141511 0.0026185867 0)
(1.0134844 0.0022656816 0)
(1.0128799 0.0019331525 0)
(1.0123347 0.0016283775 0)
(1.0118588 0.0013356245 0)
(1.0114506 0.0010372388 0)
(1.0111069 0.00072652962 0)
(1.0108299 0.00041370994 0)
(1.0106282 0.0001259616 0)
(1.0194214 0.0026270401 0)
(1.0187363 0.0033553187 0)
(1.0178415 0.0031562197 0)
(1.0176931 0.002730779 0)
(1.0175092 0.0027408653 0)
(1.0170735 0.0030925851 0)
(1.0162372 0.0033589296 0)
(1.0152892 0.0032522841 0)
(1.0145029 0.0029152235 0)
(1.0138234 0.0025549059 0)
(1.0131952 0.0022260895 0)
(1.0126126 0.0019223869 0)
(1.0120953 0.0016257442 0)
(1.0116459 0.0013209764 0)
(1.0112631 0.0010040614 0)
(1.0109425 0.00067926802 0)
(1.0106905 0.0003740966 0)
(1.0105119 0.00011138261 0)
(1.0198392 0.0023508661 0)
(1.0189922 0.0038112462 0)
(1.0177823 0.0033207335 0)
(1.0178553 0.002670434 0)
(1.0180263 0.0026541567 0)
(1.0176139 0.0031735602 0)
(1.0167618 0.0036501009 0)
(1.0156854 0.0035992283 0)
(1.0148386 0.0032202568 0)
(1.0141597 0.0028380899 0)
(1.0135209 0.0025171384 0)
(1.0129078 0.0022216496 0)
(1.012351 0.0019229948 0)
(1.0118626 0.0016087257 0)
(1.0114443 0.0012787852 0)
(1.0110899 0.00094177684 0)
(1.0107963 0.00061403197 0)
(1.0105712 0.00033046149 0)
(1.0104137 9.806151e-05 0)
(1.0200545 0.0029956875 0)
(1.0190321 0.0040467505 0)
(1.0175385 0.0034201039 0)
(1.0178852 0.0024821498 0)
(1.0185262 0.0024644187 0)
(1.0182505 0.0032317953 0)
(1.0172813 0.00397738 0)
(1.0160558 0.004008835 0)
(1.0151341 0.003545928 0)
(1.014477 0.0031097963 0)
(1.0138504 0.0028003582 0)
(1.0132173 0.0025249694 0)
(1.0126212 0.0022304879 0)
(1.0120928 0.00190592 0)
(1.0116413 0.0015585352 0)
(1.0112582 0.0012017458 0)
(1.0109342 0.00085192868 0)
(1.0106715 0.00054129687 0)
(1.0104709 0.00028957189 0)
(1.0103306 8.7520828e-05 0)
(1.0203717 0.0023097347 0)
(1.0192645 0.0049354075 0)
(1.0170232 0.0037911491 0)
(1.0177626 0.002169547 0)
(1.0191229 0.0020673829 0)
(1.0190412 0.0032855 0)
(1.01784 0.0043524532 0)
(1.0163596 0.0044978616 0)
(1.0153591 0.0038998496 0)
(1.0147545 0.0033679819 0)
(1.0141756 0.0030661594 0)
(1.0135397 0.0028278368 0)
(1.0129042 0.002549925 0)
(1.0123313 0.002217775 0)
(1.0118451 0.001848917 0)
(1.011436 0.0014665249 0)
(1.0110912 0.0010904691 0)
(1.0108008 0.00074729785 0)
(1.0105684 0.00047248096 0)
(1.0103869 0.0002561009 0)
(1.0102589 8.0144437e-05 0)
(1.0200927 0.0035581591 0)
(1.0189355 0.0052512113 0)
(1.0163077 0.0037870614 0)
(1.0174465 0.0017823215 0)
(1.0197265 0.0015325822 0)
(1.020046 0.0032514429 0)
(1.0185015 0.0048365717 0)
(1.0166075 0.0050863102 0)
(1.0154634 0.0042944193 0)
(1.014952 0.0035895238 0)
(1.0144862 0.0032990569 0)
(1.0138764 0.0031218188 0)
(1.0132028 0.0028819117 0)
(1.0125762 0.002549226 0)
(1.0120492 0.0021561236 0)
(1.0116143 0.0017413025 0)
(1.0112528 0.0013327663 0)
(1.0109464 0.00095525107 0)
(1.0106919 0.00064613999 0)
(1.0104838 0.00041491492 0)
(1.0103157 0.00023162019 0)
(1.0101954 7.5393714e-05 0)
(1.0198561 0.0023630886 0)
(1.0190718 0.0066385242 0)
(1.0150655 0.004628633 0)
(1.0168649 0.00093625948 0)
(1.0204986 0.00060045543 0)
(1.021292 0.0032458628 0)
(1.0192839 0.0054651602 0)
(1.0167561 0.0058285853 0)
(1.0154479 0.0047173289 0)
(1.0150922 0.0037847027 0)
(1.0147636 0.0034629393 0)
(1.014233 0.0033883295 0)
(1.0135268 0.00322429 0)
(1.0128295 0.0029069117 0)
(1.0122483 0.0024867871 0)
(1.0117848 0.0020317982 0)
(1.0114095 0.0015827856 0)
(1.0110944 0.0011659667 0)
(1.0108287 0.00082010167 0)
(1.0106047 0.00056146946 0)
(1.0104135 0.00037074668 0)
(1.0102542 0.00021519112 0)
(1.0101375 7.2339455e-05 0)
(1.0188756 0.0042820239 0)
(1.0174148 0.0070448722 0)
(1.0138343 0.0043692119 0)
(1.015933 0.00044999858 0)
(1.02114 -0.00050243201 0)
(1.0228617 0.0029760589 0)
(1.0202476 0.0063359086 0)
(1.0167858 0.0067902251 0)
(1.0151952 0.0052030972 0)
(1.0150938 0.003868554 0)
(1.0150734 0.003553618 0)
(1.0146351 0.0036019222 0)
(1.0138951 0.0035694166 0)
(1.0131003 0.0032982623 0)
(1.0124398 0.002850961 0)
(1.0119391 0.0023440941 0)
(1.0115523 0.0018446446 0)
(1.0112345 0.0013821865 0)
(1.0109663 0.00099450024 0)
(1.0107361 0.00070384895 0)
(1.0105349 0.0004969054 0)
(1.0103543 0.00033879431 0)
(1.0102 0.00020459545 0)
(1.0100838 7.0062996e-05 0)
(1.0193024 0.0031460893 0)
(1.0150567 0.0088678218 0)
(1.0107709 0.0060793088 0)
(1.0146234 -0.0013117758 0)
(1.0223165 -0.0022148796 0)
(1.0247828 0.0029424228 0)
(1.0213783 0.0074481123 0)
(1.0166579 0.008075837 0)
(1.014636 0.0057388614 0)
(1.0149118 0.0038449504 0)
(1.015426 0.0034525295 0)
(1.0151043 0.003710197 0)
(1.0143485 0.0039131723 0)
(1.013406 0.0037352827 0)
(1.0126234 0.003262262 0)
(1.0120688 0.0026868759 0)
(1.0116709 0.0021221897 0)
(1.0113569 0.0016058589 0)
(1.0110938 0.0011717189 0)
(1.010867 0.00084429093 0)
(1.0106643 0.00061259941 0)
(1.0104783 0.00044910013 0)
(1.0103037 0.00031685424 0)
(1.0101507 0.00019733916 0)
(1.0100337 6.7805977e-05 0)
(1.018253 0.0054227054 0)
(1.0151417 0.0097586929 0)
(1.0075696 0.0051761156 0)
(1.0126302 -0.0019173994 0)
(1.0227596 -0.0041130547 0)
(1.0271975 0.0021488153 0)
(1.0228136 0.0090481383 0)
(1.0162937 0.0097573393 0)
(1.0136628 0.0064213642 0)
(1.0144573 0.0036106951 0)
(1.0157539 0.0031431268 0)
(1.0157176 0.0037373168 0)
(1.0148925 0.0042236148 0)
(1.0137789 0.0042358185 0)
(1.0128024 0.0037443429 0)
(1.0121625 0.0030716972 0)
(1.011754 0.0024190536 0)
(1.0114521 0.0018380404 0)
(1.0112021 0.0013532266 0)
(1.010986 0.00098513601 0)
(1.0107914 0.00072323632 0)
(1.0106094 0.00054347315 0)
(1.010432 0.00041282993 0)
(1.01026 0.0003023151 0)
(1.0101051 0.0001911053 0)
(1.009987 6.5049062e-05 0)
(1.0125695 0.004185995 0)
(1.014456 0.012147774 0)
(1.0049716 0.0075167715 0)
(1.0102084 -0.0049271178 0)
(1.0242056 -0.0068455916 0)
(1.0296732 0.0022877028 0)
(1.0243574 0.010889316 0)
(1.015652 0.011937897 0)
(1.0121759 0.0071852336 0)
(1.0136377 0.0031908065 0)
(1.0160377 0.0024762257 0)
(1.0165554 0.0036392038 0)
(1.0155577 0.0045556314 0)
(1.0142082 0.0048294066 0)
(1.0129796 0.00433053 0)
(1.0122076 0.0035189265 0)
(1.0117854 0.0027386411 0)
(1.0115096 0.0020767129 0)
(1.011284 0.0015389809 0)
(1.0110848 0.0011283638 0)
(1.0109047 0.00083188895 0)
(1.0107356 0.0006280756 0)
(1.0105679 0.00049006983 0)
(1.0103945 0.00038455141 0)
(1.0102221 0.00029121574 0)
(1.0100629 0.00018382164 0)
(1.0099439 6.1547934e-05 0)
(0.99980433 0.0073568969 0)
(1.0019605 0.012859001 0)
(1.0022046 0.0066982165 0)
(1.0076526 -0.0061181009 0)
(1.0245712 -0.0095318162 0)
(1.0320261 0.00055711214 0)
(1.0264017 0.013721213 0)
(1.0144878 0.014775188 0)
(1.0099653 0.0081847269 0)
(1.0123567 0.0024106261 0)
(1.016281 0.0014178111 0)
(1.0176484 0.0032636257 0)
(1.0165095 0.0049293194 0)
(1.01469 0.0055468234 0)
(1.0131329 0.0050762107 0)
(1.0121763 0.0040540412 0)
(1.0117438 0.003085756 0)
(1.0115162 0.0023174181 0)
(1.0113328 0.0017244192 0)
(1.0111582 0.0012744793 0)
(1.0109961 0.00094189179 0)
(1.0108457 0.00070739161 0)
(1.0106966 0.00055155964 0)
(1.0105377 0.00044578414 0)
(1.0103653 0.00036138703 0)
(1.0101888 0.00027827689 0)
(1.0100245 0.00017387705 0)
(1.009905 5.7309046e-05 0)
(0.9866987 0.0074025582 0)
(0.98473362 0.015893626 0)
(0.98940801 0.0095736961 0)
(1.0049904 -0.010229212 0)
(1.0266298 -0.013545973 0)
(1.0350279 0.0010535389 0)
(1.0277645 0.016623961 0)
(1.0128628 0.018298153 0)
(1.0069004 0.0093848292 0)
(1.0104447 0.0013498456 0)
(1.0164533 -0.00030679305 0)
(1.0190886 0.0025942921 0)
(1.0178491 0.0053122958 0)
(1.015359 0.0064579274 0)
(1.0132199 0.0060109193 0)
(1.0120405 0.0047195357 0)
(1.0115923 0.0034648423 0)
(1.0114532 0.0025495873 0)
(1.0113423 0.0018997026 0)
(1.0112048 0.001419731 0)
(1.011062 0.0010556517 0)
(1.0109309 0.000786745 0)
(1.0108063 0.00060311229 0)
(1.0106728 0.00048539589 0)
(1.010518 0.00040511682 0)
(1.0103434 0.00033828188 0)
(1.0101599 0.00025963506 0)
(1.0099907 0.00016093538 0)
(1.0098706 5.2652263e-05 0)
(0.97243279 0.010068665 0)
(0.97010355 0.017423635 0)
(0.97516554 0.0073156687 0)
(0.99813279 -0.011489834 0)
(1.027521 -0.016995853 0)
(1.0399944 -0.00097789148 0)
(1.0282066 0.02118413 0)
(1.0097719 0.022863538 0)
(1.0025845 0.010832048 0)
(1.007812 -0.00030613138 0)
(1.0165295 -0.0026311231 0)
(1.0209549 0.0013742057 0)
(1.0197159 0.0057469202 0)
(1.0162888 0.0076487386 0)
(1.0132697 0.0072249355 0)
(1.011735 0.0055442325 0)
(1.0112871 0.0038829594 0)
(1.0112925 0.0027566287 0)
(1.0113049 0.0020454117 0)
(1.011227 0.0015543374 0)
(1.0111048 0.0011729036 0)
(1.0109881 0.00087134172 0)
(1.010887 0.00065214037 0)
(1.0107856 0.00050968755 0)
(1.0106629 0.00042272666 0)
(1.0105086 0.00036430408 0)
(1.0103284 0.00031072021 0)
(1.0101355 0.00023535969 0)
(1.0099618 0.00014645922 0)
(1.0098405 4.8193732e-05 0)
(0.95629102 0.011025907 1.6056832e-24)
(0.95411088 0.019285071 0)
(0.96194129 0.0084981857 0)
(0.99074276 -0.017867917 0)
(1.0273452 -0.022291268 0)
(1.0424386 -0.00046291691 0)
(1.0311771 0.024831993 0)
(1.0054217 0.028019413 0)
(0.99682286 0.01269574 0)
(1.0041591 -0.0024265282 0)
(1.016554 -0.0060418594 0)
(1.0233938 -0.00031529841 0)
(1.0222414 0.0061095202 0)
(1.0175891 0.009245903 0)
(1.0132783 0.0088418091 0)
(1.0111684 0.0065842854 0)
(1.0107664 0.004347603 0)
(1.0109931 0.0029095514 0)
(1.011211 0.002131298 0)
(1.0112316 0.0016589904 0)
(1.011134 0.001289186 0)
(1.0110209 0.00096605091 0)
(1.0109343 0.00070681613 0)
(1.0108644 0.00052741359 0)
(1.0107826 0.00042006224 0)
(1.0106658 0.00036024538 0)
(1.0105086 0.00032069457 0)
(1.0103191 0.00027597432 0)
(1.0101169 0.00020955839 0)
(1.0099376 0.00013275678 0)
(1.0098142 4.4628696e-05 0)
(0.93784658 0.013357335 -4.8318873e-25)
(0.93664323 0.021278926 -1.6765739e-24)
(0.94803604 0.0055553769 0)
(0.9816165 -0.021858009 0)
(1.0248014 -0.026534212 0)
(1.0425862 -0.0053758496 0)
(1.0395438 0.03206405 0)
(1.0024428 0.033865135 0)
(0.98939014 0.01446359 0)
(0.9995298 -0.0053851606 0)
(1.0164033 -0.010310719 0)
(1.0265014 -0.0029384114 0)
(1.025647 0.0065735182 0)
(1.0193496 0.011330685 0)
(1.013242 0.011038177 0)
(1.0102599 0.0079182024 0)
(1.0099127 0.0048604072 0)
(1.0105051 0.002969821 0)
(1.0110486 0.0021111626 0)
(1.0112321 0.001703344 0)
(1.011168 0.0013937626 0)
(1.0110414 0.0010743955 0)
(1.0109498 0.00077726781 0)
(1.0109018 0.00054928782 0)
(1.0108628 0.00040543334 0)
(1.0107958 0.00032936228 0)
(1.0106812 0.00029294007 0)
(1.0105174 0.00026939049 0)
(1.0103156 0.00023521349 0)
(1.0101037 0.00018560181 0)
(1.0099172 0.00012175576 0)
(1.0097905 4.2517659e-05 0)
(0.91783538 0.015163339 4.8509168e-25)
(0.91731507 0.02334177 9.372524e-24)
(0.93094869 0.0050782402 0)
(0.97208267 -0.027793828 0)
(1.0173706 -0.031674596 0)
(1.0394922 -0.0031459936 0)
(1.0384507 0.03645612 0)
(1.0035508 0.042084469 0)
(0.98135297 0.016905827 0)
(0.99349248 -0.0093202802 0)
(1.0163189 -0.01618817 0)
(1.0304096 -0.0062133264 0)
(1.0300655 0.0068043995 0)
(1.0217369 0.014119337 0)
(1.0131299 0.013975705 0)
(1.0088889 0.0096963889 0)
(1.0085884 0.0053973086 0)
(1.0097523 0.0028962415 0)
(1.0107949 0.0019171043 0)
(1.0112407 0.0016383791 0)
(1.0112341 0.0014677066 0)
(1.0110706 0.0011993865 0)
(1.0109428 0.00087683288 0)
(1.0108949 0.00059032193 0)
(1.0108926 0.0003907222 0)
(1.010882 0.00027883031 0)
(1.0108261 0.00023021751 0)
(1.01071 0.0002171799 0)
(1.0105347 0.00021258122 0)
(1.0103186 0.00019693102 0)
(1.0100951 0.0001659314 0)
(1.0098995 0.0001148977 0)
(1.0097684 4.2212314e-05 0)
(0.89753101 0.01715509 0)
(0.89731479 0.025524114 -9.3878407e-24)
(0.91248248 0.0029719322 0)
(0.95771241 -0.033144808 0)
(1.0078691 -0.034529335 0)
(1.0290279 -0.0048068624 0)
(1.0185611 0.044310077 0)
(0.99394994 0.051645662 0)
(0.97117744 0.019539692 0)
(0.98637546 -0.014038235 0)
(1.0158439 -0.023122625 0)
(1.0352195 -0.010916764 0)
(1.0357815 0.0072622092 0)
(1.0248118 0.017677867 0)
(1.0129293 0.017906233 0)
(1.0069113 0.012007852 0)
(1.0066291 0.0060084792 0)
(1.0086218 0.0025825278 0)
(1.0104284 0.0014661256 0)
(1.0112891 0.0014156846 0)
(1.0113484 0.0014786965 0)
(1.0111398 0.0013427289 0)
(1.0109319 0.0010240581 0)
(1.0108464 0.00067086662 0)
(1.0108632 0.00039264311 0)
(1.0109096 0.000220345 0)
(1.0109245 0.00013946454 0)
(1.0108747 0.00012192654 0)
(1.0107503 0.00013773412 0)
(1.0105594 0.00015730982 0)
(1.010327 0.0001646786 0)
(1.0100897 0.00015301511 0)
(1.0098834 0.00011315898 0)
(1.009747 4.3853865e-05 0)
(0.87723357 0.019016359 -1.0794038e-24)
(0.87782863 0.02758968 0)
(0.89332191 0.0013089556 -2.8093222e-23)
(0.94062005 -0.038574738 0)
(0.99465955 -0.03961458 0)
(1.0167663 -0.0004809976 0)
(0.99879035 0.051849044 0)
(0.96943702 0.060719538 0)
(0.95730462 0.024914445 0)
(0.97691932 -0.020342453 0)
(1.0153495 -0.031986331 0)
(1.0407792 -0.016222427 0)
(1.0427088 0.0072402527 0)
(1.0287798 0.02236257 0)
(1.0125261 0.023064603 0)
(1.0041122 0.015083222 0)
(1.0038423 0.0066378519 0)
(1.0069806 0.0019718378 0)
(1.009909 0.00061633553 0)
(1.0114084 0.00091848175 0)
(1.0116283 0.0014170366 0)
(1.0112938 0.0015002114 0)
(1.010948 0.0012366734 0)
(1.0107672 0.00081871169 0)
(1.0107697 0.00043488583 0)
(1.0108637 0.00017041612 0)
(1.0109579 2.9795629e-05 0)
(1.0109924 -1.0945991e-05 0)
(1.0109393 1.1382753e-05 0)
(1.0108004 6.0591298e-05 0)
(1.0105906 0.00011003653 0)
(1.01034 0.00014159672 0)
(1.0100866 0.00014839719 0)
(1.0098686 0.0001168173 0)
(1.009725 4.749675e-05 0)
(0.85795856 0.020611126 -1.0239411e-23)
(0.85939177 0.029578469 2.3546806e-23)
(0.87450303 -0.00071082819 2.8092285e-23)
(0.92184712 -0.044294526 5.0975775e-23)
(0.97794276 -0.044126445 -1.0750672e-22)
(1.0021595 0.00015690254 0)
(0.98193502 0.061746871 0)
(0.94872064 0.06859074 0)
(0.94100253 0.027788886 0)
(0.96553816 -0.026619064 0)
(1.0138303 -0.041944054 0)
(1.0471011 -0.023528393 0)
(1.0507295 0.0077204076 0)
(1.0334033 0.028170229 0)
(1.0118813 0.029717909 0)
(1.0002669 0.019028086 0)
(0.99996315 0.0073914495 0)
(1.00467 0.00087517302 0)
(1.0091961 -0.0007408644 0)
(1.0116347 2.1795818e-05 0)
(1.012141 0.001178071 0)
(1.0116135 0.0016594022 0)
(1.0110469 0.0015403411 0)
(1.0106772 0.0010657002 0)
(1.0106103 0.00054910361 0)
(1.0107315 0.00015244346 0)
(1.0109062 -8.3717447e-05 0)
(1.0110409 -0.00017529524 0)
(1.0110837 -0.0001636034 0)
(1.0110196 -9.5286305e-05 0)
(1.0108593 -6.6159179e-06 0)
(1.0106268 7.5198707e-05 0)
(1.0103558 0.00013063879 0)
(1.0100855 0.00015086429 0)
(1.0098535 0.0001260351 0)
(1.0097017 5.3027367e-05 0)
(0.8408143 0.021869662 1.5840922e-23)
(0.84296299 0.031256095 -3.6734226e-23)
(0.85686143 -0.0025931249 0)
(0.90207857 -0.049960369 1.8706736e-23)
(0.95830679 -0.04846503 1.0697823e-22)
(0.98538906 0.00030882935 1.7338531e-22)
(0.96409636 0.070461207 8.947472e-23)
(0.9305125 0.074974711 0)
(0.92481822 0.030854565 0)
(0.95492829 -0.036100181 0)
(1.012149 -0.054538141 0)
(1.054503 -0.030692289 0)
(1.059759 0.0075422398 0)
(1.0383269 0.03583606 0)
(1.0104305 0.038237841 0)
(0.99504138 0.024105893 0)
(0.99472333 0.0081330342 0)
(1.0015125 -0.00073293712 0)
(1.0082128 -0.0028544092 0)
(1.0120272 -0.0014017775 0)
(1.012971 0.00068322666 0)
(1.0122492 0.0018490998 0)
(1.0112594 0.0019358129 0)
(1.0106213 0.0014677158 0)
(1.0103875 0.00077705742 0)
(1.0104981 0.00019663149 0)
(1.010749 -0.00018212921 0)
(1.0109972 -0.00036103813 0)
(1.0111575 -0.00038408041 0)
(1.0111964 -0.00031049924 0)
(1.0111131 -0.00018973428 0)
(1.0109255 -5.7952988e-05 0)
(1.0106666 5.5639148e-05 0)
(1.010371 0.00013268251 0)
(1.0100829 0.00016466963 0)
(1.0098369 0.00014093103 0)
(1.0096762 6.0207661e-05 0)
(0.82697178 0.022845697 -1.5058783e-25)
(0.82933517 0.032599561 7.8667257e-24)
(0.84113316 -0.0044665573 -1.7092186e-23)
(0.88242342 -0.05523072 -4.0463776e-23)
(0.9371462 -0.053292427 -7.2102367e-23)
(0.9650672 0.0020498956 1.750149e-22)
(0.94694585 0.077417741 1.5958958e-22)
(0.91190336 0.084074009 -1.1673799e-23)
(0.90826032 0.028383024 0)
(0.94373531 -0.045073615 0)
(1.0113766 -0.068976515 0)
(1.0646212 -0.04275677 0)
(1.0722347 0.0085670494 0)
(1.0432662 0.045010628 0)
(1.0074842 0.048740796 0)
(0.98799987 0.030514325 0)
(0.98772606 0.0089977542 0)
(0.99730402 -0.0031912702 0)
(1.00691 -0.0058278121 0)
(1.0126192 -0.0035921683 0)
(1.0142579 -0.00015982074 0)
(1.013318 0.0020208008 0)
(1.0117226 0.0025276821 0)
(1.0106028 0.0020566157 0)
(1.0101206 0.0011837238 0)
(1.0101497 0.00034699853 0)
(1.0104619 -0.0002398026 0)
(1.0108351 -0.00055426297 0)
(1.0111367 -0.00064494239 0)
(1.0113054 -0.00058601757 0)
(1.0113277 -0.00044231675 0)
(1.0112159 -0.00026435144 0)
(1.010997 -9.009849e-05 0)
(1.0107076 5.3239915e-05 0)
(1.0103879 0.00014914873 0)
(1.0100791 0.00018824832 0)
(1.0098181 0.0001608763 0)
(1.0096481 6.8689708e-05 0)
(0.81656462 0.023398766 -5.4069077e-24)
(0.81906308 0.033515241 2.5625461e-25)
(0.82844039 -0.0060822841 0)
(0.86339112 -0.060060938 2.4390595e-23)
(0.91479069 -0.057592906 -8.2499528e-23)
(0.94398471 0.0025715111 0)
(0.92688474 0.086105005 -3.9146725e-22)
(0.89529148 0.092120801 -3.8973477e-22)
(0.8899505 0.032573387 0)
(0.93512254 -0.05753589 0)
(1.0092259 -0.084078312 0)
(1.0733661 -0.051541031 0)
(1.0901202 0.00676462 0)
(1.0529932 0.056284668 0)
(1.0036417 0.061677521 0)
(0.97834556 0.038116139 0)
(0.97871597 0.0098399784 0)
(0.99178656 -0.0064730939 0)
(1.0052011 -0.010080243 0)
(1.0134829 -0.0066597639 0)
(1.0161457 -0.0015381324 0)
(1.0149923 0.0021638683 0)
(1.0125832 0.0033642711 0)
(1.0106889 0.0029375448 0)
(1.0098008 0.0018358878 0)
(1.0096699 0.00065369914 0)
(1.0100177 -0.00022229684 0)
(1.0105251 -0.00073759892 0)
(1.0109934 -0.00093882878 0)
(1.0113224 -0.00092015734 0)
(1.0114807 -0.0007683542 0)
(1.0114737 -0.00054971727 0)
(1.011326 -0.00031492898 0)
(1.0110709 -0.00010069814 0)
(1.0107481 6.8248287e-05 0)
(1.0104026 0.00017897955 0)
(1.0100728 0.00022014599 0)
(1.0097964 0.00018503044 0)
(1.0096169 7.8111149e-05 0)
(0.81093351 0.023507745 0)
(0.81301392 0.034015876 0)
(0.81912986 -0.0076269422 -2.6554819e-25)
(0.84684844 -0.064134155 0)
(0.89188324 -0.061658532 4.7821248e-25)
(0.92108211 0.0037182845 1.9466987e-22)
(0.90741303 0.093726478 6.5771364e-22)
(0.8775821 0.10096548 -1.0667643e-22)
(0.87327238 0.036742149 0)
(0.91937296 -0.067921415 0)
(1.006706 -0.098591957 0)
(1.0754942 -0.067872875 0)
(1.0972684 0.006516489 0)
(1.0694842 0.068241159 0)
(1.0042648 0.076477708 0)
(0.96636294 0.047312837 0)
(0.9670489 0.010519475 0)
(0.9848522 -0.011053145 0)
(1.0030044 -0.015580239 0)
(1.014668 -0.011037835 0)
(1.0188142 -0.0035081693 0)
(1.0174705 0.0021803517 0)
(1.014001 0.0045209557 0)
(1.0109968 0.00424165 0)
(1.009405 0.0028120093 0)
(1.0090489 0.0012088968 0)
(1.009377 -9.3467422e-05 0)
(1.0100306 -0.00089451908 0)
(1.0106961 -0.0012597584 0)
(1.0112199 -0.0013125638 0)
(1.011548 -0.0011697741 0)
(1.0116775 -0.0009195485 0)
(1.0116303 -0.00062668482 0)
(1.0114399 -0.00033866963 0)
(1.0111448 -8.9216223e-05 0)
(1.0107881 0.00010157028 0)
(1.0104148 0.00022084833 0)
(1.0100632 0.00025928699 0)
(1.0097715 0.00021241699 0)
(1.0095825 8.8084581e-05 0)
(0.81127836 0.034118181 -6.2213983e-25)
(0.8105557 0.023304008 0)
(0.81339797 -0.0087374101 -9.0936325e-24)
(0.83341638 -0.067377467 -1.2984089e-24)
(0.870243 -0.065143343 -2.7769442e-23)
(0.89778741 0.0046181349 9.5884975e-24)
(0.88680512 0.10133273 1.3794741e-24)
(0.86092412 0.10942175 -2.5276319e-22)
(0.85641611 0.041253872 7.756219e-23)
(0.9020091 -0.074923893 0)
(0.99568155 -0.11576696 -8.244198e-22)
(1.0738824 -0.072896609 0)
(1.097456 0.00054589918 0)
(1.0871573 0.084113127 0)
(1.0089111 0.094547372 0)
(0.95483969 0.058100827 0)
(0.95257559 0.011165306 0)
(0.97608123 -0.016982291 0)
(1.00033 -0.022981906 0)
(1.016226 -0.016661538 0)
(1.0224521 -0.0064625901 0)
(1.0210232 0.0021435046 0)
(1.0161665 0.0060460255 0)
(1.011626 0.0061257691 0)
(1.0089778 0.0042736792 0)
(1.0082002 0.0020625708 0)
(1.0085025 0.00021381754 0)
(1.0093054 -0.00099270787 0)
(1.0102056 -0.001601607 0)
(1.0109681 -0.0017659376 0)
(1.0115048 -0.0016514906 0)
(1.0118048 -0.0013788625 0)
(1.0118896 -0.001032076 0)
(1.0117931 -0.00066983341 0)
(1.0115549 -0.00033467517 0)
(1.0112171 -5.5574766e-05 0)
(1.0108254 0.00015134796 0)
(1.0104236 0.00027308286 0)
(1.0100501 0.00030350001 0)
(1.0097433 0.00024174332 0)
(1.0095451 9.829303e-05 0)
(0.81136424 -0.0092666108 8.1254511e-24)
(0.81519178 0.033992447 0)
(0.81637473 0.022630842 -3.1200319e-24)
(0.8212886 -0.069711536 1.2974758e-24)
(0.85109733 -0.067751576 1.551666e-23)
(0.87519763 0.005427032 3.4678134e-22)
(0.86713889 0.10804776 -6.0873511e-22)
(0.84520554 0.11741429 -7.5609966e-23)
(0.84094642 0.045719208 1.5965822e-23)
(0.88409963 -0.083427218 5.6042624e-23)
(0.9786321 -0.13078497 -9.0454758e-22)
(1.0644046 -0.088571302 8.6027656e-22)
(1.0935555 0.0044877076 0)
(1.0798095 0.097636572 0)
(1.006645 0.11785953 0)
(0.94341018 0.072558339 0)
(0.93507433 0.011016756 0)
(0.96572649 -0.02457779 0)
(0.99695198 -0.032025386 0)
(1.0182458 -0.024279612 0)
(1.0272371 -0.010288901 0)
(1.0258965 0.0017533123 0)
(1.0193509 0.0081009203 0)
(1.0126909 0.0087619937 0)
(1.0085373 0.0064163719 0)
(1.0070602 0.003339106 0)
(1.0073141 0.00076649644 0)
(1.0082819 -0.0010264901 0)
(1.0094749 -0.0019613747 0)
(1.0105318 -0.0022858447 0)
(1.0113253 -0.0022222939 0)
(1.0118344 -0.0019360611 0)
(1.0120836 -0.001538242 0)
(1.0121109 -0.0011021131 0)
(1.011958 -0.00067822359 0)
(1.0116682 -0.00030325354 0)
(1.0112863 -6.2837474e-07 0)
(1.0108585 0.00021489643 0)
(1.0104281 0.00033346851 0)
(1.0100331 0.00035143572 0)
(1.0097115 0.00027235765 0)
(1.0095048 0.00010849144 0)
(0.81377125 -0.070868191 5.2560906e-24)
(0.81597103 -0.009450706 2.3153416e-23)
(0.82552056 0.033401288 0)
(0.82587876 0.021524528 -2.4964151e-25)
(0.83278533 -0.069769963 -7.8960405e-24)
(0.85467726 0.006177025 -1.5423538e-22)
(0.84908487 0.11375042 0)
(0.83155541 0.12442234 7.5087357e-23)
(0.8277464 0.050110781 -2.2833233e-23)
(0.86630985 -0.091866957 -5.5320004e-23)
(0.9594723 -0.14624278 9.7368118e-22)
(1.0486865 -0.10604809 9.4194344e-22)
(1.0821 0.0034099455 0)
(1.0521723 0.11520576 0)
(0.9880754 0.14113609 0)
(0.92812684 0.089854711 0)
(0.91602829 0.012464505 0)
(0.9525847 -0.034469664 0)
(0.99325846 -0.043549381 0)
(1.0206466 -0.03339565 0)
(1.033355 -0.015762783 0)
(1.0324681 0.0012735433 0)
(1.0237847 0.010657627 0)
(1.0143628 0.012390867 0)
(1.0080899 0.0094473205 0)
(1.0055794 0.0052202841 0)
(1.005666 0.0015956447 0)
(1.0068829 -0.00092117252 0)
(1.0084345 -0.0023424008 0)
(1.00987 -0.0028930701 0)
(1.010983 -0.0028996421 0)
(1.0117465 -0.0026043812 0)
(1.0121947 -0.0021553828 0)
(1.0123756 -0.0016438325 0)
(1.0123361 -0.0011288824 0)
(1.0121217 -0.00065258319 0)
(1.0117779 -0.00024568087 0)
(1.011351 7.2903849e-05 0)
(1.0108867 0.00028983726 0)
(1.0104281 0.00039960623 0)
(1.0100119 0.00040194957 0)
(1.0096765 0.00030327111 0)
(1.0094618 0.00011845727 0)
(0.81962052 -0.070918363 -1.031627e-23)
(0.81286162 -0.070972674 -6.2084127e-24)
(0.82615086 -0.0090742198 -2.0612369e-23)
(0.83965074 0.032367993 -1.1464662e-23)
(0.83829514 0.020037816 1.6994009e-23)
(0.83621096 0.0066650332 1.4614384e-22)
(0.83402014 0.11829919 8.2782553e-23)
(0.82083107 0.1302833 0)
(0.81736914 0.053970241 2.4590687e-23)
(0.84945936 -0.10000023 -5.6697719e-23)
(0.93847141 -0.1621306 0)
(1.0299829 -0.12068267 -1.2539209e-21)
(1.0690695 -0.0092361967 0)
(1.0334633 0.13221686 0)
(0.96461997 0.16139616 0)
(0.91204722 0.10873289 0)
(0.8971345 0.013035728 0)
(0.93763538 -0.045750596 0)
(0.988582 -0.056979079 0)
(1.023659 -0.045267 0)
(1.0409017 -0.022265029 0)
(1.0409379 2.3536791e-06 0)
(1.0298968 0.014073486 0)
(1.0167665 0.0172408 0)
(1.0076318 0.013664236 0)
(1.0036612 0.0078825199 0)
(1.0034286 0.0028190381 0)
(1.0049766 -0.00068929726 0)
(1.0069974 -0.0027545601 0)
(1.0089239 -0.003598567 0)
(1.0104449 -0.0037068826 0)
(1.0115226 -0.0034040327 0)
(1.0122088 -0.0028976781 0)
(1.0125726 -0.0023053063 0)
(1.0126731 -0.001695307 0)
(1.0125604 -0.0011136176 0)
(1.0122813 -0.00059487143 0)
(1.0118822 -0.00016454073 0)
(1.0114098 0.00016149072 0)
(1.0109094 0.00037337795 0)
(1.0104231 0.00046960883 0)
(1.0099869 0.00045284016 0)
(1.0096386 0.00033369604 0)
(1.0094165 0.0001280793 0)
(0.82186505 0.0066745251 6.8590659e-24)
(0.81182482 -0.070926364 8.835985e-24)
(0.81734824 -0.070219354 3.4997982e-23)
(0.84102889 -0.0083080983 1.1869158e-23)
(0.85568173 0.030981382 -4.8039592e-23)
(0.8540626 0.018281272 -8.052812e-24)
(0.82319257 0.12155771 -1.5620499e-22)
(0.81398384 0.13492768 -6.7256567e-23)
(0.81047102 0.057345192 -1.324348e-22)
(0.83545275 -0.10741395 2.6136262e-23)
(0.91603136 -0.17725202 -1.148377e-21)
(1.0073511 -0.13708946 7.5383417e-22)
(1.0503983 -0.014707093 0)
(1.02405 0.13692331 -1.2588027e-21)
(0.94463934 0.18326237 1.7792349e-22)
(0.89838398 0.11907866 0)
(0.88103911 0.017754231 0)
(0.92121367 -0.060584535 0)
(0.98347444 -0.073587041 0)
(1.0270264 -0.058454437 0)
(1.050029 -0.031352536 0)
(1.0517533 -0.0012361634 0)
(1.0378726 0.018050926 0)
(1.0201604 0.023697223 0)
(1.0071261 0.019346934 0)
(1.0011551 0.011585819 0)
(1.0004504 0.0045410873 0)
(1.0023882 -0.0003186335 0)
(1.0050604 -0.003199232 0)
(1.00763 -0.0044715842 0)
(1.0096798 -0.0046925569 0)
(1.0111464 -0.0043667695 0)
(1.0121163 -0.0037856155 0)
(1.0126925 -0.0030996328 0)
(1.012957 -0.0023868493 0)
(1.0129698 -0.0016948632 0)
(1.0127802 -0.0010589964 0)
(1.0124345 -0.0005081804 0)
(1.0119797 -6.3642127e-05 0)
(1.0114619 0.00026163682 0)