/*--------------------------------*- C++ -*----------------------------------*\
| =========                 |                                                 |
| \\      /  F ield         | OpenFOAM: The Open Source CFD Toolbox           |
|  \\    /   O peration     | Version:  5.0                                   |
|   \\  /    A nd           | Web:      www.OpenFOAM.org                      |
|    \\/     M anipulation  |                                                 |
\*---------------------------------------------------------------------------*/
FoamFile
{
    version     2.0;
    format      ascii;
    class       volVectorField;
    location    "280";
    object      U_0;
}
// * * * * * * * * * * * * * * * * * * * * * * * * * * * * * * * * * * * * * //

dimensions      [0 1 -1 0 0 0 0];

internalField   nonuniform List<vector> 
9520
(
(1.0143261 0.00016643705 0)
(1.0144247 0.00048771404 0)
(1.0138313 0.00016429681 0)
(1.0145985 0.00078598705 0)
(1.013932 0.00048255464 0)
(1.0136421 0.000162759 0)
(1.0148312 0.0010607183 0)
(1.0141109 0.00077952927 0)
(1.0137422 0.0004776567 0)
(1.0133344 0.00016517592 0)
(1.0151084 0.00131129 0)
(1.0143527 0.0010545462 0)
(1.0139214 0.00077195595 0)
(1.0134349 0.00048367492 0)
(1.0130945 0.00017127706 0)
(1.0154174 0.0015373796 0)
(1.0146436 0.0013077393 0)
(1.0141645 0.0010452987 0)
(1.0136149 0.00078145102 0)
(1.0131958 0.00050121118 0)
(1.0128183 0.00017746588 0)
(1.0157471 0.0017389218 0)
(1.0149708 0.0015380828 0)
(1.0144584 0.0012994298 0)
(1.0138586 0.0010589844 0)
(1.0133765 0.00081003148 0)
(1.0129195 0.00052064829 0)
(1.0125628 0.00017920346 0)
(1.016088 0.0019153228 0)
(1.0153241 0.001745509 0)
(1.0147906 0.0015330466 0)
(1.0141536 0.0013190625 0)
(1.0136206 0.0010990377 0)
(1.0130987 0.00084374821 0)
(1.0126628 0.00052808862 0)
(1.0123068 0.00017571233 0)
(1.0164328 0.0020657147 0)
(1.0156952 0.0019302651 0)
(1.0151506 0.0017456767 0)
(1.0144895 0.0015613261 0)
(1.013916 0.0013703321 0)
(1.0133409 0.0011487883 0)
(1.0128394 0.00085938648 0)
(1.0124026 0.00051977886 0)
(1.0120726 0.00016907117 0)
(1.016777 0.0021883018 0)
(1.0160789 0.0020926128 0)
(1.0155291 0.0019373216 0)
(1.0148557 0.0017855817 0)
(1.0142535 0.0016249682 0)
(1.0136337 0.0014365349 0)
(1.0130784 0.0011756179 0)
(1.0125725 0.00084918721 0)
(1.0121636 0.0005006965 0)
(1.0118548 0.00016270626 0)
(1.0171212 0.0022774499 0)
(1.0164736 0.0022343118 0)
(1.0159174 0.0021088281 0)
(1.0152419 0.0019913914 0)
(1.0146231 0.001863542 0)
(1.0139676 0.0017094573 0)
(1.0133677 0.0014768548 0)
(1.012804 0.0011670167 0)
(1.0123262 0.00081973819 0)
(1.011941 0.00048103756 0)
(1.0116527 0.00015899979 0)
(1.0174693 0.0023408534 0)
(1.0168833 0.0023616888 0)
(1.0163082 0.0022658173 0)
(1.0156367 0.0021787966 0)
(1.0150148 0.0020857467 0)
(1.0143337 0.00196918 0)
(1.0136967 0.001765587 0)
(1.0130844 0.0014748905 0)
(1.012548 0.0011292616 0)
(1.0120957 0.00078792733 0)
(1.0117348 0.00046853108 0)
(1.0114607 0.00015800208 0)
(1.0178131 0.0023745031 0)
(1.0173102 0.0024788504 0)
(1.0166907 0.0024160588 0)
(1.016027 0.0023498048 0)
(1.0154184 0.0022905135 0)
(1.0147247 0.0022160018 0)
(1.0140573 0.0020440618 0)
(1.0134019 0.0017741705 0)
(1.012818 0.0014340477 0)
(1.0123055 0.0010864591 0)
(1.0118819 0.00076675707 0)
(1.0115396 0.00046436814 0)
(1.0112759 0.00015774805 0)
(1.0181237 0.0024051465 0)
(1.0176752 0.0026009567 0)
(1.0170098 0.0025786681 0)
(1.0163918 0.0025035719 0)
(1.015822 0.0024741403 0)
(1.0151359 0.0024482597 0)
(1.0144433 0.002313848 0)
(1.0137481 0.0020669179 0)
(1.0131238 0.0017344115 0)
(1.0125597 0.0013827092 0)
(1.0120807 0.0010580115 0)
(1.0116793 0.00075894412 0)
(1.0113522 0.00046351417 0)
(1.0110983 0.00015562441 0)
(1.0184379 0.0023978951 0)
(1.0179854 0.0027711952 0)
(1.0172636 0.0027587984 0)
(1.0167226 0.0026379215 0)
(1.016217 0.0026264717 0)
(1.0155678 0.0026594826 0)
(1.0148522 0.0025760216 0)
(1.0141158 0.0023554276 0)
(1.0134557 0.0020309676 0)
(1.0128487 0.0016777796 0)
(1.0123204 0.0013476923 0)
(1.0118666 0.0010474228 0)
(1.0114848 0.00075730022 0)
(1.0111717 0.00045827725 0)
(1.0109307 0.00014970671 0)
(1.0187583 0.0024514005 0)
(1.018272 0.0029235754 0)
(1.0175347 0.0029185022 0)
(1.0170507 0.0027302669 0)
(1.0166303 0.0027334744 0)
(1.0160319 0.002838959 0)
(1.0152854 0.0028318985 0)
(1.0145 0.0026432321 0)
(1.013805 0.002324831 0)
(1.0131634 0.001971736 0)
(1.0125932 0.0016378416 0)
(1.0120914 0.0013346746 0)
(1.011661 0.001044693 0)
(1.0112978 0.00074966951 0)
(1.0110008 0.00044237227 0)
(1.0107774 0.00013950319 0)
(1.019107 0.002380045 0)
(1.018537 0.0031585002 0)
(1.0177227 0.0030472826 0)
(1.0174002 0.0027688532 0)
(1.017071 0.0027547002 0)
(1.0165365 0.002983807 0)
(1.0157465 0.003088446 0)
(1.0148972 0.0029379116 0)
(1.0141615 0.0026181267 0)
(1.0134947 0.0022640122 0)
(1.0128908 0.0019294455 0)
(1.0123464 0.0016235474 0)
(1.0118712 0.0013311167 0)
(1.0114636 0.0010340781 0)
(1.0111205 0.00072517931 0)
(1.0108435 0.0004135589 0)
(1.0106417 0.00012606441 0)
(1.019423 0.0025978687 0)
(1.0187668 0.0033450927 0)
(1.0178503 0.0031686816 0)
(1.0176849 0.0027398073 0)
(1.0175048 0.0027357754 0)
(1.0170761 0.003078031 0)
(1.0162494 0.0033481838 0)
(1.0153027 0.0032496805 0)
(1.0145135 0.0029153754 0)
(1.0138332 0.0025532624 0)
(1.0132058 0.0022218185 0)
(1.0126242 0.001916708 0)
(1.0121078 0.0016202836 0)
(1.0116591 0.0013169372 0)
(1.0112767 0.0010019457 0)
(1.0109564 0.00067891958 0)
(1.0107042 0.0003743591 0)
(1.0105253 0.0001115024 0)
(1.0198438 0.0023113919 0)
(1.0190352 0.0038042016 0)
(1.0177922 0.0033367503 0)
(1.0178414 0.0026854122 0)
(1.0180168 0.002646617 0)
(1.017615 0.0031535218 0)
(1.0167773 0.0036341387 0)
(1.0157024 0.0035962857 0)
(1.0148497 0.0032218357 0)
(1.0141687 0.0028368391 0)
(1.0135309 0.002512257 0)
(1.0129192 0.0022150223 0)
(1.0123635 0.0019165318 0)
(1.0118759 0.0016037566 0)
(1.0114581 0.0012759128 0)
(1.011104 0.0009410227 0)
(1.0108102 0.00061438998 0)
(1.0105848 0.0003308206 0)
(1.010427 9.8099109e-05 0)
(1.0200601 0.002944641 0)
(1.0190966 0.0040364617 0)
(1.0175526 0.0034521294 0)
(1.0178624 0.0025095389 0)
(1.0185045 0.0024533873 0)
(1.0182511 0.0032049482 0)
(1.0173015 0.0039541899 0)
(1.0160781 0.0040058629 0)
(1.0151462 0.0035501173 0)
(1.0144849 0.0031095753 0)
(1.0138594 0.0027948412 0)
(1.0132283 0.0025172216 0)
(1.0126337 0.002222902 0)
(1.0121062 0.0018999709 0)
(1.0116552 0.0015548592 0)
(1.0112724 0.0012003956 0)
(1.0109485 0.00085234739 0)
(1.0106854 0.00054181867 0)
(1.0104844 0.00028973393 0)
(1.0103439 8.7428339e-05 0)
(1.0203815 0.0022382741 0)
(1.0193473 0.0049334536 0)
(1.0170403 0.0038280163 0)
(1.0177243 0.0022079712 0)
(1.019083 0.0020516323 0)
(1.0190407 0.0032477989 0)
(1.0178677 0.0043193652 0)
(1.0163902 0.0044953016 0)
(1.0153735 0.0039088901 0)
(1.0147607 0.0033699037 0)
(1.0141831 0.0030599927 0)
(1.01355 0.0028186864 0)
(1.0129168 0.0025409911 0)
(1.012345 0.0022107517 0)
(1.0118593 0.0018444175 0)
(1.0114505 0.001464567 0)
(1.0111058 0.0010906462 0)
(1.010815 0.00074808016 0)
(1.0105821 0.00047269291 0)
(1.0104004 0.00025591066 0)
(1.0102724 7.9935476e-05 0)
(1.0201 0.0034753374 0)
(1.0190542 0.0052383679 0)
(1.0163343 0.003865117 0)
(1.0173858 0.0018450092 0)
(1.0196615 0.0015097724 0)
(1.0200447 0.0031967906 0)
(1.018542 0.0047910491 0)
(1.0166488 0.005085043 0)
(1.0154791 0.004310583 0)
(1.0149558 0.0035958736 0)
(1.0144909 0.0032925738 0)
(1.0138852 0.0031108809 0)
(1.0132154 0.0028711962 0)
(1.0125904 0.0025409537 0)
(1.0120638 0.0021507993 0)
(1.0116291 0.0017387663 0)
(1.0112676 0.0013326021 0)
(1.010961 0.00095612991 0)
(1.010706 0.00064644765 0)
(1.0104975 0.00041460097 0)
(1.0103293 0.00023108403 0)
(1.010209 7.5123266e-05 0)
(1.0198765 0.0022467818 0)
(1.0192073 0.0066441009 0)
(1.0150973 0.0047061979 0)
(1.0167784 0.0010187429 0)
(1.0203979 0.00057162654 0)
(1.0212878 0.0031658304 0)
(1.0193441 0.0054011115 0)
(1.0168151 0.0058297443 0)
(1.015468 0.0047455608 0)
(1.0150905 0.0037975346 0)
(1.0147626 0.0034562422 0)
(1.0142389 0.0033751566 0)
(1.0135391 0.0032110488 0)
(1.0128446 0.0028970318 0)
(1.0122637 0.0024806452 0)
(1.0118 0.002028796 0)
(1.0114245 0.0015822886 0)
(1.0111094 0.0011668668 0)
(1.0108432 0.00082046679 0)
(1.0106188 0.00056089764 0)
(1.0104275 0.00036993225 0)
(1.010268 0.00021443186 0)
(1.0101514 7.2076075e-05 0)
(1.0189305 0.004151565 0)
(1.0176172 0.0070261219 0)
(1.013891 0.0045256754 0)
(1.015807 0.00058577808 0)
(1.0209939 -0.00054799787 0)
(1.0228564 0.0028603996 0)
(1.0203356 0.0062486084 0)
(1.0168712 0.00679693 0)
(1.0152202 0.0052490725 0)
(1.0150814 0.0038928636 0)
(1.0150635 0.003548825 0)
(1.0146353 0.0035855057 0)
(1.0139066 0.003552241 0)
(1.0131167 0.0032860709 0)
(1.0124564 0.0028439935 0)
(1.0119548 0.0023408449 0)
(1.0115674 0.0018439945 0)
(1.0112496 0.0013830824 0)
(1.0109812 0.00099481037 0)
(1.0107507 0.00070309577 0)
(1.0105492 0.00049554014 0)
(1.0103685 0.00033761877 0)
(1.0102139 0.00020378897 0)
(1.0100979 6.9872982e-05 0)
(1.0193479 0.0029744205 0)
(1.0152901 0.0088933532 0)
(1.0108153 0.0062321119 0)
(1.0144562 -0.0011616263 0)
(1.0221019 -0.0022690246 0)
(1.0247744 0.0027798566 0)
(1.0215061 0.0073242958 0)
(1.016782 0.0080907116 0)
(1.0146681 0.0058117499 0)
(1.0148849 0.0038863846 0)
(1.0154003 0.0034483882 0)
(1.0150979 0.0036901048 0)
(1.0143584 0.0038897132 0)
(1.0134245 0.0037193594 0)
(1.0126423 0.0032543887 0)
(1.0120854 0.002683796 0)
(1.0116862 0.0021217153 0)
(1.011372 0.0016067991 0)
(1.0111088 0.0011718882 0)
(1.010882 0.00084321035 0)
(1.0106791 0.00061074592 0)
(1.010493 0.00044729559 0)
(1.0103181 0.00031548955 0)
(1.0101649 0.00019667261 0)
(1.0100479 6.7746363e-05 0)
(1.0183101 0.0052278424 0)
(1.0154465 0.0097555955 0)
(1.0075927 0.0054262732 0)
(1.0123853 -0.0016787434 0)
(1.0224819 -0.0042042788 0)
(1.0271941 0.0019227868 0)
(1.0229912 0.0088805508 0)
(1.0164696 0.0097867709 0)
(1.0137048 0.0065323686 0)
(1.0144101 0.003677667 0)
(1.015703 0.0031400989 0)
(1.0157044 0.0037084962 0)
(1.0149012 0.0041892131 0)
(1.0138016 0.0042138306 0)
(1.0128254 0.0037353142 0)
(1.0121809 0.0030695032 0)
(1.0117694 0.0024194476 0)
(1.011467 0.0018392485 0)
(1.0112171 0.0013531955 0)
(1.0110013 0.00098356602 0)
(1.0108068 0.00072077944 0)
(1.0106246 0.00054090194 0)
(1.010447 0.00041091693 0)
(1.0102747 0.00030101824 0)
(1.0101196 0.00019076795 0)
(1.0100012 6.516199e-05 0)
(1.0127285 0.0039528173 0)
(1.0148001 0.01219727 0)
(1.0050191 0.0077795061 0)
(1.0099075 -0.0046675599 0)
(1.0238585 -0.0069414668 0)
(1.0296626 0.0019708055 0)
(1.0246113 0.010655706 0)
(1.0159005 0.011987228 0)
(1.0122301 0.0073498681 0)
(1.0135619 0.0032939423 0)
(1.0159512 0.0024755298 0)
(1.0165287 0.003594729 0)
(1.0155672 0.0045065286 0)
(1.014238 0.0047969493 0)
(1.0130099 0.0043198657 0)
(1.012229 0.0035187986 0)
(1.0118011 0.0027410513 0)
(1.0115237 0.0020786355 0)
(1.0112985 0.001538745 0)
(1.0111001 0.0011261153 0)
(1.0109205 0.00082863536 0)
(1.0107514 0.00062467603 0)
(1.0105835 0.00048729536 0)
(1.0104098 0.00038277331 0)
(1.010237 0.00029039697 0)
(1.0100775 0.00018399881 0)
(1.0099579 6.1858144e-05 0)
(1.0000785 0.0070902575 0)
(1.0024656 0.012836549 0)
(1.0023137 0.0071384515 0)
(1.007271 -0.0057320987 0)
(1.0241186 -0.0097015382 0)
(1.0320307 0.0001492716 0)
(1.0267318 0.013432028 0)
(1.0148262 0.014852453 0)
(1.0100358 0.0084195611 0)
(1.0122427 0.0025649395 0)
(1.0161439 0.0014208305 0)
(1.0175979 0.0031947729 0)
(1.0165211 0.0048593319 0)
(1.0147309 0.0055000604 0)
(1.0131745 0.0050633995 0)
(1.0122034 0.0040581688 0)
(1.0117598 0.0030921733 0)
(1.0115288 0.0023209072 0)
(1.0113461 0.0017240697 0)
(1.0111732 0.0012713396 0)
(1.0110122 0.00093756701 0)
(1.0108622 0.00070298778 0)
(1.010713 0.00054785375 0)
(1.0105538 0.00044332685 0)
(1.0103808 0.000360137 0)
(1.0102039 0.00027838552 0)
(1.010039 0.00017469582 0)
(1.0099188 5.7817297e-05 0)
(0.98701261 0.0071068178 0)
(0.98521671 0.016018734 0)
(0.98936845 0.010032053 0)
(1.0044945 -0.0098517299 0)
(1.0260403 -0.013712938 0)
(1.0350427 0.00050727612 0)
(1.0282145 0.016223442 0)
(1.0133288 0.018412818 0)
(1.0069889 0.0097135694 0)
(1.0102784 0.0015715229 0)
(1.0162468 -0.00029730364 0)
(1.0190017 0.0024907018 0)
(1.0178637 0.005209359 0)
(1.0154183 0.0063916627 0)
(1.0132783 0.0059954582 0)
(1.0120763 0.0047311992 0)
(1.0116088 0.0034781765 0)
(1.0114634 0.0025561886 0)
(1.0113534 0.0018995338 0)
(1.0112188 0.001415426 0)
(1.0110782 0.0010498881 0)
(1.010948 0.00078104357 0)
(1.0108236 0.00059831124 0)
(1.0106897 0.00048208723 0)
(1.0105345 0.00040347049 0)
(1.0103592 0.00033810152 0)
(1.0101749 0.00026087276 0)
(1.0100049 0.00016238518 0)
(1.009884 5.3327666e-05 0)
(0.97279407 0.0097729378 0)
(0.97056011 0.0175422 0)
(0.97496645 0.0079451751 0)
(0.99741205 -0.010935318 0)
(1.0268259 -0.017280073 0)
(1.0400066 -0.0016866735 0)
(1.0288206 0.020704147 0)
(1.0103775 0.023023148 0)
(1.0026967 0.011281865 0)
(1.0075753 9.0409212e-06 0)
(1.0162283 -0.0026123303 0)
(1.0208167 0.0012227105 0)
(1.019734 0.0055953423 0)
(1.0163767 0.0075543004 0)
(1.0133557 0.0072064011 0)
(1.0117828 0.0055671382 0)
(1.0113048 0.0039082009 0)
(1.0112985 0.0027688934 0)
(1.0113119 0.0020460277 0)
(1.0112388 0.0015485088 0)
(1.0111204 0.0011651407 0)
(1.0110057 0.00086390972 0)
(1.0109051 0.0006459588 0)
(1.0108036 0.00050530568 0)
(1.0106804 0.00042036133 0)
(1.0105253 0.00036382202 0)
(1.0103442 0.00031189675 0)
(1.0101504 0.00023761536 0)
(1.0099757 0.00014840505 0)
(1.0098535 4.8983747e-05 0)
(0.95668067 0.010711342 9.5155289e-25)
(0.9545388 0.019505585 0)
(0.96167665 0.0092304555 0)
(0.98979801 -0.017338555 0)
(1.0265948 -0.022552254 0)
(1.042497 -0.0013718617 0)
(1.0319468 0.024203814 0)
(1.0061783 0.028256138 0)
(0.99694596 0.01330102 0)
(1.0038283 -0.0019967281 0)
(1.0161279 -0.0060097916 0)
(1.0231839 -0.00053082663 0)
(1.0222628 0.0058859904 0)
(1.0177188 0.009111756 0)
(1.0134068 0.0088203402 0)
(1.0112354 0.0066247024 0)
(1.0107857 0.004391735 0)
(1.0109921 0.0029313114 0)
(1.011211 0.0021337457 0)
(1.0112392 0.0016511329 0)
(1.0111483 0.0012785451 0)
(1.0110387 0.00095618078 0)
(1.0109534 0.00069884264 0)
(1.0108835 0.0005216779 0)
(1.0108012 0.00041668696 0)
(1.0106837 0.00035923554 0)
(1.0105254 0.00032175956 0)
(1.0103349 0.00027866906 0)
(1.0101315 0.00021257262 0)
(1.009951 0.00013503715 0)
(1.0098266 4.5477107e-05 0)
(0.9382644 0.013038267 -1.7520557e-25)
(0.93708607 0.021539535 -9.9350429e-25)
(0.94767249 0.0064731095 0)
(0.98054257 -0.021225422 0)
(1.0240318 -0.026959756 0)
(1.042676 -0.0064692998 0)
(1.0402346 0.031347258 0)
(1.0033972 0.034166843 0)
(0.98952734 0.015256406 0)
(0.99907293 -0.0047983811 0)
(1.015815 -0.01026431 0)
(1.0261985 -0.0032362352 0)
(1.0256718 0.0062517648 0)
(1.0195392 0.011138194 0)
(1.0134338 0.011013247 0)
(1.0103563 0.0079862164 0)
(1.0099332 0.0049324511 0)
(1.0104935 0.0030072762 0)
(1.0110369 0.002116949 0)
(1.0112323 0.0016926614 0)
(1.0111796 0.001378793 0)
(1.0110592 0.0010610068 0)
(1.01097 0.00076679968 0)
(1.0109223 0.00054177771 0)
(1.0108829 0.00040081325 0)
(1.010815 0.00032763049 0)
(1.0106993 0.00029379462 0)
(1.0105343 0.00027226601 0)
(1.0103312 0.00023919054 0)
(1.0101179 0.00018917746 0)
(1.0099301 0.0001242229 0)
(1.0098024 4.337477e-05 0)
(0.91826125 0.014842827 1.7589566e-25)
(0.91776173 0.02369075 6.7363222e-24)
(0.93052536 0.0061544053 0)
(0.97090398 -0.027237862 0)
(1.0166626 -0.032153933 0)
(1.0397256 -0.0044799973 0)
(1.0393988 0.035475803 0)
(1.0049453 0.042468533 0)
(0.98155162 0.017908855 0)
(0.99287534 -0.0085588228 0)
(1.0155305 -0.016124793 0)
(1.0299832 -0.0066176128 0)
(1.0300935 0.0063462334 0)
(1.0220093 0.013848981 0)
(1.0134113 0.013947262 0)
(1.009029 0.0098053332 0)
(1.0086101 0.0055111471 0)
(1.0097242 0.0029576166 0)
(1.0107651 0.0019278203 0)
(1.0112305 0.0016237505 0)
(1.0112418 0.0014462225 0)
(1.0110884 0.0011804278 0)
(1.0109645 0.00086258263 0)
(1.0109173 0.00058043427 0)
(1.0109144 0.00038459006 0)
(1.0109027 0.00027619269 0)
(1.0108457 0.00023070172 0)
(1.0107282 0.00022009307 0)
(1.0105514 0.00021708221 0)
(1.0103339 0.00020171622 0)
(1.0101088 0.00016984135 0)
(1.009912 0.0001174166 0)
(1.0097798 4.3040058e-05 0)
(0.89794771 0.016836989 0)
(0.89774719 0.02593386 -6.747283e-24)
(0.91201988 0.0042218033 0)
(0.95650465 -0.032576241 0)
(1.00728 -0.035189238 0)
(1.0295358 -0.0063885392 0)
(1.0202327 0.04321402 0)
(0.99571285 0.052053088 0)
(0.97154128 0.020870804 0)
(0.98558208 -0.013045679 0)
(1.0148071 -0.023036994 0)
(1.0346464 -0.011447681 0)
(1.0358128 0.0066275184 0)
(1.0251975 0.017294632 0)
(1.0133368 0.017873342 0)
(1.0071136 0.012176872 0)
(1.0066526 0.0061834723 0)
(1.0085683 0.0026791665 0)
(1.0103713 0.0014858223 0)
(1.0112602 0.0013936589 0)
(1.0113506 0.001446165 0)
(1.0111572 0.0013148132 0)
(1.0109559 0.0010041356 0)
(1.0108716 0.00065777048 0)
(1.0108874 0.00038470186 0)
(1.0109322 0.00021669912 0)
(1.0109457 0.00013942253 0)
(1.0108944 0.00012472331 0)
(1.0107684 0.0001425058 0)
(1.0105759 0.00016299175 0)
(1.0103419 0.00017000068 0)
(1.0101029 0.0001570277 0)
(1.0098954 0.00011562732 0)
(1.009758 4.4630078e-05 0)
(0.87761992 0.018703706 -7.4187711e-25)
(0.87823882 0.028068189 0)
(0.89284162 0.0027562589 -2.7314747e-23)
(0.93939744 -0.038032064 0)
(0.99406471 -0.040360711 0)
(1.0174286 -0.0023893478 0)
(1.0006192 0.050553882 0)
(0.97100619 0.061314065 0)
(0.95762471 0.026572024 0)
(0.97590563 -0.01910681 0)
(1.0140297 -0.031928729 0)
(1.0400402 -0.016931993 0)
(1.042747 0.0063714002 0)
(1.0293161 0.02183894 0)
(1.0131026 0.023027092 0)
(1.0044011 0.015335229 0)
(1.0038681 0.0069008301 0)
(1.0068898 0.0021184184 0)
(1.0098112 0.00065041423 0)
(1.011351 0.00088743659 0)
(1.011619 0.0013691684 0)
(1.0113083 0.001459735 0)
(1.0109752 0.0012085281 0)
(1.0107965 0.00080126934 0)
(1.0107972 0.00042481703 0)
(1.0108888 0.00016570731 0)
(1.010981 2.9241084e-05 0)
(1.0110137 -8.3602174e-06 0)
(1.010959 1.6246391e-05 0)
(1.0108184 6.6812607e-05 0)
(1.0106068 0.00011640382 0)
(1.0103543 0.00014712816 0)
(1.0100993 0.00015238826 0)
(1.0098801 0.00011918561 0)
(1.0097356 4.8210651e-05 0)
(0.85829308 0.020304 -1.1188768e-23)
(0.85975958 0.030118121 1.9160309e-23)
(0.8740353 0.00091496499 2.7313302e-23)
(0.92065101 -0.04378222 5.3792384e-23)
(0.97734305 -0.044965299 -1.0325577e-22)
(1.0029272 -0.0020589056 0)
(0.98385665 0.060547424 0)
(0.95010469 0.06933245 0)
(0.9410137 0.029797453 0)
(0.96431608 -0.024999695 0)
(1.0121525 -0.041831185 0)
(1.0461608 -0.024377477 0)
(1.0507844 0.0065544677 0)
(1.0341472 0.02744785 0)
(1.0126853 0.029676411 0)
(1.0006709 0.019395689 0)
(0.99999054 0.0077759559 0)
(1.0045258 0.0010917731 0)
(1.0090391 -0.00068713952 0)
(1.0115356 -2.1916944e-05 0)
(1.0121117 0.0011063453 0)
(1.0116277 0.0016025712 0)
(1.011078 0.0014997683 0)
(1.0107129 0.0010421635 0)
(1.0106429 0.00053662086 0)
(1.01076 0.0001468389 0)
(1.0109316 -8.4613427e-05 0)
(1.0110641 -0.00017287055 0)
(1.0111051 -0.00015869394 0)
(1.0110392 -8.875843e-05 0)
(1.0108771 4.9403665e-07 0)
(1.0106426 8.1920252e-05 0)
(1.0103697 0.00013611414 0)
(1.0100978 0.00015487093 0)
(1.0098645 0.00012826712 0)
(1.009712 5.3682546e-05 0)
(0.84108249 0.021568097 1.6908551e-23)
(0.8432747 0.031850719 -3.0666731e-23)
(0.85642447 -0.00079252109 0)
(0.9009429 -0.049476534 8.8580097e-24)
(0.95772897 -0.049422911 1.0274712e-22)
(0.98618395 -0.0021943795 1.7101521e-22)
(0.9660693 0.069163817 8.7583026e-23)
(0.93186189 0.075984913 0)
(0.9247438 0.03321597 0)
(0.95348153 -0.034142439 0)
(1.0100368 -0.054455 0)
(1.0532809 -0.031867912 0)
(1.0598549 0.0060097255 0)
(1.0393556 0.03488589 0)
(1.0115263 0.03819127 0)
(0.99559763 0.024625442 0)
(0.99475027 0.0086842181 0)
(1.0012938 -0.00042155869 0)
(1.0079728 -0.0027745078 0)
(1.0118673 -0.0014626273 0)
(1.0129125 0.00057675352 0)
(1.0122622 0.0017631351 0)
(1.011298 0.0018768918 0)
(1.0106666 0.0014351023 0)
(1.0104278 0.00076161077 0)
(1.0105316 0.00019063576 0)
(1.0107774 -0.00018280085 0)
(1.0110223 -0.00035843119 0)
(1.0111806 -0.00037905882 0)
(1.0112177 -0.00030371642 0)
(1.0111325 -0.00018210384 0)
(1.0109429 -5.0343099e-05 0)
(1.010682 6.2404585e-05 0)
(1.0103844 0.0001379336 0)
(1.0100947 0.00016835721 0)
(1.0098475 0.00014300212 0)
(1.0096862 6.0817528e-05 0)
(0.82717518 0.022552024 -3.4265721e-25)
(0.82957497 0.033238291 6.4722253e-24)
(0.84075278 -0.0025059774 -1.8410402e-23)
(0.8813889 -0.054773879 -3.7296874e-23)
(0.93658186 -0.054339617 -6.4792962e-23)
(0.96588391 -0.00075755254 1.7593665e-22)
(0.94894804 0.076001187 1.6667164e-22)
(0.91324123 0.08518162 -1.4695457e-23)
(0.90812125 0.031109798 0)
(0.9419312 -0.042760177 0)
(1.008826 -0.068855648 0)
(1.0629509 -0.044024516 0)
(1.0722701 0.0066103829 0)
(1.0446066 0.04374116 0)
(1.0089443 0.04871047 0)
(0.98873841 0.031234767 0)
(0.98774794 0.0097678936 0)
(0.99698421 -0.0027534858 0)
(1.0065572 -0.0057119163 0)
(1.012375 -0.0036758678 0)
(1.014157 -0.00031519953 0)
(1.0133262 0.0018905002 0)
(1.0117748 0.0024430432 0)
(1.0106628 0.0020097641 0)
(1.0101734 0.001164911 0)
(1.0101906 0.00034142808 0)
(1.0104943 -0.00023910071 0)
(1.0108625 -0.00055066282 0)
(1.0111614 -0.00063949032 0)
(1.0113283 -0.00057899961 0)
(1.0113489 -0.00043429958 0)
(1.0112351 -0.00025613051 0)
(1.0110141 -8.2332143e-05 0)
(1.0107226 5.9850325e-05 0)
(1.0104009 0.00015412997 0)
(1.0100905 0.00019166285 0)
(1.0098284 0.00016280376 0)
(1.0096577 6.9276297e-05 0)
(0.81668591 0.023113 -5.5585698e-24)
(0.81922533 0.034191447 2.7983485e-25)
(0.82812378 -0.0039887148 0)
(0.86250181 -0.059634973 2.5325017e-23)
(0.91426209 -0.058739376 -8.2128264e-23)
(0.94477501 -0.00053498731 0)
(0.92883171 0.08465479 -3.8819375e-22)
(0.89659607 0.093316955 -3.8703496e-22)
(0.88977533 0.035720942 0)
(0.93291426 -0.054973418 0)
(1.0064096 -0.083929708 0)
(1.0716754 -0.053277042 0)
(1.0900189 0.0042945932 0)
(1.0545868 0.054717174 0)
(1.0054892 0.061676244 0)
(0.97929301 0.039094172 0)
(0.97872051 0.010899911 0)
(0.99133055 -0.0058751142 0)
(1.0046988 -0.0099170928 0)
(1.0131236 -0.0067741538 0)
(1.015985 -0.0017598296 0)
(1.0149919 0.0019692855 0)
(1.0126551 0.0032405156 0)
(1.0107733 0.0028724509 0)
(1.0098716 0.0018115906 0)
(1.0097228 0.00065057069 0)
(1.0100559 -0.00021802988 0)
(1.010555 -0.0007314001 0)
(1.0110194 -0.00093211026 0)
(1.0113465 -0.00091271035 0)
(1.0115034 -0.0007601218 0)
(1.0114948 -0.00054106256 0)
(1.011345 -0.0003064656 0)
(1.0110877 -9.3016077e-05 0)
(1.0107627 7.4585803e-05 0)
(1.0104152 0.00018370067 0)
(1.0100839 0.00022333156 0)
(1.0098064 0.00018685739 0)
(1.0096262 7.870098e-05 0)
(0.8109601 0.023224153 0)
(0.8130939 0.034714949 0)
(0.81888218 -0.0054285155 -2.9007284e-25)
(0.8461388 -0.063737346 0)
(0.89140368 -0.06289022 3.926423e-28)
(0.92184102 0.000306179 1.9761723e-22)
(0.90927616 0.092196468 6.6202677e-22)
(0.87881417 0.10223834 -9.2384137e-23)
(0.87312593 0.040231753 0)
(0.91695288 -0.064922757 0)
(1.0037732 -0.09860929 0)
(1.0738473 -0.069731393 0)
(1.0972847 0.0033896371 0)
(1.0713588 0.066194117 0)
(1.0065717 0.076520349 0)
(0.96756345 0.048612241 0)
(0.96701548 0.011939185 0)
(0.98421697 -0.010248726 0)
(1.0023088 -0.015360656 0)
(1.0141553 -0.011190463 0)
(1.0185708 -0.0038193295 0)
(1.017456 0.0018954325 0)
(1.014101 0.0043391661 0)
(1.0111189 0.0041508051 0)
(1.0095045 0.0027819434 0)
(1.0091194 0.001210215 0)
(1.0094237 -8.2587787e-05 0)
(1.0100636 -0.0008829283 0)
(1.010723 -0.0012501188 0)
(1.0112447 -0.0013040584 0)
(1.0115718 -0.0011613496 0)
(1.0117001 -0.0009108085 0)
(1.0116513 -0.00061783616 0)
(1.0114587 -0.00033025934 0)
(1.0111613 -8.1763424e-05 0)
(1.0108023 0.00010757199 0)
(1.0104271 0.00022531427 0)
(1.010074 0.00026233561 0)
(1.0097812 0.00021421848 0)
(1.0095916 8.8704973e-05 0)
(0.81129045 0.034826975 -6.2239503e-25)
(0.8105049 0.023019032 0)
(0.81328004 -0.0064658498 -8.9898961e-24)
(0.83288666 -0.067009156 -1.2988058e-24)
(0.86984645 -0.066441039 -3.1207287e-23)
(0.89847715 0.00093499918 8.6501612e-24)
(0.88851417 0.099762165 2.3738351e-24)
(0.86208133 0.1107643 -2.4741966e-22)
(0.8562992 0.045144383 5.6383636e-23)
(0.89959023 -0.071481386 0)
(0.99257524 -0.11573175 -7.7156151e-22)
(1.0723072 -0.075265023 0)
(1.0975656 -0.003253473 0)
(1.0891839 0.081534278 0)
(1.0119359 0.094534225 0)
(0.95648793 0.05977303 0)
(0.95247297 0.013028591 0)
(0.97521352 -0.015938116 0)
(0.99939197 -0.022689496 0)
(1.0155158 -0.016862933 0)
(1.0220976 -0.0068903512 0)
(1.0209865 0.001735302 0)
(1.0163052 0.0057784774 0)
(1.0118037 0.0059974585 0)
(1.0091226 0.0042377816 0)
(1.0082957 0.002071033 0)
(1.0085627 0.00023763371 0)
(1.0093423 -0.00097160982 0)
(1.0102326 -0.0015864707 0)
(1.0109923 -0.0017551606 0)
(1.0115288 -0.0016426291 0)
(1.0118286 -0.0013703218 0)
(1.0119123 -0.0010233148 0)
(1.011814 -0.00066107538 0)
(1.0115735 -0.00032647748 0)
(1.0112331 -4.8435038e-05 0)
(1.0108392 0.0001570915 0)
(1.0104355 0.000277378 0)
(1.0100605 0.00030652842 0)
(1.0097527 0.00024359061 0)
(1.009554 9.8966791e-05 0)
(0.81136722 -0.0069663781 8.0046057e-24)
(0.81512975 0.034701391 0)
(0.81623453 0.022338299 -2.3220022e-24)
(0.82097207 -0.0693618 1.297866e-24)
(0.85078991 -0.069109253 1.6565314e-23)
(0.87580009 0.0015005791 3.5093453e-22)
(0.86864668 0.10644308 -6.1601204e-22)
(0.8462247 0.11881334 -7.9555569e-23)
(0.84086228 0.049988969 -3.7896954e-25)
(0.88172917 -0.079537109 4.9610902e-23)
(0.97554569 -0.13065789 -8.4313827e-22)
(1.0628945 -0.091280049 8.0488033e-22)
(1.0941041 0.00028680853 0)
(1.0828889 0.094394642 0)
(1.010763 0.11784029 0)
(0.94566374 0.074647289 0)
(0.93496861 0.013442806 0)
(0.96455442 -0.023232778 0)
(0.99571335 -0.031660832 0)
(1.0172878 -0.02453539 0)
(1.0267325 -0.010866712 0)
(1.0258281 0.0011795283 0)
(1.0195418 0.0077150246 0)
(1.0129481 0.0085796187 0)
(1.0087491 0.0063737939 0)
(1.0071954 0.0033621921 0)
(1.0073924 0.00080859954 0)
(1.0083244 -0.00098888828 0)
(1.0095009 -0.0019358971 0)
(1.0105536 -0.0022705572 0)
(1.0113477 -0.0022123657 0)
(1.0118583 -0.0019279254 0)
(1.0121077 -0.0015301074 0)
(1.0121339 -0.0010935864 0)
(1.011979 -0.00066968052 0)
(1.0116866 -0.00029530456 0)
(1.011302 6.2381416e-06 0)
(1.0108719 0.00022048785 0)
(1.0104397 0.00033773275 0)
(1.0100432 0.00035452426 0)
(1.0097207 0.00027431535 0)
(1.0095133 0.00010923832 0)
(0.81365871 -0.070528147 5.2657273e-24)
(0.81607397 -0.0071495553 2.3438307e-23)
(0.82539436 0.034099461 0)
(0.82565473 0.021223283 -9.845067e-26)
(0.83254689 -0.071167412 -8.6751264e-24)
(0.85517332 0.0020592676 -1.5525284e-22)
(0.85034906 0.1121253 0)
(0.8324024 0.12586897 7.9005732e-23)
(0.82769591 0.054740764 -3.2453732e-23)
(0.86407143 -0.087519954 -4.8973342e-23)
(0.95640468 -0.14607436 9.0544703e-22)
(1.0470496 -0.10884249 8.7771807e-22)
(1.0830256 -0.0016769927 0)
(1.0560522 0.11149067 0)
(0.99245635 0.14104981 0)
(0.93070649 0.092502007 0)
(0.91598212 0.015577587 0)
(0.95103145 -0.032811344 0)
(0.99166673 -0.04308767 0)
(1.0193875 -0.033721242 0)
(1.0326515 -0.016520965 0)
(1.0323498 0.00046669692 0)
(1.024044 0.010102498 0)
(1.0147325 0.01213239 0)
(1.0083979 0.0093971668 0)
(1.0057741 0.0052679014 0)
(1.005769 0.0016668371 0)
(1.0069338 -0.00085676723 0)
(1.0084579 -0.0023009746 0)
(1.0098864 -0.0028698773 0)
(1.0110012 -0.0028873434 0)
(1.0117686 -0.0025967154 0)
(1.0122192 -0.0021485337 0)
(1.0124003 -0.001636304 0)
(1.0123594 -0.0011206529 0)
(1.0121426 -0.00064425367 0)
(1.011796 -0.00023792958 0)
(1.0113663 7.9651537e-05 0)
(1.0108998 0.00029541411 0)
(1.0104392 0.0004039834 0)
(1.0100217 0.0004052349 0)
(1.0096853 0.00030541747 0)
(1.0094701 0.00011929117 0)
(0.81950027 -0.072320246 -1.0273725e-23)
(0.81297325 -0.070638013 -6.2895733e-24)
(0.82638521 -0.0068116554 -2.0852848e-23)
(0.83944867 0.033039416 -1.1409268e-23)
(0.83800717 0.019727576 1.3643931e-23)
(0.8365336 0.0024070177 1.4686342e-22)
(0.83499894 0.11666629 8.375253e-23)
(0.82146296 0.13176505 0)
(0.81734718 0.058917048 3.3649652e-23)
(0.84745239 -0.095191258 -3.34558e-23)
(0.93551366 -0.16188726 0)
(1.0283386 -0.12372103 -1.1743759e-21)
(1.0697828 -0.01489699 0)
(1.0373922 0.12807036 0)
(0.96857598 0.1617101 0)
(0.91446669 0.1119353 0)
(0.89717964 0.017046604 0)
(0.93565225 -0.043649398 0)
(0.98655615 -0.05645752 0)
(1.0220494 -0.045658262 0)
(1.039949 -0.023242163 0)
(1.0407525 -0.0010867322 0)
(1.0302456 0.013295242 0)
(1.0172911 0.016874174 0)
(1.0080765 0.013604222 0)
(1.0039407 0.0079684613 0)
(1.0035684 0.0029365337 0)
(1.0050366 -0.00058666668 0)
(1.0070158 -0.0026855442 0)
(1.0089305 -0.0035615553 0)
(1.0104548 -0.0036902549 0)
(1.0115398 -0.0033968537 0)
(1.0122318 -0.0028929763 0)
(1.0125983 -0.0022998487 0)
(1.0126987 -0.0016883344 0)
(1.0125841 -0.0011056053 0)
(1.0123022 -0.00058664752 0)
(1.0119001 -0.00015683078 0)
(1.0114248 0.00016832246 0)
(1.0109221 0.00037911787 0)
(1.0104339 0.0004742422 0)
(1.0099964 0.00045643203 0)
(1.0096471 0.00033607551 0)
(1.0094245 0.00012900859 0)
(0.82201187 0.0023385188 6.8260025e-24)
(0.8118493 -0.07232574 8.8284344e-24)
(0.81765903 -0.069868432 3.591705e-23)
(0.84136325 -0.0061168107 1.1815273e-23)
(0.85540244 0.031612676 -4.5820385e-23)
(0.8537101 0.017963177 -5.9880563e-24)
(0.82381018 0.11992548 -1.5768028e-22)
(0.81438884 0.13643545 -6.7713211e-23)
(0.81047908 0.062561421 -1.408939e-22)
(0.83371474 -0.10215302 8.4033146e-24)
(0.91325698 -0.17695748 -1.06708e-21)
(1.0056675 -0.140326 7.2598686e-22)
(1.0514251 -0.021089674 0)
(1.0281938 0.13192209 -1.3206215e-21)
(0.94862422 0.18349157 3.3539193e-22)
(0.90065572 0.12280619 0)
(0.88118276 0.022612287 0)
(0.91883103 -0.058064638 0)
(0.98095373 -0.072949585 0)
(1.0250032 -0.058937632 0)
(1.0487741 -0.032576501 0)
(1.0514657 -0.0026751107 0)
(1.0383437 0.016962597 0)
(1.0208978 0.023186459 0)
(1.0077598 0.019276983 0)
(1.0015532 0.011728349 0)
(1.000643 0.0047284572 0)
(1.002458 -0.0001595476 0)
(1.0050705 -0.0030884166 0)
(1.0076201 -0.0044134366 0)
(1.0096752 -0.0046681327 0)
(1.0111541 -0.0043596435 0)
(1.0121349 -0.0037841475 0)
(1.0127177 -0.0030977491 0)
(1.0129844 -0.0023825183 0)
(1.0129964 -0.001688214 0)
(1.0128043 -0.0010510021 0)
(1.0124554 -0.00049985564 0)
(1.0119973 -5.5731411e-05 0)