/*--------------------------------*- C++ -*----------------------------------*\
| =========                 |                                                 |
| \\      /  F ield         | OpenFOAM: The Open Source CFD Toolbox           |
|  \\    /   O peration     | Version:  5.0                                   |
|   \\  /    A nd           | Web:      www.OpenFOAM.org                      |
|    \\/     M anipulation  |                                                 |
\*---------------------------------------------------------------------------*/
FoamFile
{
    version     2.0;
    format      ascii;
    class       volVectorField;
    location    "280";
    object      UMean;
}
// * * * * * * * * * * * * * * * * * * * * * * * * * * * * * * * * * * * * * //

dimensions      [0 1 -1 0 0 0 0];

internalField   nonuniform List<vector> 
9520
(
(1.010493 4.4474925e-05 0)
(1.0105821 0.00013017227 0)
(1.0103607 4.5338265e-05 0)
(1.0107405 0.00021029112 0)
(1.0104501 0.00013297757 0)
(1.0103069 4.5614647e-05 0)
(1.0109532 0.0002842696 0)
(1.0106092 0.00021530286 0)
(1.0103961 0.0001337785 0)
(1.0102211 4.5578853e-05 0)
(1.0112073 0.00035226033 0)
(1.0108236 0.00029192368 0)
(1.010555 0.00021709044 0)
(1.0103095 0.00013410005 0)
(1.0101546 4.5215673e-05 0)
(1.0114911 0.00041360561 0)
(1.0110809 0.00036309895 0)
(1.0107696 0.00029526214 0)
(1.0104672 0.00021852355 0)
(1.0102423 0.00013320253 0)
(1.0100846 4.404506e-05 0)
(1.0117943 0.00046794483 0)
(1.0113698 0.0004282327 0)
(1.0110273 0.00036870699 0)
(1.0106805 0.00029889945 0)
(1.0103986 0.00021790202 0)
(1.0101706 0.00013013498 0)
(1.0100212 4.2393273e-05 0)
(1.0121079 0.00051493246 0)
(1.0116805 0.00048698275 0)
(1.0113173 0.00043691785 0)
(1.0109373 0.00037585996 0)
(1.0106102 0.00029969245 0)
(1.0103238 0.00021399032 0)
(1.0101055 0.00012554696 0)
(1.0099633 3.9694433e-05 0)
(1.0124243 0.00055370309 0)
(1.0120046 0.00053879053 0)
(1.01163 0.00049965491 0)
(1.0112271 0.00044905007 0)
(1.0108652 0.00037947617 0)
(1.0105313 0.00029637038 0)
(1.0102556 0.00020750907 0)
(1.0100451 0.00011790069 0)
(1.00991 3.6317538e-05 0)
(1.012737 0.00058504474 0)
(1.0123339 0.0005830705 0)
(1.0119566 0.00055662775 0)
(1.0115405 0.00051828899 0)
(1.0111534 0.00045703466 0)
(1.0107816 0.00037850325 0)
(1.0104589 0.00028941809 0)
(1.0101907 0.00019604367 0)
(1.0099894 0.00010819271 0)
(1.0098659 3.1864758e-05 0)
(1.0130406 0.00060571625 0)
(1.0126628 0.00062034492 0)
(1.0122899 0.00060683098 0)
(1.0118694 0.00058307949 0)
(1.0114657 0.00053230236 0)
(1.0110649 0.00046046672 0)
(1.0107041 0.00037280659 0)
(1.0103875 0.00027564517 0)
(1.0101303 0.00018106886 0)
(1.0099424 9.5238845e-05 0)
(1.0098271 2.6717818e-05 0)
(1.0133309 0.00062297439 0)
(1.0129857 0.00064764389 0)
(1.0126239 0.0006504853 0)
(1.0122065 0.00064255773 0)
(1.0117942 0.00060486992 0)
(1.0113723 0.0005423702 0)
(1.0109816 0.00045800059 0)
(1.0106246 0.00035858421 0)
(1.0103207 0.00025679398 0)
(1.010078 0.00016059577 0)
(1.0099009 8.0155472e-05 0)
(1.0097988 2.066756e-05 0)
(1.0136051 0.00062404105 0)
(1.0133017 0.00067028089 0)
(1.0129526 0.00068591321 0)
(1.012546 0.00069713293 0)
(1.0121317 0.0006741038 0)
(1.0116962 0.00062386723 0)
(1.0112829 0.00054531099 0)
(1.0108928 0.00044553225 0)
(1.0105497 0.00033755845 0)
(1.0102605 0.00023005347 0)
(1.0100311 0.00013642177 0)
(1.0098699 6.2282405e-05 0)
(1.0097771 1.4084583e-05 0)
(1.0138602 0.00063224166 0)
(1.0136035 0.00067451981 0)
(1.0132712 0.00071681013 0)
(1.0128846 0.00074418311 0)
(1.0124729 0.00073997897 0)
(1.0120302 0.0007042581 0)
(1.0116006 0.0006345664 0)
(1.0111838 0.00053707913 0)
(1.0108083 0.00042434985 0)
(1.0104792 0.00030612878 0)
(1.0102059 0.00019781582 0)
(1.0099949 0.00010734924 0)
(1.0098456 4.2733392e-05 0)
(1.0097659 6.8995795e-06 0)
(1.0140945 0.00060206406 0)
(1.013885 0.00068941452 0)
(1.0135745 0.0007357753 0)
(1.0132187 0.00078673648 0)
(1.0128109 0.00080101067 0)
(1.0123691 0.00078341174 0)
(1.0119281 0.00072536985 0)
(1.0114907 0.00063325293 0)
(1.0110882 0.00051804632 0)
(1.0107252 0.00039017424 0)
(1.0104145 0.00026712278 0)
(1.0101616 0.0001582434 0)
(1.0099656 7.5237573e-05 0)
(1.0098324 2.1268554e-05 0)
(1.0097616 -5.4892432e-07 0)
(1.0143056 0.00061205164 0)
(1.0141491 0.00066902718 0)
(1.0138655 0.00076019842 0)
(1.0135371 0.00081565437 0)
(1.0131436 0.00085953236 0)
(1.0127096 0.00085865277 0)
(1.0122599 0.00081730755 0)
(1.0118075 0.00073362859 0)
(1.0113825 0.00061893601 0)
(1.0109905 0.00048340711 0)
(1.0106481 0.00034601564 0)
(1.0103594 0.00021796898 0)
(1.0101248 0.00011393244 0)
(1.0099481 3.9586097e-05 0)
(1.0098264 -1.0879837e-06 0)
(1.0097671 -8.227339e-06 0)
(1.0144917 0.00054215159 0)
(1.0143932 0.00068964038 0)
(1.0141409 0.00075197172 0)
(1.0138386 0.00085146135 0)
(1.0134639 0.00090789595 0)
(1.0130449 0.00093338412 0)
(1.0125917 0.0009091987 0)
(1.0121302 0.00083771165 0)
(1.0116853 0.00072687023 0)
(1.0112688 0.00058640924 0)
(1.0108987 0.00043604033 0)
(1.0105791 0.00028855382 0)
(1.0103123 0.00016196519 0)
(1.0101005 6.4009597e-05 0)
(1.0099386 2.1296549e-06 0)
(1.0098309 -2.4267491e-05 0)
(1.0097792 -1.5833753e-05 0)
(1.0146453 0.00057214082 0)
(1.0146099 0.00063086155 0)
(1.0143983 0.00077902827 0)
(1.0141255 0.00085930277 0)
(1.0137715 0.0009611248 0)
(1.0133687 0.00099896527 0)
(1.0129211 0.0010019062 0)
(1.0124537 0.00094422817 0)
(1.011992 0.00084161075 0)
(1.0115549 0.00069922013 0)
(1.0111597 0.00053811051 0)
(1.0108129 0.00037194033 0)
(1.0105188 0.00022167046 0)
(1.0102782 9.7744425e-05 0)
(1.0100852 1.0936075e-05 0)
(1.0099408 -3.7102362e-05 0)
(1.0098426 -4.7349809e-05 0)
(1.0097994 -2.3264974e-05 0)
(1.0147636 0.00045250538 0)
(1.0147951 0.00067369086 0)
(1.0146272 0.0007344706 0)
(1.0143947 0.00089950041 0)
(1.0140678 0.00098773365 0)
(1.0136796 0.0010708019 0)
(1.0132412 0.0010883289 0)
(1.0127745 0.0010540249 0)
(1.0122995 0.00096202592 0)
(1.0118445 0.00082174663 0)
(1.0114258 0.00065265104 0)
(1.0110546 0.00046947394 0)
(1.0107362 0.00029535857 0)
(1.0104716 0.00014341382 0)
(1.0102544 2.849439e-05 0)
(1.0100831 -4.5370002e-05 0)
(1.0099512 -7.6537377e-05 0)
(1.0098633 -7.0052655e-05 0)
(1.0098251 -3.0265303e-05 0)
(1.0148143 0.00051186044 0)
(1.0149429 0.00055909568 0)
(1.0148282 0.00078026049 0)
(1.0146378 0.0008737512 0)
(1.014344 0.0010423321 0)
(1.013982 0.0011190548 0)
(1.01355 0.0011811847 0)
(1.0130868 0.0011609691 0)
(1.0126049 0.0010884752 0)
(1.0121336 0.00095286713 0)
(1.0116932 0.00077980023 0)
(1.0112993 0.0005819468 0)
(1.0109581 0.00038479283 0)
(1.0106724 0.0002037316 0)
(1.0104359 5.7651681e-05 0)
(1.0102453 -4.6069065e-05 0)
(1.0100908 -0.000102642 0)
(1.0099723 -0.0001157543 0)
(1.0098903 -9.157548e-05 0)
(1.009857 -3.6702458e-05 0)
(1.0148022 0.00034052626 0)
(1.0150465 0.00064987105 0)
(1.014994 0.00068072892 0)
(1.0148525 0.0009297297 0)
(1.0145997 0.0010358625 0)
(1.0142641 0.0011935857 0)
(1.0138514 0.0012542647 0)
(1.0133879 0.0012752637 0)
(1.0129029 0.0012157481 0)
(1.0124194 0.0010930315 0)
(1.0119589 0.00091870929 0)
(1.0115431 0.00070973891 0)
(1.0111797 0.00049121769 0)
(1.0108741 0.00028098681 0)
(1.0106212 0.00010149743 0)
(1.0104166 -3.6182679e-05 0)
(1.010248 -0.00012296161 0)
(1.0101112 -0.00016039508 0)
(1.010001 -0.0001533598 0)
(1.0099244 -0.00011152927 0)
(1.0098928 -4.2364728e-05 0)
(1.0145801 0.00042897763 0)
(1.0150488 0.00047191328 0)
(1.0150928 0.00076966949 0)
(1.0150354 0.00085637147 0)
(1.0148277 0.0011067544 0)
(1.0145298 0.001209497 0)
(1.014138 0.0013520801 0)
(1.0136807 0.0013753489 0)
(1.01319 0.001351701 0)
(1.0126978 0.0012376266 0)
(1.0122205 0.0010695061 0)
(1.0117832 0.00085223135 0)
(1.0113973 0.00061539662 0)
(1.011072 0.00037693729 0)
(1.0108035 0.00016281581 0)
(1.0105878 -1.2259216e-05 0)
(1.0104111 -0.00013441245 0)
(1.0102658 -0.00020165975 0)
(1.0101412 -0.00021655979 0)
(1.0100385 -0.00018872048 0)
(1.0099631 -0.00012927988 0)
(1.0099323 -4.7139082e-05 0)
(1.0139846 0.00022280865 0)
(1.0149162 0.00060312022 0)
(1.0151289 0.00059820048 0)
(1.0151517 0.00095005521 0)
(1.015021 0.0010478607 0)
(1.0147712 0.0013004282 0)
(1.014407 0.0013955002 0)
(1.0139634 0.0014996951 0)
(1.0134668 0.0014782122 0)
(1.0129654 0.0013927607 0)
(1.0124747 0.0012281222 0)
(1.0120174 0.0010094816 0)
(1.0116088 0.00075724176 0)
(1.0112627 0.00049280707 0)
(1.0109778 0.00024392913 0)
(1.0107517 2.9025002e-05 0)
(1.0105703 -0.0001332287 0)
(1.0104234 -0.00023648414 0)
(1.0102956 -0.00027939835 0)
(1.0101825 -0.00027028631 0)
(1.0100822 -0.00022070481 0)
(1.0100065 -0.00014443962 0)
(1.0099739 -5.0867411e-05 0)
(1.0130416 0.00028467783 0)
(1.0143373 0.00039388163 0)
(1.0149919 0.00074188826 0)
(1.0151991 0.00080674763 0)
(1.0151503 0.0011531007 0)
(1.0149757 0.0012641382 0)
(1.0146569 0.0015117833 0)
(1.0142287 0.0015754611 0)
(1.0137366 0.0016288763 0)
(1.0132198 0.0015429314 0)
(1.0127168 0.0013996207 0)
(1.0122431 0.0011779847 0)
(1.0118126 0.0009166276 0)
(1.011444 0.00062896121 0)
(1.0111407 0.00034665106 0)
(1.0109031 9.0617776e-05 0)
(1.0107178 -0.00011557614 0)
(1.0105732 -0.00026089335 0)
(1.0104505 -0.00033897864 0)
(1.0103397 -0.00035510561 0)
(1.0102321 -0.00031984109 0)
(1.0101324 -0.00024866554 0)
(1.0100528 -0.00015656711 0)
(1.0100168 -5.3469052e-05 0)
(1.0124547 0.00015598219 0)
(1.0133924 0.00048206763 0)
(1.0144839 0.00053013505 0)
(1.015088 0.00095555158 0)
(1.0152124 0.0010242327 0)
(1.0151259 0.001386266 0)
(1.014871 0.0015052377 0)
(1.0144774 0.001722636 0)
(1.0139894 0.0017369238 0)
(1.013469 0.0017170741 0)
(1.0129459 0.0015689817 0)
(1.0124553 0.0013614056 0)
(1.0120067 0.0010907082 0)
(1.0116149 0.0007853986 0)
(1.0112907 0.00047195476 0)
(1.0110387 0.00017500307 0)
(1.010848 -7.7872334e-05 0)
(1.0107069 -0.00027056399 0)
(1.0105941 -0.0003911677 0)
(1.0104953 -0.00044054825 0)
(1.0103948 -0.00042638215 0)
(1.0102907 -0.00036429548 0)
(1.0101868 -0.00027179774 0)
(1.0101011 -0.00016539057 0)
(1.0100599 -5.4873604e-05 0)
(1.0106774 0.00014880132 0)
(1.0128932 0.00030170406 0)
(1.0135231 0.00064577234 0)
(1.0146085 0.00076384293 0)
(1.0151142 0.0011794192 0)
(1.015204 0.0012785859 0)
(1.0150385 0.0016522295 0)
(1.0146915 0.0017538367 0)
(1.0142263 0.0019151602 0)
(1.0137003 0.001854365 0)
(1.0131696 0.001762407 0)
(1.0126559 0.0015462522 0)
(1.0121864 0.0012815348 0)
(1.0117745 0.00096009348 0)
(1.0114271 0.00062028563 0)
(1.011157 0.00028376918 0)
(1.0109574 -1.6911292e-05 0)
(1.0108183 -0.00026124947 0)
(1.0107172 -0.00043122185 0)
(1.0106365 -0.00052248523 0)
(1.0105546 -0.00053812462 0)
(1.0104623 -0.00049197018 0)
(1.0103556 -0.00040237602 0)
(1.010245 -0.00028959657 0)
(1.0101503 -0.00017066795 0)
(1.0101022 -5.5047783e-05 0)
(1.0054339 5.9578541e-06 0)
(1.0112892 0.00043850123 0)
(1.0130278 0.00044269694 0)
(1.0136496 0.00090819462 0)
(1.0146643 0.00099807844 0)
(1.0151279 0.0014443678 0)
(1.015133 0.0015779562 0)
(1.0148647 0.0019347637 0)
(1.0144285 0.0019846344 0)
(1.0139173 0.0020591971 0)
(1.0133746 0.0019237304 0)
(1.0128498 0.0017552435 0)
(1.0123541 0.0014782427 0)
(1.0119182 0.0011540723 0)
(1.0115497 0.00079024942 0)
(1.0112576 0.00041800919 0)
(1.0110445 6.9663149e-05 0)
(1.0109035 -0.00022896847 0)
(1.0108128 -0.00045424855 0)
(1.0107528 -0.00059582629 0)
(1.0106972 -0.00065103359 0)
(1.0106301 -0.00063002741 0)
(1.010539 -0.00055001875 0)
(1.0104268 -0.00043330208 0)
(1.0103052 -0.00030159407 0)
(1.0101994 -0.00017227169 0)
(1.0101428 -5.3981415e-05 0)
(0.99748999 5.2588258e-06 0)
(1.0059496 0.00010266908 0)
(1.011619 0.00062195766 0)
(1.0131509 0.00067366192 0)
(1.0137265 0.0011609221 0)
(1.0147134 0.0012722387 0)
(1.0150825 0.0017688934 0)
(1.0149634 0.0019073876 0)
(1.0145924 0.0022004081 0)
(1.0140984 0.002162019 0)
(1.0135673 0.0021492009 0)
(1.0130258 0.0019367897 0)
(1.0125146 0.0016995891 0)
(1.0120487 0.0013581741 0)
(1.0116549 0.00098229271 0)
(1.0113412 0.00057708468 0)
(1.0111093 0.0001836116 0)
(1.0109608 -0.00017056127 0)
(1.0108767 -0.00045549736 0)
(1.0108364 -0.00065507685 0)
(1.0108109 -0.00075978932 0)
(1.0107785 -0.00077471632 0)
(1.0107184 -0.00071377984 0)
(1.0106251 -0.00059938847 0)
(1.0105019 -0.00045628729 0)
(1.0103666 -0.00030751612 0)
(1.0102473 -0.00017016038 0)
(1.010181 -5.167837e-05 0)
(0.98852536 -0.00010651297 0)
(0.99808258 0.00022242579 0)
(1.0062746 0.00030593041 0)
(1.0119257 0.00090840062 0)
(1.0132108 0.00089738659 0)
(1.0138096 0.0014530888 0)
(1.0147102 0.0016189856 0)
(1.0149273 0.0021344491 0)
(1.0146812 0.0022184576 0)
(1.0142425 0.0024071185 0)
(1.013724 0.0022780578 0)
(1.0131901 0.0021800008 0)
(1.012659 0.0018988463 0)
(1.0121715 0.0015885542 0)
(1.0117442 0.001189092 0)
(1.0114051 0.00076120165 0)
(1.011153 0.00032528465 0)
(1.0109905 -8.33892e-05 0)
(1.0109067 -0.00043093581 0)
(1.0108824 -0.00069466956 0)
(1.0108871 -0.00085837403 0)
(1.0108945 -0.00092062116 0)
(1.0108769 -0.00089031751 0)
(1.0108201 -0.00078775637 0)
(1.0107179 -0.00063884081 0)
(1.0105803 -0.00047083455 0)
(1.0104279 -0.00030723736 0)
(1.0102931 -0.00016431735 0)
(1.0102161 -4.8164624e-05 0)
(0.97871433 -0.00013334498 0)
(0.98911901 2.9925288e-05 0)
(0.9983766 0.00037409054 0)
(1.0067382 0.00058283539 0)
(1.0122129 0.0011728618 0)
(1.0132866 0.0011742714 0)
(1.0138398 0.0018372629 0)
(1.0145843 0.002031102 0)
(1.0146392 0.0024833431 0)
(1.0143123 0.0024588944 0)
(1.0138457 0.0025457132 0)
(1.013323 0.0023286637 0)
(1.0127937 0.0021571641 0)
(1.0122794 0.0018031326 0)
(1.0118246 0.0014241173 0)
(1.0114495 0.00096472759 0)
(1.011174 0.00049470909 0)
(1.010994 3.3697545e-05 0)
(1.0109031 -0.00037696549 0)
(1.0108883 -0.00070951492 0)
(1.0109196 -0.00094046579 0)
(1.0109681 -0.0010613165 0)
(1.0110002 -0.0010742981 0)
(1.0109936 -0.00099568978 0)
(1.010932 -0.00085019512 0)
(1.0108168 -0.00066752325 0)
(1.01066 -0.00047669563 0)
(1.0104881 -0.00030070331 0)
(1.0103362 -0.00015480938 0)
(1.0102474 -4.3485881e-05 0)
(0.96693018 -0.00022805909 -2.0540614e-24)
(0.97936693 3.8578353e-05 0)
(0.98947381 0.00021364945 0)
(0.99877577 0.00057579662 0)
(1.0073849 0.00082313405 0)
(1.0125273 0.0014718257 0)
(1.0132962 0.0015645039 0)
(1.0137348 0.0022987095 0)
(1.0143072 0.0024307623 0)
(1.0142547 0.0027526469 0)
(1.0138955 0.002619224 0)
(1.0134242 0.0026157267 0)
(1.0128987 0.0023267352 0)
(1.0123793 0.0020759327 0)
(1.0118903 0.0016504784 0)
(1.0114826 0.0011988402 0)
(1.0111712 0.00068778835 0)
(1.0109711 0.00018104634 0)
(1.0108677 -0.00029155654 0)
(1.0108541 -0.0006951914 0)
(1.0109054 -0.0010000184 0)
(1.0109923 -0.0011897588 0)
(1.0110767 -0.0012590397 0)
(1.0111295 -0.001218134 0)
(1.0111247 -0.0010884164 0)
(1.0110538 -0.00089979259 0)
(1.0109192 -0.00068480247 0)
(1.0107401 -0.00047333939 0)
(1.010546 -0.00028784504 0)
(1.0103757 -0.00014175273 0)
(1.0102744 -3.7705803e-05 0)
(0.95303824 -0.00027455993 2.5916076e-24)
(0.96760454 -8.6789345e-05 2.1438091e-24)
(0.97976758 0.00019457169 0)
(0.98990085 0.00041280403 0)
(0.99932407 0.00076125214 0)
(1.0081915 0.0011280978 0)
(1.0127567 0.0019162885 0)
(1.013122 0.0020625984 0)
(1.0134632 0.0027440608 0)
(1.0139244 0.0027356116 0)
(1.0138256 0.0029294341 0)
(1.0134575 0.0027070143 0)
(1.01298 0.0026302992 0)
(1.0124528 0.002267534 0)
(1.0119487 0.0019348273 0)
(1.0114999 0.0014312627 0)
(1.011154 0.00091383665 0)
(1.01092 0.00035582738 0)
(1.0108015 -0.00017351078 0)
(1.0107818 -0.00064853676 0)
(1.0108444 -0.0010313233 0)
(1.0109629 -0.0012988438 0)
(1.0110981 -0.0014369018 0)
(1.0112149 -0.0014483332 0)
(1.0112786 -0.0013489233 0)
(1.0112705 -0.0011666231 0)
(1.0111822 -0.00093554626 0)
(1.0110242 -0.00069040092 0)
(1.0108191 -0.00046099094 0)
(1.0106008 -0.00026886429 0)
(1.010411 -0.000125344 0)
(1.0102968 -3.0909196e-05 0)
(0.93807507 -0.00031365987 -2.6036246e-24)
(0.95379709 -0.00015928198 -6.7351533e-24)
(0.96801339 8.8217308e-05 0)
(0.98028982 0.00035667681 0)
(0.99047757 0.0005511834 0)
(1.000095 0.0010275613 0)
(1.0089729 0.0015860315 0)
(1.0127593 0.002478466 0)
(1.0127509 0.0025525941 0)
(1.0130839 0.003068784 0)
(1.0135025 0.0029277111 0)
(1.0133831 0.0030314037 0)
(1.0129991 0.0027408103 0)
(1.0125069 0.0025919298 0)
(1.0119823 0.0021481433 0)
(1.0115089 0.0017221542 0)
(1.0111181 0.0011442753 0)
(1.0108503 0.0005657423 0)
(1.0107023 -2.5138247e-05 0)
(1.0106733 -0.00056747755 0)
(1.0107382 -0.0010302475 0)
(1.0108793 -0.0013818499 0)
(1.0110593 -0.001599865 0)
(1.0112398 -0.0016781745 0)
(1.0113789 -0.0016250978 0)
(1.0114478 -0.0014641104 0)
(1.0114269 -0.0012287577 0)
(1.0113165 -0.00095664759 0)
(1.01113 -0.00068393071 0)
(1.010896 -0.00043977592 0)
(1.0106518 -0.00024409245 0)
(1.0104418 -0.00010580375 0)
(1.0103144 -2.3191239e-05 0)
(0.92277793 -0.00036572644 0)
(0.93882678 -0.00018493501 6.745417e-24)
(0.95428884 -3.0761082e-05 0)
(0.96855659 0.00024396419 0)
(0.98099653 0.00047080698 0)
(0.99123588 0.00073664506 0)
(1.0010296 0.0015406645 0)
(1.0095901 0.0021959977 0)
(1.012475 0.0030172991 0)
(1.0122597 0.0029285741 0)
(1.0126796 0.0032620001 0)
(1.0130787 0.0030397307 0)
(1.0129255 0.0030858376 0)
(1.0125045 0.002726934 0)
(1.0120004 0.0024939048 0)
(1.0114931 0.0019526747 0)
(1.0110719 0.0014334508 0)
(1.010759 0.00078567568 0)
(1.0105799 0.00016036813 0)
(1.0105269 -0.00045336998 0)
(1.0105898 -0.00099351538 0)
(1.010743 -0.0014331199 0)
(1.0109585 -0.0017399129 0)
(1.0111979 -0.001898768 0)
(1.0114141 -0.0019085577 0)
(1.0115696 -0.0017860467 0)
(1.011633 -0.0015613757 0)
(1.0115936 -0.0012733013 0)
(1.0114539 -0.00096250979 0)
(1.0112351 -0.00066532838 0)
(1.0109696 -0.00040998845 0)
(1.0106984 -0.00021388255 0)
(1.0104676 -8.3369185e-05 0)
(1.0103269 -1.4603774e-05 0)
(0.90747941 -0.00034201351 1.3780998e-24)
(0.92344668 -0.00029515918 0)
(0.93930465 -2.8121186e-05 1.3219316e-23)
(0.95492921 4.6538466e-05 0)
(0.96930545 0.00033859015 0)
(0.98189928 0.00066656359 0)
(0.9920894 0.001124463 0)
(1.0019895 0.0022606561 0)
(1.0099683 0.0028116088 0)
(1.0119738 0.0033708307 0)
(1.0117692 0.0031533141 0)
(1.0122954 0.0033758209 0)
(1.0126439 0.0031097904 0)
(1.0124241 0.0031020572 0)
(1.0119652 0.0026569151 0)
(1.0114628 0.0023151533 0)
(1.0109996 0.0016724054 0)
(1.0106541 0.0010635491 0)
(1.0104326 0.00036107638 0)
(1.0103524 -0.00030021105 0)
(1.010398 -0.00092133344 0)
(1.0105576 -0.0014481154 0)
(1.0107969 -0.0018500739 0)
(1.011086 -0.0021010691 0)
(1.0113761 -0.0021898519 0)
(1.0116223 -0.0021241001 0)
(1.0117826 -0.0019279909 0)
(1.0118338 -0.0016385076 0)
(1.0117666 -0.0012993815 0)
(1.0115931 -0.00095276174 0)
(1.0113381 -0.00063496732 0)
(1.0110391 -0.00037204603 0)
(1.0107398 -0.00017864573 0)
(1.0104882 -5.8305367e-05 0)
(1.0103342 -5.2728851e-06 0)
(0.89279083 -0.00036287571 -5.2971543e-24)
(0.90797935 -0.00027796771 -1.9224064e-23)
(0.92387659 -0.00016568955 -1.321213e-23)
(0.93992765 5.4590101e-05 -2.0112137e-23)
(0.95578566 4.6930561e-05 -2.5301334e-23)
(0.97025377 0.00051321985 0)
(0.98289557 0.0011199377 0)
(0.99290436 0.0016895096 0)
(1.002921 0.0029574864 0)
(1.0101781 0.0032565109 0)
(1.0114216 0.0035278492 0)
(1.0113228 0.003283557 0)
(1.0119095 0.0034617777 0)
(1.0121625 0.0031516764 0)
(1.0118632 0.0030675808 0)
(1.0113796 0.0025033852 0)
(1.010912 0.0020409426 0)
(1.0105216 0.001300465 0)
(1.0102688 0.00061881888 0)
(1.0101495 -0.00012666404 0)
(1.0101729 -0.000808092 0)
(1.0103226 -0.0014257052 0)
(1.0105785 -0.0019239382 0)
(1.0109047 -0.0022764495 0)
(1.0112603 -0.0024587655 0)
(1.0115958 -0.0024683613 0)
(1.01186 -0.0023205867 0)
(1.0120175 -0.0020478775 0)
(1.0120457 -0.0016941316 0)
(1.0119451 -0.0013061218 0)
(1.0117317 -0.00092762717 0)
(1.0114377 -0.00059317853 0)
(1.0111036 -0.00032647385 0)
(1.0107759 -0.00013875896 0)
(1.0105034 -3.0881244e-05 0)
(1.0103364 4.7263683e-06 0)
(0.87941461 -0.00032028417 6.3726841e-24)
(0.89305713 -0.00031954643 3.3742556e-23)
(0.90830533 -0.00014202477 0)
(0.92444332 -0.00014776515 7.0574238e-23)
(0.94077546 5.6408889e-05 2.5173781e-23)
(0.95685703 0.00011177984 3.8526589e-23)
(0.97126648 0.00096702252 1.9754133e-23)
(0.98385248 0.0017669684 0)
(0.99372533 0.0022708166 0)
(1.0038716 0.003449024 0)
(1.0102831 0.0034881236 0)
(1.0108786 0.0036091182 0)
(1.0108987 0.0033807425 0)
(1.0114746 0.0035410413 0)
(1.0116021 0.003151503 0)
(1.0112363 0.0029462318 0)
(1.0107705 0.002243878 0)
(1.0103728 0.0016630416 0)
(1.0100758 0.00084377585 0)
(1.0099273 0.0001030927 0)
(1.0099155 -0.00066934131 0)
(1.010048 -0.0013599551 0)
(1.0103034 -0.0019592418 0)
(1.0106578 -0.0024166902 0)
(1.0110661 -0.0027052332 0)
(1.011484 -0.0028078483 0)
(1.0118533 -0.0027291882 0)
(1.0121274 -0.002494172 0)
(1.0122696 -0.0021436296 0)
(1.0122675 -0.0017266131 0)
(1.0121255 -0.0012935744 0)
(1.0118685 -0.00088724053 0)
(1.0115326 -0.00054059963 0)
(1.0111622 -0.00027386513 0)
(1.0108062 -9.4429307e-05 0)
(1.0105131 -1.4089559e-06 0)
(1.0103334 1.5297687e-05 0)
(0.86786817 -0.00028547102 -6.9230755e-26)
(0.87937729 -0.00028629726 -7.9904549e-24)
(0.89324014 -0.00018357127 1.4165177e-23)
(0.90873133 -0.00015598825 -2.8011992e-23)
(0.92525641 -0.00021645934 -5.2348187e-23)
(0.94184928 0.00013555953 3.4461104e-23)
(0.95800517 0.00046045988 1.3794994e-22)
(0.97221484 0.0016443624 -2.4669596e-23)
(0.9847749 0.0023601795 0)
(0.99468887 0.0027025231 0)
(1.0048554 0.0037267786 0)
(1.0102119 0.0036110911 0)
(1.010356 0.0037160725 0)
(1.0104387 0.0034797466 0)
(1.0109489 0.0035930036 0)
(1.0109505 0.0030619617 0)
(1.0105722 0.002705517 0)
(1.0101691 0.001867159 0)
(1.0098659 0.0011896072 0)
(1.0096745 0.00030808443 0)
(1.0096357 -0.00047448155 0)
(1.009737 -0.001263344 0)
(1.0099811 -0.0019491543 0)
(1.0103463 -0.0025179663 0)
(1.0107966 -0.0029191262 0)
(1.0112845 -0.0031309036 0)
(1.0117542 -0.0031420713 0)
(1.012149 -0.0029674517 0)
(1.0124192 -0.0026415541 0)
(1.0125375 -0.0022127019 0)
(1.0124949 -0.0017356536 0)
(1.0123063 -0.0012613686 0)
(1.0120013 -0.00083231444 0)
(1.0116217 -0.00047787508 0)
(1.011215 -0.00021451738 0)
(1.0108305 -4.6621926e-05 0)
(1.0105173 2.9852415e-05 0)
(1.0103254 2.6323367e-05 0)
(0.85810484 -0.00020261403 -2.542725e-24)
(0.86749527 -0.00024593583 3.5659902e-24)
(0.87940632 -0.00015640858 0)
(0.89348399 -0.00023493285 -2.1423959e-23)
(0.90941766 -0.00026914207 -6.2670282e-24)
(0.92630211 -0.00020284962 0)
(0.94300827 0.00052780451 -9.8266347e-23)
(0.95910035 0.0010336195 -1.1264147e-22)
(0.97312045 0.002297533 0)
(0.98580287 0.0026898056 0)
(0.99594434 0.0029103468 0)
(1.0058697 0.0039164604 0)
(1.0099906 0.0036939061 0)
(1.0098012 0.003875808 0)
(1.0098812 0.0035675534 0)
(1.0103097 0.0035562819 0)
(1.0102428 0.0028376778 0)
(1.0099121 0.0023305732 0)
(1.0096015 0.0013842576 0)
(1.0094052 0.00062931782 0)
(1.0093244 -0.00029574872 0)
(1.0093997 -0.0011097666 0)
(1.0096171 -0.0019022163 0)
(1.0099784 -0.002571995 0)
(1.0104535 -0.0030947547 0)
(1.0109992 -0.0034259096 0)
(1.0115583 -0.0035464474 0)
(1.0120719 -0.0034557809 0)
(1.012478 -0.0031786787 0)
(1.0127344 -0.0027593306 0)
(1.0128163 -0.0022540747 0)
(1.0127263 -0.0017202505 0)
(1.0124847 -0.001210335 0)
(1.0121289 -0.00076343208 0)
(1.0117043 -0.00040580219 0)
(1.011261 -0.00014939625 0)
(1.0108487 4.6388813e-06 0)
(1.0105161 6.2555753e-05 0)
(1.0103126 3.7692402e-05 0)
(0.85080792 -0.0001229842 0)
(0.85733081 -0.0001471694 0)
(0.86733145 -0.00011867288 -3.6787225e-24)
(0.8794414 -0.00024746733 0)
(0.89400136 -0.00039766488 -3.1841067e-24)
(0.91032104 -0.00030312815 4.9459734e-23)
(0.9274571 0.00014917284 2.3919583e-22)
(0.94412511 0.0011530593 2.1654109e-22)
(0.96017367 0.0015759637 0)
(0.9741403 0.0026716116 0)
(0.9871364 0.0027550294 0)
(0.99757781 0.0030253959 0)
(1.0069037 0.0041265502 0)
(1.0096221 0.0038099471 0)
(1.0091063 0.0040391558 0)
(1.0092057 0.0035658822 0)
(1.0095983 0.0033683529 0)
(1.0095333 0.0024601262 0)
(1.0092884 0.0018362514 0)
(1.0090829 0.00080763797 0)
(1.0089972 -5.0103877e-06 0)
(1.0090297 -0.00096271615 0)
(1.0092221 -0.0017967719 0)
(1.0095617 -0.0025837779 0)
(1.0100433 -0.003222332 0)
(1.0106308 -0.0036844489 0)
(1.0112658 -0.0039293598 0)
(1.0118896 -0.003945544 0)
(1.0124331 -0.0037431644 0)
(1.0128394 -0.0033583309 0)
(1.0130672 -0.0028454218 0)
(1.013104 -0.0022660117 0)
(1.0129578 -0.0016810977 0)
(1.0126591 -0.0011406607 0)
(1.0122498 -0.00068161595 0)
(1.0117798 -0.00032508654 0)
(1.0113002 -7.8992402e-05 0)
(1.0108608 5.8443162e-05 0)
(1.0105096 9.6464297e-05 0)
(1.0102951 4.9389002e-05 0)
(0.84950469 -3.2540186e-05 -4.6624957e-25)
(0.8507727 7.2334798e-05 0)
(0.85689549 -1.300172e-05 -9.671376e-24)
(0.86707485 -0.0002351718 -1.4838967e-23)
(0.87976395 -0.00045750721 -8.8884722e-24)
(0.89471964 -0.00048240266 1.6906504e-23)
(0.91134045 1.7265167e-05 7.443808e-24)
(0.9285904 0.00075238963 2.9595415e-23)
(0.94524193 0.0017357791 -2.8439089e-22)
(0.96137591 0.0018240335 0)
(0.97547893 0.0027211075 -2.8726763e-22)
(0.98886412 0.0027383326 0)
(0.99943317 0.0031947172 0)
(1.0077597 0.0044321119 0)
(1.0090021 0.0039708221 0)
(1.0082353 0.0041058182 0)
(1.0084619 0.0033924872 0)
(1.0088807 0.0030036457 0)
(1.0088623 0.0019493603 0)
(1.0087181 0.0012403381 0)
(1.0086199 0.0001530379 0)
(1.0086448 -0.00070630893 0)
(1.008792 -0.0016869357 0)
(1.009108 -0.0025343016 0)
(1.0095755 -0.0033026847 0)
(1.0101826 -0.0038954484 0)
(1.0108795 -0.0042792435 0)
(1.0115995 -0.0044223341 0)
(1.012275 -0.0043209539 0)
(1.0128368 -0.0039984727 0)
(1.0132271 -0.0035030384 0)
(1.0134157 -0.0028972048 0)
(1.0133958 -0.0022487354 0)
(1.0131876 -0.0016178791 0)
(1.0128272 -0.0010537301 0)
(1.0123631 -0.00058768645 0)
(1.0118474 -0.00023665446 0)
(1.0113323 -4.2805733e-06 0)
(1.0108668 0.00011463147 0)
(1.010498 0.00013128567 0)
(1.0102732 6.1276816e-05 0)
(0.84881045 0.00010586351 8.6044942e-24)
(0.84948927 0.00022903487 0)
(0.85803316 0.00014829014 -2.4867299e-24)
(0.85624689 -0.00013972523 1.483096e-23)
(0.86707563 -0.00047838442 3.5109694e-24)
(0.88024827 -0.00057846213 1.0249867e-22)
(0.89556302 -0.00019238291 -1.9098813e-22)
(0.91234471 0.00059147274 -8.7855575e-23)
(0.92974001 0.0013159575 -2.6506107e-22)
(0.94649909 0.0019748916 -1.0347048e-22)
(0.96291208 0.0017312232 -3.7898207e-22)
(0.97720442 0.0026705751 2.9867199e-22)
(0.9908789 0.0028184173 0)
(1.0012705 0.0035811107 0)
(1.008075 0.004779671 0)
(1.0080566 0.0040662225 0)
(1.0072717 0.003965176 0)
(1.007734 0.0030111425 0)
(1.0082058 0.0024907608 0)
(1.0082482 0.0013300373 0)
(1.0082072 0.0005617714 0)
(1.0082127 -0.00057039243 0)
(1.0083468 -0.0014689092 0)
(1.008615 -0.0024686318 0)
(1.0090619 -0.0033191753 0)
(1.0096661 -0.0040558059 0)
(1.0104004 -0.0045840929 0)
(1.0112043 -0.0048716447 0)
(1.0119989 -0.0048966922 0)
(1.0127147 -0.0046657645 0)
(1.0132776 -0.0042167685 0)
(1.0136389 -0.0036090231 0)
(1.0137739 -0.0029140262 0)
(1.0136894 -0.0022013479 0)
(1.0134122 -0.0015321512 0)
(1.0129878 -0.00095012175 0)
(1.0124678 -0.00048280481 0)
(1.011907 -0.00014145741 0)
(1.0113572 7.4200934e-05 0)
(1.0108669 0.00017247501 0)
(1.0104816 0.00016677648 0)
(1.0102471 7.329679e-05 0)
(0.84784187 -2.6639892e-05 3.9242018e-24)
(0.84880117 0.00035442983 1.1210741e-23)
(0.85729018 0.00033751246 0)
(0.86776531 0.00023066092 -5.5986633e-26)
(0.85581269 -0.00039818622 -4.6264406e-24)
(0.86713712 -0.00063338603 -5.6358061e-23)
(0.8808374 -0.00030768016 0)
(0.89642407 0.00036484145 8.7270261e-23)
(0.91338295 0.0011186291 -1.3387705e-22)
(0.93103345 0.0015086329 1.0213749e-22)
(0.94808528 0.0018227939 4.7390519e-22)
(0.96487016 0.0015217191 3.9340981e-22)
(0.97921632 0.0027349237 0)
(0.99298619 0.0031546075 0)
(1.002736 0.0041359523 0)
(1.0077917 0.0049870257 0)
(1.0069269 0.0039570511 0)
(1.0063502 0.0035863394 0)
(1.0070793 0.0024639591 0)
(1.0075903 0.0018636951 0)
(1.0076971 0.00062621023 0)
(1.0077537 -0.00018672558 0)
(1.0078572 -0.0013558592 0)
(1.0081042 -0.0022945157 0)
(1.0085031 -0.0033068509 0)
(1.0090927 -0.0041499584 0)
(1.0098395 -0.0048366097 0)
(1.0107028 -0.0052813033 0)
(1.0116054 -0.0054531996 0)
(1.0124651 -0.0053440918 0)
(1.0132036 -0.0049732719 0)
(1.0137529 -0.0043929542 0)
(1.0140682 -0.0036744153 0)
(1.0141392 -0.0028942688 0)
(1.0139802 -0.0021252295 0)
(1.0136301 -0.0014241514 0)
(1.013139 -0.00083153053 0)
(1.0125632 -0.00036806417 0)
(1.011958 -4.0539695e-05 0)
(1.0113751 0.0001556379 0)
(1.0108612 0.00023174136 0)
(1.0104606 0.00020268364 0)
(1.0102172 8.5354785e-05 0)
(0.84721261 -0.00031524409 -5.7370125e-24)
(0.84785615 0.00020699743 -3.9303875e-24)
(0.85691892 0.00046770406 -9.6620424e-24)
(0.86740982 0.0004233015 -3.5358469e-24)
(0.87927276 0.00026256615 9.189705e-24)
(0.85543824 -0.00056506111 5.7428131e-23)
(0.86728692 -0.00038401307 4.1879667e-23)
(0.88140904 0.00023680929 0)
(0.89734135 0.00088050947 1.3753219e-22)
(0.9145507 0.0012516015 -4.5312947e-23)
(0.93264186 0.0012672684 0)
(0.95009126 0.0015424033 -5.6452561e-22)
(0.9671526 0.0014282414 0)
(0.98135083 0.0030992102 0)
(0.99500167 0.00368228 0)
(1.0037681 0.0046237554 0)
(1.00699 0.004851219 0)
(1.0057824 0.0035650654 0)
(1.0055565 0.0030256362 0)
(1.0065091 0.001803061 0)
(1.0070378 0.0011483492 0)
(1.0072055 -0.00014446991 0)
(1.0073488 -0.00099572936 0)
(1.0075502 -0.0022062306 0)
(1.0079206 -0.0031856038 0)
(1.0084653 -0.0042035356 0)
(1.0092085 -0.0050220381 0)
(1.0101043 -0.0056389271 0)
(1.0110926 -0.0059776726 0)
(1.0120856 -0.0060150283 0)
(1.0129942 -0.005756184 0)
(1.0137397 -0.0052367689 0)
(1.0142558 -0.0045234804 0)
(1.0145118 -0.0036966 0)
(1.0145056 -0.0028387031 0)
(1.0142661 -0.0020202538 0)
(1.0138385 -0.0012960121 0)
(1.01328 -0.00069887073 0)
(1.0126487 -0.00024479334 0)
(1.0120005 6.5182453e-05 0)
(1.0113859 0.00023943837 0)
(1.0108501 0.00029182695 0)
(1.0104353 0.00023879514 0)
(1.0101838 9.7401457e-05 0)
(0.84665943 -0.00052475123 3.4405997e-24)
(0.84721561 -0.00010858037 5.7454445e-24)
(0.8563069 0.00031870453 1.4941123e-23)
(0.86736899 0.00055855274 3.6477877e-24)
(0.87924239 0.00045140902 -1.083562e-23)
(0.89259128 0.00030495934 -5.1408735e-24)
(0.85525455 -0.00032007672 -9.0855626e-23)
(0.86743089 0.00015019475 -5.5627218e-23)
(0.8820037 0.00073892528 -1.663916e-22)
(0.89835797 0.00098681711 5.4555061e-23)
(0.9159937 0.00091848924 -5.6536003e-22)
(0.9346476 0.00087680818 2.4893209e-22)
(0.95242927 0.0013863227 0)