/*--------------------------------*- C++ -*----------------------------------*\
| =========                 |                                                 |
| \\      /  F ield         | OpenFOAM: The Open Source CFD Toolbox           |
|  \\    /   O peration     | Version:  5.0                                   |
|   \\  /    A nd           | Web:      www.OpenFOAM.org                      |
|    \\/     M anipulation  |                                                 |
\*---------------------------------------------------------------------------*/
FoamFile
{
    version     2.0;
    format      ascii;
    class       volSymmTensorField;
    location    "280";
    object      UPrime2Mean;
}
// * * * * * * * * * * * * * * * * * * * * * * * * * * * * * * * * * * * * * //

dimensions      [0 2 -2 0 0 0 0];

internalField   nonuniform List<symmTensor> 
9520
(
(2.8140354e-05 6.7343579e-07 0 2.1967347e-08 0 0)
(2.8491686e-05 1.9782307e-06 0 1.8902678e-07 0 0)
(2.4289144e-05 6.3212174e-07 0 2.2534375e-08 0 0)
(2.9127343e-05 3.2016902e-06 0 4.9247099e-07 0 0)
(2.465099e-05 1.8592264e-06 0 1.9394023e-07 0 0)
(2.280919e-05 6.2061646e-07 0 2.3027042e-08 0 0)
(3.000546e-05 4.3480839e-06 0 9.0255777e-07 0 0)
(2.5310953e-05 3.0159659e-06 0 5.0557279e-07 0 0)
(2.3172144e-05 1.8270741e-06 0 1.9830263e-07 0 0)
(2.05132e-05 6.0052631e-07 0 2.4033746e-08 0 0)
(3.1092951e-05 5.4201935e-06 0 1.3933389e-06 0 0)
(2.6229764e-05 4.1088932e-06 0 9.2746387e-07 0 0)
(2.383416e-05 2.9680604e-06 0 5.1735992e-07 0 0)
(2.0874007e-05 1.7701582e-06 0 2.0712356e-07 0 0)
(1.8811896e-05 5.8570763e-07 0 2.4992629e-08 0 0)
(3.235981e-05 6.4183993e-06 0 1.9425186e-06 0 0)
(2.737784e-05 5.1422268e-06 0 1.4335383e-06 0 0)
(2.4758037e-05 4.0514706e-06 0 9.5003451e-07 0 0)
(2.1535289e-05 2.8823569e-06 0 5.4114877e-07 0 0)
(1.9167942e-05 1.7282781e-06 0 2.1557078e-07 0 0)
(1.6976799e-05 5.6955813e-07 0 2.6283409e-08 0 0)
(3.3776211e-05 7.3424068e-06 0 2.5312902e-06 0 0)
(2.8728591e-05 6.1173061e-06 0 2.0013884e-06 0 0)
(2.5915917e-05 5.0823856e-06 0 1.4701158e-06 0 0)
(2.2462092e-05 3.9470088e-06 0 9.9559337e-07 0 0)
(1.9822045e-05 2.8196405e-06 0 5.640147e-07 0 0)
(1.7322735e-05 1.6825331e-06 0 2.2694924e-07 0 0)
(1.5392757e-05 5.5317836e-07 0 2.7484035e-08 0 0)
(3.5312561e-05 8.1909807e-06 0 3.1440184e-06 0 0)
(3.0255648e-05 7.0343518e-06 0 2.612282e-06 0 0)
(2.7282856e-05 6.0625986e-06 0 2.0549344e-06 0 0)
(2.3629224e-05 4.9709878e-06 0 1.5442316e-06 0 0)
(2.0741472e-05 3.8714744e-06 0 1.039586e-06 0 0)
(1.7959827e-05 2.7510996e-06 0 5.9491468e-07 0 0)
(1.5728259e-05 1.6358988e-06 0 2.3755623e-07 0 0)
(1.3822611e-05 5.3545604e-07 0 2.8876033e-08 0 0)
(3.6939041e-05 8.9624046e-06 0 3.7686293e-06 0 0)
(3.1933025e-05 7.8919617e-06 0 3.2507977e-06 0 0)
(2.8834078e-05 6.992547e-06 0 2.6851928e-06 0 0)
(2.5014438e-05 5.9572856e-06 0 2.1645658e-06 0 0)
(2.1903609e-05 4.8921782e-06 0 1.6160148e-06 0 0)
(1.8858087e-05 3.7889841e-06 0 1.0993349e-06 0 0)
(1.6347288e-05 2.6802042e-06 0 6.2383466e-07 0 0)
(1.4142397e-05 1.5852932e-06 0 2.4985689e-07 0 0)
(1.2421407e-05 5.1522562e-07 0 3.014905e-08 0 0)
(3.8627124e-05 9.6560868e-06 0 4.3949042e-06 0 0)
(3.3732763e-05 8.6877035e-06 0 3.9036397e-06 0 0)
(3.0544276e-05 7.8711737e-06 0 3.3445069e-06 0 0)
(2.6595641e-05 6.907088e-06 0 2.8374836e-06 0 0)
(2.328858e-05 5.8856499e-06 0 2.2707804e-06 0 0)
(1.9997467e-05 4.8061245e-06 0 1.7141601e-06 0 0)
(1.7222027e-05 3.7016223e-06 0 1.1555323e-06 0 0)
(1.4733092e-05 2.6025177e-06 0 6.5743425e-07 0 0)
(1.2725739e-05 1.5271317e-06 0 2.6111373e-07 0 0)
(1.10794e-05 4.9252591e-07 0 3.1497353e-08 0 0)
(4.0348845e-05 1.0267487e-05 0 5.0172667e-06 0 0)
(3.5628415e-05 9.4188455e-06 0 4.5595537e-06 0 0)
(3.2388485e-05 8.6969865e-06 0 4.0211415e-06 0 0)
(2.8350458e-05 7.8194582e-06 0 3.5466996e-06 0 0)
(2.4876047e-05 6.8536573e-06 0 2.9846885e-06 0 0)
(2.1361073e-05 5.8077088e-06 0 2.417177e-06 0 0)
(1.8334752e-05 4.7113446e-06 0 1.8069945e-06 0 0)
(1.5570183e-05 3.6042054e-06 0 1.2209715e-06 0 0)
(1.3288888e-05 2.511794e-06 0 6.8828151e-07 0 0)
(1.1364486e-05 1.4614124e-06 0 2.7307892e-07 0 0)
(9.8815542e-06 4.6714295e-07 0 3.2672668e-08 0 0)
(4.2079883e-05 1.0805526e-05 0 5.6300955e-06 0 0)
(3.7594937e-05 1.0080977e-05 0 5.2144771e-06 0 0)
(3.4341778e-05 9.467775e-06 0 4.7042337e-06 0 0)
(3.025467e-05 8.6918231e-06 0 4.2782297e-06 0 0)
(2.6644507e-05 7.7956342e-06 0 3.7413881e-06 0 0)
(2.2931359e-05 6.7964702e-06 0 3.1894413e-06 0 0)
(1.9670925e-05 5.7157242e-06 0 2.5563225e-06 0 0)
(1.6638479e-05 4.602637e-06 0 1.9154156e-06 0 0)
(1.4088934e-05 3.4875291e-06 0 1.2813735e-06 0 0)
(1.1892895e-05 2.4079733e-06 0 7.2123371e-07 0 0)
(1.0148094e-05 1.3873302e-06 0 2.835476e-07 0 0)
(8.762171e-06 4.3971407e-07 0 3.3797469e-08 0 0)
(4.3801946e-05 1.126113e-05 0 6.2527906e-06 0 0)
(3.9637188e-05 1.0682081e-05 0 5.8615662e-06 0 0)
(3.6376644e-05 1.0180164e-05 0 5.3876138e-06 0 0)
(3.2284347e-05 9.5229884e-06 0 5.0212287e-06 0 0)
(2.8570445e-05 8.7101301e-06 0 4.5274613e-06 0 0)
(2.4689496e-05 7.7723708e-06 0 4.014601e-06 0 0)
(2.1215023e-05 6.7182552e-06 0 3.3848277e-06 0 0)
(1.7925983e-05 5.605458e-06 0 2.719563e-06 0 0)
(1.511269e-05 4.4676082e-06 0 2.0161416e-06 0 0)
(1.2645699e-05 3.3512436e-06 0 1.3461964e-06 0 0)
(1.0643283e-05 2.2894406e-06 0 7.5022572e-07 0 0)
(9.0084802e-06 1.3066978e-06 0 2.9364694e-07 0 0)
(7.7722813e-06 4.1089279e-07 0 3.4668088e-08 0 0)
(4.5496302e-05 1.1647211e-05 0 6.8404179e-06 0 0)
(4.1710404e-05 1.1193714e-05 0 6.5024213e-06 0 0)
(3.8465183e-05 1.0831986e-05 0 6.062718e-06 0 0)
(3.4430414e-05 1.0311786e-05 0 5.7679454e-06 0 0)
(3.0631602e-05 9.5961649e-06 0 5.33223e-06 0 0)
(2.6615068e-05 8.7339576e-06 0 4.8790521e-06 0 0)
(2.295007e-05 7.7195772e-06 0 4.2764959e-06 0 0)
(1.9419891e-05 6.6173199e-06 0 3.6152441e-06 0 0)
(1.6349902e-05 5.4606643e-06 0 2.8721766e-06 0 0)
(1.3612138e-05 4.3053536e-06 0 2.1246264e-06 0 0)
(1.1350639e-05 3.19294e-06 0 1.4037271e-06 0 0)
(9.4672073e-06 2.1591012e-06 0 7.7848948e-07 0 0)
(8.0000267e-06 1.2215042e-06 0 3.0153305e-07 0 0)
(6.8652788e-06 3.8108926e-07 0 3.5382767e-08 0 0)
(4.7140846e-05 1.1922875e-05 0 7.4797659e-06 0 0)
(4.3745771e-05 1.1653759e-05 0 7.1384961e-06 0 0)
(4.0568047e-05 1.1421459e-05 0 6.7486623e-06 0 0)
(3.667289e-05 1.1059437e-05 0 6.508311e-06 0 0)
(3.2793158e-05 1.0449513e-05 0 6.1487482e-06 0 0)
(2.8689289e-05 9.6799476e-06 0 5.7713863e-06 0 0)
(2.4856912e-05 8.7186481e-06 0 5.2180748e-06 0 0)
(2.1106669e-05 7.6397912e-06 0 4.58663e-06 0 0)
(1.7789126e-05 6.4720655e-06 0 3.8319748e-06 0 0)
(1.4783327e-05 5.2796103e-06 0 3.0371645e-06 0 0)
(1.2261347e-05 4.1127522e-06 0 2.2219495e-06 0 0)
(1.0124324e-05 3.0163307e-06 0 1.4603875e-06 0 0)
(8.4250699e-06 2.0201649e-06 0 8.0085079e-07 0 0)
(7.07437e-06 1.1330309e-06 0 3.0810614e-07 0 0)
(6.0715974e-06 3.509603e-07 0 3.5804706e-08 0 0)
(4.8730072e-05 1.2168797e-05 0 8.0518908e-06 0 0)
(4.5811171e-05 1.2017322e-05 0 7.8183734e-06 0 0)
(4.2698524e-05 1.1962721e-05 0 7.4153801e-06 0 0)
(3.8934143e-05 1.1740433e-05 0 7.2496963e-06 0 0)
(3.5043506e-05 1.127137e-05 0 6.9710633e-06 0 0)
(3.0900551e-05 1.0606545e-05 0 6.6819858e-06 0 0)
(2.6913056e-05 9.7112946e-06 0 6.1989116e-06 0 0)
(2.2971607e-05 8.6723075e-06 0 5.6201813e-06 0 0)
(1.9417484e-05 7.5039989e-06 0 4.8801716e-06 0 0)
(1.6150346e-05 6.280395e-06 0 4.0672293e-06 0 0)
(1.336832e-05 5.0587623e-06 0 3.1868241e-06 0 0)
(1.0973206e-05 3.8937519e-06 0 2.3186126e-06 0 0)
(9.0352262e-06 2.8259357e-06 0 1.506004e-06 0 0)
(7.4652453e-06 1.8747985e-06 0 8.1992248e-07 0 0)
(6.2643882e-06 1.043429e-06 0 3.1209566e-07 0 0)
(5.3577666e-06 3.2037328e-07 0 3.6029045e-08 0 0)
(5.0240937e-05 1.224737e-05 0 8.781767e-06 0 0)
(4.787503e-05 1.2367294e-05 0 8.4712695e-06 0 0)
(4.4877914e-05 1.241955e-05 0 8.1259002e-06 0 0)
(4.1197998e-05 1.2372424e-05 0 7.9919238e-06 0 0)
(3.7344379e-05 1.2043281e-05 0 7.8102105e-06 0 0)
(3.3210442e-05 1.1509773e-05 0 7.6110342e-06 0 0)
(2.9102333e-05 1.0694448e-05 0 7.2132584e-06 0 0)
(2.5002325e-05 9.7130756e-06 0 6.7040684e-06 0 0)
(2.1219741e-05 8.5561692e-06 0 6.0031451e-06 0 0)
(1.770315e-05 7.3111198e-06 0 5.2000226e-06 0 0)
(1.46635e-05 6.0376365e-06 0 4.282898e-06 0 0)
(1.200845e-05 4.8015347e-06 0 3.3365926e-06 0 0)
(9.8256011e-06 3.654285e-06 0 2.3980726e-06 0 0)
(8.0279632e-06 2.6247402e-06 0 1.5458111e-06 0 0)
(6.625097e-06 1.7268066e-06 0 8.3201476e-07 0 0)
(5.5348775e-06 9.5228482e-07 0 3.1437728e-07 0 0)
(4.741182e-06 2.8988719e-07 0 3.5977539e-08 0 0)
(5.1657245e-05 1.2403247e-05 0 9.4675742e-06 0 0)
(4.99806e-05 1.2520344e-05 0 9.2874983e-06 0 0)
(4.7087671e-05 1.284445e-05 0 8.8037375e-06 0 0)
(4.352138e-05 1.2938461e-05 0 8.7972724e-06 0 0)
(3.9690643e-05 1.27693e-05 0 8.6627689e-06 0 0)
(3.5590754e-05 1.2363662e-05 0 8.5649091e-06 0 0)
(3.1418228e-05 1.166514e-05 0 8.2562858e-06 0 0)
(2.7179842e-05 1.075774e-05 0 7.8304516e-06 0 0)
(2.3180305e-05 9.6268229e-06 0 7.1895817e-06 0 0)
(1.9430032e-05 8.3732002e-06 0 6.4220283e-06 0 0)
(1.6136703e-05 7.0528612e-06 0 5.496338e-06 0 0)
(1.322392e-05 5.7468744e-06 0 4.500345e-06 0 0)
(1.079272e-05 4.5155969e-06 0 3.462363e-06 0 0)
(8.7593454e-06 3.3980149e-06 0 2.4688812e-06 0 0)
(7.1452833e-06 2.4183768e-06 0 1.5723146e-06 0 0)
(5.8664448e-06 1.5754491e-06 0 8.3967577e-07 0 0)
(4.9050868e-06 8.6143285e-07 0 3.1420683e-07 0 0)
(4.1988179e-06 2.5929031e-07 0 3.5724085e-08 0 0)
(5.2962491e-05 1.2167006e-05 0 1.0389582e-05 0 0)
(5.2099958e-05 1.2787279e-05 0 1.0135352e-05 0 0)
(4.9361363e-05 1.3100024e-05 0 9.6924026e-06 0 0)
(4.5893977e-05 1.3463422e-05 0 9.5943846e-06 0 0)
(4.2133558e-05 1.3429517e-05 0 9.5884399e-06 0 0)
(3.8033258e-05 1.3174325e-05 0 9.5560573e-06 0 0)
(3.3834012e-05 1.2598437e-05 0 9.3382462e-06 0 0)
(2.9492047e-05 1.1800485e-05 0 8.9959997e-06 0 0)
(2.5290381e-05 1.0715196e-05 0 8.4306475e-06 0 0)
(2.1316752e-05 9.4661978e-06 0 7.7208326e-06 0 0)
(1.7774631e-05 8.1055904e-06 0 6.8143767e-06 0 0)
(1.4611831e-05 6.7340302e-06 0 5.7973039e-06 0 0)
(1.1931949e-05 5.4173248e-06 0 4.6864692e-06 0 0)
(9.6577402e-06 4.2051962e-06 0 3.5764244e-06 0 0)
(7.8229865e-06 3.1325595e-06 0 2.5184454e-06 0 0)
(6.346049e-06 2.2057567e-06 0 1.5907147e-06 0 0)
(5.2121005e-06 1.4241772e-06 0 8.406285e-07 0 0)
(4.3504684e-06 7.7004918e-07 0 3.1228354e-07 0 0)
(3.7387788e-06 2.2929787e-07 0 3.5225956e-08 0 0)
(5.3915355e-05 1.2281561e-05 0 1.1527784e-05 0 0)
(5.4516337e-05 1.2451836e-05 0 1.1322001e-05 0 0)
(5.1762382e-05 1.3423323e-05 0 1.0607653e-05 0 0)
(4.8396373e-05 1.3850332e-05 0 1.0665627e-05 0 0)
(4.4642019e-05 1.4029238e-05 0 1.0550566e-05 0 0)
(4.0620111e-05 1.3921657e-05 0 1.0642941e-05 0 0)
(3.6339057e-05 1.3493062e-05 0 1.0474757e-05 0 0)
(3.1921734e-05 1.2821689e-05 0 1.0209978e-05 0 0)
(2.7540909e-05 1.1817898e-05 0 9.7210185e-06 0 0)
(2.3347758e-05 1.0588468e-05 0 9.0871997e-06 0 0)
(1.9564217e-05 9.1961886e-06 0 8.225558e-06 0 0)
(1.6161724e-05 7.7650311e-06 0 7.2157356e-06 0 0)
(1.3236448e-05 6.3636694e-06 0 6.059171e-06 0 0)
(1.0720138e-05 5.054158e-06 0 4.8578401e-06 0 0)
(8.6578965e-06 3.8799334e-06 0 3.6600565e-06 0 0)
(6.9728993e-06 2.8566469e-06 0 2.5554326e-06 0 0)
(5.6570404e-06 1.9922628e-06 0 1.5961752e-06 0 0)
(4.6348607e-06 1.2712954e-06 0 8.3696703e-07 0 0)
(3.8806031e-06 6.8040639e-07 0 3.0818859e-07 0 0)
(3.345189e-06 1.9998622e-07 0 3.4529959e-08 0 0)
(5.4737367e-05 1.1359114e-05 0 1.2738623e-05 0 0)
(5.6940845e-05 1.3001326e-05 0 1.3050967e-05 0 0)
(5.4614114e-05 1.3183319e-05 0 1.206235e-05 0 0)
(5.1135769e-05 1.4224423e-05 0 1.1826068e-05 0 0)
(4.7405382e-05 1.45026e-05 0 1.1874465e-05 0 0)
(4.333473e-05 1.4594844e-05 0 1.1826155e-05 0 0)
(3.90278e-05 1.4331089e-05 0 1.1733937e-05 0 0)
(3.4452956e-05 1.3811096e-05 0 1.1490673e-05 0 0)
(2.991759e-05 1.2920682e-05 0 1.1068084e-05 0 0)
(2.5510053e-05 1.1738705e-05 0 1.0515093e-05 0 0)
(2.1491556e-05 1.0324918e-05 0 9.7216641e-06 0 0)
(1.7859963e-05 8.8396367e-06 0 8.7451354e-06 0 0)
(1.4696624e-05 7.3562084e-06 0 7.569732e-06 0 0)
(1.1941778e-05 5.9497838e-06 0 6.3033504e-06 0 0)
(9.6483086e-06 4.6687576e-06 0 4.9885661e-06 0 0)
(7.7476815e-06 3.5386932e-06 0 3.7259874e-06 0 0)
(6.2398115e-06 2.5777912e-06 0 2.5714192e-06 0 0)
(5.0483709e-06 1.7750739e-06 0 1.5930654e-06 0 0)
(4.1471423e-06 1.1210754e-06 0 8.2732074e-07 0 0)
(3.4784544e-06 5.9246524e-07 0 3.0237277e-07 0 0)
(3.0189495e-06 1.7214643e-07 0 3.3622893e-08 0 0)
(5.3874335e-05 1.1452625e-05 0 1.5034005e-05 0 0)
(5.996264e-05 1.125525e-05 0 1.5056952e-05 0 0)
(5.7617788e-05 1.3663245e-05 0 1.4154354e-05 0 0)
(5.4563687e-05 1.4149458e-05 0 1.3853093e-05 0 0)
(5.0584778e-05 1.4913207e-05 0 1.3438154e-05 0 0)
(4.6465868e-05 1.5127258e-05 0 1.3470259e-05 0 0)
(4.19722e-05 1.5093377e-05 0 1.3148206e-05 0 0)
(3.7187124e-05 1.4757277e-05 0 1.2921847e-05 0 0)
(3.2405263e-05 1.4006918e-05 0 1.2492006e-05 0 0)
(2.7795466e-05 1.2907163e-05 0 1.2011091e-05 0 0)
(2.3543906e-05 1.1491841e-05 0 1.1297179e-05 0 0)
(1.9691381e-05 9.9562794e-06 0 1.0378782e-05 0 0)
(1.6301713e-05 8.3944029e-06 0 9.209392e-06 0 0)
(1.3315844e-05 6.8942099e-06 0 7.9032786e-06 0 0)
(1.079093e-05 5.5044801e-06 0 6.495651e-06 0 0)
(8.6696418e-06 4.2605521e-06 0 5.0960622e-06 0 0)
(6.9614066e-06 3.1908783e-06 0 3.7613281e-06 0 0)
(5.5916851e-06 2.2921038e-06 0 2.573906e-06 0 0)
(4.5356102e-06 1.5609909e-06 0 1.5782582e-06 0 0)
(3.7296365e-06 9.7293313e-07 0 8.1308693e-07 0 0)
(3.1460136e-06 5.0878525e-07 0 2.9467423e-07 0 0)
(2.74846e-06 1.4601775e-07 0 3.2537671e-08 0 0)
(5.141124e-05 8.7950194e-06 0 1.6433487e-05 0 0)
(6.1465322e-05 1.2750004e-05 0 1.9096725e-05 0 0)
(6.2141923e-05 1.1761164e-05 0 1.7127418e-05 0 0)
(5.8640785e-05 1.4507373e-05 0 1.6682546e-05 0 0)
(5.4736936e-05 1.4870175e-05 0 1.6197146e-05 0 0)
(5.0288461e-05 1.5553177e-05 0 1.5555374e-05 0 0)
(4.5470243e-05 1.5702384e-05 0 1.5137735e-05 0 0)
(4.028603e-05 1.5638125e-05 0 1.4557003e-05 0 0)
(3.5094131e-05 1.5063632e-05 0 1.4087975e-05 0 0)
(3.0195603e-05 1.407582e-05 0 1.3598703e-05 0 0)
(2.5713636e-05 1.2688816e-05 0 1.2962125e-05 0 0)
(2.1644012e-05 1.1113777e-05 0 1.2114362e-05 0 0)
(1.8040578e-05 9.4763277e-06 0 1.097229e-05 0 0)
(1.483398e-05 7.8867368e-06 0 9.6491725e-06 0 0)
(1.208063e-05 6.3898383e-06 0 8.1722574e-06 0 0)
(9.736509e-06 5.0285483e-06 0 6.659072e-06 0 0)
(7.8217436e-06 3.8403457e-06 0 5.1622301e-06 0 0)
(6.2661566e-06 2.8319195e-06 0 3.7774332e-06 0 0)
(5.0470246e-06 2.0091467e-06 0 2.55714e-06 0 0)
(4.0971049e-06 1.3484709e-06 0 1.5547474e-06 0 0)
(3.3865071e-06 8.317669e-07 0 7.9361404e-07 0 0)
(2.8708561e-06 4.2992968e-07 0 2.8540879e-07 0 0)
(2.5299179e-06 1.2215911e-07 0 3.1290093e-08 0 0)
(4.7402145e-05 7.7955132e-06 0 2.1004393e-05 0 0)
(6.3743104e-05 7.4187165e-06 0 2.2496255e-05 0 0)
(6.5541498e-05 1.3377657e-05 0 2.2766088e-05 0 0)
(6.5047817e-05 1.2618277e-05 0 2.1420159e-05 0 0)
(6.0292916e-05 1.5055231e-05 0 2.0213357e-05 0 0)
(5.5493404e-05 1.5502153e-05 0 1.9274149e-05 0 0)
(4.9986785e-05 1.6171188e-05 0 1.779343e-05 0 0)
(4.4078081e-05 1.6377203e-05 0 1.6878132e-05 0 0)
(3.8216814e-05 1.6079613e-05 0 1.5935323e-05 0 0)
(3.2787875e-05 1.5226134e-05 0 1.5385308e-05 0 0)
(2.799964e-05 1.3895843e-05 0 1.4747711e-05 0 0)
(2.3714201e-05 1.2303945e-05 0 1.3968346e-05 0 0)
(1.9905034e-05 1.0598046e-05 0 1.286029e-05 0 0)
(1.6488711e-05 8.9239076e-06 0 1.1535086e-05 0 0)
(1.351187e-05 7.3248918e-06 0 1.0009953e-05 0 0)
(1.0944565e-05 5.8467327e-06 0 8.4069447e-06 0 0)
(8.8191839e-06 4.5332997e-06 0 6.7696883e-06 0 0)
(7.0718879e-06 3.4031839e-06 0 5.2029573e-06 0 0)
(5.6827361e-06 2.4738787e-06 0 3.7650723e-06 0 0)
(4.5824632e-06 1.7262732e-06 0 2.5263327e-06 0 0)
(3.739331e-06 1.1454608e-06 0 1.5208326e-06 0 0)
(3.1034449e-06 6.9798589e-07 0 7.6986009e-07 0 0)
(2.6498019e-06 3.5779744e-07 0 2.7467138e-07 0 0)
(2.3544876e-06 1.0070207e-07 0 2.9914113e-08 0 0)
(4.8105952e-05 4.9545089e-06 0 2.2978251e-05 0 0)
(6.4297669e-05 8.091118e-06 0 3.0685915e-05 0 0)
(7.1473623e-05 6.6671937e-06 0 2.9325431e-05 0 0)
(7.1860948e-05 1.3926839e-05 0 2.9523306e-05 0 0)
(6.9259877e-05 1.3059537e-05 0 2.7323874e-05 0 0)
(6.3125755e-05 1.5448102e-05 0 2.4834597e-05 0 0)
(5.6414542e-05 1.6159866e-05 0 2.2563633e-05 0 0)
(4.9199701e-05 1.6959354e-05 0 2.0103847e-05 0 0)
(4.2152628e-05 1.6976402e-05 0 1.8566981e-05 0 0)
(3.5852212e-05 1.6363292e-05 0 1.7481297e-05 0 0)
(3.0488557e-05 1.5089694e-05 0 1.6771757e-05 0 0)
(2.5910823e-05 1.350069e-05 0 1.5980553e-05 0 0)
(2.1898112e-05 1.1749731e-05 0 1.4894555e-05 0 0)
(1.8277125e-05 9.9995804e-06 0 1.3564392e-05 0 0)
(1.508112e-05 8.307028e-06 0 1.2001737e-05 0 0)
(1.2289647e-05 6.7169e-06 0 1.0330698e-05 0 0)
(9.9501714e-06 5.2751483e-06 0 8.5768884e-06 0 0)
(8.0072124e-06 4.0135471e-06 0 6.8488152e-06 0 0)
(6.4431995e-06 2.9633279e-06 0 5.2047333e-06 0 0)
(5.1874853e-06 2.1133084e-06 0 3.7322206e-06 0 0)
(4.2064274e-06 1.4549371e-06 0 2.4780347e-06 0 0)
(3.4459579e-06 9.517171e-07 0 1.4785684e-06 0 0)
(2.8786283e-06 5.7550896e-07 0 7.4191111e-07 0 0)
(2.4733915e-06 2.9276096e-07 0 2.6276104e-07 0 0)
(2.216485e-06 8.1815251e-08 0 2.8440284e-08 0 0)
(4.7823385e-05 3.2168488e-06 0 3.119405e-05 0 0)
(7.4426567e-05 7.4598902e-08 0 3.7132217e-05 0 0)
(7.62856e-05 7.0303665e-06 0 4.1545343e-05 0 0)
(8.2813147e-05 6.1375406e-06 0 4.1347424e-05 0 0)
(8.1077786e-05 1.3681132e-05 0 3.9067207e-05 0 0)
(7.5440661e-05 1.3231698e-05 0 3.5023414e-05 0 0)
(6.6392859e-05 1.5937207e-05 0 2.9910935e-05 0 0)
(5.6788227e-05 1.707659e-05 0 2.5954262e-05 0 0)
(4.7706526e-05 1.7719135e-05 0 2.2344826e-05 0 0)
(3.9828162e-05 1.7409347e-05 0 2.0473094e-05 0 0)
(3.3476186e-05 1.6285158e-05 0 1.9196882e-05 0 0)
(2.8346369e-05 1.4678056e-05 0 1.8288448e-05 0 0)
(2.4041553e-05 1.2897628e-05 0 1.7125007e-05 0 0)
(2.0212552e-05 1.1102779e-05 0 1.5758549e-05 0 0)
(1.6790617e-05 9.3298315e-06 0 1.4148459e-05 0 0)
(1.3769947e-05 7.638072e-06 0 1.2421132e-05 0 0)
(1.1210672e-05 6.0697946e-06 0 1.0575028e-05 0 0)
(9.068258e-06 4.6697179e-06 0 8.7104585e-06 0 0)
(7.3267778e-06 3.4852139e-06 0 6.8778026e-06 0 0)
(5.9126584e-06 2.5166847e-06 0 5.178751e-06 0 0)
(4.7898791e-06 1.7652163e-06 0 3.6729132e-06 0 0)
(3.9011255e-06 1.1940231e-06 0 2.4158179e-06 0 0)
(3.216631e-06 7.7408925e-07 0 1.4277547e-06 0 0)
(2.7011111e-06 4.6457085e-07 0 7.1063541e-07 0 0)
(2.3360788e-06 2.355091e-07 0 2.4994054e-07 0 0)
(2.1092825e-06 6.542965e-08 0 2.6900568e-08 0 0)
(5.3938188e-05 -1.2370967e-05 0 3.3429259e-05 0 0)
(8.0567736e-05 2.8804327e-06 0 5.3788223e-05 0 0)
(9.4488113e-05 -4.5060931e-06 0 5.6295686e-05 0 0)
(9.4830917e-05 5.2562552e-06 0 6.0059794e-05 0 0)
(9.9123896e-05 4.7978221e-06 0 5.8017508e-05 0 0)
(9.3893091e-05 1.2698804e-05 0 5.1447178e-05 0 0)
(8.263373e-05 1.3647222e-05 0 4.36313e-05 0 0)
(6.9063084e-05 1.6814125e-05 0 3.5246012e-05 0 0)
(5.6298113e-05 1.80134e-05 0 2.9247976e-05 0 0)
(4.5701712e-05 1.8330282e-05 0 2.4869567e-05 0 0)
(3.7470368e-05 1.7403867e-05 0 2.2672787e-05 0 0)
(3.1324964e-05 1.5845464e-05 0 2.110694e-05 0 0)
(2.6469568e-05 1.4009976e-05 0 1.9707092e-05 0 0)
(2.2327724e-05 1.2195069e-05 0 1.8174858e-05 0 0)
(1.8662005e-05 1.0382981e-05 0 1.6470037e-05 0 0)
(1.5390819e-05 8.6064268e-06 0 1.4674514e-05 0 0)
(1.2598362e-05 6.9192529e-06 0 1.275322e-05 0 0)
(1.0249844e-05 5.377768e-06 0 1.0780198e-05 0 0)
(8.3290095e-06 4.0470903e-06 0 8.7828607e-06 0 0)
(6.7561816e-06 2.9437777e-06 0 6.8716017e-06 0 0)
(5.4907366e-06 2.0821089e-06 0 5.1155846e-06 0 0)
(4.471976e-06 1.4279211e-06 0 3.5925034e-06 0 0)
(3.6671559e-06 9.5403691e-07 0 2.3387667e-06 0 0)
(3.0386134e-06 6.1214984e-07 0 1.370121e-06 0 0)
(2.565839e-06 3.6694148e-07 0 6.7666146e-07 0 0)
(2.2307387e-06 1.8584898e-07 0 2.3650092e-07 0 0)
(2.0275279e-06 5.1418647e-08 0 2.5324582e-08 0 0)
(8.7325315e-05 -2.9437951e-05 0 4.6215115e-05 0 0)
(0.00011252108 -3.0869573e-05 0 6.190014e-05 0 0)
(0.00010798506 1.3396449e-06 0 8.2443184e-05 0 0)
(0.000124964 -8.8070299e-06 0 8.6580603e-05 0 0)
(0.00012230446 1.7705478e-06 0 8.6867156e-05 0 0)
(0.0001215529 2.5444843e-06 0 7.9525239e-05 0 0)
(0.00010868495 1.2027505e-05 0 6.5667785e-05 0 0)
(8.9361958e-05 1.4613426e-05 0 5.2844625e-05 0 0)
(7.0720314e-05 1.7807843e-05 0 4.0526677e-05 0 0)
(5.5185092e-05 1.88411e-05 0 3.2922739e-05 0 0)
(4.3624389e-05 1.8422401e-05 0 2.7884684e-05 0 0)
(3.5435933e-05 1.6917719e-05 0 2.5161294e-05 0 0)
(2.9518473e-05 1.5085651e-05 0 2.2901459e-05 0 0)
(2.4774877e-05 1.3237921e-05 0 2.0972903e-05 0 0)
(2.0737615e-05 1.1428844e-05 0 1.9022015e-05 0 0)
(1.7178119e-05 9.6143928e-06 0 1.7105538e-05 0 0)
(1.4118245e-05 7.8237912e-06 0 1.5104568e-05 0 0)
(1.1547684e-05 6.142676e-06 0 1.3047067e-05 0 0)
(9.4434694e-06 4.6563675e-06 0 1.0914972e-05 0 0)
(7.7132472e-06 3.4023834e-06 0 8.8134888e-06 0 0)
(6.3075423e-06 2.4120044e-06 0 6.8160622e-06 0 0)
(5.1599311e-06 1.6573846e-06 0 5.022617e-06 0 0)
(4.2340331e-06 1.115944e-06 0 3.4888226e-06 0 0)
(3.4903549e-06 7.3361901e-07 0 2.2497904e-06 0 0)
(2.9075294e-06 4.6980527e-07 0 1.3066822e-06 0 0)
(2.4646148e-06 2.821138e-07 0 6.4080425e-07 0 0)
(2.1519051e-06 1.4351097e-07 0 2.227045e-07 0 0)
(1.9663255e-06 3.9584262e-08 0 2.3738917e-08 0 0)
(0.00016233648 -4.5686772e-05 0 5.0526246e-05 0 0)
(0.00016526982 -5.6384141e-05 0 9.1093677e-05 0 0)
(0.00015663037 -5.0031924e-05 0 0.00010767936 0 0)
(0.00015350367 -4.378236e-07 0 0.00012861293 0 0)
(0.00016863991 -1.4251824e-05 0 0.00012864273 0 0)
(0.00016006833 -3.566451e-06 0 0.00012191999 0 0)
(0.00014819682 8.9060624e-07 0 0.00010428416 0 0)
(0.00012319158 1.2101926e-05 0 8.1297468e-05 0 0)
(9.5147167e-05 1.5742e-05 0 6.204684e-05 0 0)
(7.1650021e-05 1.8837101e-05 0 4.6347455e-05 0 0)
(5.3953721e-05 1.9059449e-05 0 3.7385504e-05 0 0)
(4.1977479e-05 1.7868778e-05 0 3.1331189e-05 0 0)
(3.3862988e-05 1.6027918e-05 0 2.750025e-05 0 0)
(2.793406e-05 1.4220688e-05 0 2.4450286e-05 0 0)
(2.3173364e-05 1.2424891e-05 0 2.1961557e-05 0 0)
(1.9180833e-05 1.0631536e-05 0 1.9761529e-05 0 0)
(1.5795293e-05 8.7809153e-06 0 1.7635661e-05 0 0)
(1.2963784e-05 6.9694269e-06 0 1.5502386e-05 0 0)
(1.0663053e-05 5.320186e-06 0 1.326562e-05 0 0)
(8.7765257e-06 3.9006249e-06 0 1.1003614e-05 0 0)
(7.2355973e-06 2.7622574e-06 0 8.7818982e-06 0 0)
(5.9639372e-06 1.8875502e-06 0 6.7208028e-06 0 0)
(4.9196013e-06 1.2618969e-06 0 4.8955597e-06 0 0)
(4.0617032e-06 8.2727756e-07 0 3.3660851e-06 0 0)
(3.3664833e-06 5.3972935e-07 0 2.1502158e-06 0 0)
(2.8136741e-06 3.4568845e-07 0 1.2390104e-06 0 0)
(2.3918951e-06 2.1002354e-07 0 6.0376752e-07 0 0)
(2.0943557e-06 1.0791463e-07 0 2.0879762e-07 0 0)
(1.9215664e-06 2.9718827e-08 0 2.2166245e-08 0 0)
(0.00029605838 -6.3344807e-05 0 6.400584e-05 0 0)
(0.0002500747 -9.0155807e-05 0 0.00011122932 0 0)
(0.00022835949 -8.9930178e-05 0 0.00015456676 0 0)
(0.00022168071 -6.8086522e-05 0 0.00017906934 0 0)
(0.00022398255 -3.4988357e-06 0 0.00019640543 0 0)
(0.00022816852 -2.1964955e-05 0 0.00018330608 0 0)
(0.00020536327 -8.1547513e-06 0 0.00016329103 0 0)
(0.00017580124 1.6633173e-07 0 0.0001319561 0 0)
(0.00013693348 1.2495514e-05 0 9.7290436e-05 0 0)
(0.00010024956 1.7081254e-05 0 7.1961829e-05 0 0)
(7.2381106e-05 1.9215178e-05 0 5.3418954e-05 0 0)
(5.3293107e-05 1.8397189e-05 0 4.2482776e-05 0 0)
(4.0958509e-05 1.6797679e-05 0 3.4568236e-05 0 0)
(3.2556986e-05 1.5039025e-05 0 2.9441725e-05 0 0)
(2.6393395e-05 1.3354528e-05 0 2.5604887e-05 0 0)
(2.154734e-05 1.1615619e-05 0 2.2792388e-05 0 0)
(1.7681504e-05 9.7716178e-06 0 2.0387048e-05 0 0)
(1.4517741e-05 7.861312e-06 0 1.8148614e-05 0 0)
(1.1985785e-05 6.04682e-06 0 1.5828043e-05 0 0)
(9.9378524e-06 4.4471616e-06 0 1.3437743e-05 0 0)
(8.2676889e-06 3.1407396e-06 0 1.1017539e-05 0 0)
(6.8799984e-06 2.1248865e-06 0 8.6998749e-06 0 0)
(5.723813e-06 1.3951218e-06 0 6.5781452e-06 0 0)
(4.7559029e-06 8.9279506e-07 0 4.740024e-06 0 0)
(3.9492661e-06 5.7243833e-07 0 3.2257496e-06 0 0)
(3.2845211e-06 3.6974904e-07 0 2.0426561e-06 0 0)
(2.7513246e-06 2.4068083e-07 0 1.1684526e-06 0 0)
(2.3417773e-06 1.4962599e-07 0 5.6622003e-07 0 0)
(2.0536829e-06 7.8447471e-08 0 1.9498505e-07 0 0)
(1.8897663e-06 2.1611173e-08 0 2.0623664e-08 0 0)
(0.00051796397 -7.8669789e-05 -3.4529315e-26 7.3218613e-05 7.9819825e-26 1.5762695e-46)
(0.0003945658 -0.00011720677 0 0.00014623476 0 0)
(0.00032488572 -0.00014261058 0 0.00020189313 0 0)
(0.0003184449 -0.00012857645 0 0.00025043134 0 0)
(0.00031697481 -8.497537e-05 0 0.00028105991 0 0)
(0.00032451759 -8.6376881e-06 0 0.00028631458 0 0)
(0.00030036364 -2.9319481e-05 0 0.00024900679 0 0)
(0.000253903 -1.1789883e-05 0 0.0002100687 0 0)
(0.00020371837 -1.6599425e-07 0 0.00016064539 0 0)
(0.00015010232 1.3654299e-05 0 0.00011446607 0 0)
(0.00010504431 1.7693458e-05 0 8.3796013e-05 0 0)
(7.3839212e-05 1.8392521e-05 0 6.1435713e-05 0 0)
(5.3440432e-05 1.7070945e-05 0 4.7240742e-05 0 0)
(4.0246432e-05 1.564409e-05 0 3.717439e-05 0 0)
(3.1211373e-05 1.4116152e-05 0 3.0807314e-05 0 0)
(2.4731942e-05 1.254951e-05 0 2.6517465e-05 0 0)
(1.9914405e-05 1.0757761e-05 0 2.3499443e-05 0 0)
(1.6262435e-05 8.8110048e-06 0 2.1022501e-05 0 0)
(1.3425138e-05 6.8441818e-06 0 1.8606324e-05 0 0)
(1.1192304e-05 5.0509396e-06 0 1.6114281e-05 0 0)
(9.3956385e-06 3.5558e-06 0 1.352471e-05 0 0)
(7.9020094e-06 2.3765815e-06 0 1.0970132e-05 0 0)
(6.6438677e-06 1.5206498e-06 0 8.5547862e-06 0 0)
(5.5738134e-06 9.3140703e-07 0 6.3951932e-06 0 0)
(4.6604861e-06 5.6518997e-07 0 4.5571872e-06 0 0)
(3.8856357e-06 3.4761104e-07 0 3.0715176e-06 0 0)
(3.2381706e-06 2.2638927e-07 0 1.9295681e-06 0 0)
(2.71335e-06 1.5286096e-07 0 1.0967715e-06 0 0)
(2.3093001e-06 1.0003084e-07 0 5.288882e-07 0 0)
(2.0261211e-06 5.4446555e-08 0 1.8142646e-07 0 0)
(1.8680006e-06 1.5064866e-08 0 1.9124137e-08 0 0)
(0.00083361556 -9.3976352e-05 5.2332708e-26 9.0227534e-05 -1.2925172e-25 4.7695474e-46)
(0.00062233328 -0.00014905536 9.9969937e-26 0.00018232446 8.6904809e-27 1.7213257e-46)
(0.00047535389 -0.00017949052 0 0.00026101762 0 0)
(0.00042909195 -0.00020484013 0 0.00033608355 0 0)
(0.00044604295 -0.00017614983 0 0.00039275952 0 0)
(0.00045292545 -0.00010132826 0 0.00041721887 0 0)
(0.00045161761 -1.1747291e-05 0 0.00039471286 0 0)
(0.00037844472 -3.6907036e-05 0 0.00032659097 0 0)
(0.00030551781 -1.5149792e-05 0 0.00025893959 0 0)
(0.00023160152 1.089484e-06 0 0.00019104447 0 0)
(0.00016271523 1.4335477e-05 0 0.00013465047 0 0)
(0.00011071109 1.6620878e-05 0 9.7040052e-05 0 0)
(7.6340929e-05 1.6713601e-05 0 6.8904566e-05 0 0)
(5.3922237e-05 1.5706414e-05 0 5.0990673e-05 0 0)
(3.9348149e-05 1.4654818e-05 0 3.8927642e-05 0 0)
(2.9595583e-05 1.3340859e-05 0 3.1792858e-05 0 0)
(2.2955104e-05 1.1731856e-05 0 2.7292507e-05 0 0)
(1.8327352e-05 9.7870035e-06 0 2.4258679e-05 0 0)
(1.503223e-05 7.714549e-06 0 2.1639419e-05 0 0)
(1.2548741e-05 5.7220907e-06 0 1.9042794e-05 0 0)
(1.0615243e-05 4.0165539e-06 0 1.6308718e-05 0 0)
(9.0236515e-06 2.6505217e-06 0 1.3540085e-05 0 0)
(7.6755765e-06 1.6446008e-06 0 1.0841886e-05 0 0)
(6.5140736e-06 9.4647843e-07 0 8.3552002e-06 0 0)
(5.5026357e-06 5.1664741e-07 0 6.1720076e-06 0 0)
(4.6234378e-06 2.7381131e-07 0 4.3518866e-06 0 0)
(3.8625013e-06 1.5812303e-07 0 2.9069862e-06 0 0)
(3.2192589e-06 1.0634725e-07 0 1.8126086e-06 0 0)
(2.6947451e-06 8.1499753e-08 0 1.0248754e-06 0 0)
(2.2903904e-06 6.015339e-08 0 4.9214196e-07 0 0)
(2.0085654e-06 3.5284072e-08 0 1.6823223e-07 0 0)
(1.8538446e-06 9.9026441e-09 0 1.7677397e-08 0 0)
(0.0012681474 -0.00010179184 -3.7900127e-26 0.00010745074 1.3847884e-25 4.8080988e-46)
(0.00093123327 -0.00017561651 -2.2478782e-25 0.00023353564 -6.9318422e-27 1.0675151e-45)
(0.00070845603 -0.00022751973 0 0.00033456949 0 0)
(0.00058701293 -0.00025299834 0 0.00043003809 0 0)
(0.00057626686 -0.00028323895 0 0.00053237235 0 0)
(0.00061600068 -0.00023095974 0 0.00058773518 0 0)
(0.00062861066 -0.00011159261 0 0.00058563091 0 0)
(0.00058978158 -1.5728283e-05 0 0.00051927991 0 0)
(0.00046251679 -4.5017872e-05 0 0.00041091559 0 0)
(0.00035902348 -1.6163519e-05 0 0.00031040333 0 0)
(0.00025857368 2.1355899e-06 0 0.00022593008 0 0)
(0.00017629843 1.2846898e-05 0 0.00015688449 0 0)
(0.000117716 1.4436614e-05 0 0.00010937509 0 0)
(7.9116939e-05 1.5105257e-05 0 7.4779262e-05 0 0)
(5.3954066e-05 1.4646202e-05 0 5.3470056e-05 0 0)
(3.7950293e-05 1.3932044e-05 0 4.0079216e-05 0 0)
(2.7702041e-05 1.2616423e-05 0 3.2606841e-05 0 0)
(2.1158625e-05 1.0796207e-05 0 2.8186332e-05 0 0)
(1.6934844e-05 8.6308882e-06 0 2.5066007e-05 0 0)
(1.4056393e-05 6.4668409e-06 0 2.227451e-05 0 0)
(1.1935594e-05 4.5311325e-06 0 1.9388087e-05 0 0)
(1.0243177e-05 2.9541915e-06 0 1.6422173e-05 0 0)
(8.8155465e-06 1.7738478e-06 0 1.3454665e-05 0 0)
(7.5743531e-06 9.4289379e-07 0 1.0642697e-05 0 0)
(6.4759239e-06 4.2805207e-07 0 8.0989339e-06 0 0)
(5.5016701e-06 1.4444268e-07 0 5.9149415e-06 0 0)
(4.6325137e-06 2.7581311e-08 0 4.12917e-06 0 0)
(3.8717094e-06 -9.6139806e-10 0 2.7348181e-06 0 0)
(3.2219345e-06 9.8633509e-09 0 1.6946599e-06 0 0)
(2.6905782e-06 2.4650136e-08 0 9.5362777e-07 0 0)
(2.2816284e-06 2.8822447e-08 0 4.5627015e-07 0 0)
(1.9984101e-06 2.039433e-08 0 1.5549573e-07 0 0)
(1.8452785e-06 5.9734016e-09 0 1.6291871e-08 0 0)
(0.0018136857 -0.00010720141 0 0.00012807833 0 0)
(0.0013444102 -0.00019601644 1.7858807e-25 0.00029196419 3.1386108e-26 1.0710483e-45)
(0.0010088504 -0.00026247475 0 0.00042258576 0 0)
(0.00082439473 -0.00031906527 0 0.00055565662 0 0)
(0.00074597729 -0.00034842841 0 0.00067932956 0 0)
(0.00077178067 -0.00037803921 0 0.00079812301 0 0)
(0.00082361475 -0.00027572569 0 0.00083568245 0 0)
(0.00083379523 -0.00011655088 0 0.00078804678 0 0)
(0.00073334065 -2.3334386e-05 0 0.00064983512 0 0)
(0.00055117207 -4.8892427e-05 0 0.00050163088 0 0)
(0.00041159528 -1.7160301e-05 0 0.00036887937 0 0)
(0.00028653518 1.6303738e-07 0 0.00026370848 0 0)
(0.00019159392 1.0011061e-05 0 0.00017760329 0 0)
(0.00012480265 1.2563437e-05 0 0.0001192278 0 0)
(8.0995761e-05 1.3982763e-05 0 7.8780626e-05 0 0)
(5.3138775e-05 1.4010852e-05 0 5.4981668e-05 0 0)
(3.6037655e-05 1.3368553e-05 0 4.0982932e-05 0 0)
(2.5674893e-05 1.1785918e-05 0 3.3640547e-05 0 0)
(1.9555718e-05 9.610512e-06 0 2.9238401e-05 0 0)
(1.5850895e-05 7.2596216e-06 0 2.5955231e-05 0 0)