/*--------------------------------*- C++ -*----------------------------------*\
| =========                 |                                                 |
| \\      /  F ield         | OpenFOAM: The Open Source CFD Toolbox           |
|  \\    /   O peration     | Version:  5.0                                   |
|   \\  /    A nd           | Web:      www.OpenFOAM.org                      |
|    \\/     M anipulation  |                                                 |
\*---------------------------------------------------------------------------*/
FoamFile
{
    version     2.0;
    format      ascii;
    class       volVectorField;
    location    "160";
    object      ddt0(U);
}
// * * * * * * * * * * * * * * * * * * * * * * * * * * * * * * * * * * * * * //

dimensions      [0 1 -2 0 0 0 0];

internalField   nonuniform List<vector> 
9520
(
(-0.00018644354 1.3157831e-07 0)
(-0.00018532731 6.2457549e-07 0)
(-0.00018733809 6.5940504e-07 0)
(-0.00018288177 1.4052826e-06 0)
(-0.00018654079 1.3065835e-06 0)
(-0.00018786181 4.1348936e-06 0)
(-0.0001792099 1.9751406e-06 0)
(-0.0001842155 1.874574e-06 0)
(-0.0001864672 1.1050562e-05 0)
(-0.00020023022 8.2515295e-06 0)
(-0.00017413502 2.9045481e-06 0)
(-0.00018088154 2.1497736e-06 0)
(-0.00018374884 1.6783555e-05 0)
(-0.00019781033 2.3734727e-05 0)
(-0.00021359876 8.9046568e-06 0)
(-0.00016781657 3.7571147e-06 0)
(-0.00017638446 3.0182195e-06 0)
(-0.00018044756 2.1813323e-05 0)
(-0.00019435055 3.7484404e-05 0)
(-0.00021105713 2.6982605e-05 0)
(-0.00022721532 6.1545639e-06 0)
(-0.00016017338 4.3820302e-06 0)
(-0.00017016053 4.6164673e-06 0)
(-0.00017675472 2.6094737e-05 0)
(-0.00019007123 5.0364806e-05 0)
(-0.00020767803 4.4131351e-05 0)
(-0.00022576634 1.9826742e-05 0)
(-0.00023481813 2.2482247e-06 0)
(-0.00015049624 5.0914701e-06 0)
(-0.0001625163 6.7229276e-06 0)
(-0.00017163355 3.0514103e-05 0)
(-0.00018549111 6.1160157e-05 0)
(-0.00020308262 6.0872909e-05 0)
(-0.0002234249 3.3938957e-05 0)
(-0.00023453556 7.925059e-06 0)
(-0.00023469673 5.5606824e-07 0)
(-0.00013740149 6.9835398e-06 0)
(-0.00015413672 9.3057752e-06 0)
(-0.00016525346 3.5362815e-05 0)
(-0.000180376 7.0947713e-05 0)
(-0.0001977463 7.5763327e-05 0)
(-0.00021948075 4.8389509e-05 0)
(-0.00023317243 1.4637911e-05 0)
(-0.00023530857 1.4864763e-06 0)
(-0.00023561191 2.6267337e-06 0)
(-0.00011823655 1.2690288e-05 0)
(-0.00014722453 1.3106169e-05 0)
(-0.00015891135 4.0698371e-05 0)
(-0.00017444189 8.0470761e-05 0)
(-0.00019254195 8.9173522e-05 0)
(-0.00021415039 6.2882322e-05 0)
(-0.00023024788 2.169874e-05 0)
(-0.00023461832 2.8977938e-06 0)
(-0.00023584193 6.2300336e-06 0)
(-0.00024090261 7.3197724e-06 0)
(-9.0659335e-05 2.888156e-05 0)
(-0.0001463573 2.0841644e-05 0)
(-0.00015590026 4.6360956e-05 0)
(-0.00016768524 9.0071645e-05 0)
(-0.00018701836 0.00010177504 0)
(-0.00020905669 7.6629632e-05 0)
(-0.0002257665 3.0945069e-05 0)
(-0.00023349958 3.7432064e-06 0)
(-0.00023474676 9.2631844e-06 0)
(-0.00024019613 1.9597952e-05 0)
(-0.00025313038 1.2005096e-05 0)
(-6.0011796e-05 6.5177987e-05 0)
(-0.00016214287 3.8151442e-05 0)
(-0.00016301743 5.1015412e-05 0)
(-0.0001594409 9.8905966e-05 0)
(-0.00018000432 0.00011394612 0)
(-0.00020426526 8.9993401e-05 0)
(-0.00022163746 4.0701977e-05 0)
(-0.00023070397 6.6199782e-06 0)
(-0.00023367721 1.1646563e-05 0)
(-0.00023882929 3.0201279e-05 0)
(-0.00025151188 3.4148639e-05 0)
(-0.00026973162 1.4160498e-05 0)
(-5.2163403e-05 0.00012441562 0)
(-0.00022110786 6.7624754e-05 0)
(-0.00019219743 4.9601473e-05 0)
(-0.00014934095 0.00010223678 0)
(-0.00016790518 0.00012518362 0)
(-0.00019909957 0.00010358819 0)
(-0.00021852723 5.0280745e-05 0)
(-0.00022677421 1.0574457e-05 0)
(-0.00023305423 1.3547025e-05 0)
(-0.00023699012 4.0790325e-05 0)
(-0.00025022404 5.4158655e-05 0)
(-0.00026785307 4.2101962e-05 0)
(-0.00028716616 1.275148e-05 0)
(-5.3065486e-05 0.00021057528 0)
(-0.00032103444 0.00011598001 0)
(-0.00022714932 3.1040554e-05 0)
(-0.00012887035 9.0670137e-05 0)
(-0.00014447115 0.00013354522 0)
(-0.00019187178 0.00011910259 0)
(-0.00021736889 5.9743822e-05 0)
(-0.00022261057 1.3729249e-05 0)
(-0.00022933091 1.5804378e-05 0)
(-0.00023501714 4.9822502e-05 0)
(-0.00024878257 7.3639434e-05 0)
(-0.00026658673 6.8674318e-05 0)
(-0.00028616189 3.9523845e-05 0)
(-0.00030051528 8.4510835e-06 0)
(-7.5714032e-05 0.00031134559 0)
(-0.00038108697 0.00013828246 0)
(-0.00019130212 -3.9654771e-05 0)
(-6.6291786e-05 5.6866854e-05 0)
(-9.3994286e-05 0.00013904865 0)
(-0.0001772801 0.00014115893 0)
(-0.00021973089 7.0876372e-05 0)
(-0.00021994159 1.4584827e-05 0)
(-0.00022299844 1.7369512e-05 0)
(-0.000231419 5.7989607e-05 0)
(-0.00024642251 9.1966404e-05 0)
(-0.00026537923 9.3690254e-05 0)
(-0.00028524975 6.6531437e-05 0)
(-0.00030115695 2.7615954e-05 0)
(-0.0003076182 3.0945255e-06 0)
(-0.0001119053 0.0004288928 0)
(-0.00046020517 0.00011519626 0)
(-0.00014465769 -0.00015285052 0)
(3.3990971e-05 -1.4851903e-05 0)
(-1.5929861e-05 0.00014209116 0)
(-0.00015408068 0.00018010667 0)
(-0.00023277185 8.9852329e-05 0)
(-0.00022337629 1.2232058e-05 0)
(-0.00021495698 1.6231681e-05 0)
(-0.00022471868 6.6075723e-05 0)
(-0.0002426391 0.00010946752 0)
(-0.00026373457 0.00011775068 0)
(-0.0002843096 9.2768742e-05 0)
(-0.0003017911 4.8351858e-05 0)
(-0.00030992144 1.1549345e-05 0)
(-0.00030865414 -1.1214863e-06 0)
(-0.00018191638 0.00057002537 0)
(-0.00057995505 6.8660799e-05 0)
(-7.8256961e-05 -0.0002557567 0)
(9.9592823e-05 -8.5028203e-05 0)
(5.9563381e-05 0.00016701681 0)
(-0.00013484598 0.00024654633 0)
(-0.00026686083 0.00012323175 0)
(-0.0002411155 4.2529493e-06 0)
(-0.00020637342 8.8183402e-06 0)
(-0.00021368115 7.3795297e-05 0)
(-0.00023653885 0.00012757472 0)
(-0.00026161149 0.00014167395 0)
(-0.00028374676 0.00011740881 0)
(-0.00030173595 7.1486339e-05 0)
(-0.00031323974 2.1848808e-05 0)
(-0.00031206892 -1.9112818e-06 0)
(-0.00030618314 -2.5811503e-06 0)
(-0.00024574033 0.00074187381 0)
(-0.00083577519 6.3634195e-05 0)
(-6.3972567e-05 -0.00044649264 0)
(0.00026316458 -0.00016209008 0)
(0.00013619566 0.00022170143 0)
(-0.0001343412 0.0003777971 0)
(-0.00034476424 0.0001839865 0)
(-0.00028189767 -1.5103568e-05 0)
(-0.00019380365 -1.1573669e-05 0)
(-0.00019606015 7.9507501e-05 0)
(-0.00022647019 0.000147746 0)
(-0.00025895663 0.0001667951 0)
(-0.00028381656 0.00014284856 0)
(-0.00030230403 9.3494226e-05 0)
(-0.00031471804 3.706557e-05 0)
(-0.00031745212 -9.9775844e-07 0)
(-0.00031018418 -7.4923577e-06 0)
(-0.00030366241 -9.9548459e-07 0)
(-0.00042567266 0.0010438381 0)
(-0.0011683453 -0.00019074507 0)
(-1.2775666e-05 -0.00068149826 0)
(0.0005356225 -0.00027317164 0)
(0.00023011796 0.00031677594 0)
(-0.00014499699 0.00054824177 0)
(-0.00047094961 0.00027811677 0)
(-0.00035752552 -4.7991323e-05 0)
(-0.00018429569 -5.5174734e-05 0)
(-0.00016927189 7.9636983e-05 0)
(-0.00020928027 0.00017108577 0)
(-0.00025468653 0.00019522188 0)
(-0.0002852174 0.00016981224 0)
(-0.00030462881 0.00011660254 0)
(-0.000316509 5.5139457e-05 0)
(-0.00032359416 1.9377774e-06 0)
(-0.00031580895 -1.055417e-05 0)
(-0.00030797821 -4.0671664e-06 0)
(-0.00030374684 2.5565505e-06 0)
(-0.00058047926 0.0011875862 0)
(-0.0017042425 -0.00010944371 0)
(4.8733598e-05 -0.0010768302 0)
(0.00096582273 -0.00047611054 0)
(0.00042738397 0.00049134409 0)
(-0.00020189865 0.00076831618 0)
(-0.00065417384 0.00041056087 0)
(-0.00048119799 -0.00011508998 0)
(-0.00017537928 -0.00013516798 0)
(-0.00012691173 7.0617362e-05 0)
(-0.00017981765 0.00019830332 0)
(-0.00024652483 0.00022949109 0)
(-0.0002882204 0.00020022097 0)
(-0.0003094365 0.00014078632 0)
(-0.00032072282 7.365739e-05 0)
(-0.0003267946 1.2704265e-05 0)
(-0.00032374332 -1.5587945e-05 0)
(-0.00031300189 -5.2524594e-06 0)
(-0.00030808987 5.4399781e-06 0)
(-0.00030737343 6.3320013e-06 0)
(-0.00077200332 0.0018181225 0)
(-0.0021578291 -0.00070358873 0)
(0.00017215271 -0.0014976953 0)
(0.0014685806 -0.00065602062 0)
(0.00076936071 0.00077833323 0)
(-0.0003074123 0.0010794018 0)
(-0.00093060219 0.00058493408 0)
(-0.00067298078 -0.00021716211 0)
(-0.00018421572 -0.00028594902 0)
(-6.0641194e-05 3.5660033e-05 0)
(-0.00012754539 0.00022990135 0)
(-0.00023018912 0.00027416904 0)
(-0.00029349754 0.00023713801 0)
(-0.00031814263 0.00016653018 0)
(-0.0003268582 9.179865e-05 0)
(-0.00033019701 2.5115578e-05 0)
(-0.00033208615 -1.586241e-05 0)
(-0.00032070695 -8.6287688e-06 0)
(-0.0003132636 9.1377843e-06 0)
(-0.00031124844 1.6361889e-05 0)
(-0.00031395628 8.8713252e-06 0)
(-0.00094766153 0.0018184557 0)
(-0.0031771298 -0.00047823323 0)
(0.00024448785 -0.0023420786 0)
(0.0023225992 -0.0011475999 0)
(0.001308669 0.00119238 0)
(-0.00049265101 0.0015709976 0)
(-0.0013788637 0.00078956263 0)
(-0.00087482296 -0.00040845619 0)
(-8.6939509e-05 -0.00050235394 0)
(5.5514853e-05 -3.6628197e-05 0)
(-3.2889148e-05 0.00026145856 0)
(-0.00019565021 0.00033529624 0)
(-0.00030150601 0.00028715359 0)
(-0.00033417185 0.00019525724 0)
(-0.0003366461 0.00010800989 0)
(-0.00033480459 3.5533554e-05 0)
(-0.00033757581 -1.3872258e-05 0)
(-0.0003295804 -1.0518232e-05 0)
(-0.00032063123 1.462731e-05 0)
(-0.00031781139 2.5182636e-05 0)
(-0.00031698786 2.4708521e-05 0)
(-0.00032203853 9.4970298e-06 0)
(-0.00142822 0.002886452 0)
(-0.003565933 -0.0014663781 0)
(0.00047271007 -0.0030379287 0)
(0.0031837621 -0.0012869648 0)
(0.0019867062 0.0017253335 0)
(-0.00074216895 0.0022677503 0)
(-0.0020687432 0.0010722143 0)
(-0.0012598255 -0.00067736743 0)
(-6.9608415e-05 -0.00089211873 0)
(0.00030926758 -0.00016555255 0)
(0.00016683819 0.00029753283 0)
(-0.00012584459 0.00042297983 0)
(-0.00031187564 0.00036105922 0)
(-0.00036357749 0.00023073682 0)
(-0.00035418177 0.00012055975 0)
(-0.00034025451 4.131039e-05 0)
(-0.00033955804 -1.1031372e-05 0)
(-0.00033550975 -1.0514507e-05 0)
(-0.0003302138 1.8406291e-05 0)
(-0.00032583035 4.0177236e-05 0)
(-0.00032538902 3.8180158e-05 0)
(-0.00032464065 2.8282716e-05 0)
(-0.00032989177 8.1410638e-06 0)
(-0.0023301846 0.002737524 0)
(-0.0052224279 -0.0009594758 0)
(0.00043979016 -0.0045347368 0)
(0.0047961707 -0.0023593402 0)
(0.00302234 0.0025651922 0)
(-0.0011098328 0.0033359722 0)
(-0.0030510408 0.0014132668 0)
(-0.001810406 -0.0011212486 0)
(0.00012024912 -0.0014079065 0)
(0.00075750292 -0.00037434394 0)
(0.00036635821 0.00028540203 0)
(-7.7818566e-06 0.00056654366 0)
(-0.00032669508 0.00048251736 0)
(-0.00041828275 0.00028033268 0)
(-0.00038712731 0.00012696495 0)
(-0.00034825195 3.8179061e-05 0)
(-0.00033853264 -1.2363789e-05 0)
(-0.00033757282 -9.5156465e-06 0)
(-0.00033737978 2.5310857e-05 0)
(-0.00033601019 5.276234e-05 0)
(-0.00033552825 5.7828496e-05 0)
(-0.0003341985 4.626466e-05 0)
(-0.00033331712 2.6356177e-05 0)
(-0.00033604045 5.0180081e-06 0)
(-0.00248414 0.0040130494 0)
(-0.0054525443 -0.0027575489 0)
(0.0011125616 -0.0056204986 0)
(0.0060078675 -0.0024675861 0)
(0.0041590418 0.0033785762 0)
(-0.0015667735 0.004744369 0)
(-0.0044372824 0.0019266902 0)
(-0.0026145225 -0.0017414887 0)
(0.00019970623 -0.0022068334 0)
(0.0012335662 -0.00071488224 0)
(0.00070124027 0.00045169178 0)
(0.00012648239 0.00078482209 0)
(-0.0003601411 0.00067943352 0)
(-0.00051802063 0.00035973334 0)
(-0.00044991901 0.00012405604 0)
(-0.00036228007 1.8732628e-05 0)
(-0.00033313412 -2.2745695e-05 0)
(-0.00033316428 -8.9568775e-06 0)
(-0.00034021361 3.5172749e-05 0)
(-0.00034606343 6.8260896e-05 0)
(-0.00034668101 7.9058555e-05 0)
(-0.00034734493 6.5350592e-05 0)
(-0.0003430492 4.7235636e-05 0)
(-0.00034134256 1.8808541e-05 0)
(-0.00033930449 5.4173175e-07 0)
(-0.002768407 0.0037033208 0)
(-0.007574403 -0.0021781422 0)
(0.0018192285 -0.0076775667 0)
(0.0086150141 -0.0040269365 0)
(0.0057517685 0.0049319889 0)
(-0.0022917023 0.0067515154 0)
(-0.0062821812 0.002390133 0)
(-0.0036749041 -0.0026645961 0)
(0.00037977125 -0.003340725 0)
(0.0021180439 -0.0011890101 0)
(0.0013675428 0.00067222079 0)
(0.00022912611 0.0011068857 0)
(-0.0004369984 0.001023007 0)
(-0.00069979008 0.00048732525 0)
(-0.00056471935 0.00010744367 0)
(-0.00039137556 -3.1126537e-05 0)
(-0.00032168872 -5.1528733e-05 0)
(-0.0003181395 -1.1626602e-05 0)
(-0.000336168 4.8226616e-05 0)
(-0.00035274234 8.8221556e-05 0)
(-0.0003596885 0.00010179884 0)
(-0.00036070314 9.1112858e-05 0)
(-0.00035825534 6.4363529e-05 0)
(-0.00035132703 3.7268088e-05 0)
(-0.00034653337 5.8864357e-06 0)
(-0.0003386327 -4.7272897e-06 0)
(-0.0061289532 0.0053190968 0)
(-0.0086319385 -0.0039907616 0)
(0.0017268595 -0.0094719738 0)
(0.010839584 -0.0041575277 0)
(0.0068052683 0.0054846194 0)
(-0.0028964292 0.0092461036 0)
(-0.0088353333 0.0033474676 0)
(-0.0051887645 -0.0038555395 0)
(0.00064709773 -0.0049152866 0)
(0.0032872751 -0.0018722947 0)
(0.0023399625 0.00096263495 0)
(0.00040706681 0.0016290328 0)
(-0.00059569859 0.0014753722 0)
(-0.0009849671 0.00069565721 0)
(-0.00077633765 6.3030594e-05 0)
(-0.00044712721 -0.00013261999 0)
(-0.0002989447 -0.00010997578 0)
(-0.00028578576 -2.2806698e-05 0)
(-0.00032027576 6.4046975e-05 0)
(-0.00035374693 0.00011449498 0)
(-0.00037139272 0.00012907364 0)
(-0.00037618102 0.00011800082 0)
(-0.00037485814 8.748964e-05 0)
(-0.00036685089 5.2865228e-05 0)
(-0.00035804598 1.4873076e-05 0)
(-0.00034718784 -1.0951704e-05 0)
(-0.00033370912 -1.0103874e-05 0)
(-0.0084284599 0.004587221 0)
(-0.0099420962 -0.0034921323 0)
(0.0020910268 -0.013054481 0)
(0.01423834 -0.0055532594 0)
(0.008585697 0.0087050734 0)
(-0.0038265683 0.012902824 0)
(-0.011977812 0.0037939742 0)
(-0.0070230914 -0.005474303 0)
(0.0009728788 -0.0069920569 0)
(0.004824936 -0.0029407626 0)
(0.0037331059 0.0013607979 0)
(0.0007433052 0.0024851786 0)
(-0.00086921286 0.002102906 0)
(-0.0014201528 0.00097879628 0)
(-0.0010862341 -2.2437713e-05 0)
(-0.00053988138 -0.00031342134 0)
(-0.00026141516 -0.00022144618 0)
(-0.00022549647 -5.1926337e-05 0)
(-0.00028374675 8.2222242e-05 0)
(-0.00034464498 0.00014897161 0)
(-0.00038003855 0.00016401779 0)
(-0.00039282276 0.00014913896 0)
(-0.00039291445 0.00011388828 0)
(-0.00038664577 6.8859074e-05 0)
(-0.00037384018 2.7345814e-05 0)
(-0.0003608111 -1.4471864e-05 0)
(-0.00034294821 -2.8273126e-05 0)
(-0.00032528696 -1.4718006e-05 0)
(-0.0090992727 0.0049877302 0)
(-0.0077384351 -0.0066750212 0)
(0.0051355532 -0.014289193 0)
(0.015948509 -0.0056691808 0)
(0.011419949 0.0091253547 0)
(-0.0060702942 0.016522267 0)
(-0.016264522 0.0053153911 0)
(-0.0096651615 -0.0074906858 0)
(0.0014674899 -0.009834201 0)
(0.0069204333 -0.0042564796 0)
(0.0056616508 0.0018624621 0)
(0.0012928053 0.0037464125 0)
(-0.0012975147 0.0030496973 0)
(-0.0021346737 0.0013661438 0)
(-0.0015357072 -0.00015432249 0)
(-0.00069394435 -0.00062436506 0)
(-0.00019968863 -0.00041991015 0)
(-0.0001204856 -0.00011437034 0)
(-0.00021166223 0.00010116634 0)
(-0.00031762757 0.00019580936 0)
(-0.00038265244 0.0002104617 0)
(-0.00040964765 0.00018796061 0)
(-0.00041450486 0.00014522564 0)
(-0.00040869599 9.1822348e-05 0)
(-0.00039536504 3.9406483e-05 0)
(-0.00037794088 -6.8768469e-06 0)
(-0.00036004685 -4.3775119e-05 0)
(-0.00033509285 -4.2345463e-05 0)
(-0.00031455349 -1.789205e-05 0)
(-0.010008322 0.003972709 0)
(-0.0064929025 -0.0069840999 0)
(0.01016043 -0.018475174 0)
(0.022067426 -0.0083073013 0)
(0.012080406 0.01321303 0)
(-0.0075700659 0.021396216 0)
(-0.020580675 0.0057611168 0)
(-0.012285968 -0.010087932 0)
(0.0021831879 -0.013425686 0)
(0.0097208319 -0.0060178282 0)
(0.0083371709 0.0025013217 0)
(0.0021122999 0.0055422393 0)
(-0.0019182966 0.0044115126 0)
(-0.0032369716 0.0019008868 0)
(-0.0022802033 -0.00037845093 0)
(-0.00090812253 -0.001100765 0)
(-0.00010501918 -0.00075374635 0)
(5.8698755e-05 -0.00023112499 0)
(-8.003601e-05 0.00011954094 0)
(-0.000259646 0.00026168284 0)
(-0.00037517999 0.0002757148 0)
(-0.00042635534 0.00023903225 0)
(-0.00043954269 0.00018435641 0)
(-0.00043533884 0.00012240539 0)
(-0.00042222672 5.8987601e-05 0)
(-0.0004015114 1.4123341e-06 0)
(-0.00038023659 -4.7037205e-05 0)
(-0.00035323906 -6.5326266e-05 0)
(-0.00032507972 -5.1586475e-05 0)
(-0.00030269723 -1.9411151e-05 0)
(-0.010715543 0.0038264571 1.8589694e-23)
(-0.0052224783 -0.009989041 0)
(0.013113166 -0.021974178 0)
(0.03000756 -0.0070298735 0)
(0.012192132 0.011595565 0)
(-0.0027176903 0.027511114 0)
(-0.025353974 0.0072968432 0)
(-0.015088018 -0.013364991 0)
(0.0033239064 -0.018295583 0)
(0.013384384 -0.0082140135 0)
(0.011786985 0.0032981327 0)
(0.0032967069 0.0079776978 0)
(-0.0027847284 0.0064429425 0)
(-0.0048581459 0.0026393589 0)
(-0.0034051625 -0.00075329775 0)
(-0.0012140806 -0.0018105259 0)
(3.9262918e-05 -0.0012901241 0)
(0.00035079929 -0.00042418271 0)
(0.00014593116 0.0001364294 0)
(-0.00015500715 0.00036184833 0)
(-0.00035567642 0.00037017734 0)
(-0.00044528222 0.00031003375 0)
(-0.00047044581 0.00023551106 0)
(-0.00046760373 0.00016021781 0)
(-0.0004536562 8.3964391e-05 0)
(-0.00043144218 1.2551307e-05 0)
(-0.00040467465 -4.6266125e-05 0)
(-0.00037746375 -8.5813811e-05 0)
(-0.00034363845 -8.0292368e-05 0)
(-0.00031377548 -5.6282653e-05 0)
(-0.00029078209 -1.9433895e-05 0)
(-0.011379233 0.0029648327 -1.7737879e-23)
(-0.0051961495 -0.011608763 -1.9441979e-23)
(0.016328864 -0.024638914 0)
(0.02805998 -0.0062100164 0)
(0.0083645599 0.018991318 0)
(-0.0040473557 0.035963572 0)
(-0.03152438 0.0083250592 0)
(-0.019722606 -0.016328593 0)
(0.0047516184 -0.024285249 0)
(0.018200937 -0.011117417 0)
(0.016292324 0.0042992995 0)
(0.0048517279 0.011204646 0)
(-0.0039688822 0.0092032751 0)
(-0.0071593836 0.0036878492 0)
(-0.0050795079 -0.0013162608 0)
(-0.0016847652 -0.0028964036 0)
(0.00028546362 -0.0020901341 0)
(0.00079657917 -0.00072955724 0)
(0.00047769481 0.00015546934 0)
(-1.181813e-06 0.00050851769 0)
(-0.00032295457 0.0005185967 0)
(-0.00046964328 0.0004198695 0)
(-0.00051296112 0.00030663327 0)
(-0.00050915215 0.00020662578 0)
(-0.00049109769 0.00011369039 0)
(-0.00046557856 2.7099906e-05 0)
(-0.00043512986 -4.3735395e-05 0)
(-0.00040379515 -9.3564028e-05 0)
(-0.00036937582 -0.0001077978 0)
(-0.0003327273 -8.8810469e-05 0)
(-0.00030229973 -5.7065509e-05 0)
(-0.00027969638 -1.8310064e-05 0)
(-0.011519872 0.0023146232 1.7808672e-23)
(-0.0051106876 -0.014354101 5.2066527e-23)
(0.018269235 -0.028456689 0)
(0.028723743 -0.0050076058 0)
(0.0086596186 0.019909192 0)
(-0.020255701 0.040922263 0)
(-0.041948518 0.011549437 0)
(-0.031085112 -0.021252231 0)
(0.0056155914 -0.031114013 0)
(0.02412647 -0.013945237 0)
(0.021781825 0.0054625192 0)
(0.0069725735 0.015411537 0)
(-0.0055536956 0.013155197 0)
(-0.010359742 0.0050633968 0)
(-0.0074414891 -0.0021682045 0)
(-0.0023772787 -0.0044854899 0)
(0.00067407419 -0.0032705265 0)
(0.0014754761 -0.0012230907 0)
(0.0010465049 0.00021318962 0)
(0.00020382853 0.00075941083 0)
(-0.00026535691 0.00076302981 0)
(-0.00050409061 0.00058651843 0)
(-0.00057708642 0.00040512344 0)
(-0.00056785 0.00026336759 0)
(-0.00053807565 0.00014715598 0)
(-0.00050549993 4.51815e-05 0)
(-0.00047100347 -3.8035934e-05 0)
(-0.00043646462 -9.640923e-05 0)
(-0.00039910819 -0.00012661402 0)
(-0.00035958294 -0.00012098449 0)
(-0.00032134841 -9.1019161e-05 0)
(-0.00029148673 -5.489068e-05 0)
(-0.00026953488 -1.6542629e-05 0)
(-0.011228555 0.001567594 0)
(-0.0049245198 -0.016713389 -5.216683e-23)
(0.019601301 -0.031329138 0)
(0.030103773 -0.0044521213 0)
(0.0062139009 0.026997112 0)
(-0.028154231 0.049140913 0)
(-0.047886555 0.01239412 0)
(-0.036106116 -0.024455576 0)
(0.0056428883 -0.041176498 0)
(0.031158254 -0.018316331 0)
(0.028312506 0.0071810727 0)
(0.0093626302 0.020637641 0)
(-0.0076800237 0.01823944 0)
(-0.0147149 0.0069974475 0)
(-0.010758706 -0.0033444504 0)
(-0.0033525606 -0.0067848971 0)
(0.0012548861 -0.0049682941 0)
(0.0024974703 -0.0019440606 0)
(0.0018991355 0.00023258143 0)
(0.00068297798 0.0011159617 0)
(-9.4435862e-05 0.0010893267 0)
(-0.00054104261 0.00082876503 0)
(-0.00067378707 0.00054339948 0)
(-0.00065476302 0.00033291564 0)
(-0.0006022826 0.00018252198 0)
(-0.00055349921 6.3219873e-05 0)
(-0.00051165049 -2.9585774e-05 0)
(-0.00047358745 -9.6348904e-05 0)
(-0.0004345503 -0.00013711138 0)
(-0.00039308031 -0.00014389049 0)
(-0.00034859025 -0.00012593887 0)
(-0.00030858223 -8.9207221e-05 0)
(-0.00028064339 -5.0926083e-05 0)
(-0.00026054505 -1.462309e-05 0)
(-0.010356565 0.00081919502 -5.2885086e-24)
(-0.0048117628 -0.019337647 0)
(0.020312878 -0.035046869 -6.8163613e-24)
(0.030547339 -0.0036255999 0)
(0.0052558372 0.031600223 0)
(-0.032798523 0.054228351 0)
(-0.048133723 0.011161483 0)
(-0.028670094 -0.030338709 0)
(0.0070340532 -0.052418378 0)
(0.039180421 -0.021120589 0)
(0.035674149 0.0088814304 0)
(0.012128056 0.027187488 0)
(-0.010609236 0.025315867 0)
(-0.020520872 0.009320274 0)
(-0.015155968 -0.0050066371 0)
(-0.0046793016 -0.0099496158 0)
(0.0020770897 -0.0073778246 0)
(0.0039908883 -0.0029693883 0)
(0.003150618 0.00025713775 0)
(0.0014237314 0.0016374917 0)
(3.7802976e-06 0.0015289483 0)
(-0.00057587298 0.0011987842 0)
(-0.00081970215 0.000742798 0)
(-0.00078916895 0.00041921242 0)
(-0.00069478469 0.00021666087 0)
(-0.00061499964 7.6910085e-05 0)
(-0.00055723958 -2.3011804e-05 0)
(-0.00051312871 -9.4829495e-05 0)
(-0.0004718288 -0.00014201875 0)
(-0.00042889779 -0.00016007425 0)
(-0.00038481829 -0.00015085146 0)
(-0.00033742376 -0.0001224075 0)
(-0.0002983232 -8.6101253e-05 0)
(-0.00027005095 -4.703615e-05 0)
(-0.00025288309 -1.2784659e-05 0)
(-0.0089641012 0.00018548728 2.5231833e-23)
(-0.0044057411 -0.021716027 4.0862473e-23)
(0.020034032 -0.038529906 6.7981061e-24)
(0.030118093 -0.0024873677 -9.5775657e-23)
(0.0053412418 0.036165289 -1.5399266e-22)
(-0.036164458 0.062096955 0)
(-0.04972124 0.0090558992 0)
(-0.024555735 -0.03323498 0)
(0.012722703 -0.066357982 0)
(0.049841153 -0.028462592 0)
(0.045516734 0.011855887 0)
(0.015024055 0.03488638 0)
(-0.014741551 0.033982183 0)
(-0.028366754 0.012514195 0)
(-0.021036055 -0.0072056857 0)
(-0.0063939959 -0.014302853 0)
(0.0032696427 -0.010663103 0)
(0.0060809598 -0.0043767121 0)
(0.0049481 0.00026625057 0)
(0.0024828144 0.002386573 0)
(0.00025745787 0.0023612612 0)
(-0.00069031277 0.0017325931 0)
(-0.0010386826 0.0010547323 0)
(-0.0010022971 0.0005355863 0)
(-0.00083611266 0.00024286416 0)
(-0.00069928592 7.6346063e-05 0)
(-0.00060983721 -2.6691594e-05 0)
(-0.00055490027 -9.5459288e-05 0)
(-0.0005118339 -0.00014544164 0)
(-0.00046744509 -0.00017164145 0)
(-0.00042182565 -0.00017028663 0)
(-0.00037439109 -0.00014981559 0)
(-0.00032728432 -0.00011418265 0)
(-0.0002906041 -8.0046625e-05 0)
(-0.00026216748 -4.1704538e-05 0)
(-0.00024628681 -1.1394974e-05 0)
(-0.0071700364 -0.00036274527 -3.3048498e-23)
(-0.003840003 -0.0238393 -4.92619e-23)
(0.018954135 -0.042007372 0)
(0.029392696 -0.00094363587 3.1996449e-22)
(0.0048396427 0.041493642 1.5332979e-22)
(-0.037060268 0.069021976 -2.8577197e-22)
(-0.05069244 0.0073582005 -1.3495204e-22)
(-0.022367305 -0.042890222 0)
(0.018752776 -0.076869115 0)
(0.060371809 -0.032670652 0)
(0.063604203 0.012877463 0)
(0.021588421 0.043912607 0)
(-0.0194355 0.045777845 0)
(-0.038623639 0.015713196 0)
(-0.028311095 -0.010189608 0)
(-0.0085846067 -0.020027252 0)
(0.0049221971 -0.015114198 0)
(0.0089482509 -0.0062602697 0)
(0.007468761 0.00026649898 0)
(0.0039953702 0.0034370662 0)
(0.00071315909 0.0035751055 0)
(-0.000921463 0.0025128977 0)
(-0.0013952838 0.0015335752 0)
(-0.0013402159 0.00069501824 0)
(-0.0010551598 0.0002587692 0)
(-0.00082026716 4.7286771e-05 0)
(-0.00067367669 -5.3405387e-05 0)
(-0.00059549092 -0.00010868211 0)
(-0.00054945706 -0.00015109962 0)
(-0.00050797483 -0.00017945576 0)
(-0.00046426823 -0.00018450914 0)
(-0.00041521759 -0.00017155146 0)
(-0.00036437763 -0.00014268236 0)
(-0.00031826136 -0.00010503931 0)
(-0.00028115341 -6.7603052e-05 0)
(-0.0002550904 -3.6905247e-05 0)
(-0.00024063198 -1.0663697e-05 0)
(-0.0053492827 -0.00086143322 4.8571245e-24)
(-0.0027576434 -0.025794258 3.3411028e-24)
(0.01682293 -0.045328167 5.712953e-23)
(0.027429321 0.00064967635 -8.7828094e-23)
(0.0045063034 0.045837583 -2.340039e-22)
(-0.037256478 0.076233773 -1.547401e-23)
(-0.050755165 0.0080426833 -4.4089415e-22)
(-0.021979502 -0.046609037 1.5301439e-23)
(0.026302788 -0.090885984 0)
(0.069888327 -0.041287456 0)
(0.068481239 0.018970104 0)
(0.025986242 0.055138179 0)
(-0.021949936 0.05825606 0)
(-0.04940445 0.019823062 0)
(-0.036955806 -0.014349994 0)
(-0.010939484 -0.027491542 0)
(0.007221156 -0.020866273 0)
(0.012768061 -0.0087580877 0)
(0.010865616 0.00026761548 0)
(0.0061183837 0.0048498105 0)
(0.0014120955 0.0053105751 0)
(-0.0012321154 0.0037255432 0)
(-0.0019970923 0.0021645264 0)
(-0.0018393413 0.00094626324 0)
(-0.0014138673 0.00023563758 0)
(-0.00099866686 -3.1836403e-05 0)
(-0.00075325088 -0.00012317497 0)
(-0.00063262625 -0.00014701294 0)
(-0.00057900385 -0.00016494336 0)
(-0.00054369329 -0.00018440289 0)
(-0.00050585607 -0.00019284801 0)
(-0.00045956889 -0.00018691476 0)
(-0.00040760093 -0.00016554213 0)
(-0.00035595409 -0.00013257469 0)
(-0.00030935275 -9.5153102e-05 0)
(-0.00027391807 -6.1472349e-05 0)
(-0.00024897725 -3.3728209e-05 0)
(-0.00023548621 -1.0758898e-05 0)
(-0.0030317396 -0.0012036002 4.4404741e-24)
(-0.0015733694 -0.027483931 -1.5732585e-24)
(0.013819345 -0.047952279 0)
(0.024254584 0.0021322473 -4.9410028e-23)
(0.0038794822 0.050089327 5.253144e-23)
(-0.036151458 0.083704003 0)
(-0.048828401 0.0070290231 6.0149648e-22)
(-0.022238233 -0.051305483 5.9796614e-22)
(0.028740404 -0.10604153 0)
(0.076735848 -0.039559794 0)
(0.07254331 0.02020924 0)
(0.021497226 0.064075033 0)
(-0.024335795 0.075349842 0)
(-0.059686273 0.023006885 0)
(-0.046797429 -0.019718964 0)
(-0.013325394 -0.036828374 0)
(0.010429407 -0.028414054 0)
(0.017782715 -0.011796401 0)
(0.015380467 0.00023188498 0)
(0.0090489384 0.0067378696 0)
(0.0024147121 0.0077211767 0)
(-0.0016388011 0.0055259722 0)
(-0.0029185332 0.003087579 0)
(-0.0026545422 0.0012471863 0)
(-0.001929505 0.00019734451 0)
(-0.001277396 -0.00019934139 0)
(-0.00085968726 -0.00027347487 0)
(-0.00066157609 -0.00023478742 0)
(-0.00059190868 -0.0001998444 0)
(-0.00056631024 -0.00019195775 0)
(-0.00054207627 -0.0001942013 0)
(-0.00050476085 -0.00019331366 0)
(-0.00045518566 -0.00018119451 0)
(-0.00040079983 -0.00015549768 0)
(-0.00034687611 -0.00012136047 0)
(-0.0003016058 -8.7093035e-05 0)
(-0.00026726259 -5.6607951e-05 0)
(-0.00024343618 -3.272872e-05 0)
(-0.00023041749 -1.1679342e-05 0)
(-0.00053622906 -0.0013169363 0)
(-0.00072774131 -0.028596027 0)
(0.010678062 -0.049797318 1.609475e-24)
(0.019729956 0.0034232579 0)
(0.0033319903 0.05433816 1.5175125e-23)
(-0.034427131 0.090825236 3.746005e-23)
(-0.04659364 0.0069013024 -8.1011357e-22)
(-0.021567565 -0.055757072 3.6014225e-22)
(0.02796481 -0.11592626 0)
(0.081520156 -0.04736605 0)
(0.072849601 0.032067456 0)
(0.016267458 0.074146566 0)
(-0.014219844 0.095684334 0)
(-0.074511352 0.030181077 0)
(-0.061140145 -0.025216021 0)
(-0.016203209 -0.048240789 0)
(0.014796114 -0.037522091 0)
(0.024177524 -0.015690984 0)
(0.021173427 0.00025241173 0)
(0.012962219 0.0091359173 0)
(0.0038861898 0.011036674 0)
(-0.0021646192 0.0081612932 0)
(-0.0042696881 0.0044344668 0)
(-0.00392707 0.0016326352 0)
(-0.0027102067 9.604368e-05 0)
(-0.0017056379 -0.00050933125 0)
(-0.0010040019 -0.00052835602 0)
(-0.00067880707 -0.00040200276 0)
(-0.00057515901 -0.00027555381 0)
(-0.00056237778 -0.00021093608 0)
(-0.00056301912 -0.00019050644 0)
(-0.00054582308 -0.00018838754 0)
(-0.00050520814 -0.00018565524 0)
(-0.00045180474 -0.00017101958 0)
(-0.00039389179 -0.00014435637 0)
(-0.00033865463 -0.00011173129 0)
(-0.00029400933 -8.0859396e-05 0)
(-0.00026090448 -5.5808499e-05 0)
(-0.00023784883 -3.4302646e-05 0)
(-0.0002250833 -1.3312276e-05 0)
(-0.00015314398 -0.029084376 -7.1691e-26)
(0.001433396 -0.001258533 0)
(0.0059967052 -0.051195942 -1.5879346e-25)
(0.014947803 0.0046407166 -4.4014544e-23)
(0.0024941523 0.058016341 1.3326597e-24)
(-0.031205977 0.097016911 -6.9623472e-23)
(-0.042103085 0.0063777145 1.2334321e-22)
(-0.020641109 -0.060291216 3.8886145e-22)
(0.026904596 -0.13010396 -3.825966e-22)
(0.081370467 -0.0562686 0)
(0.070397895 0.034211992 -6.6747869e-22)
(0.011698183 0.084983453 0)
(-0.028471427 0.12246644 0)
(-0.10643886 0.036911221 0)
(-0.082267163 -0.029935058 0)
(-0.023710537 -0.06263687 0)
(0.020956383 -0.048956683 0)
(0.032210488 -0.01988155 0)
(0.028361873 0.0001409971 0)
(0.018069726 0.012154055 0)
(0.005886238 0.015367197 0)
(-0.0028424629 0.011800276 0)
(-0.006204445 0.0064144106 0)
(-0.005817497 0.0021570089 0)
(-0.0039497855 -0.00015254687 0)
(-0.0022865357 -0.00095603312 0)
(-0.0012333862 -0.0010032123 0)
(-0.00067835914 -0.00070366794 0)
(-0.00051039412 -0.00041726581 0)
(-0.00051242976 -0.00025290643 0)
(-0.00055352419 -0.00018414838 0)
(-0.00057236322 -0.00017065513 0)
(-0.00055342432 -0.00017547022 0)
(-0.00050755358 -0.00017429891 0)
(-0.00044853818 -0.00016022847 0)
(-0.00038697248 -0.00013449634 0)
(-0.00033137239 -0.00010639555 0)
(-0.00028699861 -7.9437629e-05 0)
(-0.00025480091 -5.8191796e-05 0)
(-0.00023238286 -3.7828493e-05 0)
(-0.00021930266 -1.5483041e-05 0)
(0.00081651193 -0.052051329 -1.347087e-24)
(0.00027994318 -0.029044113 0)
(0.0037524743 -0.00097712586 -2.2093631e-23)
(0.0096813948 0.0054564243 4.3987743e-23)
(0.0016167787 0.060870004 -9.9065498e-25)
(-0.026937734 0.10235796 5.1227072e-23)
(-0.036409801 0.0060856234 1.0897339e-22)
(-0.018473262 -0.064516498 1.3336021e-22)
(0.024651968 -0.1433092 -1.6837908e-22)
(0.079269419 -0.062988009 -7.7318223e-23)
(0.073346931 0.034535522 -8.295424e-22)
(0.012247523 0.10151409 7.09275e-22)
(-0.060504391 0.13530409 0)
(-0.1265922 0.047246878 0)
(-0.099649393 -0.03859205 0)
(-0.033565912 -0.079700955 0)
(0.027486921 -0.062350041 0)
(0.042037556 -0.025164728 0)
(0.037134224 0.00029613587 0)
(0.02451505 0.015727625 0)
(0.0087611738 0.021016818 0)
(-0.0036956184 0.016871175 0)
(-0.0089041898 0.0091636742 0)
(-0.0085354889 0.0028719311 0)
(-0.0058006871 -0.00059491922 0)
(-0.0031442881 -0.0017080656 0)
(-0.0015493351 -0.0017235661 0)
(-0.00065080964 -0.0011878644 0)
(-0.00036901205 -0.00068232583 0)
(-0.00038596949 -0.00034189294 0)
(-0.00049070185 -0.00017956292 0)
(-0.0005693097 -0.00013688172 0)