/*--------------------------------*- C++ -*----------------------------------*\
| =========                 |                                                 |
| \\      /  F ield         | OpenFOAM: The Open Source CFD Toolbox           |
|  \\    /   O peration     | Version:  5.0                                   |
|   \\  /    A nd           | Web:      www.OpenFOAM.org                      |
|    \\/     M anipulation  |                                                 |
\*---------------------------------------------------------------------------*/
FoamFile
{
    version     2.0;
    format      ascii;
    class       volScalarField;
    location    "160";
    object      ddt0(nuTilda);
}
// * * * * * * * * * * * * * * * * * * * * * * * * * * * * * * * * * * * * * //

dimensions      [0 2 -2 0 0 0 0];

internalField   nonuniform List<scalar> 
9520
(
1.2532018e-35
1.2266334e-33
3.263712e-36
5.7129742e-32
2.6491507e-34
4.6104204e-36
1.680874e-30
9.9597088e-33
5.3901241e-34
1.7220247e-35
3.4939324e-29
2.2925647e-31
3.1802879e-32
2.0810567e-33
3.4209305e-35
5.341706e-28
3.6070101e-30
1.22312e-30
1.2087838e-31
3.9898544e-33
4.478029e-35
6.0359076e-27
3.1568203e-29
3.4210923e-29
4.4596918e-30
2.2168667e-31
4.9121366e-33
3.839902e-35
4.9380681e-26
-8.9339759e-29
7.4068829e-28
1.177475e-28
7.8024997e-30
2.5550359e-31
3.6801228e-33
1.0628723e-35
2.1911165e-25
-6.1494482e-27
1.2996363e-26
2.3972523e-27
1.9604904e-28
8.393777e-30
1.6235401e-31
6.6329974e-35
-3.2748279e-35
-4.8835926e-25
-1.1327868e-25
1.9126999e-25
3.9542788e-26
3.7844771e-27
1.9589478e-28
4.3223917e-30
-5.4504209e-32
-4.8496155e-33
-7.474995e-35
-6.8931025e-24
-9.5710289e-25
2.3273667e-24
5.4570399e-25
5.8954001e-26
3.4753636e-27
7.4945966e-29
-3.7647841e-30
-3.1518518e-31
-8.8477135e-33
-9.1722404e-35
4.6748352e-22
5.5254049e-24
2.3327848e-23
6.3309068e-24
7.6779276e-25
4.8941741e-26
7.8500185e-28
-1.3737732e-28
-1.2425979e-29
-4.8732182e-31
-9.3411569e-33
-6.3600918e-35
3.8943602e-20
4.0337073e-22
1.8272304e-22
6.1727294e-23
8.5038347e-24
5.6743468e-25
1.2776052e-27
-3.4480277e-27
-3.4029725e-28
-1.6751518e-29
-4.4009428e-31
-4.6151016e-33
1.3914247e-35
2.8489252e-18
2.0009729e-20
5.5422641e-22
4.9356694e-22
8.1199028e-23
5.5714555e-24
-1.2911387e-25
-6.6279145e-26
-7.014838e-27
-4.0580582e-28
-1.2647352e-29
-1.117952e-31
4.9738438e-33
1.2154651e-34
1.6822206e-16
7.8738003e-19
-5.1297093e-20
2.5815957e-21
6.772745e-22
4.8195405e-23
-2.9838226e-24
-1.0246838e-24
-1.1509986e-25
-7.4049587e-27
-2.4468832e-28
8.8475768e-31
4.365197e-31
1.6508994e-32
2.1907893e-34
7.4779834e-15
-3.4454421e-18
-4.9006363e-18
-5.3020766e-20
4.8607329e-21
3.9613268e-22
-4.17435e-23
-1.3122396e-23
-1.5574971e-24
-1.061761e-25
-3.2113503e-27
1.3870938e-28
2.0370855e-29
1.0141521e-30
2.5234704e-32
2.5954007e-34
2.4571182e-13
-2.4141121e-15
-3.3832412e-16
-5.5453648e-18
8.4361437e-21
3.47222e-21
-4.2946181e-22
-1.4283052e-22
-1.7835617e-23
-1.2276257e-24
-2.3732095e-26
4.8971462e-27
6.2574777e-28
3.8300645e-29
1.3589811e-30
2.637851e-32
2.0899877e-34
5.7986077e-12
-1.5639304e-13
-1.7271051e-14
-3.3655163e-16
-1.5492968e-18
4.4316004e-20
-3.2159067e-21
-1.350033e-21
-1.7711099e-22
-1.1657273e-23
7.2781118e-26
1.119071e-25
1.4062319e-26
1.0113966e-27
4.5702304e-29
1.2451897e-30
1.7262812e-32
6.2475271e-35
9.8327483e-11
-5.5427357e-12
-6.4917453e-13
-1.5113331e-14
-6.3423486e-17
2.173759e-18
8.9255896e-21
-1.1225249e-20
-1.5674988e-21
-9.1892535e-23
5.3205215e-24
1.9378665e-24
2.4764895e-25
2.0095977e-26
1.0806517e-27
3.6027743e-29
5.9029612e-31
-1.3186542e-33
-1.510414e-34
1.1235031e-09
-1.277257e-10
-1.7622508e-11
-4.9963673e-13
-5.4677929e-16
1.8287784e-16
3.1252454e-18
-6.8753463e-20
-1.2743826e-20
-6.1395422e-22
9.6872742e-23
2.6868357e-23
3.5688939e-24
3.1599599e-25
1.9146993e-26
7.0608205e-28
8.5303619e-30
-4.9361141e-31
-2.5044163e-32
-3.75772e-34
8.2403658e-09
-1.8756624e-09
-3.4047472e-10
-1.2042014e-11
7.5984553e-14
1.1875046e-14
2.5327993e-16
1.0390133e-18
-9.8139739e-20
-3.7047383e-21
1.2184595e-21
3.1046212e-22
4.2997821e-23
4.0762231e-24
2.6351207e-25
9.5401288e-27
-7.9638038e-29
-3.0697267e-29
-1.7251799e-30
-4.7254416e-32
-5.4510035e-34
3.4343268e-08
-1.8907445e-08
-4.4522216e-09
-2.0764359e-10
4.5041987e-12
5.455727e-13
1.4538801e-14
9.9665478e-17
-1.0678465e-18
-2.7924475e-20
1.2178477e-20
3.0753851e-21
4.4239646e-22
4.3941667e-23
2.875163e-24
7.797268e-26
-7.104169e-27
-1.0758622e-27
-7.0557918e-29
-2.7364373e-30
-6.0890168e-32
-6.0062186e-34
7.5549778e-08
-1.2488297e-07
-3.9579662e-08
-2.3402232e-09
1.2880687e-10
1.7530525e-11
5.9985384e-13
4.1862065e-15
-6.5494923e-17
-8.659998e-19
9.959824e-20
2.6712751e-20
3.9669879e-21
4.01836e-22
2.4730997e-23
8.8232234e-27
-1.9942574e-25
-2.610296e-26
-1.9798873e-27
-9.8367467e-29
-3.1796882e-30
-6.0523456e-32
-5.0840908e-34
-3.250399e-09
-5.6968105e-07
-2.3669659e-07
-1.630662e-08
2.0388938e-09
3.864005e-10
1.7500836e-11
9.3153032e-14
-5.6398691e-15
-7.2775798e-17
4.1677951e-19
2.0724354e-19
3.1674231e-20
3.1629153e-21
1.5874333e-22
-1.1696623e-23
-3.7734153e-24
-4.8426253e-25
-4.1306018e-26
-2.4839127e-27
-1.0351726e-28
-2.8263631e-30
-4.3878697e-32
-2.6811929e-34
-3.838953e-07
-1.7990341e-06
-9.7975704e-07
-7.9685935e-08
2.3287984e-08
5.6741506e-09
3.5181261e-10
1.1119567e-13
-3.2824568e-13
-5.0939747e-15
-2.481303e-17
1.3922547e-18
2.3069301e-19
2.1821771e-20
5.8940784e-22
-2.3219018e-22
-5.4669952e-23
-7.2398151e-24
-6.7837264e-25
-4.7122237e-26
-2.3627114e-27
-8.0448712e-29
-1.6320436e-30
-1.2468437e-32
8.6561376e-35
-9.0537392e-07
-4.0170642e-06
-2.7992218e-06
-2.5557439e-07
1.7042646e-07
5.5858305e-08
4.763278e-09
-5.5941259e-11
-1.2650099e-11
-2.5290869e-13
-1.8415863e-15
3.4134723e-18
1.5691547e-18
1.3573174e-19
-1.7791071e-21
-3.0318087e-21
-6.4547393e-22
-8.9326257e-23
-9.115466e-24
-7.0269406e-25
-4.007904e-26
-1.5365673e-27
-3.0281491e-29
2.4641336e-31
2.8690053e-32
4.9478618e-34
-1.2249238e-06
-6.6204421e-06
-5.9082598e-06
-5.576046e-07
8.3276173e-07
3.6488194e-07
4.2528576e-08
-1.6593295e-09
-3.226963e-10
-8.7735708e-12
-8.2783828e-14
-2.0769542e-16
1.2454002e-17
8.1580051e-19
-5.6828014e-20
-3.1320295e-20
-6.4379444e-21
-9.3001727e-22
-1.0199965e-22
-8.5086997e-24
-5.1876311e-25
-1.9793614e-26
-9.7584963e-29
3.9173232e-29
2.480283e-30
7.2053181e-32
8.8005132e-34
-2.9226164e-06
-9.8196031e-06
-9.9594535e-06
-9.8328994e-07
2.7358716e-06
1.5923471e-06
2.471458e-07
-2.4717557e-08
-5.4331007e-09
-2.0812337e-10
-2.5658266e-12
-2.6879022e-15
4.2733215e-16
9.5213291e-18
-6.1387298e-19
-2.7327745e-19
-5.5630363e-20
-8.3191051e-21
-9.6426601e-22
-8.4690939e-23
-5.1443902e-24
-1.3966058e-25
1.077807e-26
1.7036963e-27
1.1485093e-28
4.6321854e-30
1.0894783e-31
1.1639471e-33
-4.2986293e-06
-1.3173926e-05
-1.4684839e-05
-1.9399346e-06
6.280916e-06
4.7022481e-06
9.0885487e-07
-2.1937794e-07
-6.0666157e-08
-3.1948879e-09
-5.6599162e-11
3.3548754e-13
3.2559543e-14
6.060373e-16
-1.6436459e-18
-2.0801424e-18
-4.247213e-19
-6.494795e-20
-7.7856176e-21
-6.9365687e-22
-3.7037618e-23
5.5159694e-25
3.7019515e-25
4.5837601e-26
3.5048154e-27
1.8091424e-28
6.2383957e-30
1.3117623e-31
1.2804658e-33
-5.4703137e-06
-1.5357609e-05
-1.7702117e-05
-3.5642977e-06
1.0594925e-05
9.7916751e-06
2.0907852e-06
-1.2355348e-06
-4.5075854e-07
-3.4411603e-08
-8.4989951e-10
1.8759734e-11
1.8136797e-12
4.5195903e-14
3.4070231e-16
-1.3550345e-17
-2.9168643e-18
-4.4879787e-19
-5.4122887e-20
-4.6053961e-21
-1.4238731e-22
3.3393258e-23
7.5073429e-24
9.065978e-25
7.7841841e-26
4.900988e-27
2.218444e-28
6.900195e-30
1.3263267e-31
1.1893864e-33
-6.7550773e-06
-1.6808998e-05
-1.9267233e-05
-3.9231382e-06
1.4369784e-05
1.5411969e-05
3.0729236e-06
-4.5373536e-06
-2.2335748e-06
-2.5205998e-07
-8.1637083e-09
5.2415843e-10
6.6127784e-11
2.3582572e-12
2.6365957e-14
-4.8557859e-17
-1.8563015e-17
-2.785762e-18
-3.2557713e-19
-2.3472045e-20
7.6983453e-22
5.8986621e-22
1.1226639e-22
1.4202184e-23
1.3461137e-24
9.901719e-26
5.5289525e-27
2.2578018e-28
6.3713995e-30
1.1072082e-31
8.8643094e-34
-8.4135368e-06
-1.7475219e-05
-2.0571033e-05
-3.8334085e-06
1.7592546e-05
2.0538506e-05
3.2001252e-06
-1.1245673e-05
-7.4799861e-06
-1.2373604e-06
-4.5627277e-08
9.1328657e-09
1.5823382e-09
8.1902307e-11
1.2440535e-12
-8.7575452e-16
-1.5711364e-16
-1.5908187e-17
-1.6971728e-18
-7.3445363e-20
2.1667836e-20
7.2789941e-21
1.3438865e-21
1.8117788e-22
1.8977683e-23
1.572559e-24
1.0311395e-25
5.15283e-27
1.8746309e-28
4.6232735e-30
6.7211222e-32
4.0695196e-34
-9.9857881e-06
-1.8240131e-05
-2.0825961e-05
-4.0311198e-06
1.8849446e-05
2.3995697e-05
3.2131407e-06
-1.9937393e-05
-1.7514909e-05
-4.0861417e-06
-1.0859614e-07
1.0851494e-07
2.4659209e-08
1.8626445e-09
3.7845505e-11
-2.1941093e-13
-6.2528545e-15
-1.025744e-16
-7.6895283e-18
1.1697968e-19
2.5822184e-19
7.1781621e-20
1.3418792e-20
1.9319327e-21
2.2162855e-22
2.0419326e-23
1.5052593e-24
8.7048626e-26
3.7308015e-27
1.0993404e-28
1.8700333e-30
8.1569283e-33
-1.7934078e-34
-1.1549532e-05
-1.870867e-05
-2.0475921e-05
-4.0559568e-06
1.9045639e-05
2.4126802e-05
6.7607916e-07
-2.8576464e-05
-3.0523452e-05
-9.3268112e-06
2.2850206e-07
8.1282619e-07
2.4890476e-07
2.7350194e-08
7.2723497e-10
-1.4829765e-11
-4.024348e-13
-2.331861e-15
-3.3072291e-17
3.9811744e-18
2.2773584e-18
5.9599605e-19
1.1463407e-19
1.7551785e-20
2.1810563e-21
2.1963561e-22
1.7731926e-23
1.1217333e-24
5.1934429e-26
1.4417706e-27
4.448214e-30
-1.4650595e-30
-5.7260277e-32
-7.8256147e-34
-1.3056492e-05
-1.8951828e-05
-1.9757397e-05
-3.7667456e-06
1.8189045e-05
2.3060109e-05
-2.1179641e-06
-3.5188294e-05
-4.2601716e-05
-1.5757442e-05
2.406374e-06
3.9352697e-06
1.625645e-06
2.5689492e-07
8.5100862e-09
-5.1428915e-10
-1.7857493e-11
-1.2618895e-13
-3.9627187e-16
3.7496223e-17
1.6653191e-17
4.2926416e-18
8.5298847e-19
1.3790052e-19
1.8314551e-20
1.9796957e-21
1.6982223e-22
1.099519e-23
4.6730727e-25
3.0425534e-27
-1.3401063e-27
-1.1174883e-28
-4.8419796e-30
-1.1875043e-31
-1.3124016e-33
-1.432412e-05
-1.8959915e-05
-1.8659338e-05
-3.3360416e-06
1.7107629e-05
2.0814467e-05
-3.7864803e-06
-3.7616802e-05
-5.0172832e-05
-2.1134721e-05
7.8572483e-06
1.2581496e-05
6.9028191e-06
1.5333368e-06
5.6686972e-08
-1.0419692e-08
-5.1120902e-10
-5.1356906e-12
-2.0373359e-14
2.194826e-16
1.0582434e-16
2.7410914e-17
5.6146786e-18
9.4810176e-19
1.3252716e-19
1.5020316e-20
1.3140388e-21
7.7350242e-23
1.1544207e-24
-3.5748394e-25
-5.1877679e-26
-4.1522005e-27
-2.1944427e-28
-7.7289867e-30
-1.6727784e-31
-1.6980318e-33
-1.5045641e-05
-1.8669477e-05
-1.72495e-05
-2.803377e-06
1.5861093e-05
1.834604e-05
-5.3721418e-06
-3.7964104e-05
-5.2826926e-05
-2.4028566e-05
1.5866795e-05
2.7760799e-05
1.9352865e-05
5.8103678e-06
1.7084634e-07
-1.2909211e-07
-9.4240373e-09
-1.4789216e-10
-9.7978201e-13
-1.38794e-15
5.9856922e-16
1.5830294e-16
3.3150676e-17
5.7697052e-18
8.3165948e-19
9.5750734e-20
7.9172506e-21
2.7685485e-22
-4.2933072e-23
-1.0055009e-23
-1.2035688e-24
-1.0308847e-25
-6.5364569e-27
-3.0203955e-28
-9.7237223e-30
-1.9700299e-31
-1.9013537e-33
-1.5330326e-05
-1.7997325e-05
-1.5664551e-05
-2.1245191e-06
1.4403401e-05
1.5638125e-05
-6.7302555e-06
-3.6010422e-05
-5.2464769e-05
-2.4584399e-05
2.3868086e-05
4.5357622e-05
3.7479287e-05
1.4146348e-05
-1.5745021e-07
-1.0004754e-06
-1.120673e-07
-2.8757188e-09
-3.2429119e-11
-1.5460502e-13
2.8846911e-15
8.4441776e-16
1.7838457e-16
3.1407934e-17
4.5429451e-18
5.0476934e-19
3.2466129e-20
-1.853982e-21
-9.5020953e-22
-1.6873915e-22
-2.0584081e-23
-1.922599e-24
-1.4210471e-25
-8.1367893e-27
-3.4919829e-28
-1.0632027e-29
-2.061051e-31
-1.920453e-33
-1.5174569e-05
-1.6567278e-05
-1.4279358e-05
-1.5355718e-06
1.2870977e-05
1.2769184e-05
-7.9930335e-06
-3.3682627e-05
-5.0378589e-05
-2.3143283e-05
2.94544e-05
5.9871402e-05
5.3708671e-05
2.3222332e-05
-2.9498167e-06
-4.9578919e-06
-8.3823334e-07
-3.7124391e-08
-7.1208915e-10
-5.9649323e-12
1.6215305e-15
4.4367175e-15
8.9456858e-16
1.5465703e-16
2.1602519e-17
2.0840424e-18
2.2243543e-20
-4.6334537e-20
-1.2483639e-20
-2.1331796e-21
-2.7678891e-22
-2.8607614e-23
-2.4016392e-24
-1.636673e-25
-8.7888771e-27
-3.5843425e-28
-1.0479038e-29
-1.9654115e-31
-1.78327e-33
-1.3704368e-05
-1.44941e-05
-1.3444616e-05
-1.5501716e-06
1.1025999e-05
9.5362712e-06
-9.3906351e-06
-3.0971127e-05
-4.6707723e-05
-2.4439922e-05
3.2904229e-05
6.7605351e-05
6.2741067e-05
2.7222656e-05
-1.0421399e-05
-1.6168436e-05
-4.1902391e-06
-3.1646708e-07
-1.0220161e-08
-1.4082744e-10
-1.7678546e-13
4.7624666e-14
4.7133002e-15
7.0334495e-16
8.8284197e-17
5.4740473e-18
-1.124417e-18
-5.2920993e-19
-1.2552269e-19
-2.1913769e-20
-3.0544135e-21
-3.4897301e-22
-3.29765e-23
-2.5877479e-24
-1.6657433e-25
-8.5285108e-27
-3.343035e-28
-9.4617852e-30
-1.7280041e-31
-1.5348096e-33
-1.1077678e-05
-9.7361786e-06
-1.1606755e-05
-2.275519e-06
8.7932126e-06
6.0056193e-06
-1.1066487e-05
-2.7997069e-05
-4.2435153e-05
-2.4979378e-05
3.2804595e-05
6.9041774e-05
6.4366339e-05
2.5383375e-05
-2.1486864e-05
-3.6305943e-05
-1.425979e-05
-1.7905156e-06
-9.5059709e-08
-2.025205e-09
1.228304e-11
2.3430267e-12
8.0039372e-14
3.5450189e-15
3.0177375e-16
-5.9037564e-18
-1.3551867e-17
-4.4955928e-18
-1.0412588e-18
-1.897353e-19
-2.8449803e-20
-3.5694826e-21
-3.7655427e-22
-3.3420782e-23
-2.4918363e-24
-1.5323337e-25
-7.5423657e-27
-2.8578196e-28
-7.8624753e-30
-1.4026272e-31
-1.2228069e-33
-9.9165494e-06
-7.6887791e-06
-7.8910969e-06
-3.7025205e-06
6.1297102e-06
2.4346652e-06
-1.2705824e-05
-2.4922124e-05
-3.7422974e-05
-2.5322593e-05
3.0360144e-05
6.8112648e-05
6.0356895e-05
1.8631103e-05
-3.2889374e-05
-5.9791197e-05
-3.432811e-05
-6.8205145e-06
-5.7104382e-07
-1.6481896e-08
7.580206e-10
1.1033601e-10
4.8032407e-12
8.4115658e-14
1.0580853e-15
-2.0158663e-16
-1.0579773e-16
-3.1512018e-17
-7.3879727e-18
-1.4157616e-18
-2.2795818e-19
-3.1184236e-20
-3.6362183e-21
-3.6096803e-22
-3.0453943e-23
-2.172665e-24
-1.2822571e-25
-6.0807117e-27
-2.2293935e-28
-5.9583493e-30
-1.0369286e-31
-8.8607455e-34
-6.37715e-06
-1.0789021e-05
-5.0071764e-06
-7.7625699e-06
3.1096535e-06
-1.4169488e-06
-1.4229609e-05
-2.1702053e-05
-3.1819229e-05
-2.5594123e-05
2.7300483e-05
6.4248772e-05
5.3319014e-05
1.0403074e-05
-4.2333597e-05
-7.8073415e-05
-6.1342911e-05
-1.8051625e-05
-2.2045775e-06
-5.7031485e-08
1.827387e-08
3.2093617e-09
2.1755878e-10
5.4880427e-12
3.8740504e-14
-1.708191e-15
-6.7630127e-16
-1.9086732e-16
-4.5830131e-17
-9.2497651e-18
-1.5934889e-18
-2.3602549e-19
-3.0121508e-20
-3.3071545e-21
-3.1127254e-22
-2.5050871e-23
-1.709294e-24
-9.6525522e-26
-4.3827698e-27
-1.5406343e-28
-3.9539729e-30
-6.6263581e-32
-5.4807572e-34
-2.3675896e-07
-1.2066014e-05
-9.1466958e-06
-3.1167515e-06
-8.0460462e-06
-5.1126654e-06
-1.5335308e-05
-1.8194108e-05
-2.5947705e-05
-2.5963414e-05
2.3951074e-05
5.964287e-05
4.8350709e-05
3.9243116e-06
-4.4948352e-05
-8.7030075e-05
-8.5969241e-05
-3.4634879e-05
-5.4705332e-06
1.5559256e-07
2.4032929e-07
5.6623397e-08
5.9483551e-09
2.3993031e-10
2.7578529e-12
-8.2499495e-15
-3.8133807e-15
-1.0278778e-15
-2.5244062e-16
-5.3568507e-17
-9.8265649e-18
-1.5649843e-18
-2.1653968e-19
-2.5984151e-20
-2.6924375e-21
-2.3963593e-22
-1.8248261e-23
-1.1732123e-24
-6.1988895e-26
-2.6074307e-27
-8.397602e-29
-1.9497632e-30
-2.924192e-32
-2.1593022e-34
-8.3632092e-06
-5.2748775e-06
-1.4398683e-05
-6.713866e-06
-1.7766609e-06
-8.475812e-06
-1.5490235e-05
-1.2474999e-05
-2.0168736e-05
-2.5028658e-05
2.058236e-05
5.4563838e-05
4.2907862e-05
2.4086501e-07
-4.1642414e-05
-8.7147055e-05
-0.00010147016
-5.1179038e-05
-8.579778e-06
2.4127562e-06
1.8847878e-06
6.1278303e-07
9.7792405e-08
6.2086017e-09
1.1372981e-10
1.3037901e-14
-2.2437817e-14
-5.0379493e-15
-1.2506216e-15
-2.7777392e-16
-5.3951324e-17
-9.1710356e-18
-1.3629107e-18
-1.7651553e-19
-1.9814604e-20
-1.9111752e-21
-1.5678818e-22
-1.0816446e-23
-6.0924688e-25
-2.6549258e-26
-8.1433082e-28
-1.3721656e-29
5.379389e-32
7.7663928e-33
1.1639308e-34
-1.3943545e-05
-9.6677676e-06
-9.4941575e-06
-1.5133363e-05
-4.3083128e-06
-7.168565e-07
-9.1052864e-06
-6.1819378e-06
-1.4100357e-05
-2.3778279e-05
1.715261e-05
4.9516363e-05
3.6801572e-05
-3.9222712e-06
-3.8262516e-05
-7.6150054e-05
-0.00010832519
-6.2791203e-05
-8.0021623e-06
1.0993026e-05
9.2208319e-06
4.126638e-06
9.7693778e-07
9.52944e-08
2.6693073e-09
-6.2947637e-12
-4.2639963e-13
-2.3387707e-14
-5.6471155e-15
-1.3010394e-15
-2.6575379e-16
-4.7828605e-17
-7.5551618e-18
-1.0411625e-18
-1.239726e-19
-1.2552572e-20
-1.0506278e-21
-6.9000827e-23
-3.0936397e-24
-2.929149e-26
9.7751465e-27
1.0247806e-27
5.8615051e-29
2.1264003e-30
4.6207288e-32
4.6246054e-34
1.6794012e-07
-9.9032395e-06
-1.2221064e-05
-1.4955774e-05
-1.4789513e-05
-2.1054948e-06
1.6571732e-07
-9.6403265e-06
-9.2692138e-06
-2.2660943e-05
1.3609845e-05
4.4243699e-05
3.0754092e-05
-7.7773661e-06
-3.5006379e-05
-6.5080749e-05
-0.00010598861
-6.8170007e-05
-2.7892792e-06
2.8985616e-05
2.9136946e-05
1.7580477e-05
5.9925048e-06
8.7514754e-07
3.5645555e-08
-4.6958898e-10
-2.1660257e-11
-1.631145e-13
-2.3627741e-14
-5.5511338e-15
-1.1822068e-15
-2.2311306e-16
-3.6987638e-17
-5.3214419e-18
-6.5084316e-19
-6.4928859e-20
-4.7451156e-21
-1.4585019e-22
2.2723169e-23
5.0005627e-24
5.8206525e-25
4.8333917e-26
2.9907578e-27
1.3641112e-28
4.3649479e-30
8.7814811e-32
8.3701139e-34
-3.4576177e-06
5.1530713e-06
-6.496656e-06
-1.5124745e-05
-1.9764893e-05
-1.4045507e-05
2.6007844e-07
9.0576644e-07
-9.9561395e-06
-2.1335737e-05
9.796446e-06
3.8887217e-05
2.4445696e-05
-1.2374769e-05
-3.1899884e-05
-5.3289172e-05
-9.7811001e-05
-7.9279863e-05
5.4717769e-06
5.2566684e-05
6.2477102e-05
4.838602e-05
2.2844019e-05
4.8348687e-06
2.6568316e-07
-1.335289e-08
-7.7468053e-10
-5.3220631e-12
-9.8509469e-14
-2.1794365e-14
-4.7766618e-15
-9.3380947e-16
-1.5965132e-16
-2.3265171e-17
-2.7410773e-18
-2.2277976e-19
-1.8276663e-21
3.5335284e-21
8.1733849e-22
1.2142588e-22
1.3810177e-23
1.2534943e-24
9.093171e-26
5.1704067e-27
2.2277231e-28
6.8481498e-30
1.3386218e-31
1.2500392e-33
-2.1117303e-05
1.815405e-06
9.3407038e-06
-4.7238978e-06
-1.8119388e-05
-2.2262945e-05
-1.3e-05
2.5100842e-06
1.6487864e-06
-1.0039849e-05
5.2085414e-06
3.3365773e-05
1.8210993e-05
-1.6858926e-05
-2.909042e-05
-4.111645e-05
-8.6525595e-05
-8.42792e-05
2.9754065e-06
7.5038613e-05
9.8124317e-05
8.9832149e-05
5.5055028e-05
1.6142102e-05
1.0255999e-06
-1.973644e-07
-1.6470244e-08
-2.0892387e-10
-9.2622567e-13
-8.0152362e-14
-1.7627507e-14
-3.5083232e-15
-6.0192775e-16
-8.3753912e-17
-7.8491539e-18
6.6683141e-20
2.3798538e-19
6.628713e-20
1.2561055e-20
1.8808339e-21
2.3161398e-22
2.3707588e-23
2.0097801e-24
1.3878844e-25
7.6096145e-27
3.189215e-28
9.5970061e-30
1.8454274e-31
1.7021167e-33
-5.5721507e-08
-1.9661893e-05
6.8227086e-06
1.2904554e-05
-3.9588377e-06
-2.1263256e-05
-2.4413839e-05
-1.1626804e-05
4.533139e-06
2.320774e-06
-9.9024701e-06
2.7416272e-05
1.1702735e-05
-2.1458994e-05
-2.6127194e-05
-2.9180692e-05
-7.2679204e-05
-8.6071798e-05
-1.8398346e-06
8.8544968e-05
0.0001244382
0.000122125
8.7937783e-05
3.3051185e-05
1.4082217e-06
-1.6651199e-06
-2.1086524e-07
-5.0431136e-09
-3.2311425e-11
-3.3309141e-13
-5.9852994e-14
-1.1792156e-14
-1.932118e-15
-2.1904839e-16
4.3042044e-19
8.9848395e-18
3.1328461e-18
7.4551968e-19
1.4215238e-19
2.2708955e-20
3.0825227e-21
3.5613441e-22
3.4838766e-23
2.8533587e-24
1.916293e-25
1.0275206e-26
4.2298309e-28
1.2547152e-29
2.3856577e-31
2.181557e-33
2.0924573e-05
-4.9517515e-06
-1.7251391e-05
1.1706401e-05
1.6226916e-05
-3.3390556e-06
-2.4278836e-05
-2.5843304e-05
-1.0181814e-05
6.4527678e-06
2.9207022e-06
-9.2163572e-06
5.0696564e-06
-2.5847987e-05
-2.288713e-05
-1.762338e-05
-5.7435095e-05
-8.5222191e-05
-8.0888998e-06
9.159493e-05
0.00014263897
0.00013503237
0.0001012867
4.386623e-05
-2.8842029e-06
-8.4353889e-06
-1.6632702e-06
-7.3190745e-08
-9.3698213e-10
-4.8536503e-12
-1.9329061e-13
-3.5131378e-14
-4.9091032e-15
-1.526915e-16
2.0453163e-16
9.3242636e-17
2.7657012e-17
6.5650104e-18
1.3176807e-18
2.2785765e-19
3.4130972e-20
4.4232483e-21
4.9327808e-22
4.6907245e-23
3.7530393e-24
2.4708068e-25
1.3032855e-26
5.2938976e-28
1.5537884e-29
2.9303704e-31
2.663824e-33
-1.8378178e-06
1.3598019e-05
-1.0522649e-05
-1.3990921e-05
1.6486904e-05
1.9372913e-05
-2.9018346e-06
-2.6222586e-05
-2.6679527e-05
-8.6609273e-06
8.1518251e-06
3.7676152e-06
-8.2713748e-06
-2.9622025e-05
-1.8185641e-05
-6.2267028e-06
-4.3357371e-05
-8.1673359e-05
-1.5128555e-05
9.0144803e-05
0.00014490017
0.00013416659
9.2597744e-05
3.9048065e-05
-1.4496558e-05
-2.6724328e-05
-8.2924961e-06
-6.5738771e-07
-1.644647e-08
-1.4895784e-10
-9.8228466e-13
-9.1152014e-14
-7.2037596e-15
2.766208e-15
1.8215753e-15
6.7638463e-16
1.9736201e-16
4.8706258e-17
1.0431564e-17
1.9573807e-18
3.2233619e-19
4.6482869e-20
5.8408367e-21
6.3481421e-22
5.9090734e-23
4.6382399e-24
3.0052614e-25
1.5647049e-26
6.2907744e-28
1.8321335e-29
3.4365699e-31
2.3437879e-35
-3.2399698e-05
-9.0469783e-06
5.2321723e-06
-1.5848175e-05
-1.0138542e-05
2.1004143e-05
2.2290797e-05
-2.7306768e-06
-2.8140826e-05
-2.7186736e-05
-7.0822076e-06
9.5842917e-06
3.9644939e-06
-7.2489521e-06
-1.1077494e-05
5.3874545e-06
-3.0056295e-05
-7.575151e-05
-2.2059298e-05
8.5548868e-05
0.00014410607
0.00013141153
7.5806482e-05
2.3773153e-05
-2.8446642e-05
-5.5773747e-05
-2.7082419e-05
-3.7686635e-06
-1.7711737e-07
-3.1033207e-09
-2.09473e-11
-2.3191911e-13
1.5389196e-14
2.3694528e-14
1.1317333e-14
4.0357251e-15
1.2073527e-15
3.1416564e-16
7.2061618e-17
1.4641293e-17
2.6360574e-18
4.1949675e-19
5.8753707e-20
7.198898e-21
7.6549973e-22
6.9966953e-23
5.4035542e-24
3.4552579e-25
1.7806106e-26
7.1053079e-28
2.0591863e-29
3.4277157e-33
9.239626e-38
-4.2660444e-06
-3.3911213e-05
-1.6156686e-05
-3.3871301e-06
-1.8849022e-05
-6.2418254e-06
2.5398821e-05
2.5058057e-05
-2.7171774e-06
-2.9767778e-05
-2.7415719e-05
-5.5703173e-06
1.0023669e-05
3.7514765e-06
-6.1917198e-06
1.7449127e-05
-1.7695361e-05
-6.8352405e-05
-2.8377645e-05
7.9160981e-05
0.00014033065
0.00012684566
6.6828567e-05
6.2602805e-06
-3.7526204e-05
-8.1375681e-05
-6.0828938e-05
-1.4290708e-05
-1.2102325e-06
-3.946614e-08
-4.9521806e-10
-2.4590681e-12
1.8538665e-13
1.3203195e-13
5.8181437e-14
2.0907067e-14
6.508637e-15
1.7922903e-15
4.3986987e-16
9.640204e-17
1.8857161e-17
3.2848009e-18
5.0766075e-19
6.9278131e-20
8.296544e-21
8.6467899e-22
7.7778184e-23
5.9239034e-24
3.7478834e-25
1.9170303e-26
7.6155576e-28
2.3352761e-31
1.5625902e-35
1.4233961e-40
2.9024471e-05
2.3984485e-06
-3.4302084e-05
-2.3481077e-05
-1.1648853e-05
-2.1029149e-05
-2.4353661e-06
2.9450624e-05
2.7781861e-05
-2.8881591e-06
-3.1201025e-05
-2.7588868e-05
-4.2298212e-06
9.9484e-06
2.6516653e-06
-3.8439655e-06
-4.7113122e-06
-6.0391096e-05
-3.4607635e-05
7.1578806e-05
0.00013527546
0.00011994218
5.520825e-05
-5.5214595e-06
-4.3389624e-05
-8.930428e-05
-9.9949442e-05
-3.7671512e-05
-5.4351378e-06
-3.1536666e-07
-7.3454905e-09
-6.5736145e-11
8.1329559e-13
6.0258878e-13
2.6178512e-13
9.6520464e-14
3.1412754e-14
9.1465797e-15
2.3930127e-15
5.6282301e-16
1.1884167e-16
2.2479793e-17
3.7976846e-18
5.707864e-19
7.5969049e-20
8.9009564e-21
9.1139541e-22
8.0732066e-23
6.0780636e-24
3.8154659e-25
1.9434858e-26
9.871354e-30
1.2305561e-33
2.8417057e-38
7.5364882e-44
7.8100121e-06
3.98454e-05
9.9005407e-06
-3.4694464e-05
-3.1269056e-05
-2.0328838e-05
-2.2937725e-05
1.208076e-06
3.3450416e-05
3.0146098e-05
-3.1276756e-06
-3.1857636e-05
-2.6334612e-05
-2.3986544e-06
8.4548787e-06
2.103198e-06
-2.1474292e-06
-5.4750119e-05
-4.0021891e-05
6.297379e-05
0.00012884411
0.00011286739
4.3842865e-05
-2.0708243e-05
-4.6251644e-05
-7.4699757e-05
-0.00012680926
-7.3558573e-05
-1.6842292e-05
-1.6411958e-06
-6.7769469e-08
-1.1435714e-09
-3.1411822e-12
2.3971264e-12
1.0593656e-12
4.0340325e-13
1.3720572e-13
4.2099453e-14
1.1682677e-14
2.930346e-15
6.6320599e-16
1.3513394e-16
2.4724623e-17
4.0494021e-18
5.915457e-19
7.6752144e-20
8.7959334e-21
8.8577493e-22
7.7404534e-23
5.7757803e-24
3.6103207e-25
2.9012602e-28
6.0278615e-32
2.6248656e-36
1.8107896e-41
1.4212544e-47
-4.9302285e-05
1.9185411e-05
4.9645795e-05
1.6642722e-05
-3.5870332e-05
-3.9623218e-05
-2.9133955e-05
-2.4761011e-05
4.2343949e-06
3.7175051e-05
3.2200905e-05
-3.3468607e-06
-3.1284119e-05
-2.4179386e-05
-1.8995551e-07
5.7361998e-06
1.4985014e-06
-1.0911339e-06
-4.4271422e-05
5.3468578e-05
0.00012068235
0.0001051435
3.0769865e-05
-3.5454294e-05
-5.1202284e-05
-6.2411253e-05
-0.00011693399
-0.00011318309
-3.8230816e-05
-5.8492676e-06
-4.0295975e-07
-1.2129844e-08
-1.3523751e-10
8.089761e-12
3.9283457e-12
1.5439025e-12
5.4703839e-13
1.7596513e-13
5.1470119e-14
1.3672383e-14
3.290813e-15
7.1595136e-16
1.4047037e-16
2.4791944e-17
3.9249662e-18
5.5568685e-19
7.0108279e-20
7.8442745e-21
7.7721297e-22
6.7119372e-23
4.9812023e-24
6.2808468e-27
2.0626135e-30
1.5083242e-34
1.9668341e-39
4.3621374e-45
6.6490102e-52
-4.8144385e-05
-4.2345223e-05
2.9493204e-05
5.871876e-05
2.2974183e-05
-3.6048652e-05
-4.7856273e-05
-3.7995325e-05
-2.6912031e-05
7.104881e-06
4.0500479e-05
3.3229811e-05
-4.0874144e-06
-2.9361079e-05
-1.9624114e-05
-7.5678197e-08
3.7984581e-06
7.3994464e-07
-4.1540416e-07
4.2202391e-05
0.00011048506
9.6076868e-05
1.6055783e-05
-5.1948106e-05
-5.839241e-05
-5.1612726e-05
-9.6898814e-05
-0.0001406245
-6.7833193e-05
-1.5119595e-05
-1.6278883e-06
-8.1761711e-08
-1.7754925e-09
1.3308985e-11
1.363002e-11
5.5005781e-12
2.0070103e-12
6.7216123e-13
2.0570045e-13
5.7403197e-14
1.4564798e-14
3.3500136e-15
6.9673291e-16
1.3075288e-16
2.2093908e-17
3.35406e-18
4.5648071e-19
5.556378e-20
6.0406665e-21
5.8713176e-22
5.018785e-23
1.0311808e-25
5.235758e-29
6.0742847e-33
1.3228251e-37
5.5381606e-43
4.6203963e-49
-1.6475213e-55
2.9208753e-05
-5.1585415e-05
-3.3923668e-05
3.902083e-05
6.6901543e-05
2.9154995e-05
-3.5907893e-05
-5.582587e-05
-4.6720494e-05
-2.9254107e-05
9.7592302e-06
4.3709957e-05
3.2446547e-05
-4.8843393e-06
-2.5253585e-05
-1.4016655e-05
2.0110503e-07
1.9620015e-06
2.5152931e-07
-1.0858078e-07
9.7910346e-05
8.4882803e-05
1.8539365e-07
-7.0759205e-05
-6.698252e-05
-4.2779436e-05
-6.9822811e-05
-0.00014485421
-0.00010577742
-3.0367285e-05
-4.7285607e-06
-3.6998833e-07
-1.3626588e-08
-1.2511671e-10
4.4670016e-11
1.8803471e-11
6.9724683e-12
2.3662945e-12
7.4958912e-13
2.1767543e-13
5.7616684e-14
1.3842825e-14
3.0083237e-15
5.8962339e-16
1.0398976e-16
1.6470153e-17
2.3390563e-18
2.9775193e-19
3.3953047e-20
3.5086705e-21
3.2995333e-22
1.2922719e-24
1.0193988e-27
1.8245474e-31
6.2515371e-36
4.2514905e-41
7.3655638e-47
1.2459105e-53
-3.8472419e-59
8.2932986e-05
1.6252965e-05
-5.3120265e-05
-2.4814855e-05
4.8119695e-05
7.4579319e-05
3.500484e-05
-3.4818645e-05
-6.2887816e-05
-5.4904198e-05
-3.1423863e-05
1.3216877e-05
4.5424185e-05
2.9331611e-05
-4.8828118e-06
-1.8457334e-05
-8.5123478e-06
4.5903667e-07
7.4491831e-07
5.6969752e-08
-2.0084324e-08
7.1376153e-05
-1.6419058e-05
-9.0558082e-05
-7.5400267e-05
-3.3806743e-05
-4.3206014e-05
-0.00012441103
-0.00013753729
-5.861553e-05
-1.0519423e-05
-1.1823591e-06
-6.6120005e-08
-1.1712977e-09
1.6789851e-10
6.5031656e-11
2.3855749e-11
8.1886084e-12
2.5340905e-12
7.4810464e-13
2.0386584e-13
5.0352313e-14
1.1198978e-14
2.2285561e-15
3.9391222e-16
6.1320728e-17
8.3124254e-18
9.6612877e-19
9.4303506e-20
7.41034e-21
4.9414775e-22
1.2036145e-23
1.5463974e-26
4.2367716e-30
2.2165402e-34
2.2856867e-39
6.4315323e-45
5.0132731e-51
-2.9876235e-57
-4.5709961e-63
5.502824e-05
6.5434391e-05
3.6163161e-06
-5.2307956e-05
-1.5172333e-05
5.6664301e-05
8.1577708e-05
4.0479001e-05
-3.2142389e-05
-6.8658346e-05
-6.2738642e-05
-3.3464824e-05
1.7643445e-05
4.2813329e-05
2.3266262e-05
-3.9463555e-06
-1.1247575e-05
-3.8227522e-06
3.0179171e-07
1.9559757e-07
8.3791844e-09
-2.4172043e-09
-3.2688578e-05
-0.0001081315
-8.1429511e-05
-2.3171626e-05
-1.6293282e-05
-9.0230206e-05
-0.00015669359
-9.1876088e-05
-2.499305e-05
-2.7612518e-06
-1.8759678e-07
3.6387698e-09
2.1979132e-09
3.7787551e-10
9.0752199e-11
2.7904977e-11
8.4068984e-12
2.3678322e-12
6.4436061e-13
1.5977085e-13
3.5096435e-14
6.6853224e-15
1.0613038e-15
1.2729659e-16
7.2277594e-18
-1.4597906e-18
-6.0615737e-19
-1.3057651e-19
-2.0994891e-20
7.3444276e-23
1.8233545e-25
7.7600466e-29
6.12431e-33
9.2677446e-38
3.822915e-43
5.4657912e-49
8.0788531e-56
-5.1908201e-61
-4.3646809e-67
-4.8362405e-05
3.6331129e-05
4.6203513e-05
-8.1384933e-06
-4.8713386e-05
-5.3483514e-06
6.4959284e-05
8.7898283e-05
4.5450158e-05
-2.949574e-05
-7.2609607e-05
-6.9739588e-05
-3.2674817e-05
2.1714221e-05
3.6330578e-05
1.5493675e-05
-2.7887744e-06
-5.2753678e-06
-1.1954534e-06
1.0450461e-07
3.4969152e-08
7.6142862e-10
-1.9547341e-10
-0.00012061475
-8.4071738e-05
-1.0080199e-05
1.2186897e-05
-5.4589896e-05
-0.00015665757
-0.00012697505
-4.6295056e-05
-7.8736159e-06
-7.4910666e-08
1.659604e-07
4.7030883e-08
7.4911706e-09
9.0296312e-10
1.179344e-10
2.7117257e-11
7.188095e-12
1.8109357e-12
4.3269075e-13
8.6804243e-14
1.3043918e-14
7.7193708e-16
-3.5425679e-16
-1.7631873e-16
-5.1248031e-17
-1.1579419e-17
-2.178832e-18
-3.4974248e-19
8.0831329e-23
1.6140888e-24
1.1293796e-27
1.3486383e-31
2.9561567e-36
1.7028373e-41
3.6368839e-47
2.6136354e-53
-2.0816843e-59
-5.6131132e-65
-3.8567638e-71
-0.00012599261
-6.2506283e-05
1.5972899e-05
2.6676838e-05
-1.879349e-05
-4.3751244e-05
4.6067111e-06
7.2671199e-05
9.3698853e-05
4.956071e-05
-2.601356e-05
-7.2968577e-05
-7.0639885e-05
-2.7196679e-05
2.1016712e-05
2.6323372e-05
7.9470403e-06
-1.6086958e-06
-1.7671645e-06
-2.5281186e-07
2.1649473e-08
4.044576e-09
4.4285201e-11
-1.0930263e-11
-8.3045118e-05
5.6168893e-06
4.2497973e-05
-1.5758231e-05
-0.00013988794
-0.00015853212
-7.3877053e-05
-1.6328665e-05
2.8402795e-07
1.6679347e-06
6.2599761e-07
1.4737555e-07
2.2903977e-08
1.8404758e-09
1.242518e-10
2.0929236e-11
4.6726278e-12
9.4454954e-13
1.3094682e-13
-6.7732803e-15
-1.2953781e-14
-5.7242454e-15
-1.8177825e-15
-4.7417108e-16
-1.0608185e-16
-2.0715509e-17
-3.5559867e-18
-4.7237112e-21
9.301763e-24
1.2951888e-26
2.3947936e-30
7.6070943e-35
5.9841479e-40
1.7555274e-45
2.1767408e-51
2.4635124e-58
-3.1816283e-63
-5.2744184e-69
-3.2301768e-75
-7.6968085e-05
-0.00012648882
-7.496007e-05
-4.9481242e-06
7.8654171e-06
-2.8068497e-05
-3.797787e-05
1.4239175e-05