/*--------------------------------*- C++ -*----------------------------------*\
| =========                 |                                                 |
| \\      /  F ield         | OpenFOAM: The Open Source CFD Toolbox           |
|  \\    /   O peration     | Version:  5.0                                   |
|   \\  /    A nd           | Web:      www.OpenFOAM.org                      |
|    \\/     M anipulation  |                                                 |
\*---------------------------------------------------------------------------*/
FoamFile
{
    version     2.0;
    format      ascii;
    class       surfaceScalarField;
    location    "160";
    object      ddtCorrDdt0(phi);
}
// * * * * * * * * * * * * * * * * * * * * * * * * * * * * * * * * * * * * * //

dimensions      [0 3 -2 0 0 0 0];

internalField   nonuniform List<scalar> 
18820
(
-4.7406466e-07
0.00025019637
-1.2200292e-06
0.00023286216
-1.1070385e-06
0.00025130257
-2.0110023e-06
0.00021498279
-1.8233087e-06
0.0002335733
-8.5248153e-06
0.00025982395
-2.8957795e-06
0.00019715943
-2.2763225e-06
0.00021543091
-1.5519942e-05
0.00024056045
-1.7378502e-05
0.00027719734
-3.9074492e-06
0.00017935732
-2.9199853e-06
0.000197798
-2.1456551e-05
0.00022135992
-3.2959517e-05
0.00025613281
-1.8819103e-05
0.00029601091
-4.7225899e-06
0.00016154148
-4.3508584e-06
0.00018078284
-2.6571325e-05
0.00020290492
-4.7164611e-05
0.00023555677
-3.6947243e-05
0.00027425378
-1.3148083e-05
0.00030915429
-5.3880052e-06
0.00014411446
-6.4727664e-06
0.00016365747
-3.137797e-05
0.00018558104
-5.9758604e-05
0.00021549034
-5.4406595e-05
0.00025300916
-2.6950497e-05
0.00028805229
-4.9726807e-06
0.00031412416
-6.7722305e-06
0.00012739653
-9.126918e-06
0.00014676167
-3.6459206e-05
0.00016872912
-7.0726042e-05
0.00019653912
-7.0674792e-05
0.00023175123
-4.1179725e-05
0.00026723439
-1.0927907e-05
0.00029400826
-9.7144575e-07
0.00031509551
-1.1367537e-05
0.0001121092
-1.2664222e-05
0.00013092539
-4.205938e-05
0.00015235051
-8.0998448e-05
0.00017899081
-8.5249311e-05
0.00021110551
-5.5595637e-05
0.00024616273
-1.7530556e-05
0.00027383718
-2.0826889e-06
0.00029512566
-4.0131803e-06
0.00031911179
-2.4222465e-05
9.9227062e-05
-1.8703258e-05
0.00011813799
-4.8160756e-05
0.00013701319
-9.1173298e-05
0.00016251275
-9.8701309e-05
0.00019243348
-6.9576909e-05
0.00022508165
-2.5430567e-05
0.00025406236
-3.1065407e-06
0.00027486594
-6.9755163e-06
0.0002980997
-1.1738696e-05
0.00033085689
-5.3473549e-05
9.0948167e-05
-3.1699389e-05
0.00011221111
-5.3624894e-05
0.00012358619
-0.00010093345
0.00014675863
-0.00011153828
0.00017533904
-8.3090206e-05
0.00020594087
-3.4494915e-05
0.00023414495
-4.7928761e-06
0.00025575275
-9.3876865e-06
0.00027728777
-2.1542019e-05
0.00030791977
-1.9415683e-05
0.00035028202
-0.00011114865
9.5433345e-05
-6.0787062e-05
0.00012002223
-5.5311745e-05
0.00011388
-0.00010767268
0.00013030884
-0.00012365548
0.000158864
-9.6595376e-05
0.00018883784
-4.3740612e-05
0.00021518519
-8.0455351e-06
0.0002374008
-1.1231211e-05
0.00025760452
-3.0637791e-05
0.00028639737
-3.6833456e-05
0.00032535836
-2.2833796e-05
0.00037312774
-0.00020176904
0.00012045542
-0.00010826553
0.00014289727
-4.3605664e-05
0.00010829684
-0.00010506315
0.00011125268
-0.00013435031
0.00014099125
-0.00011130977
0.00017357217
-5.2874257e-05
0.00019797051
-1.128203e-05
0.00021842463
-1.3136221e-05
0.00023931267
-3.9070292e-05
0.00026604858
-5.3174545e-05
0.00030275542
-4.4574437e-05
0.0003471225
-2.0471078e-05
0.00039361242
-0.00031318469
0.00013892914
-0.00014007561
0.00015225074
6.8470212e-06
9.2424808e-05
-7.923363e-05
8.2449273e-05
-0.00014123408
0.00011812417
-0.0001301122
0.00015978834
-6.2813338e-05
0.00018351151
-1.3015781e-05
0.0001997079
-1.4813259e-05
0.00022010783
-4.6393037e-05
0.00024664462
-6.8805417e-05
0.00028169313
-6.5141775e-05
0.00032334153
-4.1175591e-05
0.00036785164
-1.3633885e-05
0.00040726068
-0.0004420479
0.0001659269
-0.0001440057
0.00014284488
0.0001104412
4.8637088e-05
-2.0947052e-05
3.4120889e-05
-0.00014425425
8.5458022e-05
-0.00015995923
0.00014796739
-7.6850856e-05
0.00017382801
-1.1985433e-05
0.00018248637
-1.4881984e-05
0.00019978307
-5.336726e-05
0.0002270895
-8.3615283e-05
0.00026146457
-8.4700238e-05
0.000301266
-6.1634767e-05
0.00034381991
-2.8449455e-05
0.00038269146
-5.357038e-06
0.00041263197
-0.00059312081
0.00020272024
-0.00011121893
0.00013312653
0.00023310926
2.0158155e-05
4.9260547e-05
-2.1586609e-05
-0.00015906132
4.8917872e-05
-0.00021496437
0.00014046114
-0.00010212199
0.00017324281
-7.0201407e-06
0.00016886983
-1.0905891e-05
0.00017851773
-6.0163272e-05
0.00020658561
-9.8365775e-05
0.00024184688
-0.00010386469
0.0002806385
-8.1191478e-05
0.00032083657
-4.4774199e-05
0.00036016305
-1.2100789e-05
0.00038945775
1.0264527e-06
0.00041161884
-0.00079258704
0.00027905329
-5.3180529e-05
0.00014466888
0.00039801789
-3.1799815e-05
0.00013393853
-6.4534878e-05
-0.00020660447
2.5947899e-05
-0.00031439867
0.00014835159
-0.00014848126
0.00018682665
5.8944434e-06
0.00016033698
1.627257e-06
0.00015634533
-6.5963067e-05
0.00018432368
-0.00011426981
0.00022249406
-0.00012346187
0.00026144883
-0.00010050055
0.0002999554
-6.1518771e-05
0.00033759353
-2.1269482e-05
0.00036934838
9.4483639e-07
0.00038955921
3.3703898e-06
0.00040826026
-0.0010470415
0.00035516773
5.7013061e-05
0.0001688469
0.00063031262
-8.7642689e-05
0.00023576321
-0.00013363946
-0.00028440899
1.3262163e-05
-0.00046173122
0.00017328029
-0.00022261258
0.00022249065
3.1038921e-05
0.00016169179
3.0381101e-05
0.00013159275
-6.8314165e-05
0.00015870232
-0.00013238437
0.00020244081
-0.00014491134
0.00024394429
-0.00012066291
0.00028161311
-7.8254247e-05
0.0003166966
-3.3303412e-05
0.0003496379
-4.3123358e-07
0.00037073874
5.9694976e-06
0.00038697667
1.6250226e-06
0.00040664518
-0.00137179
0.00049026917
0.00020745201
0.00020471546
0.00097671475
-0.00017757133
0.00039262044
-0.00024451618
-0.00042847456
1.0419263e-05
-0.00065966774
0.00021119757
-0.00032957942
0.00028025572
7.909053e-05
0.00017444859
8.7324944e-05
0.00010475817
-6.4343916e-05
0.00012762809
-0.00015362786
0.00017994712
-0.00017008984
0.000227617
-0.00014278666
0.00026606495
-9.5778992e-05
0.00029913709
-4.6327776e-05
0.00032972477
-5.2624695e-06
0.00035447759
8.640229e-06
0.00036807981
2.9389602e-06
0.00038567584
-2.5266212e-06
0.00040917975
-0.0017415657
0.00058148431
0.00044020254
0.00025750422
0.0014499536
-0.00026853882
0.0006191588
-0.00040412838
-0.00066642225
-6.5753366e-06
-0.00092765959
0.00027840795
-0.00047973233
0.00036135924
0.00015493115
0.00020442401
0.00018945568
7.2328465e-05
-4.6709383e-05
8.7129185e-05
-0.00017838213
0.0001523832
-0.00020188712
0.00021174037
-0.00016877564
0.0002535994
-0.00011429436
0.00028457436
-5.9394487e-05
0.00031220133
-1.3216971e-05
0.00033768185
1.0422016e-05
0.00035270267
4.4187838e-06
0.00036660955
-4.5954978e-06
0.00038775451
-6.8826458e-06
0.00041606845
-0.002242836
0.00076625807
0.00072433574
0.00029733528
0.0021400531
-0.00043261021
0.00094896299
-0.00059836446
-0.001031642
-3.8916206e-05
-0.0013249855
0.00039074525
-0.00065942554
0.00045810938
0.00029798063
0.00021831826
0.00035801451
3.5876099e-05
-5.799262e-06
3.1424687e-05
-0.00020509256
0.000113841
-0.00024438548
0.00019487769
-0.00020233524
0.00024529209
-0.00013448259
0.00027377866
-7.1641907e-05
0.00029681475
-2.111076e-05
0.00032009241
9.7715666e-06
0.00033833471
6.0679284e-06
0.00035105951
-7.4517647e-06
0.00036947366
-1.2504675e-05
0.00039338344
-9.8133023e-06
0.00042588614
-0.0027603445
0.00082199002
0.0010941598
0.0003964169
0.002995282
-0.00055790839
0.0013687864
-0.0008524571
-0.0015319192
-9.8096154e-05
-0.0019229848
0.000559077
-0.00089296061
0.00062428739
0.00050526204
0.00025083738
0.00062959794
-5.3253996e-05
9.4242304e-05
-6.4157006e-05
-0.00022819721
5.4532299e-05
-0.000304158
0.00017361195
-0.00025021784
0.00024275359
-0.00015824797
0.00026904846
-8.1830004e-05
0.00028395778
-2.6625339e-05
0.00030232332
8.1072129e-06
0.00032175537
6.6359084e-06
0.00033777012
-1.0318546e-05
0.00035393219
-1.9664907e-05
0.00037664069
-1.8217626e-05
0.00040179231
-1.0646956e-05
0.00043653616
-0.0034334666
0.0011054456
0.0015033576
0.00041277404
0.0042287616
-0.00083707765
0.0019466883
-0.0011358344
-0.0022255293
-0.00015885789
-0.0028017381
0.00078065233
-0.0011959423
0.00086206427
0.00084848743
0.0002810743
0.0010398464
-0.00015939961
0.00023861004
-0.00019760986
-0.00024888423
-4.3464854e-05
-0.00039376317
0.00014413984
-0.00032549805
0.00024888872
-0.00018979877
0.00027429825
-8.8404155e-05
0.00027561486
-2.7406392e-05
0.00028473229
7.6998604e-06
0.00030272744
6.3148449e-06
0.0003220777
-1.3668944e-05
0.00034112587
-2.7864892e-05
0.00036213875
-2.7800558e-05
0.00038623007
-2.0827036e-05
0.00041197518
-9.3899612e-06
0.00044592824
-0.0039507861
0.0011811771
0.0021011132
0.00050767113
0.005586784
-0.00094526414
0.0026119881
-0.0015024007
-0.0030935532
-0.00026782378
-0.004039302
0.0010787049
-0.0015957803
0.0011804947
0.0013465048
0.00036406365
0.0016248133
-0.00030388041
0.00047512475
-0.00039589861
-0.00031564104
-0.00013084571
-0.00054547259
0.00010825104
-0.00045041037
0.0002690527
-0.00023766962
0.00029675791
-8.9322114e-05
0.00027521213
-1.9219113e-05
0.00026742335
1.1757336e-05
0.00028067207
5.7961587e-06
0.00030324683
-1.8885813e-05
0.00032729927
-3.62692e-05
0.00034953821
-3.955998e-05
0.00037390599
-3.1112382e-05
0.00039652215
-1.9848541e-05
0.00042243532
-6.2800819e-06
0.00045220991
-0.0046735334
0.0013880188
0.0028727478
0.0004095236
0.0074666606
-0.0013722227
0.003489526
-0.0018228232
-0.0042497477
-0.00034622156
-0.0057457566
0.0014386341
-0.0020932142
0.0015761429
0.0020627883
0.00046423231
0.0024888604
-0.00049996957
0.0008156931
-0.00064443032
-0.00047384983
-0.00023768041
-0.00076451211
8.8202683e-05
-0.00065865772
0.00031650205
-0.00031504264
0.00034642769
-8.1509425e-05
0.00028894528
5.2212926e-06
0.00025077118
2.4970922e-05
0.00025420946
6.4619327e-06
0.00028000783
-2.6023807e-05
0.00031038959
-4.6879457e-05
0.0003379179
-5.2194815e-05
0.00036218401
-4.3590329e-05
0.00038639327
-2.9962289e-05
0.00040664342
-1.4598204e-05
0.00043075424
-1.6608759e-06
0.00045387222
-0.005431149
0.0014535928
0.0035765202
0.00068422748
0.0095827787
-0.0017066131
0.0043304277
-0.0022131432
-0.0055401992
-0.00053238846
-0.0080221734
0.0019302026
-0.0027332378
0.0020786631
0.0030511009
0.00058785393
0.0037006882
-0.00074757841
0.001324688
-0.001008946
-0.00068325591
-0.00043501275
-0.0011040932
0.00010190891
-0.00096551342
0.00039506343
-0.00043977301
0.0004412351
-5.9340574e-05
0.00032426118
5.8063925e-05
0.00023610462
5.4140422e-05
0.00022160398
1.0832171e-05
0.00024984231
-3.5041645e-05
0.00028903062
-6.0728954e-05
0.00032424737
-6.659651e-05
0.00035233126
-5.816937e-05
0.00037677677
-4.075835e-05
0.00039720017
-2.3341532e-05
0.00041539539
-5.2289081e-06
0.0004343226
3.7896784e-06
0.00045008417
-0.0058608575
0.0018706556
0.0043372286
0.00069286607
0.012316005
-0.0020490185
0.0051694878
-0.0025456896
-0.0072067946
-0.00054656444
-0.010998484
0.0024439316
-0.0034706801
0.0026676531
0.0043622662
0.00076752073
0.0053425858
-0.0010540225
0.0020490769
-0.0014719521
-0.00097500023
-0.00071718813
-0.0016604414
0.00012134026
-0.0013854082
0.00052180851
-0.00062250326
0.00057779373
-1.1648106e-05
0.00039354424
0.00015592727
0.00022639914
0.00011101869
0.00017922913
2.3832852e-05
0.0002086068
-4.5689721e-05
0.00026049504
-7.8962765e-05
0.00030727132
-8.4550815e-05
0.00034221238
-7.425218e-05
0.00036842811
-5.4005212e-05
0.00039003962
-3.1491042e-05
0.00040536176
-1.0628892e-05
0.00042080531
6.0747973e-06
0.00043203758
8.9831643e-06
0.00044110315
-0.0057055557
0.0016980845
0.0057490841
0.00045878242
0.015124938
-0.0021160875
0.0062351498
-0.0031146947
-0.0092022076
-0.0005502916
-0.014652254
0.003107216
-0.0044117778
0.0033850411
0.0060646462
0.00096529215
0.0075314731
-0.0014213414
0.0030407822
-0.002045718
-0.0013538543
-0.0010930833
-0.0025131624
0.0001355333
-0.0019932633
0.00072919877
-0.00087022281
0.00076952438
6.8122619e-05
0.0004980217
0.00032813224
0.00022133701
0.00021492506
0.00012249286
5.3218646e-05
0.00014984461
-5.7400116e-05
0.0002203198
-0.000103353
0.00028488931
-0.0001080243
0.000330752
-9.367436e-05
0.00036164614
-6.9425053e-05
0.00038386324
-4.156922e-05
0.00040013529
-1.6698669e-05
0.00041144434
4.9811815e-06
0.00042191022
1.6657328e-05
0.00042436333
1.2869097e-05
0.00042823698
-0.0053204842
0.0014829902
0.007743123
-0.00029597087
0.018646579
-0.0030628778
0.0072770247
-0.003157975
-0.011485837
-0.00083107753
-0.019135563
0.0039330261
-0.0054376126
0.0041330663
0.0082046577
0.0012450436
0.010412622
-0.0019158304
0.0044120287
-0.0027925831
-0.0018253853
-0.001574173
-0.0037438456
0.00013759822
-0.0028893609
0.0010316324
-0.0012133282
0.001072299
0.00019787359
0.0006397692
0.00060250157
0.00022364677
0.00039356045
4.2697387e-05
0.00011086999
6.4838417e-05
-6.9297132e-05
0.00016173999
-0.00013709223
0.00025405849
-0.00014007545
0.00031694239
-0.00011853766
0.00035562096
-8.8248272e-05
0.00038048041
-5.5391827e-05
0.00039770118
-2.4605587e-05
0.00040806035
1.2080779e-06
0.00041523037
2.0959542e-05
0.00041762067
2.4044614e-05
0.00041318754
1.5108593e-05
0.00041313228
-0.0047203641
0.0013182116
0.0099040495
-0.00067795169
0.022691584
-0.0043409938
0.0078459325
-0.003631797
-0.013044647
-0.0015991739
-0.024645629
0.0046789958
-0.0062501906
0.0047456215
0.010888159
0.0014495744
0.014193339
-0.0025356477
0.0061582972
-0.0036620969
-0.0024351469
-0.0021828113
-0.0054460084
0.00012798985
-0.0041962189
0.0014444552
-0.0016884604
0.0015067625
0.00041486677
0.00085530063
0.001013764
0.00022850146
0.00068492161
-6.7721249e-05
0.00021185235
-5.829168e-05
-8.0201929e-05
7.5736776e-05
-0.00018609046
0.00021073215
-0.00018610786
0.00030008668
-0.00015250828
0.00035091135
-0.00011244102
0.00037981675
-7.2986282e-05
0.00039808429
-3.5690355e-05
0.0004088002
-3.4877774e-06
0.00041277416
2.139961e-05
0.00041480277
3.3758316e-05
0.00040792093
2.8409095e-05
0.0003998864
1.588362e-05
0.0003972537
-0.0039629206
0.0015177259
0.012262069
-0.0010398223
0.026141248
-0.0041276325
0.0072307056
-0.0037257777
-0.015338436
-0.001338015
-0.030978806
0.004734008
-0.0070630288
0.0054918515
0.013989992
0.0016437933
0.018981237
-0.0033383011
0.0083241018
-0.0047014497
-0.0031918549
-0.0029053842
-0.0077266328
9.781865e-05
-0.0060538703
0.0019856378
-0.0023516922
0.0021076914
0.00075594199
0.001165684
0.0016388251
0.00023023892
0.0011321053
-0.00021868729
0.00037013395
-0.00022600924
-9.1557523e-05
-4.6944693e-05
-0.00026168364
0.00015131978
-0.00025711294
0.00028172769
-0.00020317307
0.00035074288
-0.00014528041
0.00038374533
-9.4735204e-05
0.00040156552
-4.9235223e-05
0.00041163621
-9.6781629e-06
0.00041500288
2.0661955e-05
0.00041352899
3.9785465e-05
0.00040878709
4.047966e-05
0.00039586554
3.0123718e-05
0.00038564513
1.5491605e-05
0.0003817684
-0.003114197
0.0015654102
0.014822878
-0.0010430973
0.02928576
-0.0041843495
0.0064037562
-0.0033006939
-0.01996375
0.00089953081
-0.038144284
0.0058274651
-0.0094061171
0.0070771119
0.017291409
0.0021904382
0.024880817
-0.0042557703
0.010871663
-0.0058858571
-0.0041107196
-0.003782586
-0.010692703
6.0697357e-05
-0.00863959
0.0026835337
-0.0032605173
0.002894473
0.0012666936
0.0015969406
0.0025687458
0.00023576841
0.0017938933
-0.00043154776
0.00062893357
-0.00047748873
-0.00011721991
-0.00020035249
-0.00038789271
7.9253956e-05
-0.00037083841
0.00026503362
-0.00028054656
0.00035908823
-0.00019082384
0.00039627456
-0.00012132812
0.00041032954
-6.4901662e-05
0.00041722867
-1.7397003e-05
0.00041935945
1.8616033e-05
0.0004170586
4.2081199e-05
0.00041124925
5.0340109e-05
0.00039893658
4.3523998e-05
0.00038248152
2.9618004e-05
0.00037151677
1.4268131e-05
0.00036750793
-0.0022206157
0.0015487566
0.017556952
-0.0011686801
0.032767179
-0.0045245295
0.0051607409
-0.0029413438
-0.024839563
0.0015751129
-0.045089682
0.0078449297
-0.011806704
0.0082280644
0.020733646
0.003634878
0.032255941
-0.0051846745
0.013791088
-0.0071751856
-0.0052751406
-0.0047214406
-0.014474455
-8.1828104e-07
-0.012144684
0.0035657878
-0.0044900005
0.0039130279
0.0019991628
0.0021620105
0.0039189444
0.00024674854
0.0027565333
-0.00072686233
0.0010192554
-0.00082186626
-0.00014074617
-0.00045396096
-0.00055906135
-2.9190181e-05
-0.00053494858
0.00024335499
-0.00039423963
0.00037871352
-0.00025416663
0.00042241692
-0.00015378477
0.00042871756
-8.1975258e-05
0.00042739206
-2.5991841e-05
0.0004258177
1.5569034e-05
0.00042240831
4.2506429e-05
0.00041664057
5.6080188e-05
0.00040552376
5.4911473e-05
0.00038755702
4.3406357e-05
0.00036871046
2.7868013e-05
0.00035791392
1.2650341e-05
0.00035486665
-0.0013459552
0.0015042272
0.020344409
-0.0012387156
0.036364843
-0.0047663591
0.0041715797
-0.0035353783
-0.029909022
0.0021281109
-0.0516556
0.0081410307
-0.011393163
0.0074313993
0.02495346
0.0040082552
0.041880774
-0.0059899467
0.017081349
-0.0084749215
-0.0067435966
-0.0057067352
-0.019190656
-5.2241983e-06
-0.01681458
0.0046690791
-0.0060926135
0.0051684063
0.0030219402
0.0028902633
0.0058160492
0.00026490734
0.0041275515
-0.0011242544
0.0015806539
-0.0012882559
-0.00015520009
-0.00080740372
-0.00082670471
-0.00018631816
-0.000757373
0.000193231
-0.00055995024
0.00040905615
-0.00034415487
0.00046868975
-0.00019374837
0.00046236673
-9.893058e-05
0.00044565866
-3.3501421e-05
0.00043488969
1.1982018e-05
0.0004293971
4.1344837e-05
0.00042356979
5.8728201e-05
0.00041399729
6.1947401e-05
0.00039850084
5.5459304e-05
0.00037550964
4.0782338e-05
0.00035581444
2.5681485e-05
0.00034487853
1.118804e-05
0.00034368908
-0.00053302624
0.001379163
0.023068149
-0.0012195286
0.040012725
-0.0048866118
0.0030118333
-0.0036066227
-0.034556955
0.0011125481
-0.057721436
0.0081939457
-0.0098213508
0.0065692289
0.029953992
0.0024308729
0.053066143
-0.0071771079
0.021110055
-0.010018635
-0.0085539422
-0.0066645807
-0.024941911
4.4533089e-05
-0.022907134
0.0060873344
-0.0081358242
0.0067122869
0.0044199902
0.0037703733
0.0084256888
0.00028061738
0.0060290463
-0.001636571
0.0023650141
-0.0019086118
-0.0001630799
-0.0012803651
-0.001210226
-0.00042387851
-0.0011284802
0.0001847913
-0.00081828916
0.00045156632
-0.00048011914
0.00054501323
-0.00024558853
0.00052051996
-0.00011374855
0.00047717218
-3.6236011e-05
0.00044838022
1.1523686e-05
0.00043533618
4.2238666e-05
0.00042849481
6.1952614e-05
0.00042034416
6.9551157e-05
0.00040639588
6.5944999e-05
0.00038802654
5.2475028e-05
0.00036382004
3.7090922e-05
0.00034442437
2.2929391e-05
0.00033313143
9.5695504e-06
0.00033413136
0.0001605621
0.0012009148
0.025622755
-0.0011754571
0.043673344
-0.004880162
0.0016107682
-0.0034855563
-0.039309795
0.0011462114
-0.064423231
0.0078143411
-0.0077647488
0.0061373529
0.035232518
0.0012907129
0.064118505
-0.008621484
0.026536106
-0.012603139
-0.010377141
-0.0081954394
-0.03168239
7.590756e-05
-0.030749597
0.0078870058
-0.010575797
0.0085272973
0.0062940586
0.0048382363
0.011908417
0.00028763514
0.008607865
-0.0022981889
0.0034339759
-0.0027055301
-0.00016997197
-0.0019017127
-0.0017483878
-0.00074219642
-0.0017184692
0.00016611451
-0.0011826486
0.0005491527
-0.00069396454
0.00066540966
-0.00031685632
0.00061627644
-0.00012344996
0.00053021331
-2.8972695e-05
0.000469899
1.8628223e-05
0.00044126448
4.5450929e-05
0.00043211304
6.3470264e-05
0.00042696904
7.2703396e-05
0.00041719012
7.1326195e-05
0.00040101466
6.2155667e-05
0.00037835592
4.776276e-05
0.00035314881
3.3079632e-05
0.00033429455
1.89359e-05
0.00032375758
8.1885491e-06
0.00032595599
0.0007367866
0.00093792244
0.027896837
-0.001073182
0.047134295
-0.0046364211
6.2620213e-05
-0.0033320232
-0.043970535
0.0011751789
-0.071282538
0.008005516
-0.0073261136
0.0073757133
0.041196531
0.00017335151
0.075227921
-0.0098186999
0.031206569
-0.013291925
-0.012844863
-0.010135418
-0.039107988
-0.00076983687
-0.040331399
0.0096577216
-0.013257482
0.010568677
0.0088267451
0.0059946262
0.016467549
0.0002790983
0.012015507
-0.0031200018
0.0048323712
-0.0036965751
-0.00017292993
-0.0027025726
-0.0024862133
-0.001163876
-0.0025775639
0.00011690024
-0.0017373964
0.00072086856
-0.00099028155
0.00084547131
-0.00042258823
0.00077114232
-0.00012231592
0.00061513909
-2.4509141e-06
0.00050368651
4.1345597e-05
0.00044717414
5.7029601e-05
0.00042967653
6.7718654e-05
0.00042785567
7.5054502e-05
0.00042461081
7.5199069e-05
0.00041331501
6.923463e-05
0.00039393358
5.7499655e-05
0.00036862814
4.2601895e-05
0.00034362474
2.8165845e-05
0.00032508606
1.6431557e-05
0.00031550514
7.2567333e-06
0.00031871371
0.00120533
0.00066237793
0.029792171
-0.00095742474
0.050189429
-0.0041283292
-0.0015216745
-0.0030521361
-0.048424287
0.0011217244
-0.078086532
0.0079791708
-0.0069385505
0.0076179606
0.044874271
0.0036979879
0.085909198
-0.010507925
0.03502571
-0.013637825
-0.016645054
-0.0094917334
-0.04786295
-0.0013804592
-0.052070984
0.010969765
-0.016077957
0.012478182
0.012199474
0.0071959609
0.022291058
0.00017112149
0.016433509
-0.0041389068
0.0066214223
-0.0049090319
-0.00016713496
-0.0037023767
-0.0034818043
-0.0017069645
-0.0037814458
4.0005716e-05
-0.0025789524
0.00095846563
-0.001406661
0.0011372526
-0.00056453722
0.00098742537
-0.00010497607
0.00075380372
5.6994906e-05
0.00055569281
9.24636e-05
0.0004525653
8.5389525e-05
0.00041880853
7.8262719e-05
0.00041912526
7.7640218e-05
0.00042526336
7.6938234e-05
0.00042286527
7.3024051e-05
0.00040952302
6.4452059e-05
0.00038697752
5.1632679e-05
0.00035960603
3.7440582e-05
0.00033434577
2.4809936e-05
0.00031673011
1.4548515e-05
0.00030820188
6.847576e-06
0.00031188182
0.0014768119
0.00037098284
0.031296153
-0.00084161574
0.052608493
-0.0033765005
-0.0029729256
-0.0026770886
-0.052618811
0.0011423843
-0.084739978
0.0077751678
-0.0064992172
0.0075398425
0.04881518
0.0036770671
0.097147011
-0.0075398238
0.037868287
-0.01335049
-0.021514707
-0.008768169
-0.055151037
-0.0022036571
-0.066173078
0.012721653
-0.019678718
0.014570514
0.016216155
0.0084615098
0.0295571
-7.0065935e-05
0.021985449
-0.0053808279
0.0088322606
-0.0063497153
-0.00015499461
-0.00492118
-0.0047664027
-0.0024177589
-0.0054188719
-6.9537099e-05
-0.0038120833
0.0012731453
-0.0020159999
0.0015678129
-0.00074054358
0.0013132664
-6.9425662e-05
0.00095188104
0.00017180903
0.00063899361
0.00018804762
0.0004601094
0.00014268623
0.00039526648
0.00010210739
0.0003949593
8.3129559e-05
0.00041363097
7.6404955e-05
0.0004257917
7.3108948e-05
0.00042277414
6.7905709e-05
0.00040606697
5.8479441e-05
0.00038012615
4.615653e-05
0.00035089867
3.3170454e-05
0.00032597858
2.2152589e-05
0.00030914945
1.3759261e-05
0.00030127665
6.9737228e-06
0.00030492492
9.0595549e-05
0.0015031656
0.032190188
-0.00052306249
0.054358793
-0.0025919276
-0.0042286473
-0.00212079
-0.056385025
0.0010891208
-0.090869547
0.0072719526
-0.00608152
0.0073574731
0.052712706
0.0036423322
0.10840719
-0.0075831145
0.043772825
-0.01344435
-0.027060483
-0.0078047047
-0.06379913
-0.0001200891
-0.083099837
0.014723121
-0.024547325
0.017590251
0.020163261
0.010623413
0.038463218
-0.00044458706
0.028782206
-0.0068668356
0.011453457
-0.0080019958
-0.00013859257
-0.0063661215
-0.0063871874
-0.003300385
-0.0076135343
-0.00022309003
-0.0055659185
0.0016842985
-0.0029066767
0.0021638344
-0.00097385199
0.0018011266
1.8762546e-05
0.0012250889
0.0003561587
0.00076753912
0.00035820144
0.00046884496
0.00024745359
0.00035534324
0.00014921054
0.00034816129
9.5870292e-05
0.00038221517
7.4341636e-05
0.00041569076
6.864322e-05
0.00043025277
6.6649136e-05
0.0004240246
6.1612905e-05
0.00040293188
5.2604407e-05
0.00037367307
4.1200298e-05
0.00034287742
3.0114156e-05
0.00031800795
2.1016863e-05
0.00030191628
1.3867827e-05
0.00029436694
7.4723546e-06
0.00029747045
-0.00012835508
0.03240913
-0.00011785893
0.0013239364
0.055437243
-0.001601524
-0.0053035131
-0.0015170732
-0.059525267
0.0010194476
-0.096274575
0.006494148
-0.0055716977
0.006762132
0.056500723
0.0035694709
0.11957279
-0.0075232687
0.050030414
-0.013840698
-0.028253858
-0.012250964
-0.074912343
0.0033084972
-0.10063173
0.017411816
-0.031300968
0.021476764
0.024249458
0.013504051
0.049249859
-0.00016320304
0.036980751
-0.008643147
0.014456472
-0.0098698314
-0.00013000208
-0.008010585
-0.0083653389
-0.0043879792
-0.010502178
-0.00041173066
-0.0079965368
0.0022075113
-0.0041805199
0.0029581538
-0.0012938744
0.0024838525
0.00019300541
0.0016268945
0.00064525944
0.00093599614
0.00063272097
0.00049302833
0.00042382757
0.00029247623
0.0002368734
0.00026768121
0.00012291341
0.00032111628
7.205048e-05
0.0003845039
5.8594047e-05
0.00042573601
5.9080461e-05
0.0004378164
5.9588813e-05
0.00042604305
5.5740346e-05
0.00039979545
4.7639513e-05
0.00036722805
3.7637439e-05
0.00033536279
2.8638605e-05
0.00031037489
2.113486e-05
0.00029467477
1.4671704e-05
0.00028715002
8.2915145e-06
0.00028919776
-0.00057292238
0.055881799
0.00023963209
0.032051632
-0.00036194661
0.00090003192
-0.0059509922
-0.00095405581
-0.061947398
0.00090505328
-0.10085133
0.0055962077
-0.0049400579
0.0058625094
0.059884407
0.0033784641
0.13039451
-0.0072522379
0.056439593
-0.013932447
-0.029738253
-0.012356293
-0.081708055
-0.0054552678
-0.11606248
0.018739263
-0.035419496
0.021530351
0.030813929
0.014912281
0.062252713
0.00050122401
0.04741307
-0.010595538
0.017684045
-0.011870712
-0.00013422315
-0.0098656034
-0.010719448
-0.0056565038
-0.014178044
-0.0007121
-0.011269842
0.0028615401
-0.0059739849
0.0040009811
-0.0017320721
0.0033963335
0.00048489866
0.0021919607
0.001116273
0.0011558821
0.0010457176
0.00052300573
0.00071874335
0.00019811964
0.00038405652
0.00014529706
0.0001714144
0.00021918041
7.1105785e-05
0.0003220599
4.140719e-05
0.00040168786
4.2619106e-05
0.00044219195
5.0165076e-05
0.00044723519
5.3667127e-05
0.00042811137
5.1257084e-05
0.00039617838
4.4499626e-05
0.00036035923
3.6465839e-05
0.00032754427
2.882311e-05
0.00030267336
2.2297301e-05
0.00028707586
1.6261504e-05
0.00027916059
9.3361727e-06
0.00027988122
-0.00032197662
-0.0062019482
0.00051312982
0.05560829
0.00062588141
0.031063798
-0.00065725733
0.00030246186
-0.06337742
0.00047596248
-0.10427932
0.0043330396
-0.0039212862
0.0045774365
0.062758478
0.0029884516
0.14057127
-0.0067982929
0.062707325
-0.013519973
-0.030919847
-0.012750839
-0.088546058
-0.0055182996
-0.13351981
0.012002071
-0.034720229
0.018040007
0.038617634
0.013726631
0.076439204
0.00072581399
0.060459705
-0.012545424
0.021219289
-0.01413078
-0.00019544734
-0.011809473
-0.01340714
-0.0071779442
-0.018766696
-0.0010678398
-0.015647909
0.003665931
-0.008447238
0.0053347864
-0.0023313314
0.004600216
0.00093708034
0.002944136
0.0018471466
0.0014610764
0.0016619975
0.00053959491
0.0011738566
6.7894472e-05
0.00062019492
-3.8016387e-05
0.000256338
6.0375174e-05
7.4735957e-05
0.00021555071
1.4902048e-05
0.000348564
1.3512779e-05
0.00043078963
2.9606072e-05
0.00046274476
4.3707537e-05
0.00045719055
4.9900891e-05
0.00042946314
4.8911186e-05
0.00039176797
4.3737506e-05
0.00035307978
3.7077905e-05
0.00031929842
3.0430041e-05
0.00029452575
2.4512264e-05
0.00027885295
1.8195247e-05
0.00027028036
1.0425343e-05
0.00026947616
0.00019166398
-0.063891064
0.00040183799
-0.0060906657
0.0014059116
0.054828249
0.00090399442
0.029502542
-0.00094819171
-0.00038342177
-0.10651155
0.0027081955
-0.002873215
0.003284969
0.064979273
0.0023566516
0.14980596
-0.0062462332
0.068487867
-0.012578839
-0.031875513
-0.012564297
-0.096810175
-0.0044867251
-0.15017645
0.011138343
-0.041784128
0.019065977
0.044665428
0.011992201
0.089509434
0.00065641311
0.075346841
-0.014161322
0.025082963
-0.016409102
-0.00040126349
-0.013924941
-0.016397929
-0.0088187102
-0.024346418
-0.0015982086
-0.021349051
0.0046332825
-0.011824673
0.007043352
-0.0031199363
0.0061233784
0.0016164141
0.0039208534
0.0029233698
0.0018678958
0.0025793914
0.00054365577
0.0018262958
-0.00011285525
0.00098673524
-0.00029865402
0.00039170468
-0.00017338632
8.7138546e-05
4.7972918e-05
-2.3553989e-05
0.00025400642
-3.3664282e-05
0.0003957394
-7.4875467e-06
0.00046787744
2.1528967e-05
0.00048491811
4.0775537e-05
0.00046631224
4.8955151e-05
0.00042941492
4.918027e-05
0.00038632636
4.5194766e-05
0.00034495378
3.9303665e-05
0.00031043427
3.3195133e-05
0.00028582681
2.7292156e-05
0.00026978502
2.0306967e-05
0.00026037601
1.1552415e-05
0.00025794455
0.00082914102
-0.10714903
-0.00028976712
-0.063199461
0.00082440501
-0.0055091679
0.0024424542
0.053289778
0.001016729
0.027537619
-0.0012043215
-0.0011784946
-0.0024412888
0.0022762707
0.066297818
0.0019664308
0.15765214
-0.0054895172
0.073228434
-0.010986802
-0.032611243
-0.011843104
-0.10468674
-0.0046877375
-0.1659235
0.011260324
-0.050734412
0.020088629
0.042706412
0.021024982
0.10055959
0.00094205452
0.090868548
-0.014865284
0.029502711
-0.018581077
-0.00086497042
-0.015945365
-0.0196989
-0.010623987
-0.031007649
-0.0021574624
-0.02872069
0.005773433
-0.016323855
0.0091324535
-0.0041298758
0.0080533031
0.0026123912
0.0051273769
0.0044686741
0.0023755404
0.0039039604
0.00054329136
0.0027428649
-0.00037293615
0.0015253319
-0.00065147534
0.00059856129
-0.00050552767
0.00011375232
-0.00020000611
-7.8349218e-05
0.00010276328
-0.00010665605
0.00032699858
-6.8768548e-05
0.00045701634
-1.9161075e-05
0.00050856363
1.9496265e-05
0.00050619322
4.1890614e-05
0.00047337358
5.1132473e-05
0.00042745826
5.2000424e-05
0.00037952121
4.8354443e-05
0.00033589262
4.2750682e-05
0.00030088906
3.6766348e-05
0.00027633563
3.0375177e-05
0.00025974675
2.2572324e-05
0.00024933203
1.2587393e-05
0.00024537833
0.00093774158
-0.0025498873
-0.0013524408
-0.10608636
-0.00028055938
-0.062094497
0.0015492131
-0.0046159356
0.003283808
0.051022689
0.0011310765
0.025202221
-0.0013792587
-0.0020666775
0.067502077
0.0010720153
0.16400726
-0.0043886868
0.076821278
-0.0090823579
-0.032982828
-0.010615211
-0.11220207
-0.0043277786
-0.18144242
0.010831187
-0.05878094
0.019306858
0.041301575
0.021493456
0.10606264
0.015521952
0.10735363
-0.015543024
0.034839356
-0.020201927
-0.0014899091
-0.017956112
-0.023436943
-0.012207334
-0.038905384
-0.0027262414
-0.038121882
0.0072437449
-0.022271953
0.011721523