/*--------------------------------*- C++ -*----------------------------------*\
| =========                 |                                                 |
| \\      /  F ield         | OpenFOAM: The Open Source CFD Toolbox           |
|  \\    /   O peration     | Version:  5.0                                   |
|   \\  /    A nd           | Web:      www.OpenFOAM.org                      |
|    \\/     M anipulation  |                                                 |
\*---------------------------------------------------------------------------*/
FoamFile
{
    version     2.0;
    format      ascii;
    class       volScalarField;
    location    "160";
    object      nut;
}
// * * * * * * * * * * * * * * * * * * * * * * * * * * * * * * * * * * * * * //

dimensions      [0 2 -1 0 0 0 0];

internalField   nonuniform List<scalar> 
9520
(
1.3664914e-117
1.7402899e-109
1.2233937e-117
1.2727885e-102
1.5590827e-109
1.0895114e-117
1.6632613e-96
1.1399629e-102
1.3895061e-109
9.7532396e-118
6.2365763e-91
1.4887787e-96
1.0161106e-102
1.2463987e-109
8.8486046e-118
8.7529268e-86
5.5776683e-91
1.3270408e-96
9.1282368e-103
1.13522e-109
8.1585081e-118
5.4835732e-81
7.8188767e-86
4.9716332e-91
1.1936928e-96
8.3389824e-103
1.0515436e-109
7.5987519e-118
1.7232883e-76
4.892659e-81
6.9678953e-86
4.4770763e-91
1.0930335e-96
7.7475824e-103
9.8168232e-110
7.0541379e-118
2.9323468e-72
1.536682e-76
4.3597532e-81
6.280263e-86
4.1062444e-91
1.0172779e-96
7.2333545e-103
9.0860028e-110
6.4164105e-118
2.8646557e-68
2.6147827e-72
1.369987e-76
3.9332684e-81
5.7657063e-86
3.8233978e-91
9.4827804e-97
6.6596697e-103
8.1915239e-110
5.6455504e-118
1.7001921e-64
2.5558818e-68
2.3331503e-72
1.2377341e-76
3.6137087e-81
5.3646664e-86
3.5532329e-91
8.6730313e-97
5.9425382e-103
7.1251524e-110
4.8078642e-118
7.0701944e-61
1.5150022e-64
2.2828895e-68
2.1108428e-72
1.1383206e-76
3.3576826e-81
4.9632255e-86
3.2252048e-91
7.6564966e-97
5.1110221e-103
6.0226885e-110
4.0480047e-118
4.9124603e-57
6.1185824e-61
1.3517002e-64
2.0667069e-68
1.9430055e-72
1.0562992e-76
3.0894603e-81
4.4661695e-86
2.8172298e-91
6.517765e-97
4.2965604e-103
5.0913011e-110
3.5105362e-118
7.5776322e-52
3.4371653e-57
5.3186345e-61
1.220322e-64
1.9027851e-68
1.8009827e-72
9.666408e-77
2.7538446e-81
3.8602146e-86
2.3772909e-91
5.462275e-97
3.6571915e-103
4.5024345e-110
3.2833434e-118
1.4907268e-45
3.5778691e-52
2.4127616e-57
4.6745145e-61
1.1210086e-64
1.762421e-68
1.6401723e-72
8.5362296e-77
2.3551861e-81
3.2335315e-86
1.9911751e-91
4.6945297e-97
3.3032383e-103
4.3421516e-110
3.3933349e-118
2.6898257e-39
7.0225074e-46
1.4093813e-52
1.6941291e-57
4.2145106e-61
1.0379937e-64
1.5994702e-68
1.4358673e-72
7.2283742e-77
1.9609489e-81
2.7130086e-86
1.731669e-91
4.3347318e-97
3.2779513e-103
4.618076e-110
3.8065522e-118
2.0891495e-33
1.4731702e-39
2.2078946e-46
4.2625645e-53
1.287138e-57
3.8769809e-61
9.4068135e-65
1.3894449e-68
1.2046858e-72
5.9919786e-77
1.6518759e-81
2.3912656e-86
1.6340856e-91
4.4131172e-97
3.5645841e-103
5.2429846e-110
4.3836057e-118
5.864589e-28
1.3233622e-33
4.7094842e-40
3.8280775e-47
1.3996779e-53
1.0842761e-57
3.5067165e-61
8.1174162e-65
1.1552865e-68
9.954249e-73
5.0799239e-77
1.4780948e-81
2.3031792e-86
1.6995343e-91
4.8741774e-97
4.059712e-103
5.9637717e-110
4.8352003e-118
5.4553072e-23
4.1855004e-28
4.386011e-34
7.497153e-41
5.9817858e-48
7.0934336e-54
9.4638435e-58
3.0029681e-61
6.6838445e-65
9.5185787e-69
8.5065463e-73
4.6223278e-77
1.4516046e-81
2.4348363e-86
1.8927424e-91
5.5246853e-97
4.5230108e-103
6.3488499e-110
4.811951e-118
1.5238822e-18
4.2585152e-23
1.4398787e-28
7.0397684e-35
1.1627753e-41
1.9916688e-48
5.1058475e-54
7.8638794e-58
2.4387493e-61
5.4841533e-65
8.2060523e-69
7.8755568e-73
4.6248771e-77
1.5527979e-81
2.7141564e-86
2.1192555e-91
5.9889154e-97
4.619465e-103
5.9982004e-110
4.1574605e-118
1.1804846e-14
1.2704277e-18
1.5247166e-23
2.4081828e-29
1.3405757e-35
5.4448549e-42
1.4798859e-48
3.6019396e-54
6.1080784e-58
1.9833994e-61
4.7681736e-65
7.7318949e-69
8.013198e-73
4.987578e-77
1.7209519e-81
2.9808743e-86
2.2236307e-91
5.8447168e-97
4.1325082e-103
4.8831193e-110
3.0789952e-118
2.3249942e-11
1.0167304e-14
4.9235625e-19
2.78657e-24
5.9778467e-30
1.0400532e-35
6.3265355e-42
9.1565853e-49
2.0131681e-54
4.7735936e-58
1.7348878e-61
4.5725217e-65
7.9870173e-69
8.6761055e-73
5.4671982e-77
1.8415669e-81
3.0133289e-86
2.0695766e-91
4.9471448e-97
3.1750961e-103
3.4209754e-110
1.9913058e-118
1.1543481e-08
2.0259744e-11
4.2921858e-15
1.0875728e-19
9.3335276e-25
7.3453957e-30
1.7894677e-35
4.5610896e-42
2.1288928e-49
1.0824842e-54
4.1238659e-58
1.6929583e-61
4.7916016e-65
8.6522008e-69
9.3612478e-73
5.672057e-77
1.7847423e-81
2.6716583e-86
1.6603466e-91
3.5995407e-97
2.1194002e-103
2.1354331e-110
1.1957287e-118
1.3875971e-06
1.0048026e-08
9.5227177e-12
1.1962758e-15
5.0920072e-20
1.6159503e-24
1.654235e-29
1.4651712e-35
7.7030151e-43
2.2867057e-50
7.4493558e-55
4.0723967e-58
1.8007145e-61
5.1820463e-65
9.1511707e-69
9.380451e-73
5.2521859e-77
1.5044389e-81
2.0378634e-86
1.1512492e-91
2.3111637e-97
1.296347e-103
1.2921645e-110
7.4892853e-119
2.9663214e-05
1.2062461e-06
5.1973233e-09
3.3451544e-12
7.3006917e-16
9.8120282e-20
4.1830859e-24
1.4435083e-29
2.2918471e-36
2.9510371e-44
3.2091744e-51
6.8329066e-55
4.4016621e-58
1.9436617e-61
5.3554388e-65
8.8267388e-69
8.2861182e-73
4.2058272e-77
1.0935249e-81
1.3580798e-86
7.2001055e-92
1.4103596e-97
8.0987952e-104
8.7187534e-111
5.7364468e-119
0.0001076897
2.6957164e-05
6.958914e-07
2.2381788e-09
2.4643941e-12
1.4465737e-15
2.5957505e-19
3.7075263e-24
2.1499864e-30
6.67475e-38
5.6611087e-46
1.2462789e-51
7.3428001e-55
4.7506862e-58
1.9586944e-61
4.9558176e-65
7.4275804e-69
6.3138468e-73
2.9222241e-77
7.0633683e-82
8.4024371e-87
4.4729727e-92
9.3327044e-98
6.0472983e-104
7.691356e-111
6.1146822e-119
0.00019171636
0.00010259693
1.9102489e-05
3.6148482e-07
1.9010193e-09
4.8172822e-12
3.6480907e-15
2.2690139e-19
5.4149867e-25
5.5299131e-32
7.4093154e-40
2.2802556e-47
1.0300404e-51
7.9067765e-55
4.6643597e-58
1.7330407e-61
3.9653395e-65
5.3964899e-69
4.2194186e-73
1.8459702e-77
4.3949998e-82
5.4311452e-87
3.2093683e-92
7.8796272e-98
6.2110598e-104
9.6338277e-111
9.1038683e-119
0.00026627427
0.00018477214
8.7369105e-05
1.2560439e-05
3.395449e-07
3.6017929e-09
1.1164297e-11
3.0941187e-15
3.3751519e-20
1.3993307e-26
5.5647831e-34
1.4508677e-41
6.4027852e-48
1.0573706e-51
7.5519158e-55
3.9306922e-58
1.3148614e-61
2.751688e-65
3.4936865e-69
2.6384715e-73
1.1738143e-77
3.0229391e-82
4.3078459e-87
3.0985784e-92
9.4071767e-98
8.9731425e-104
1.6112565e-110
1.6734686e-118
0.00032704005
0.00025583428
0.00016517944
7.1699126e-05
1.2512387e-05
6.0946067e-07
7.4569274e-09
9.1617713e-12
4.872769e-16
1.0179978e-21
1.9399592e-28
1.7521973e-35
4.5252318e-42
6.4896267e-48
9.6626185e-52
6.0239079e-55
2.8155766e-58
8.7209915e-62
1.7385708e-65
2.1917697e-69
1.7441874e-73
8.7531769e-78
2.694555e-82
4.7566267e-87
4.2363493e-92
1.5252587e-97
1.626642e-103
3.0901618e-110
3.2477132e-118
0.00037845497
0.00031375202
0.00023207285
0.0001453444
7.2091114e-05
1.908147e-05
1.1023935e-06
5.8976552e-09
1.5796768e-12
1.8781116e-17
2.2680441e-23
1.2434022e-29
1.7278359e-35
9.5246709e-42
5.6314274e-48
6.9538101e-52
4.041418e-55
1.7838317e-58
5.4152986e-62
1.1093762e-65
1.5317643e-69
1.4298923e-73
8.8391233e-78
3.385411e-82
7.2669066e-87
7.4609473e-92
2.8962634e-97
3.1511048e-103
5.8768305e-110
5.9135706e-118
0.00042276073
0.00036226135
0.00028672499
0.00020998393
0.0001457347
8.8647722e-05
2.718207e-05
8.5150113e-07
1.144265e-09
8.1446963e-14
6.9022891e-19
2.9666095e-24
2.7300984e-29
6.4893729e-35
9.8475555e-42
2.1759818e-48
4.1394566e-52
2.4365735e-55
1.095722e-58
3.562087e-62
8.3218812e-66
1.3935308e-69
1.6309719e-73
1.2485082e-77
5.6371017e-82
1.3443838e-86
1.4387294e-91
5.5230636e-97
5.749357e-103
1.007223e-109
9.4327811e-118
0.00046054816
0.00040374402
0.00033238155
0.00026289866
0.00021118868
0.00016600433
0.00010335403
2.227651e-05
1.9562585e-07
8.153761e-11
5.0857323e-15
1.8472968e-19
1.0326539e-23
1.3179972e-28
7.695728e-35
1.5642382e-42
5.4099688e-49
2.3101324e-52
1.487675e-55
7.5248442e-59
2.9051145e-62
8.4393122e-66
1.7785793e-69
2.5339197e-73
2.2139047e-77
1.065148e-81
2.5636994e-86
2.6462309e-91
9.5220742e-97
9.1657088e-103
1.4775673e-109
1.2736501e-117
0.00049074634
0.00043839306
0.00037209952
0.00030697704
0.00026453049
0.00023425967
0.00018312596
9.2945223e-05
7.7183199e-06
1.9924111e-08
8.8424633e-12
2.5991657e-15
8.1406355e-19
5.4845522e-23
1.6552662e-28
1.0972302e-35
3.8019363e-44
1.7930797e-49
1.3981077e-52
1.0787186e-55
6.738096e-59
3.2838215e-62
1.1890425e-65
2.9678678e-69
4.659761e-73
4.187157e-77
1.9680563e-81
4.4767846e-86
4.2633784e-91
1.4008007e-96
1.2288565e-102
1.8103347e-109
1.4337277e-117
0.00051362197
0.00046601803
0.00040517218
0.00034587341
0.00030810573
0.00028831836
0.00025168256
0.00016929576
5.5019475e-05
1.282439e-06
3.739452e-09
7.7849341e-12
1.2679173e-14
4.3218031e-18
7.0104572e-23
2.4282556e-29
1.4854214e-37
6.1383846e-46
9.5478117e-50
1.0793836e-52
1.067575e-55
8.4531456e-59
5.0274891e-62
2.0829797e-65
5.5280455e-69
8.651344e-73
7.4010108e-77
3.2240411e-81
6.6904479e-86
5.7560706e-91
1.7095981e-96
1.361659e-102
1.8335116e-109
1.3380698e-117
0.00052992251
0.00048681808
0.0004319952
0.00037882572
0.00034574273
0.0003307815
0.00030376625
0.00023369726
0.00012277772
1.9801701e-05
4.0525466e-07
5.018067e-09
3.8691438e-11
6.2908373e-14
5.4747057e-18
1.0851295e-23
3.3478242e-31
3.0732591e-40
6.8020132e-47
7.7578701e-50
1.1852935e-52
1.4760804e-55
1.3830562e-58
9.0574822e-62
3.8529299e-65
9.9181306e-69
1.4472418e-72
1.1288296e-76
4.4416049e-81
8.2766083e-86
6.3799061e-91
1.7097652e-96
1.238498e-102
1.5301349e-109
1.0346509e-117
0.00053983342
0.00050163903
0.00045275427
0.00040610301
0.00037761175
0.00036589349
0.00034356139
0.00028305214
0.00018201511
7.2734175e-05
1.0597352e-05
7.1604046e-07
2.3768556e-08
1.702317e-10
7.7421935e-14
9.1131746e-19
1.7047194e-25
6.9361316e-34
7.9055273e-43
4.3275971e-47
9.4493286e-50
1.7921026e-52
2.5415092e-55
2.5167236e-58
1.6371822e-61
6.5961534e-65
1.5572893e-68
2.0441698e-72
1.4218674e-76
5.0005924e-81
8.3330502e-86
5.755577e-91
1.3949626e-96
9.2314955e-103
1.0527282e-109
6.6410819e-118
0.00054420001
0.00051094588
0.00046829741
0.00042799511
0.0004039553
0.00039479825
0.0003751483
0.00032102132
0.00022965045
0.00012950877
5.7012438e-05
1.8971484e-05
2.9023455e-06
8.8722727e-08
1.9997664e-10
1.4113783e-14
1.7382403e-20
5.1612896e-28
8.3288131e-37
3.7585086e-44
5.5852605e-47
1.5514749e-49
3.2044746e-52
4.6038254e-55
4.3866342e-58
2.6476974e-61
9.6536498e-65
2.0273648e-68
2.3507214e-72
1.4479697e-76
4.5433974e-81
6.7766583e-86
4.211098e-91
9.2796853e-97
5.6456589e-103
5.9852612e-110
3.5513364e-118
0.00054462404
0.00051586432
0.00047913826
0.00044531774
0.00042510966
0.00041810131
0.00040047598
0.00035206516
0.00026754278
0.00017751898
0.00011646883
8.2566229e-05
4.5660117e-05
8.0782498e-06
9.8249882e-08
4.0554897e-11
3.4378421e-16
8.1682871e-23
9.062461e-31
1.4042364e-39
2.776991e-44
9.8737175e-47
2.8555909e-49
5.7132367e-52
7.656537e-55
6.6449106e-58
3.5912653e-61
1.1552932e-64
2.1268816e-68
2.1672724e-72
1.1819048e-76
3.3164205e-81
4.4430913e-86
2.4989888e-91
5.0420939e-97
2.8412077e-103
2.8240779e-110
1.5907841e-118
0.00054190144
0.00051786527
0.0004863405
0.00045845686
0.0004420656
0.00043626874
0.00042024401
0.00037696519
0.00030136403
0.00021654567
0.00016756737
0.00015084357
0.00012821023
7.361758e-05
8.3684351e-06
2.2636077e-08
1.3199689e-12
2.5059145e-18
2.2485186e-25
1.1391757e-33
3.7547832e-41
4.951305e-44
1.8656077e-46
4.9705194e-49
8.9900598e-52
1.078197e-54
8.3108526e-58
3.9423444e-61
1.1045342e-64
1.7762729e-68
1.5913777e-72
7.7095195e-77
1.9433402e-81
2.3511601e-86
1.2058953e-91
2.2461596e-97
1.1828088e-103
1.1133015e-110
6.0183052e-119
0.00053663296
0.00051781244
0.00049197345
0.00046810771
0.00045496867
0.00045029723
0.0004349569
0.00039671165
0.00032970388
0.00025168264
0.00020938642
0.00020698651
0.00020394943
0.00016252112
7.2954146e-05
2.5110194e-06
1.0174452e-09
1.4565012e-14
1.0525306e-20
4.3395797e-28
3.7528438e-36
3.8641618e-41
9.7440555e-44
3.1588676e-46
7.3419137e-49
1.1690756e-51
1.2365153e-54
8.3552561e-58
3.431782e-61
8.3551346e-65
1.1749421e-68
9.2879854e-73
4.0200163e-77
9.1584731e-82
1.0078675e-86
4.7576955e-92
8.2620222e-98
4.111106e-104
3.7094304e-111
1.949948e-119
0.00051728646
0.00053539962
0.00049697788
0.00047575112
0.00046422402
0.00046019501
0.00044536401
0.00041157611
0.00035345296
0.00028245518
0.00024388819
0.00025098548
0.00026388016
0.00023985349
0.00015900927
3.9285698e-05
1.6866856e-07
1.6554164e-11
9.1453711e-17
3.5130833e-23
2.9563951e-30
2.767939e-36
1.1406838e-40
1.6267526e-43
4.3470783e-46
8.7436564e-49
1.2221504e-51
1.1358641e-54
6.6178453e-58
2.3507071e-61
4.981356e-65
6.1488398e-69
4.3142262e-73
1.6813073e-77
3.4897386e-82
3.5279727e-87
1.5518206e-92
2.5453178e-98
1.215019e-104
1.0684733e-111
5.5572185e-120
0.00050083482
0.00052076706
0.00053751658
0.00048142075
0.00047090527
0.00046650343
0.00045173698
0.00042225524
0.00037303514
0.00030905015
0.00027357856
0.00028484223
0.0003073241
0.00029912709
0.00023248805
0.0001133264
6.1920269e-06
3.990874e-09
1.5601439e-13
5.946163e-19
9.6839626e-25
7.0083303e-30
3.6190845e-35
2.5904947e-40
2.051933e-43
4.6873416e-46
8.2682868e-49
1.0200089e-51
8.1809237e-55
4.1046456e-58
1.2636504e-61
2.3407561e-65
2.5523596e-69
1.6035892e-73
5.6896855e-78
1.0888577e-82
1.0268744e-87
4.2866135e-93
6.780433e-99
3.178749e-105
2.7929542e-112
1.4733141e-120
0.00048473819
0.00050653139
0.00052246516
0.00053709538
0.00047480656
0.00046989896
0.00045479319
0.00042924072
0.0003889563
0.00033194042
0.0002990743
0.00031121871
0.00033796785
0.00033793542
0.00028691638
0.00017950319
4.3379386e-05
2.4152111e-07
5.8859444e-11
2.3796522e-15
7.731728e-20
6.0444947e-24
1.4445952e-28
1.816068e-34
2.5701084e-40
1.9265288e-43
3.958785e-46
6.2259811e-49
6.6750491e-52
4.5944906e-55
1.9907752e-58
5.3389092e-62
8.7103826e-66
8.4791831e-70
4.8404753e-74
1.5925733e-78
2.8712136e-83
2.597239e-88
1.0629306e-93
1.683376e-99
8.0679978e-106
7.3707564e-113
4.0892176e-121
0.00047559875
0.00048704078
0.00051004806
0.00052123816
0.00053425412
0.00047038556
0.00045507678
0.00043334433
0.00040163786
0.0003516096
0.00032092472
0.00033304069
0.00035989114
0.00036267137
0.00032270152
0.00023040014
9.8002712e-05
4.2387933e-06
6.1579111e-09
2.6184791e-12
1.338957e-15
8.4070078e-19
1.2370439e-22
8.0365061e-28
1.3640318e-34
1.177438e-40
1.4041735e-43
2.6610748e-46
3.6930282e-49
3.3941268e-52
2.0124967e-55
7.5791289e-59
1.7880588e-62
2.6062399e-66
2.3116541e-70
1.2336789e-74
3.9028977e-79
6.9323908e-84
6.3601533e-89
2.7173111e-94
4.6100427e-100
2.4122914e-106
2.4275815e-113
1.4806929e-121
0.00046795096
0.00047266933
0.00049003808
0.00051045804
0.00051731128
0.00052788454
0.00045309899
0.00043551241
0.00041175884
0.00036837735
0.00033962694
0.00035096984
0.00037704473
0.00038066173
0.00034684281
0.00026746737
0.00014505353
2.4107506e-05
2.2528402e-07
8.9826601e-10
4.7882994e-12
1.8349981e-14
1.5099061e-17
6.4347418e-22
6.1039099e-28
1.1654223e-35
4.5294563e-41
8.2478239e-44
1.4225458e-46
1.6996443e-49
1.3445369e-52
6.9279759e-56
2.2992577e-59
4.8734824e-63
6.5483501e-67
5.5376459e-71
2.9399473e-75
9.6641602e-80
1.8551931e-84
1.916078e-89
9.4848669e-95
1.8959974e-100
1.1680952e-106
1.3615302e-113
9.3541177e-122
0.00044942846
0.00046201213
0.00047112123
0.00049145912
0.00050775031
0.00051003523
0.00051604997
0.0004365467
0.00042023521
0.00038260847
0.00035550671
0.00036575526
0.00038984436
0.00039329797
0.00036441089
0.00029820006
0.00018259
5.959844e-05
3.3457115e-06
9.750474e-08
3.5465342e-09
6.6343844e-11
2.7067324e-13
7.0384115e-17
4.9973328e-22
4.6051831e-29
1.9270016e-37
1.9682263e-41
3.9264358e-44
5.9186342e-47
6.1008041e-50
4.2074702e-53
1.9236328e-56
5.8148823e-60
1.1648651e-63
1.5541589e-67
1.388515e-71
8.3408239e-76
3.2871937e-80
7.8885781e-85
1.0432349e-89
6.5884798e-95
1.64014e-100
1.2097858e-106
1.6125162e-113
1.2093363e-121
0.00043746216
0.00044424008
0.00045587751
0.00046891009
0.00049035496
0.00050164951
0.00049760237
0.00049816013
0.00042670941
0.00039511008
0.00036894768
0.00037762077
0.00039956543
0.00040120529
0.00037621607
0.00032206585
0.0002225717
9.6096482e-05
1.9752284e-05
3.1751808e-06
5.5403477e-07
4.2936766e-08
7.6316948e-10
1.0994547e-12
5.4960954e-17
4.4709132e-23
2.9178696e-31
6.6328878e-39
8.0537387e-42
1.4705674e-44
1.9300478e-47
1.7495348e-50
1.0869097e-53
4.6496576e-57
1.3900469e-60
2.9663606e-64
4.6072419e-68
5.2428033e-72
4.2875999e-76
2.3528418e-80
7.7636341e-85
1.3550137e-89
1.0665567e-94
3.119021e-100
2.5604348e-106
3.6293552e-113
2.7886401e-121
0.00043377535
0.00043621071
0.00043760086
0.00044862902
0.00046555984
0.00048604588
0.00049081671
0.0004796443
0.00047406944
0.00040601461
0.00038024868
0.00038693253
0.00040613047
0.00040564911
0.00038296506
0.00033992831
0.00025589343
0.00013672248
5.308734e-05
2.6450876e-05
1.5921757e-05
4.8691405e-06
3.6383549e-07
2.629691e-09
8.5350087e-13
5.8756559e-18
3.9524583e-25
2.5994291e-34
1.3714292e-39
2.6839276e-42
4.3702669e-45
5.1337327e-48
4.3117408e-51
2.6275142e-54
1.1976972e-57
4.2411068e-61
1.1998425e-64
2.7034563e-68
4.6386279e-72
5.5764823e-76
4.1987737e-80
1.7590207e-84
3.60956e-89
3.1422043e-94
9.7026006e-100
8.1329607e-106
1.1493171e-112
8.6498846e-121
0.00041565943
0.0004374047
0.00043272158
0.00042952755
0.00044010652
0.0004598873
0.0004776628
0.00047467384
0.00045612532
0.00044295348
0.00038951731
0.0003940556
0.00041016373
0.00040681655
0.00038569333
0.00035252469
0.00028408709
0.00017402742
8.9792703e-05
7.3086814e-05
7.4060482e-05
5.9041047e-05
2.211672e-05
1.0158423e-06
2.0169382e-09
1.0896561e-13
7.798005e-20
3.9113363e-28
9.3546055e-37
3.7547769e-40
7.2825724e-43
1.0974349e-45
1.2526782e-48
1.1128056e-51
8.0627946e-55
4.9880123e-58
2.678789e-61
1.206946e-64
4.2093233e-68
1.0266368e-71
1.5787038e-75
1.386435e-79
6.3300417e-84
1.3464389e-88
1.1782607e-93
3.5873881e-99
2.9302426e-105
4.0062946e-112
2.903206e-120
0.0003970548
0.00042311001
0.00043824093
0.00042685003
0.00041937995
0.00042949179
0.00045081785
0.00046442496
0.00045321612
0.00042617272
0.00040491438
0.00039891485
0.00041182962
0.0004054196
0.00038522883
0.00036080338
0.00030751706
0.00020785348
0.0001253496
0.00011295946
0.00013820099
0.00014304751
0.00011173029
3.88204e-05
7.7566368e-07
3.1045551e-10
2.1594834e-15
1.4929413e-22
1.9870523e-31
5.4321173e-38
9.231068e-41
1.7690415e-43
2.7929744e-46
3.7614754e-49
4.5669897e-52
5.1615526e-55
5.3062119e-58
4.5947994e-61
3.0202634e-64
1.360743e-67
3.8524724e-71
6.3581901e-75
5.7031794e-79
2.5775363e-83
5.3274188e-88
4.4920908e-93
1.3131282e-98
1.0290257e-104
1.3506571e-111
9.4061916e-120
0.00040166431
0.00040280287
0.00042822011
0.00043641221
0.00041842394
0.00040707743
0.00041614231
0.00043774779
0.00044604105
0.00042554556
0.00038977068
0.00036018928
0.00041112152
0.00040155987
0.00038228948
0.00036585061
0.00032647927
0.00023844729
0.00015786845
0.00014665071
0.00018616406
0.00021462784
0.00020287268
0.00013853151
3.2532496e-05
1.499354e-07
9.2354811e-12
7.9150191e-18
1.2491132e-25
1.7617346e-34
9.5472636e-39
2.2349601e-41
5.0242382e-44
1.0778589e-46
2.2952357e-49
4.7955519e-52
9.1042585e-55
1.4072187e-57
1.5949753e-60
1.2163638e-63
5.8349103e-67
1.666016e-70
2.6882375e-74
2.3212307e-78
9.9941616e-83
1.963493e-87
1.5758527e-92
4.3972166e-98
3.3011131e-104
4.166393e-111
2.7994117e-119
0.00040796269
0.00040226814
0.00040702806
0.00043099692
0.00043192952
0.00040766469
0.00039208907
0.00040007947
0.00042016974
0.00042172748
0.00039147333
0.00034727233
0.00031016333
0.00039543231
0.00037738055
0.00036871832
0.0003416327
0.00026591292
0.00018750521
0.00017595087
0.00021965089
0.00026851887
0.00027401247
0.00023019358
0.00012691363
1.1225383e-05
6.847306e-09
6.3090547e-14
1.2998223e-20
6.2439259e-29
1.8219363e-36
2.3167039e-39
7.6588853e-42
2.7414699e-44
1.0424544e-46
3.9033899e-49
1.2783394e-51
3.2548807e-54
5.8832423e-57
7.081337e-60
5.4041941e-63
2.5097336e-66
6.8225178e-70
1.0410581e-73
8.4895527e-78
3.4469992e-82
6.4133595e-87
4.8988411e-92
1.3078281e-97
9.442283e-104
1.151639e-110
1.1357232e-127
0.00038708577
0.00040202982
0.00040068981
0.00041005458
0.00043134423
0.00042494969
0.00039410614
0.00037399564
0.00038057755
0.00039719461
0.00039115549
0.00035136132
0.00029916043
0.00025120675
0.00037103539
0.00037008845
0.00035407693
0.00029026633
0.00021474398
0.00020165083
0.00024745027
0.00030146489
0.00032400377
0.0002966785
0.0002162554
8.1062674e-05
9.8299252e-07
8.5650902e-11
1.9566015e-16
1.1349688e-23
3.0000027e-32
2.2864653e-37
1.0308226e-39
6.3193652e-42
4.2088896e-44
2.6555554e-46
1.3886361e-48
5.4251359e-51
1.4740272e-53
2.6577278e-56
3.0753036e-59
2.215352e-62
9.6405955e-66
2.4529745e-69
3.5121592e-73
2.6946051e-77
1.0328243e-81
1.8254708e-86
1.3329536e-91
3.4225398e-97
2.3902168e-103
7.1328384e-119
1.9706875e-137
0.00036358767
0.00037647188
0.0003931985
0.0003976108
0.00041163753
0.00042908607
0.00041512803
0.00037732425
0.00035247249
0.0003564504
0.00036849725
0.00035429686
0.00030443442
0.00024183924
0.00018035936
0.00037049705
0.00036480854
0.00031192311
0.00023989816
0.00022468909
0.00027043999
0.00032813515
0.00035518162
0.00033893997
0.00028122777
0.0001656091
2.330294e-05
2.2756441e-08
4.8123467e-13
3.1018004e-19
5.6430748e-27
9.2317483e-35
1.2664053e-37
1.3119441e-39
1.4565243e-41
1.4412542e-43
1.1231054e-45
6.3571568e-48
2.4821278e-50
6.4555808e-53
1.0911866e-55
1.1735648e-58
7.8444131e-62
3.1747578e-65
7.5461772e-69
1.0152269e-72
7.3439634e-77
2.6701923e-81
4.508555e-86
3.1664349e-91
7.8700204e-97
2.2934769e-111
1.9889327e-128
9.8007728e-149
0.00036981976
0.00035467937
0.00036378022
0.00038261291
0.00039379671
0.00041106952
0.00042401812
0.00040199888
0.00035710198
0.0003268167
0.00032710573
0.00033347334
0.00030957882
0.00024755096
0.00017199638
9.974143e-05
0.00037503762
0.00033123135
0.00026319451
0.0002455989
0.00029016013
0.00034902553
0.00037892092
0.00036623419
0.00031990785
0.00023323375
8.9857195e-05
1.3889878e-06
2.2256081e-10
1.3285872e-15
2.6027264e-22
2.3338891e-30
1.6924608e-35
2.3940515e-37
4.1573002e-39
6.036386e-41
6.6297369e-43
5.2028075e-45
2.8153536e-47
1.0246297e-49
2.4584794e-52
3.8247366e-55
3.7926008e-58
2.3471929e-61
8.8460494e-65
1.9709215e-68
2.5028545e-72
1.715182e-76
5.9535236e-81
9.6680388e-86
6.5762959e-91
1.18052e-104
1.0555471e-120
1.5596811e-139
1.1823293e-161
0.00038392313
0.00036745951
0.00034403154
0.00034940834
0.00037183801
0.00038826342
0.00040787214
0.00041550764
0.00038552822
0.00033260956
0.00029629214
0.00029192474
0.0002912541
0.00025441578
0.0001768477
9.3888569e-05
2.5365039e-05
0.00034935821
0.00028481641
0.00026461848
0.00030711775
0.00036639544
0.00039632669
0.0003847727
0.00034553636
0.00028023763
0.00015679632
1.911096e-05
2.3823514e-08
1.0248178e-12
1.8771919e-18
1.2525166e-25
8.6278663e-33
3.7653984e-35
9.5068879e-37
1.9172902e-38
2.8411166e-40
2.9856083e-42
2.1742409e-44
1.077708e-46
3.5797668e-49
7.8509526e-52
1.120992e-54
1.0257321e-57
5.8957898e-61
2.0785122e-64
4.364812e-68
5.2582423e-72
3.4372716e-76
1.1472423e-80
1.8050611e-85
1.5503733e-98
9.0876601e-114
1.3937829e-131
2.460445e-152
7.6592878e-176
0.0003659658
0.0003901481
0.00036306283
0.00033183047
0.00033347973
0.00035842409
0.00038042071
0.00040131843
0.00040348218
0.00036469014
0.00030329051
0.00026053812
0.000251149
0.00023903543
0.00018465127
9.8040614e-05
2.2472061e-05
1.0873224e-06
0.00030484033
0.00028188701
0.00032132327
0.00038043304
0.00040965188
0.00039629152
0.00036063021
0.00031146327
0.00021845185
6.6538844e-05
7.3199388e-07
1.766156e-10
2.3424077e-15
1.4220029e-21
6.6398646e-29
5.6167384e-33
1.7162617e-34
4.5980724e-36
8.8803568e-38
1.2139483e-39
1.1597235e-41
7.6438252e-44
3.4316345e-46
1.0362285e-48
2.0775553e-51
2.7294931e-54
2.3141474e-57
1.2417744e-60
4.1194909e-64
8.2077138e-68
9.4354646e-72
5.928307e-76
1.917426e-80
6.7091812e-93
2.010434e-107
2.0889583e-124
3.3396648e-144
1.418993e-166
9.0066068e-191
0.00032320109
0.00038013638
0.00039329337
0.00035673061
0.00031788549
0.0003154664
0.00034260596
0.00036938208
0.00039085485
0.00038697517
0.00033878253
0.00026831149
0.0002196154
0.00020128927
0.00017304694
0.00010432173
2.4799005e-05
8.8276354e-07
8.8545297e-09
0.00029732883
0.00033273491
0.00039067564
0.00041904496
0.00040237667
0.00036710595
0.00032941331
0.00026345173
0.00013227578
7.5712597e-06
8.6324971e-09
6.2883419e-13
2.7952464e-18
7.0439901e-25
1.4113685e-30
2.4778081e-32
8.4009507e-34
2.0477166e-35
3.5492599e-37
4.3440077e-39
3.7224833e-41
2.20907e-43
8.9751038e-46
2.4680916e-48
4.5392003e-51
5.512827e-54
4.3550283e-57
2.1954731e-60
6.9005623e-64
1.3140731e-67
1.4511238e-71
8.8346939e-76
1.1252703e-87
1.4708445e-101
8.1919172e-118
8.2703862e-137
2.1839137e-158
1.0375936e-181
3.9222819e-206
0.000311049
0.00033980834
0.00039106673
0.00039372467
0.00034825275
0.00030204846
0.00029521914
0.00032349964
0.00035436485
0.00037568742
0.00036513617
0.00030612682
0.00022655602
0.0001699431
0.00013934261
9.5319376e-05
2.8597189e-05
1.02756e-06
6.6005497e-09
1.7664951e-11
0.00034102544
0.00039651193
0.00042382605
0.00040321262
0.00036662523
0.00033732027
0.00029458406
0.000189898
4.4559023e-05
1.5484916e-07
4.6156625e-11
1.1441632e-15
1.9533034e-21
1.2763046e-27
3.0844275e-30
1.2110274e-31
3.5801718e-33
7.5987908e-35
1.1639106e-36
1.2683139e-38
9.7366165e-41
5.2080444e-43
1.9200125e-45
4.8270006e-48
8.1833116e-51
9.2403618e-54
6.8463784e-57
3.2659095e-60
9.7991752e-64
1.7958779e-67
1.9210599e-71
8.183135e-83
4.1751816e-96
1.0737728e-111
5.6281528e-130
7.2007016e-151
1.2561674e-173
2.5165398e-197
7.8360371e-222
0.00034643249
0.00032302498
0.00035452755
0.00039885128
0.00039146629
0.00033764973
0.00028402917
0.00027217413
0.0003005943
0.0003346547
0.0003551965
0.00033688261
0.00026502814
0.00017481819
0.00010951904
6.7523594e-05
2.3788611e-05
1.3324505e-06
7.8191281e-09
1.1782403e-11
8.8524061e-15
0.00039732101
0.00042274429
0.00039848859
0.00036003153
0.00033762763
0.00031377592
0.00023894051
9.9592453e-05
3.2783013e-06
1.1920202e-09
1.2454013e-13
1.2487952e-18
2.2215454e-24
4.7017148e-28
1.4723058e-29
5.0406407e-31
1.2546242e-32
2.2815707e-34
3.0835956e-36
2.996456e-38
2.065628e-40
9.9902501e-43
3.3556099e-45
7.7507651e-48
1.2182494e-50
1.2874117e-53
9.0122723e-57
4.1005472e-60
1.1843699e-63
2.1044656e-67
2.8023702e-78
5.1344811e-91
5.4949136e-106
1.3208174e-123
7.189682e-144
4.109578e-166
1.770437e-189
3.2614068e-213
7.3466889e-238
0.00039309468
0.00034891474
0.00033376843
0.00036718089
0.00040360117
0.00038655213
0.00032450553
0.00026344504
0.0002460847
0.00027351205
0.00030968494
0.00032855233
0.00029918855
0.00021062207
0.00011175254
4.3215177e-05
1.1447296e-05
1.0212425e-06
1.1001328e-08
1.4073337e-11
5.0876951e-15
1.1787537e-18
0.00041511133
0.00038777829
0.00034798175
0.00033198564
0.00032463
0.00027684019
0.00015482618
2.2555931e-05
5.7072276e-08
4.768494e-12
2.6464326e-16
4.6592198e-21
4.9289548e-25
2.5156631e-27
6.390079e-29
1.7236966e-30
3.5200548e-32
5.4818319e-34
6.5698748e-36
5.7125736e-38
3.5483032e-40
1.5580956e-42
4.7916463e-45
1.022719e-47
1.5001439e-50
1.4945666e-53
9.9646897e-57
4.362228e-60
1.2240829e-63
4.8156658e-74
2.965118e-86
1.2220678e-100
1.2373662e-117
2.6386793e-137
4.7537583e-159
4.1839204e-182
1.2445406e-205
2.4539582e-229
5.3682116e-254
0.00040064177
0.00038402431
0.00034973554
0.00034361581
0.00037746046
0.00040520102
0.00037867445
0.00030844068
0.00023987413
0.00021661881
0.00024184274
0.00027853955
0.00029336203
0.00024514534
0.00014273453
4.2929619e-05
4.5888995e-06
3.4264595e-07
8.4145664e-09
2.1337692e-11
6.0870554e-15
5.7637697e-19
4.4984591e-23
0.0003712449
0.0003312727
0.00032189135
0.00032967621
0.00030603929
0.00020654361
6.5021282e-05
9.8094086e-07
4.9250867e-10
3.615016e-14
1.7810404e-17
1.4692384e-20
1.141464e-23
2.2032571e-26
2.3354933e-28
4.5196757e-30
7.6554158e-32
1.0481689e-33
1.124145e-35
8.7781704e-38
4.9329791e-40
1.9760934e-42
5.5955505e-45
1.11082e-47
1.5317338e-50
1.450285e-53
9.2898473e-57
3.9492663e-60
4.3684411e-70
8.5526635e-82
1.2771453e-95
5.1223119e-112
4.0557767e-131
2.2163405e-152
4.3811574e-175
1.6325845e-198
6.0256674e-222
1.6702076e-245
3.750452e-270
0.00034927254
0.00038009952
0.00037198316
0.00034982249
0.00035209324
0.00038489493
0.00040357596
0.00036743729
0.00028903631
0.00021290287
0.00018362763
0.00020505643
0.00024258976
0.00024308815
0.00017424111
6.5202238e-05
4.0597687e-06
9.2158801e-08
2.3614023e-09
1.6555567e-11
9.7901172e-15
6.4128542e-19
1.910072e-23
5.3968054e-28
0.00031095883
0.00030861144
0.0003309507
0.00032961725
0.00025406833
0.00011591385
8.1731165e-06
1.6380025e-08
1.0151082e-11
5.7807365e-14
4.6076362e-16
1.018068e-18
6.3612945e-22
2.1220613e-25
6.1553878e-28
8.8248642e-30
1.293433e-31
1.607705e-33
1.5437755e-35
1.0868698e-37
5.5513468e-40
2.0397814e-42
5.3522585e-45
9.9548879e-48
1.3008977e-50
1.1808904e-53
7.3356089e-57
2.1809227e-66
1.2939358e-77
6.6555392e-91
1.0090254e-106
2.8682735e-125
4.5897364e-146
2.1512862e-168
1.1628215e-191
4.2278789e-215
3.3013149e-238
1.1696862e-261
2.4147312e-286
0.00028803843
0.00032284141
0.00035628415
0.00035883087
0.00034914976
0.00035859088
0.00038898273
0.00039812612
0.00035264405
0.00026553901
0.00018230971
0.0001473498
0.00016796509
0.0001952071
0.00017493966
9.2148088e-05
8.4803279e-06
6.5542953e-08
4.5603342e-10
4.0594513e-12
7.6552433e-15
1.0525358e-18
1.8504872e-23
2.0136709e-28
2.1248686e-33
0.00029325357
0.00032996026
0.00034968991
0.00029816912
0.0001678573
3.3485084e-05
2.815979e-07
8.3709272e-10
3.4886886e-11
2.6322406e-12
3.0103846e-14
7.399199e-17
1.9074512e-20
9.6838601e-25
1.0550893e-27
1.2988271e-29
1.7261048e-31
1.9710303e-33
1.7009409e-35
1.0844156e-37
5.0604801e-40
1.7160926e-42
4.2026798e-45
7.3829609e-48
9.2245876e-51
8.1049809e-54
6.2078966e-63
1.0684422e-73
1.8119463e-86
1.0000521e-101
1.0004232e-119
4.5738705e-140
5.1156119e-162
4.8478976e-185
1.6203307e-208
1.5018576e-231
2.1551623e-254
7.7759235e-278
1.4139133e-302
0.00027671289