/*--------------------------------*- C++ -*----------------------------------*\
| =========                 |                                                 |
| \\      /  F ield         | OpenFOAM: The Open Source CFD Toolbox           |
|  \\    /   O peration     | Version:  5.0                                   |
|   \\  /    A nd           | Web:      www.OpenFOAM.org                      |
|    \\/     M anipulation  |                                                 |
\*---------------------------------------------------------------------------*/
FoamFile
{
    version     2.0;
    format      ascii;
    class       volScalarField;
    location    "160";
    object      nuTilda;
}
// * * * * * * * * * * * * * * * * * * * * * * * * * * * * * * * * * * * * * //

dimensions      [0 2 -1 0 0 0 0];

internalField   nonuniform List<scalar> 
9520
(
4.7030113e-33
4.9960557e-31
4.574501e-33
2.5981127e-29
4.8603502e-31
4.443904e-33
8.7842719e-28
2.5273842e-29
4.7225128e-31
4.3229347e-33
2.1736955e-26
8.543872e-28
2.4558122e-29
4.5963393e-31
4.2194688e-33
4.2072333e-25
2.1137777e-26
8.302007e-28
2.3911163e-29
4.490741e-31
4.1349683e-33
6.6561029e-24
4.0900744e-25
2.0539462e-26
8.0859758e-28
2.3379383e-29
4.4058499e-31
4.0619757e-33
8.8621605e-23
6.4688991e-24
3.9741297e-25
2.0010693e-26
7.910745e-28
2.295429e-29
4.3304494e-31
3.9864145e-33
1.0121621e-21
8.6117129e-23
6.2854227e-24
3.8726784e-25
1.9584916e-26
7.7701264e-28
2.2561069e-29
4.2465408e-31
3.8919363e-33
1.0062627e-20
9.8356257e-22
8.3685587e-23
6.1264421e-24
3.7911687e-25
1.9238582e-26
7.633796e-28
2.2094018e-29
4.1366214e-31
3.7682415e-33
8.8321723e-20
9.7797671e-21
9.5600233e-22
8.1597972e-23
5.9985494e-24
3.7233705e-25
1.8886117e-26
7.4631879e-28
2.1466623e-29
3.9937865e-31
3.6194335e-33
7.092668e-19
8.5812092e-20
9.5081203e-21
9.3247581e-22
7.9913713e-23
5.8890921e-24
3.6509556e-25
1.8428635e-26
7.2318576e-28
2.0667971e-29
3.829241e-31
3.4677633e-33
6.4764892e-18
6.8409074e-19
8.3404669e-20
9.2755926e-21
9.1341894e-22
7.842824e-23
5.7665195e-24
3.5547729e-25
1.7810507e-26
6.9452916e-28
1.9791186e-29
3.6729481e-31
3.3484802e-33
1.2840662e-16
5.9228571e-18
6.6054774e-19
8.1308079e-20
9.0864548e-21
8.9617147e-22
7.6689742e-23
5.6012962e-24
3.4265614e-25
1.706835e-26
6.6462014e-28
1.9018364e-29
3.5643491e-31
3.2958184e-33
4.8106104e-15
1.0639589e-16
5.4195165e-18
6.3962534e-19
7.9605725e-20
8.9131587e-21
8.7523236e-22
7.4318674e-23
5.3852066e-24
3.2779708e-25
1.6332608e-26
6.402789e-28
1.8555139e-29
3.5352724e-31
3.3256133e-33
1.763455e-13
3.9814104e-15
8.4142227e-17
4.9608706e-18
6.2333419e-19
7.8081656e-20
8.6971894e-21
8.4633153e-22
7.1277355e-23
5.1442975e-24
3.1383179e-25
1.5782422e-26
6.2816313e-28
1.8534818e-29
3.5923424e-31
3.4233612e-33
5.2356907e-12
1.5145955e-13
2.9723736e-15
6.2350238e-17
4.6331215e-18
6.1042328e-19
7.6161547e-20
8.3937325e-21
8.0985779e-22
6.8019459e-23
4.9305124e-24
3.0429798e-25
1.5568242e-26
6.3145245e-28
1.893559e-29
3.7081385e-31
3.5446209e-33
1.2051771e-10
4.6606322e-12
1.1347759e-13
1.9150352e-15
4.7270839e-17
4.4396104e-18
5.9511773e-19
7.3380973e-20
8.0142466e-21
7.7228564e-22
6.5302721e-23
4.7990039e-24
3.0170033e-25
1.5731726e-26
6.4749241e-28
1.9556653e-29
3.8267309e-31
3.6284542e-33
2.1046341e-09
1.1047574e-10
3.5222286e-12
7.1575185e-14
1.2081065e-15
3.9977138e-17
4.2902442e-18
5.7227206e-19
6.9894633e-20
7.6375717e-21
7.4297767e-22
6.3829541e-23
4.7809512e-24
3.060726e-25
1.6161651e-26
6.6777687e-28
2.0073338e-29
3.8819619e-31
3.6183571e-33
2.7204773e-08
1.9723086e-09
8.4255852e-11
2.2273652e-12
4.5161269e-14
9.2389103e-16
3.6851103e-17
4.094075e-18
5.4320989e-19
6.6546176e-20
7.3644572e-21
7.2937537e-22
6.3881101e-23
4.8637904e-24
3.1444821e-25
1.6613632e-26
6.8061579e-28
2.015025e-29
3.8208694e-31
3.4823876e-33
2.5516293e-07
2.5915599e-08
1.519318e-09
5.3869981e-11
1.482409e-12
3.7687616e-14
8.5989531e-16
3.3722523e-17
3.842621e-18
5.1608703e-19
6.4307639e-20
7.2613917e-21
7.3295791e-22
6.5108574e-23
4.9886848e-24
3.2162777e-25
1.6793036e-26
6.7543132e-28
1.9563703e-29
3.6231733e-31
3.2253783e-33
1.6993022e-06
2.4508901e-07
2.0369957e-08
9.9396197e-10
3.8376072e-11
1.4038671e-12
3.9179847e-14
7.5917176e-16
2.9105817e-17
3.6147332e-18
4.9952323e-19
6.3686949e-20
7.3238874e-21
7.4765224e-22
6.6584109e-23
5.0687078e-24
3.2205069e-25
1.6467663e-26
6.4676746e-28
1.8286819e-29
3.310185e-31
2.8896087e-33
8.0219661e-06
1.6375591e-06
1.9692329e-07
1.3986266e-08
7.6389718e-10
4.0742322e-11
1.6067895e-12
3.5848651e-14
5.2357374e-16
2.4926199e-17
3.4882935e-18
4.9686184e-19
6.4457975e-20
7.4703263e-21
7.6144128e-22
6.7120872e-23
5.0217207e-24
3.119946e-25
1.55598e-26
5.9647409e-28
1.6511187e-29
2.9407771e-31
2.5444191e-33
2.689969e-05
7.7309463e-06
1.3524456e-06
1.4343478e-07
1.167579e-08
8.8251963e-10
4.9791234e-11
1.5153705e-12
2.2760046e-14
2.988422e-16
2.273528e-17
3.4801925e-18
5.046958e-19
6.5707518e-20
7.56897e-21
7.6084843e-22
6.5741593e-23
4.8039738e-24
2.9112832e-25
1.4181166e-26
5.3355204e-28
1.4602424e-29
2.5964476e-31
2.2686574e-33
6.6212109e-05
2.5891845e-05
6.5426307e-06
1.0440558e-06
1.2778535e-07
1.3842527e-08
1.1154249e-09
4.7665822e-11
9.4277504e-13
1.0002674e-14
1.8344873e-16
2.2275496e-17
3.548925e-18
5.1413403e-19
6.6179704e-20
7.4905081e-21
7.3646164e-22
6.2092837e-23
4.4296997e-24
2.6279161e-25
1.2607849e-26
4.7190642e-28
1.3006801e-29
2.3606928e-31
2.131498e-33
0.00012664774
6.3820848e-05
2.24422e-05
5.314426e-06
9.7379732e-07
1.5234903e-07
1.7583329e-08
1.0714951e-09
2.927674e-11
3.864726e-13
3.7247864e-15
1.4542759e-16
2.2683274e-17
3.6145229e-18
5.1448516e-19
6.4812345e-20
7.1629704e-21
6.8707171e-22
5.662553e-23
3.9688842e-24
2.3312927e-25
1.1209068e-26
4.2678403e-28
1.2138655e-29
2.2988173e-31
2.1766702e-33
0.00020025467
0.0001224703
5.6530936e-05
1.9043626e-05
5.130577e-06
1.155704e-06
1.9119643e-07
1.683243e-08
6.5483987e-10
1.163044e-11
1.2546374e-13
1.6852843e-15
1.3890214e-16
2.3085219e-17
3.5928105e-18
4.9819069e-19
6.1204079e-20
6.6044573e-21
6.2067752e-22
5.0475322e-23
3.5280324e-24
2.094812e-25
1.0352159e-26
4.1094172e-28
1.227975e-29
2.4430171e-31
2.4131582e-33
0.00027105403
0.00019380691
0.00011039232
4.951819e-05
1.8830812e-05
6.0356125e-06
1.4202199e-06
1.8171802e-07
1.0338402e-08
2.6058864e-10
3.6906631e-12
4.7702206e-14
1.2423493e-15
1.3972768e-16
2.2783468e-17
3.4365201e-18
4.6426391e-19
5.5798136e-20
5.921054e-21
5.5213554e-22
4.514238e-23
3.2220227e-24
1.9848768e-25
1.0309924e-26
4.3152118e-28
1.3513138e-29
2.7852157e-31
2.8132933e-33
0.00033028406
0.00026095876
0.00017593917
9.8501184e-05
4.9637784e-05
2.1890043e-05
7.2125978e-06
1.3395232e-06
1.1329811e-07
4.2854914e-09
8.983188e-11
1.5930971e-12
3.65852e-14
1.2510779e-15
1.3631731e-16
2.1491773e-17
3.1569751e-18
4.1859896e-19
4.9740196e-20
5.2743363e-21
4.9894232e-22
4.2094159e-23
3.1443179e-24
2.0439491e-25
1.1192333e-26
4.882715e-28
1.5701453e-29
3.2781004e-31
3.3176674e-33
0.0003809021
0.00031725057
0.0002381728
0.00015840411
9.8997073e-05
5.6880473e-05
2.5394447e-05
6.7454145e-06
8.5511457e-07
5.0019497e-08
1.6663346e-09
4.648477e-11
1.6274071e-12
4.4204482e-14
1.2005194e-15
1.2523434e-16
1.9423923e-17
2.8148358e-18
3.7170601e-19
4.4521667e-20
4.8358705e-21
4.7661674e-22
4.2383237e-23
3.3426039e-24
2.2794239e-25
1.2915415e-26
5.7336621e-28
1.8509691e-29
3.8434721e-31
3.8455938e-33
0.00042473208
0.00036491633
0.00029086609
0.00021729628
0.00015887109
0.00011173101
6.4169929e-05
2.3587974e-05
4.4393746e-06
4.0662621e-07
2.2089888e-08
1.0303001e-09
5.7740851e-11
2.259465e-12
4.4024138e-14
9.379277e-16
1.098312e-16
1.711113e-17
2.4940302e-18
3.3544575e-19
4.1571151e-20
4.7424508e-21
4.9462607e-22
4.6363505e-23
3.8051938e-24
2.6603289e-25
1.5211495e-26
6.727797e-28
2.1466414e-29
4.3863316e-31
4.3094512e-33
0.00046221409
0.00040589495
0.00033551103
0.00026779181
0.00021849836
0.00017687492
0.00012318811
5.9448955e-05
1.6117384e-05
2.2920598e-06
2.0545712e-07
1.6294243e-08
1.4301636e-09
8.5091689e-11
2.3233555e-12
2.7316124e-14
6.59138e-16
9.4939491e-17
1.5146983e-17
2.2764788e-18
3.1996359e-19
4.1891055e-20
5.0596968e-21
5.5367618e-22
5.3566112e-23
4.4607461e-24
3.1223867e-25
1.7678756e-26
7.6895899e-28
2.4051745e-29
4.8124847e-31
4.6305815e-33
0.00049221596
0.00044022404
0.00037461785
0.00031063795
0.00026940931
0.00024036161
0.0001923488
0.00011462131
4.2402647e-05
9.0884533e-06
1.3316303e-06
1.7767381e-07
2.3910052e-08
2.1550407e-09
8.87061e-11
1.4010598e-12
1.0632612e-14
5.0063546e-16
8.3913026e-17
1.4023048e-17
2.2233452e-18
3.3123309e-19
4.578409e-20
5.7610009e-21
6.4498372e-22
6.2762289e-23
5.1914945e-24
3.58062e-25
1.9860712e-26
8.4424408e-28
2.5797074e-29
5.0463384e-31
4.7536429e-33
0.00051496483
0.00046764198
0.0004073069
0.00034878768
0.00031176893
0.00029247884
0.00025698968
0.00017957935
8.5430179e-05
2.6117471e-05
6.0585313e-06
1.3145059e-06
2.663494e-07
3.5998699e-08
2.2564681e-09
5.3870875e-11
4.6945922e-13
3.7891386e-15
4.2914115e-16
7.8959196e-17
1.4044498e-17
2.361574e-18
3.6935326e-19
5.2724641e-20
6.7275545e-21
7.5177233e-22
7.2206067e-23
5.8573932e-24
3.946913e-25
2.1338899e-26
8.8436796e-28
2.6376859e-29
5.0449545e-31
4.6561671e-33
0.00053118462
0.00048830832
0.0004338791
0.0003812698
0.00034867845
0.00033398262
0.00030750161
0.00023967645
0.0001387145
5.7000879e-05
1.9689776e-05
6.6194577e-06
1.9732938e-06
3.9420462e-07
3.7622905e-08
1.3894283e-09
1.8132232e-11
9.9154446e-14
2.211318e-15
4.0928751e-16
8.1163801e-17
1.5277414e-17
2.6754672e-18
4.2800999e-19
6.1424686e-20
7.7709281e-21
8.5277347e-22
8.0006103e-23
6.3256146e-24
4.1486117e-25
2.1819514e-26
8.8129202e-28
2.5668452e-29
4.8049618e-31
4.3509723e-33
0.00054104984
0.00050304378
0.00045447309
0.00040823774
0.00038008519
0.00036852559
0.00034651268
0.00028726552
0.0001910945
9.899203e-05
4.7250551e-05
2.3022252e-05
9.7964639e-06
2.8344541e-06
4.0931668e-07
2.3609991e-08
4.8351056e-10
3.8367443e-12
2.2539683e-14
1.9901515e-15
4.3173835e-16
9.0234088e-17
1.7517398e-17
3.1059805e-18
4.9550454e-19
7.0097881e-20
8.6741568e-21
9.2674873e-22
8.4475531e-23
6.4934094e-24
4.1410189e-25
2.1189342e-26
8.3458567e-28
2.3765194e-29
4.360566e-31
3.8807617e-33
0.00054539704
0.00051230071
0.00046990651
0.00042992169
0.00040612289
0.00039706634
0.0003776372
0.00032434614
0.00023577531
0.00014458737
8.7793227e-05
5.7211267e-05
3.3184784e-05
1.3523638e-05
2.9119256e-06
2.6305972e-07
8.6330466e-09
1.1275834e-10
7.1367503e-13
1.0736964e-14
2.1308421e-15
4.8970663e-16
1.0437339e-16
2.0300687e-17
3.5616278e-18
5.5730833e-19
7.6866619e-20
9.2351009e-21
9.5639614e-22
8.4561403e-23
6.3169131e-24
3.9181872e-25
1.9526189e-26
7.5100167e-28
2.0940581e-29
3.7729885e-31
3.3069332e-33
0.00054581917
0.00051719397
0.00048067707
0.00044710031
0.00042707017
0.00042012713
0.0004026671
0.00035485426
0.00027219498
0.00018709245
0.0001341035
0.00010748431
7.9664536e-05
4.3762137e-05
1.3708756e-05
1.9246677e-06
1.0240099e-07
2.2508374e-09
2.3028976e-11
1.4577605e-13
1.0064228e-14
2.4609181e-15
5.701744e-16
1.2041118e-16
2.2998225e-17
3.9399006e-18
5.9952253e-19
8.0124468e-20
9.3135394e-21
9.3379817e-22
8.0084572e-23
5.8175059e-24
3.5128162e-25
1.7075295e-26
6.424397e-28
1.7574146e-29
3.1159798e-31
2.6959964e-33
0.00054310852
0.00051918517
0.00048783522
0.0004601406
0.0004438804
0.00043813096
0.00042223775
0.00037941176
0.00030509602
0.00022342285
0.00017833852
0.00016365875
0.00014415246
0.00010033474
4.3773283e-05
9.3587412e-06
8.0717474e-07
2.9811867e-08
5.1426389e-10
4.341091e-12
6.065749e-14
1.1657817e-14
2.882374e-15
6.5351182e-16
1.3448942e-16
2.4975426e-17
4.1527628e-18
6.1153716e-19
7.8946031e-20
8.8709741e-21
8.6122822e-22
7.1706199e-23
5.0710731e-24
2.9850445e-25
1.4179655e-26
5.2296964e-28
1.4066724e-29
2.460547e-31
2.1073327e-33
0.00053786395
0.00051913316
0.00049343488
0.00046972379
0.00045668282
0.00045204573
0.00043682014
0.00039892933
0.0003328563
0.00025694251
0.00021686
0.00021472816
0.00021187031
0.00017378259
9.9296598e-05
3.1009746e-05
4.2589374e-06
2.6049134e-07
7.5709467e-09
1.0805593e-10
1.074776e-12
6.2339943e-14
1.3791811e-14
3.2791941e-15
7.1821278e-16
1.4314284e-16
2.5757763e-17
4.1435913e-18
5.8855375e-19
7.335369e-20
7.9704584e-21
7.4996068e-22
6.0708192e-23
4.1861595e-24
2.406562e-25
1.1197911e-26
4.0586929e-28
1.0764876e-29
1.8634997e-31
1.5851622e-33
0.0005186108
0.00053663721
0.00049841096
0.0004773162
0.00046587065
0.00046186889
0.00044714215
0.00041364224
0.00035621638
0.00028670727
0.00024958553
0.00025646733
0.00026886443
0.00024570127
0.00017035607
7.3232804e-05
1.5343754e-05
1.5136769e-06
7.3192089e-08
1.832229e-09
3.2519222e-11
1.0665066e-12
8.2194396e-14
1.5626803e-14
3.5391955e-15
7.4764344e-16
1.4423064e-16
2.5126536e-17
3.8946742e-18
5.3344715e-19
6.4216524e-20
6.7538985e-21
6.1684293e-22
4.8642797e-23
3.277217e-24
1.8447075e-25
8.4348129e-27
3.0146037e-28
7.9152714e-30
1.3618633e-31
1.1557741e-33
0.00050224671
0.00052207486
0.00053874499
0.00048294922
0.00047250519
0.00046813171
0.0004534656
0.00042422221
0.00037552953
0.00031264037
0.00027818282
0.00028916674
0.0003110544
0.00030299873
0.0002385254
0.00013064472
3.9366285e-05
5.9715523e-06
4.7146121e-07
2.1078322e-08
7.9062841e-10
4.3017343e-11
2.0348089e-12
1.0045009e-13
1.6487124e-14
3.5928767e-15
7.3460738e-16
1.3736521e-16
2.3061813e-17
3.4434086e-18
4.5506391e-19
5.2970119e-20
5.4012941e-21
4.7992719e-22
3.6974475e-23
2.4415492e-24
1.3510739e-25
6.1000894e-27
2.1616174e-28
5.65352e-30
9.731538e-32
8.2936156e-34
0.00048624522
0.00050791184
0.00052376527
0.00053832573
0.0004763796
0.00047150276
0.00045649852
0.00043114717
0.00039126032
0.00033507413
0.0003029627
0.00031486609
0.00034106704
0.00034099427
0.00029101631
0.00018865577
7.5950184e-05
1.6740539e-05
2.0862444e-06
1.696515e-07
1.3436665e-08
1.3054919e-09
9.0985796e-11
2.9918798e-12
9.8951026e-14
1.6155704e-14
3.4315054e-15
6.8187517e-16
1.2308969e-16
1.9889674e-17
2.8628971e-18
3.6553676e-19
4.1223925e-20
4.0867745e-21
3.5463863e-22
2.6822762e-23
1.7459874e-24
9.5691952e-26
4.3035022e-27
1.5272362e-28
4.0215545e-30
6.9990584e-32
6.047403e-34
0.00047716547
0.00048853196
0.00051141023
0.00052254481
0.00053549739
0.00047198477
0.00045677965
0.00043521733
0.00040380597
0.00035441551
0.00032431991
0.00033623665
0.00036263025
0.00036533543
0.00032598538
0.00023639997
0.00011785353
3.5337048e-05
6.7160544e-06
9.9008444e-07
1.5489333e-07
2.5039788e-08
2.7471037e-09
1.3683763e-10
2.716139e-12
8.0318614e-14
1.4868675e-14
3.096207e-15
5.9618567e-16
1.0355493e-16
1.61214e-17
2.240789e-18
2.7713712e-19
3.0396322e-20
2.9456808e-21
2.5155391e-22
1.8861435e-23
1.22498e-24
6.749823e-26
3.0748701e-27
1.1126065e-28
3.0010793e-30
5.3604627e-32
4.7490141e-34
0.00046956543
0.00047425347
0.00049151057
0.00051181873
0.00051863798
0.00052915754
0.00045481648
0.00043736993
0.00041382737
0.0003709423
0.00034266856
0.00035385226
0.0003795422
0.00038308454
0.00034970778
0.00027206021
0.00015747662
6.0258442e-05
1.6700405e-05
4.3072799e-06
1.1977615e-06
3.0202048e-07
5.0943303e-08
4.0649205e-09
1.2454046e-10
1.4277605e-12
6.2845352e-14
1.2972349e-14
2.6377738e-15
4.8923986e-16
8.1860225e-17
1.2306854e-17
1.657956e-18
1.9975534e-19
2.1488433e-20
2.0607155e-21
1.761049e-22
1.3365304e-23
8.8770426e-25
5.0546989e-26
2.3963612e-27
9.0571524e-29
2.549511e-30
4.7293593e-32
4.3182312e-34
0.00045117432
0.00046366725
0.00047271414
0.00049292297
0.00050912605
0.0005113999
0.00051738114
0.0004383984
0.00042222607
0.00038499268
0.00035828831
0.0003684112
0.00039218015
0.00039556891
0.00036701915
0.00030197214
0.0001913739
8.8355185e-05
3.3779385e-05
1.4007923e-05
6.2287753e-06
2.3230964e-06
5.8489044e-07
7.3418067e-08
3.7254856e-09
6.3467415e-11
5.0095221e-13
5.0893497e-14
1.0737338e-14
2.1108419e-15
3.7739051e-16
6.103789e-17
8.9116475e-18
1.1740637e-18
1.3970086e-19
1.5038018e-20
1.4668846e-21
1.2979669e-22
1.0349817e-23
7.2954956e-25
4.4311119e-26
2.2359548e-27
8.9303895e-29
2.6282747e-30
5.0370906e-32
4.6963084e-34
0.00043930908
0.00044602788
0.00045757568
0.00047051587
0.00049182538
0.00050305913
0.00049903549
0.00049958716
0.00042864392
0.00039735057
0.00037153336
0.00038011251
0.00040178768
0.00040338767
0.00037867111
0.00032534167
0.0002288956
0.00011655624
5.7295611e-05
3.4271001e-05
2.2046504e-05
1.1631735e-05
4.2294593e-06
8.1540268e-07
6.7492081e-08
1.9852304e-09
1.7395962e-11
2.1647052e-13
4.0576659e-14
8.3707358e-15
1.5900867e-15
2.7546392e-16
4.3449505e-17
6.249892e-18
8.2330339e-19
9.9899103e-20
1.122204e-20
1.1685374e-21
1.1212629e-22
9.7337525e-24
7.432659e-25
4.8332286e-26
2.5717108e-27
1.0669211e-28
3.21845e-30
6.253263e-32
5.8585673e-34
0.00043565118
0.00043807029
0.00043944375
0.00045038034
0.00046718652
0.00048754232
0.00049228915
0.00048118547
0.00047564278
0.0004081401
0.0003826843
0.00038930486
0.00040827936
0.00040778266
0.00038533925
0.00034289574
0.00026085105
0.00015035837
8.4692008e-05
6.4721395e-05
5.4941592e-05
3.8895941e-05
1.9703374e-05
5.6671949e-06
7.4988549e-07
3.7687088e-08
5.9262597e-10
2.9702592e-12
1.4624491e-13
3.0732021e-14
6.1635859e-15
1.1399396e-15
1.940794e-16
3.0548556e-17
4.4823656e-18
6.1913853e-19
8.1041649e-20
1.0031864e-20
1.1594084e-21
1.223763e-22
1.1467117e-23
9.2637892e-25
6.2524915e-26
3.4023468e-27
1.4278136e-28
4.3230483e-30
8.384571e-32
7.8103069e-34
0.00041768986
0.00043925245
0.00043461265
0.0004314398
0.00044192369
0.00046155265
0.00047921172
0.00047624744
0.00045782721
0.00044475134
0.00039183839
0.00039634133
0.00041226804
0.00040893581
0.00038803703
0.00035530269
0.00028819996
0.00018362121
0.00011249984
0.00010082405
0.00010191502
9.0662915e-05
6.085686e-05
2.5230051e-05
5.2070598e-06
4.3876238e-07
1.2487916e-08
1.0346447e-10
7.3686113e-13
1.0556341e-13
2.2134798e-14
4.3609872e-15
8.0290715e-16
1.3918834e-16
2.2999617e-17
3.6631432e-18
5.638723e-19
8.3012735e-20
1.1439152e-20
1.4379043e-21
1.6071172e-22
1.5591398e-23
1.2831805e-24
8.7199536e-26
4.7441073e-27
1.9819016e-28
5.9582478e-30
1.1457018e-31
1.0570579e-33
0.00039928759
0.00042507185
0.00044008398
0.00042879422
0.00042138426
0.0004313965
0.00045254868
0.00046606241
0.0004549406
0.00042811779
0.00040705759
0.00040114294
0.00041391383
0.00040755067
0.00038758003
0.00036346943
0.00031108177
0.00021503059
0.00014128034
0.00013193333
0.0001532297
0.00015734638
0.00013089135
7.429528e-05
2.3171338e-05
3.2002392e-06
1.6115411e-07
2.5752065e-09
1.5511583e-11
3.6474656e-13
7.4260199e-14
1.5560033e-14
3.1135777e-15
6.0065916e-16
1.1325871e-16
2.1009596e-17
3.8034506e-18
6.580806e-19
1.0598227e-19
1.5493392e-20
2.0132256e-21
2.2834631e-22
2.2225112e-23
1.822052e-24
1.2282531e-25
6.6169535e-27
2.7354327e-28
8.1375172e-30
1.5488144e-31
1.4149421e-33
0.00040385895
0.00040497109
0.00043013749
0.00043827265
0.00042044739
0.00040920225
0.00041816672
0.00043958066
0.00044781428
0.00042749809
0.00039208701
0.00036287999
0.00041320923
0.00040372866
0.00038467814
0.00036845481
0.00032967869
0.00024410416
0.00016944986
0.00016024508
0.00019577709
0.00022211145
0.00021100367
0.00015283139
6.8504332e-05
1.5025613e-05
1.3044159e-06
3.9155669e-08
4.3607454e-10
2.6947454e-12
2.3678983e-13
5.2292006e-14
1.1462536e-14
2.4917398e-15
5.4174463e-16
1.1716928e-16
2.4679041e-17
4.9222784e-18
9.0612442e-19
1.508015e-19
2.2326002e-20
2.90147e-21
3.2683779e-22
3.1485899e-23
2.549051e-24
1.6962234e-25
9.0247152e-27
3.6875132e-28
1.0853021e-29
2.0456755e-31
1.852418e-33
0.00041007839
0.00040445215
0.00040914947
0.00043289163
0.00043383031
0.00040979586
0.00039437551
0.00040226423
0.00042215503
0.00042370727
0.00039377307
0.00035017053
0.00031374782
0.00039766485
0.00037983354
0.00037129182
0.00034458025
0.00027056748
0.00019632014
0.00018623973
0.00022686688
0.00027346996
0.00027870251
0.00023652259
0.00014243491
4.7185384e-05
6.818707e-06
3.7079029e-07
7.8410159e-09
6.4996367e-11
8.7365658e-13
1.6744051e-13
4.0551825e-14
1.0042462e-14
2.5245945e-15
6.3060267e-16
1.5180363e-16
3.4214212e-17
7.0642365e-18
1.316009e-18
2.1862281e-19
3.2067298e-20
4.1136922e-21
4.5677942e-22
4.3370285e-23
3.4597137e-24
2.2710207e-25
1.1934683e-26
4.8232042e-28
1.4058951e-29
2.6276911e-31
1.4848337e-35
0.00038941111
0.00040420286
0.00040288578
0.00041214258
0.00043323768
0.00042691448
0.00039638493
0.00037650223
0.00038298364
0.0003994094
0.00039344938
0.00035419937
0.00030301452
0.00025651772
0.0003735753
0.00037265194
0.00035683989
0.00029423488
0.00022173168
0.00020982679
0.00025324964
0.00030542755
0.00032738826
0.00030061625
0.00022312046
0.00010483386
2.3895723e-05
2.2560379e-06
8.696955e-08
1.3413016e-09
9.6528244e-12
5.2936763e-13
1.3921103e-13
3.947942e-14
1.1401025e-14
3.2358112e-15
8.7333081e-16
2.1864081e-16
4.9919309e-17
1.0279471e-17
1.8939126e-18
3.0990567e-19
4.4706253e-20
5.6398294e-21
6.1629001e-22
5.7629959e-23
4.5315733e-24
2.9368345e-25
1.5262019e-26
6.1087087e-28
1.7660718e-29
2.3421223e-33
5.4114086e-38
0.0003662345
0.00037892498
0.00039546346
0.00039983499
0.00041370821
0.00043100087
0.00041718741
0.00037980696
0.00035528382
0.00035917964
0.0003710583
0.00035707704
0.00030817023
0.00024755435
0.00018977245
0.00037306387
0.0003674262
0.00031539994
0.00024562952
0.00023142977
0.00027533966
0.00033149236
0.00035800535
0.00034197659
0.00028548945
0.00017595704
5.9274391e-05
9.136362e-06
6.1333204e-07
1.7255537e-08
1.9955394e-10
2.3374587e-12
4.6711838e-13
1.5099022e-13
4.9420841e-14
1.5653901e-14
4.6582059e-15
1.2776789e-15
3.1911313e-16
7.1975197e-17
1.457348e-17
2.6353406e-18
4.2314394e-19
5.993832e-20
7.4335293e-21
7.9975243e-22
7.3699446e-23
5.7196056e-24
3.6649872e-25
1.8863604e-26
7.4900118e-28
1.7564667e-31
9.6186604e-36
8.0971658e-41
0.0003724043
0.0003574618
0.00036640109
0.00038499658
0.00039605811
0.0004131445
0.00042597979
0.00040419451
0.00035986761
0.00033006738
0.00033032179
0.00033657605
0.0003131802
0.00025304214
0.00018219213
0.00012021914
0.00037752778
0.00033434227
0.00026802625
0.00025131645
0.00029443563
0.00035199455
0.00038140113
0.00036884048
0.00032324808
0.00023909774
0.00011115773
2.5942489e-05
2.8484658e-06
1.3968399e-07
2.9221062e-09
2.8593319e-11
1.5934297e-12
5.5807999e-13
2.0371647e-13
7.0854857e-14
2.2937849e-14
6.8204599e-15
1.8471947e-15
4.5296543e-16
1.0008429e-16
1.9844459e-17
3.5159558e-18
5.5374953e-19
7.7053377e-20
9.4031265e-21
9.9724031e-22
9.0671659e-23
6.9562987e-24
4.4146891e-25
2.2544131e-26
8.3301353e-30
8.1788463e-34
1.6165657e-38
4.7509788e-44
0.00038631062
0.00037008454
0.00034698935
0.00035224038
0.0003743518
0.00039058251
0.00040997778
0.00041755055
0.00038791371
0.00033578478
0.0003002084
0.00029591156
0.00029526486
0.0002596137
0.0001866316
0.00011565463
6.2470383e-05
0.00035217311
0.00028898297
0.00026958158
0.00031094125
0.00036908862
0.00039859096
0.00038713169
0.00034841822
0.00028447193
0.00016776428
5.498241e-05
9.1833537e-06
7.3660897e-07
2.6925954e-08
4.3157506e-10
7.390279e-12
1.9833218e-12
7.931917e-13
2.9895557e-13
1.0418879e-13
3.3303228e-14
9.7105808e-15
2.5716538e-15
6.1621663e-16
1.3311198e-16
2.5831404e-17
4.4855683e-18
6.9353354e-19
9.4910783e-20
1.1412878e-20
1.1946725e-21
1.0735899e-22
8.1571544e-24
5.1366908e-25
2.8073704e-28
4.4116093e-32
1.5673742e-36
1.0198479e-41
1.3286662e-47
0.00036854448
0.00039246897
0.00036575768
0.00033500804
0.00033657555
0.00036111611
0.00038282764
0.00040349043
0.00040564746
0.00036735148
0.00030708217
0.00026551493
0.00025641276
0.00024480505
0.00019373692
0.00011898068
5.9934385e-05
2.5225047e-05
0.00030850271
0.00028627917
0.00032481628
0.00038292853
0.00041176665
0.00039851004
0.00036328192
0.00031495563
0.00022494729
9.2805824e-05
2.1833365e-05
2.6711606e-06
1.6002387e-07
4.4466766e-09
6.649499e-11
6.9238794e-12
2.9083303e-12
1.1750874e-12
4.371977e-13
1.491671e-13
4.653229e-14
1.3229944e-14
3.4174796e-15
7.9953952e-16
1.6887426e-16
3.2096187e-17
5.4682881e-18
8.311063e-19
1.1202883e-19
1.3296449e-20
1.3758228e-21
1.2243357e-22
9.2308747e-24
7.1676054e-27
1.6938112e-30
9.7147534e-35
1.1006829e-39
2.7944618e-45
2.4069151e-51
0.00032647559
0.00038253731
0.00039558439
0.00035952667
0.00032134284
0.00031890723
0.00034553436
0.00037192369
0.00039313991
0.00038932603
0.00034185591
0.00027308956
0.00022638022
0.00020905811
0.00018303147
0.0001239317
6.2101356e-05
2.395269e-05
7.4943513e-06
0.00030128281
0.00033598792
0.00039303786
0.00042106008
0.00040452135
0.00036966373
0.00033256596
0.00026815383
0.00014602228
4.0947369e-05
7.0729668e-06
6.4779909e-07
2.9584107e-08
6.6459771e-10
2.7075309e-11
1.0081298e-11
4.3151099e-12
1.7000573e-12
6.1522472e-13
2.0411903e-13
6.1956416e-14
1.7157412e-14
4.3224963e-15
9.8786652e-16
2.0419743e-16
3.8055312e-17
6.3702932e-18
9.5326769e-19
1.2678348e-19
1.4880095e-20
1.5244961e-21
1.3461709e-22
1.4437962e-25
4.930949e-29
4.304333e-33
7.7438296e-38
3.1299304e-43
4.5266928e-49
3.4055675e-55
0.00031466127
0.00034278129
0.00039334447
0.00039601659
0.00035119001
0.00030586779
0.00029911901
0.00032675828
0.00035711086
0.00037815296
0.00036776995
0.00030986502
0.00023305944
0.00018029614
0.00015302129
0.00011657552
6.5321461e-05
2.4938876e-05
6.9803664e-06
1.5828627e-06
0.00034411398
0.00039879918
0.00042578893
0.00040533842
0.00036918379
0.00034034268
0.00029845002
0.00019799925
7.6027891e-05
1.4609646e-05
1.8969407e-06
1.330198e-07
4.8049509e-09
1.4342792e-10
3.3658554e-11
1.4945527e-11
6.1730296e-12
2.3475669e-12
8.2349414e-13
2.6537251e-13
7.8359496e-14
2.1142739e-14
5.1985714e-15
1.1617397e-15
2.3530219e-16
4.3062436e-17
7.0942847e-18
1.0471359e-18
1.3767379e-19
1.6006495e-20
1.6271135e-21
2.3598331e-24
1.1328154e-27
1.4497251e-31
3.9399374e-36
2.3722695e-41
4.8159443e-47
5.5260086e-53
3.9965267e-59
0.00034941412
0.00032637102
0.00035726736
0.00040104868
0.00039378983
0.00034077625
0.00028832902
0.00027671438
0.00030432834
0.00033771067
0.00035794194
0.00033996292
0.00026993787
0.00018489063
0.00012810055
9.5075406e-05
6.0906552e-05
2.6628375e-05
7.2952248e-06
1.4346262e-06
2.3672436e-07
0.00039959091
0.00042470878
0.0004006524
0.00036267502
0.00034065392
0.00031724123
0.00024447686
0.00011855785
3.229735e-05
4.2799913e-06
4.3005248e-07
2.4241992e-08
9.2010647e-10
1.1889859e-10
4.9720298e-11
2.1264268e-11
8.4076149e-12
3.0739104e-12
1.0447767e-12
3.2716341e-13
9.4037729e-14
2.4741547e-14
5.9434456e-15
1.3003733e-15
2.584542e-16
4.6524814e-17
7.5572658e-18
1.1024787e-18
1.4359402e-19
1.65689e-20
3.1950035e-23
2.1112005e-26
3.8590122e-30
1.5352895e-34
1.3301272e-39
3.6644284e-45
5.166308e-51
5.77776e-57
3.910187e-63
0.00039540274
0.00035183978
0.0003368982
0.00036974281
0.00040575388
0.00038893944
0.00032788968
0.00026840499
0.00025154816
0.00027795295
0.00031321541
0.00033173772
0.00030305795
0.00021804774
0.00013022236
7.6970256e-05
4.7875993e-05
2.4744671e-05
7.931524e-06
1.503354e-06
2.0681221e-07
2.5422296e-08
0.00041713862
0.00039004833
0.00035079869
0.00033512214
0.00032790734
0.00028114422
0.00016582925
5.7920586e-05
1.1335856e-05
1.0749275e-06
9.4376733e-08
6.5827121e-09
7.2048013e-10
1.8473262e-10
7.1705281e-11
2.878025e-11
1.0818333e-11
3.8049222e-12
1.2550723e-12
3.8223568e-13
1.0703978e-13
2.7490209e-14
6.4597542e-15
1.3857386e-15
2.7071543e-16
4.8022422e-17
7.7067665e-18
1.1136221e-18
1.440242e-19
3.6406179e-22
3.2568616e-25
8.339433e-29
4.753997e-33
5.7995652e-38
2.1381355e-43
3.6550869e-49
4.6275501e-55
5.3143986e-61
3.6104153e-67
0.00040280523
0.00038642821
0.00035263055
0.00034656463
0.00037989166
0.0004073426
0.00038116578
0.00031218097
0.0002457781
0.00022347561
0.00024738562
0.000282831
0.00029730905
0.00025075886
0.00015641954
7.7143871e-05
3.6938413e-05
1.8660647e-05
7.3774962e-06
1.6650068e-06
2.1698398e-07
2.1334164e-08
1.9979787e-09
0.00037370435
0.00033436454
0.00032523293
0.00033288746
0.0003096554
0.00021356166
9.1429968e-05
2.3422426e-05
3.4496494e-06
3.3874412e-07
5.5773806e-08
1.004622e-08
1.6654974e-09
3.2648083e-10
9.8944645e-11
3.638399e-11
1.3053226e-11
4.4474318e-12
1.4271166e-12
4.2309572e-13
1.1555158e-13
2.9002805e-14
6.6760883e-15
1.4064904e-15
2.7057382e-16
4.7394229e-17
7.5309907e-18
1.0804109e-18
3.5358952e-21
4.2234716e-24
1.4919578e-27
1.1999858e-31
2.03298e-36
9.911197e-42
2.0928723e-47
2.8428619e-53
3.7845724e-59
4.8012477e-65
3.3035784e-71
0.00035203085
0.00038248602
0.0003745268
0.00035269928
0.00035489779
0.00038723906
0.00040573994
0.00037008569
0.00029328094
0.00022021979
0.00019269363
0.0002124401
0.00024810433
0.00024867704
0.00018431739
9.4082404e-05
3.5992233e-05
1.3459592e-05
5.3455533e-06
1.5532695e-06
2.4385052e-07
2.1996682e-08
1.6183269e-09
1.1760111e-10
0.00031444492
0.00031225163
0.00033416913
0.00033279816
0.00025900376
0.0001318829
4.1776292e-05
8.3532271e-06
1.4019189e-06
4.3176345e-07
1.3309719e-07
2.9279367e-08
4.6237784e-09
5.8203598e-10
1.252926e-10
4.2698557e-11
1.4785445e-11
4.9203025e-12
1.5357815e-12
4.4366367e-13
1.1830896e-13
2.9060839e-14
6.5634673e-15
1.3604921e-15
2.5825304e-16
4.4766519e-17
7.0599576e-18
2.9578325e-20
4.6607206e-23
2.2427871e-26
2.5153654e-30
5.8673834e-35
3.7453652e-40
9.8596589e-46
1.4908856e-51
1.983917e-57
3.2174123e-63
4.3871374e-69
2.9646477e-75
0.00029206965
0.00032604143
0.0003589773
0.00036154222
0.00035202109
0.0003612908
0.00039128269
0.00040035394
0.00035551985
0.00027053151
0.00019183758
0.00016004746
0.00017815687
0.00020324473
0.00018475332
0.0001144906
4.4414409e-05
1.2471523e-05
3.5581258e-06
1.0871693e-06
2.278012e-07
2.4849042e-08
1.6125211e-09
9.2175153e-11
5.2399367e-12
0.00029729051
0.00033323056
0.00035256395
0.00030189118
0.00017751129
6.7189404e-05
1.7206149e-05
4.2674251e-06
2.1203578e-06
1.1343669e-06
3.7577707e-07
8.4708664e-08
1.0567618e-08
8.3934805e-10
1.4180376e-10
4.6690629e-11
1.5790976e-11
5.1464636e-12
1.5640177e-12
4.4074722e-13
1.1490751e-13
2.7665576e-14
6.1417549e-15
1.2551239e-15
2.3561578e-16
4.0515746e-17
2.149997e-19
4.4205047e-22
2.8660919e-25
4.440148e-29
1.4188003e-33
1.1780209e-38
3.8627947e-44
6.7842598e-50
8.96008e-56
1.5024293e-61
2.8775883e-67
3.96509e-73
2.5991965e-79
0.00028125172
0.00026775913
0.00029786688
0.00033409734
0.00034798418
0.00034994017
0.00036487633
0.00039132265
0.000391202
0.000336303
0.00024382122
0.0001603398
0.00012640317
0.00013783841
0.00014803425
0.00011610722
5.6049044e-05
1.5446675e-05