/*--------------------------------*- C++ -*----------------------------------*\
| =========                 |                                                 |
| \\      /  F ield         | OpenFOAM: The Open Source CFD Toolbox           |
|  \\    /   O peration     | Version:  5.0                                   |
|   \\  /    A nd           | Web:      www.OpenFOAM.org                      |
|    \\/     M anipulation  |                                                 |
\*---------------------------------------------------------------------------*/
FoamFile
{
    version     2.0;
    format      ascii;
    class       volScalarField;
    location    "160";
    object      nuTilda_0;
}
// * * * * * * * * * * * * * * * * * * * * * * * * * * * * * * * * * * * * * //

dimensions      [0 2 -1 0 0 0 0];

internalField   nonuniform List<scalar> 
9520
(
4.7025704e-33
4.9956245e-31
4.574383e-33
2.597912e-29
4.8602531e-31
4.4437272e-33
8.7836817e-28
2.5273467e-29
4.722306e-31
4.3223018e-33
2.1735728e-26
8.5437819e-28
2.4556905e-29
4.5955763e-31
4.2182342e-33
4.2070459e-25
2.1137623e-26
8.3015415e-28
2.3906743e-29
4.489304e-31
4.1333724e-33
6.6558913e-24
4.0900574e-25
2.0538167e-26
8.0843492e-28
2.3371416e-29
4.4041037e-31
4.0606292e-33
8.8619874e-23
6.4688916e-24
3.9738507e-25
2.0006409e-26
7.9079462e-28
2.2945232e-29
4.3291671e-31
3.9860755e-33
1.0121544e-21
8.6117187e-23
6.2849354e-24
3.871808e-25
1.9577897e-26
7.7671588e-28
2.2555461e-29
4.2465627e-31
3.8931442e-33
1.0062642e-20
9.8356459e-22
8.3678447e-23
6.1250095e-24
3.7898162e-25
1.9231677e-26
7.6323228e-28
2.2096204e-29
4.1383892e-31
3.7709219e-33
8.832192e-20
9.7797803e-21
9.5591572e-22
8.1578242e-23
5.9964468e-24
3.7221497e-25
1.8883624e-26
7.4646112e-28
2.1478029e-29
3.9969445e-31
3.6226709e-33
7.0924931e-19
8.581172e-20
9.5072539e-21
9.3224727e-22
7.9886386e-23
5.8873806e-24
3.6507114e-25
1.8433723e-26
7.236331e-28
2.0685292e-29
3.8325184e-31
3.4699419e-33
6.4750752e-18
6.8407552e-19
8.3397883e-20
9.2733665e-21
9.1311684e-22
7.8408506e-23
5.766531e-24
3.5560358e-25
1.7822707e-26
6.9512209e-28
1.9806514e-29
3.6744839e-31
3.3478572e-33
1.2830406e-16
5.9221773e-18
6.6052662e-19
8.1290275e-20
9.0835742e-21
8.9597898e-22
7.6695102e-23
5.6037056e-24
3.4290672e-25
1.7082652e-26
6.6505623e-28
1.9021723e-29
3.5624388e-31
3.2913648e-33
4.8046044e-15
1.063714e-16
5.4213773e-18
6.3953154e-19
7.9581703e-20
8.9115043e-21
8.7534727e-22
7.4355722e-23
5.3893035e-24
3.2805678e-25
1.6340913e-26
6.4022503e-28
1.8538884e-29
3.5292768e-31
3.3177476e-33
1.7608064e-13
3.9817755e-15
8.4319855e-17
4.9627365e-18
6.2316122e-19
7.8068094e-20
8.6987615e-21
8.4680409e-22
7.1332596e-23
5.1479986e-24
3.1393742e-25
1.5776915e-26
6.2741507e-28
1.8498211e-29
3.5833245e-31
3.4141665e-33
5.2270525e-12
1.5155738e-13
2.9845807e-15
6.2546445e-17
4.6327851e-18
6.1030352e-19
7.6177598e-20
8.3988614e-21
8.1048819e-22
6.8061896e-23
4.9312097e-24
3.0411273e-25
1.5545454e-26
6.3007651e-28
1.8887234e-29
3.698843e-31
3.5373571e-33
1.2031523e-10
4.6666258e-12
1.1409837e-13
1.9269022e-15
4.7322747e-17
4.4380278e-18
5.952384e-19
7.3429369e-20
8.020486e-21
7.726839e-22
6.5298067e-23
4.7948542e-24
3.0119124e-25
1.5695538e-26
6.4587315e-28
1.9513054e-29
3.8208153e-31
3.6265134e-33
2.101225e-09
1.1068408e-10
3.5454857e-12
7.2105708e-14
1.2101343e-15
3.9896974e-17
4.2899628e-18
5.7267436e-19
6.9949699e-20
7.6406555e-21
7.4276401e-22
6.375849e-23
4.7720285e-24
3.0535623e-25
1.6123535e-26
6.6652597e-28
2.0053693e-29
3.8827516e-31
3.6240563e-33
2.7166088e-08
1.9770582e-09
8.4885522e-11
2.2448156e-12
4.516842e-14
9.1718541e-16
3.6739293e-17
4.0965542e-18
5.4365683e-19
6.6566212e-20
7.3607635e-21
7.2839743e-22
6.3753048e-23
4.8525688e-24
3.1377639e-25
1.6589422e-26
6.8036255e-28
2.0169514e-29
3.8301102e-31
3.4960317e-33
2.5488206e-07
2.5984912e-08
1.5314583e-09
5.4288256e-11
1.4792201e-12
3.7255257e-14
8.5084915e-16
3.3687114e-17
3.8460716e-18
5.1620328e-19
6.426209e-20
7.2501508e-21
7.3142078e-22
6.4964413e-23
4.9795019e-24
3.2130814e-25
1.6797172e-26
6.7657992e-28
1.9626638e-29
3.6402211e-31
3.2448986e-33
1.6981553e-06
2.4578329e-07
2.0528386e-08
1.0011329e-09
3.8202029e-11
1.3841023e-12
3.8662751e-14
7.5576977e-16
2.9144622e-17
3.6156086e-18
4.9907243e-19
6.3576038e-20
7.3081256e-21
7.4610522e-22
6.6484911e-23
5.0662712e-24
3.223288e-25
1.6507255e-26
6.4932257e-28
1.838504e-29
3.331892e-31
2.9108824e-33
8.0195895e-06
1.6421234e-06
1.9832867e-07
1.4066213e-08
7.5903532e-10
4.0109584e-11
1.5855501e-12
3.5710035e-14
5.2599748e-16
2.4956299e-17
3.4846208e-18
4.9590127e-19
6.4317086e-20
7.4562539e-21
7.6060199e-22
6.7125265e-23
5.029205e-24
3.1294616e-25
1.5631114e-26
5.9998932e-28
1.662404e-29
2.9620995e-31
2.5621606e-33
2.6900733e-05
7.7516827e-06
1.3608379e-06
1.4398502e-07
1.1600034e-08
8.6861281e-10
4.9174482e-11
1.5125678e-12
2.2966116e-14
3.0142629e-16
2.271945e-17
3.4727535e-18
5.0357413e-19
6.559747e-20
7.5637698e-21
7.6131936e-22
6.5880715e-23
4.8215091e-24
2.9260959e-25
1.4269568e-26
5.3720865e-28
1.4701347e-29
2.6115866e-31
2.2776247e-33
6.6227699e-05
2.5957076e-05
6.577323e-06
1.0467018e-06
1.2692661e-07
1.3638695e-08
1.1030889e-09
4.7679214e-11
9.5466471e-13
1.018305e-14
1.8431098e-16
2.2225475e-17
3.5407748e-18
5.13381e-19
6.6162986e-20
7.4993107e-21
7.3845723e-22
6.2353618e-23
4.4539276e-24
2.644618e-25
1.2690858e-26
4.7469684e-28
1.3061959e-29
2.3644492e-31
2.1277031e-33
0.00012668307
6.3966144e-05
2.2541198e-05
5.3227018e-06
9.6754813e-07
1.5034603e-07
1.7417225e-08
1.0738815e-09
2.9732358e-11
3.9539434e-13
3.7890039e-15
1.4529405e-16
2.262787e-17
3.6098859e-18
5.1458401e-19
6.4924838e-20
7.1863729e-21
6.9027531e-22
5.6949786e-23
3.993676e-24
2.345279e-25
1.1261613e-26
4.2775143e-28
1.2126123e-29
2.287834e-31
2.1583346e-33
0.00020030305
0.00012270982
5.6739791e-05
1.9061021e-05
5.1001792e-06
1.1426435e-06
1.8972314e-07
1.6897474e-08
6.6641655e-10
1.1938939e-11
1.2833496e-13
1.6918498e-15
1.3845441e-16
2.3057568e-17
3.5950996e-18
4.9933967e-19
6.1436295e-20
6.6376818e-21
6.242912e-22
5.0773864e-23
3.5459596e-24
2.1013923e-25
1.0352722e-26
4.094179e-28
1.2187569e-29
2.4166614e-31
2.3812504e-33
0.00027116439
0.00019416227
0.00011074454
4.9547846e-05
1.8731326e-05
5.9787523e-06
1.4117293e-06
1.8265771e-07
1.0532666e-08
2.6786336e-10
3.7789658e-12
4.7747957e-14
1.2264036e-15
1.3939267e-16
2.2807138e-17
3.4464745e-18
4.6626201e-19
5.6094229e-20
5.955067e-21
5.550864e-22
4.5317228e-23
3.2262049e-24
1.9804652e-25
1.024615e-26
4.27311e-28
1.3345078e-29
2.7459564e-31
2.7715701e-33
0.00033044401
0.00026143363
0.00017645872
9.8561414e-05
4.9409982e-05
2.172263e-05
7.181759e-06
1.3477285e-06
1.1546297e-07
4.397175e-09
9.1772462e-11
1.5789629e-12
3.5375573e-14
1.2290517e-15
1.3638699e-16
2.1567197e-17
3.1721746e-18
4.2090193e-19
5.001343e-20
5.2982696e-21
5.0015654e-22
4.2063587e-23
3.1302466e-24
2.0270666e-25
1.1064932e-26
4.8174705e-28
1.5477794e-29
3.2313054e-31
3.2722009e-33
0.00038110435
0.00031780301
0.00023879456
0.00015851851
9.8613438e-05
5.6533018e-05
2.5324983e-05
6.7911276e-06
8.7117739e-07
5.122151e-08
1.695202e-09
4.5746584e-11
1.560488e-12
4.2565026e-14
1.1885245e-15
1.2572592e-16
1.9527979e-17
2.8306877e-18
3.7359348e-19
4.4678045e-20
4.8398375e-21
4.7530206e-22
4.2104648e-23
3.3095365e-24
2.251299e-25
1.2739534e-26
5.654493e-28
1.8264715e-29
3.796629e-31
3.8038245e-33
0.00042497997
0.00036552064
0.00029154689
0.00021742087
0.00015835098
0.00011118554
6.4071682e-05
2.3754491e-05
4.5188779e-06
4.154176e-07
2.2362734e-08
1.0100834e-09
5.5312513e-11
2.174323e-12
4.3099365e-14
9.3991154e-16
1.1049201e-16
1.7209118e-17
2.5052894e-18
3.3621655e-19
4.1533784e-20
4.7202275e-21
4.9051035e-22
4.584902e-23
3.7567997e-24
2.6249497e-25
1.5015072e-26
6.6480469e-28
2.1242792e-29
4.3477684e-31
4.2788883e-33
0.00046252076
0.0004065224
0.00033623781
0.00026791174
0.00021786243
0.00017614913
0.00012309208
5.9859583e-05
1.6383377e-05
2.3351109e-06
2.0691999e-07
1.5949944e-08
1.3722968e-09
8.2148719e-11
2.280183e-12
2.7366523e-14
6.647594e-16
9.5496695e-17
1.5204973e-17
2.2786082e-18
3.1911404e-19
4.1621744e-20
5.01081e-21
5.4714699e-22
5.288688e-23
4.4047963e-24
3.0859235e-25
1.749781e-26
7.6243205e-28
2.3892678e-29
4.789803e-31
4.6173899e-33
0.00049257824
0.00044087794
0.00037535327
0.00031076399
0.0002687273
0.00023951618
0.00019225902
0.0001153472
4.3025063e-05
9.2300852e-06
1.3345121e-06
1.7364483e-07
2.3011819e-08
2.0884316e-09
8.7410405e-11
1.4099554e-12
1.0857087e-14
5.0421722e-16
8.4170925e-17
1.4015661e-17
2.2136134e-18
3.2860459e-19
4.5298722e-20
5.691681e-21
6.3708392e-22
6.2039055e-23
5.1385437e-24
3.5502669e-25
1.9732315e-26
8.405453e-28
2.5737632e-29
5.0448995e-31
4.7614408e-33
0.00051538225
0.00046831154
0.00040802957
0.00034891583
0.00031107966
0.00029163165
0.00025699406
0.00018061712
8.6514387e-05
2.6439243e-05
6.0463683e-06
1.2845667e-06
2.5731874e-07
3.5025505e-08
2.2320165e-09
5.4438373e-11
4.8381087e-13
3.8704627e-15
4.3022229e-16
7.8798156e-17
1.3960117e-17
2.3398999e-18
3.6522577e-19
5.2097332e-20
6.650125e-21
7.4403054e-22
7.1586445e-23
5.8186702e-24
3.9293818e-25
2.1293304e-26
8.8446101e-28
2.6436672e-29
5.0668006e-31
4.6853469e-33
0.00053165504
0.00048898539
0.00043457587
0.00038138744
0.00034802017
0.00033317418
0.0003076055
0.00024095099
0.00014022689
5.754153e-05
1.959287e-05
6.4754927e-06
1.9145596e-06
3.8511221e-07
3.7344602e-08
1.4086621e-09
1.8765587e-11
1.0351915e-13
2.2246094e-15
4.0784613e-16
8.0552593e-17
1.5122087e-17
2.6448746e-18
4.2309985e-19
6.0777253e-20
7.7015356e-21
8.4689093e-22
7.9633066e-23
6.3106014e-24
4.1486636e-25
2.1873322e-26
8.8551767e-28
2.5847799e-29
4.8484725e-31
4.3987322e-33
0.00054156461
0.0005037199
0.00045513044
0.00040834087
0.00037946603
0.00036779775
0.00034667489
0.00028862696
0.00019287467
9.971292e-05
4.6948333e-05
2.2564667e-05
9.5481925e-06
2.7805073e-06
4.0756158e-07
2.3994754e-08
5.0158051e-10
4.0146082e-12
2.3240887e-14
1.9817335e-15
4.2787652e-16
8.9246068e-17
1.7316723e-17
3.0723495e-18
4.9084173e-19
6.9575067e-20
8.6292363e-21
9.2422278e-22
8.4456758e-23
6.5079055e-24
4.1606126e-25
2.1342673e-26
8.426015e-28
2.404558e-29
4.4209555e-31
3.9418398e-33
0.00054593674
0.00051296532
0.00047051334
0.0004300074
0.00040554902
0.00039642666
0.00037785324
0.0003257218
0.00023763771
0.00014540223
8.7194342e-05
5.6206555e-05
3.2492099e-05
1.3320637e-05
2.9075997e-06
2.6778611e-07
8.9654809e-09
1.1788581e-10
7.4751381e-13
1.0780437e-14
2.1090607e-15
4.8401773e-16
1.0319232e-16
2.0096838e-17
3.532531e-18
5.540079e-19
7.6602499e-20
9.227593e-21
9.5817786e-22
8.4941666e-23
6.3613646e-24
3.9558075e-25
1.9762914e-26
7.6188449e-28
2.1289575e-29
3.8434764e-31
3.3747931e-33
0.00054636808
0.0005178346
0.0004812272
0.00044716377
0.00042654926
0.00041958391
0.00040292891
0.00035615947
0.00027405434
0.00018792449
0.0001332107
0.00010584922
7.8329538e-05
4.3271975e-05
1.3721795e-05
1.9610586e-06
1.0631281e-07
2.3506464e-09
2.414991e-11
1.5106935e-13
9.9584028e-15
2.4306338e-15
5.6383812e-16
1.1930633e-16
2.2840435e-17
3.9227712e-18
5.9851128e-19
8.0211018e-20
9.3497759e-21
9.4003749e-22
8.0835641e-23
5.8871161e-24
3.5639775e-25
1.7366956e-26
6.5491439e-28
1.7952899e-29
3.1892289e-31
2.7641122e-33
0.00054364993
0.00051977681
0.00048833612
0.00046018542
0.00044341533
0.00043768996
0.00042254161
0.00038063268
0.00030688458
0.00022420122
0.00017724232
0.00016150736
0.00014224911
9.9537962e-05
4.3898754e-05
9.5382821e-06
8.3648334e-07
3.1101694e-08
5.3888385e-10
4.5455764e-12
6.0509722e-14
1.1498093e-14
2.8506792e-15
6.4809866e-16
1.3374673e-16
2.4906924e-17
4.1529927e-18
6.1334136e-19
7.9409897e-20
8.9489306e-21
8.7125113e-22
7.2735856e-23
5.1571291e-24
3.0434685e-25
1.4492378e-26
5.3568941e-28
1.4437729e-29
2.5299895e-31
2.1702281e-33
0.00053835076
0.00051965116
0.00049390777
0.00046977051
0.0004562848
0.00045172016
0.00043717076
0.00040005206
0.00033451715
0.00025776124
0.0002156411
0.00021230549
0.00020965637
0.0001728608
9.9706378e-05
3.1593656e-05
4.4058482e-06
2.7149648e-07
7.9241593e-09
1.1285601e-10
1.0771409e-12
6.0537059e-14
1.3623787e-14
3.2547161e-15
7.1522672e-16
1.4298243e-16
2.5804105e-17
4.1634431e-18
5.9315683e-19
7.4148467e-20
8.0804598e-21
7.6246403e-22
6.188497e-23
4.278197e-24
2.4656257e-25
1.1499481e-26
4.176621e-28
1.1097919e-29
1.9242034e-31
1.6389843e-33
0.00051900224
0.00053698169
0.00049882336
0.00047739001
0.00046555333
0.00046166917
0.00044754922
0.00041465714
0.00035772809
0.00028754613
0.00024836922
0.00025399916
0.00026659988
0.00024485564
0.00017117539
7.4542208e-05
1.5845016e-05
1.5759821e-06
7.6472287e-08
1.9003251e-09
3.1925114e-11
9.7571429e-13
7.9195293e-14
1.5502752e-14
3.529306e-15
7.480395e-16
1.4474849e-16
2.5292374e-17
3.9325432e-18
5.4029057e-19
6.5236694e-20
6.8813117e-21
6.3023297e-22
4.9827359e-23
3.3652778e-24
1.8987054e-25
8.6998888e-27
3.1147912e-28
8.1902553e-30
1.4108096e-31
1.1983578e-33
0.00050260071
0.00052234804
0.00053902343
0.00048307492
0.00047228389
0.00046805912
0.00045392764
0.00042512544
0.00037686598
0.0003134929
0.0002770547
0.0002867351
0.00030894115
0.00030239782
0.00023975979
0.00013280062
4.0575968e-05
6.2089103e-06
4.9109399e-07
2.1613509e-08
7.5965881e-10
3.8777697e-11
1.8533185e-12
9.7364912e-14
1.6453733e-14
3.6009723e-15
7.385475e-16
1.3851626e-16
2.3328921e-17
3.4942506e-18
4.6320851e-19
5.4079593e-20
5.5301854e-21
4.9267925e-22
3.8047001e-23
2.5178328e-24
1.3959539e-25
6.3122529e-27
2.239157e-28
5.8600877e-30
1.0089875e-31
8.5988854e-34
0.0004864665
0.0005083009
0.00052394396
0.00053859865
0.00047626678
0.00047156702
0.00045701118
0.00043193346
0.0003924006
0.00033593789
0.00030194486
0.00031257422
0.00033920914
0.00034068264
0.00029258436
0.00019147024
7.8116604e-05
1.7368302e-05
2.1614545e-06
1.7122885e-07
1.2722917e-08
1.1833693e-09
8.2829023e-11
2.7903221e-12
9.7596759e-14
1.6220898e-14
3.4563477e-15
6.8879923e-16
1.247391e-16
2.0220641e-17
2.9196481e-18
3.7390865e-19
4.2288373e-20
4.2032265e-21
3.6556028e-22
2.7698548e-23
1.8055097e-24
9.9038454e-26
4.4547087e-27
1.5800955e-28
4.1563836e-30
7.2235247e-32
6.2318279e-34
0.0004771723
0.00048895674
0.00051174289
0.00052265715
0.00053577954
0.00047217971
0.00045732627
0.00043587017
0.00040474021
0.00035529359
0.00032342307
0.00033411051
0.00036094885
0.00036524252
0.00032764021
0.00023953708
0.0001208959
3.6539317e-05
6.8997107e-06
9.818633e-07
1.4571457e-07
2.2904911e-08
2.525971e-09
1.2809896e-10
2.6194846e-12
8.0655186e-14
1.5007483e-14
3.1332908e-15
6.0523687e-16
1.0546559e-16
1.6470337e-17
2.296137e-18
2.8476551e-19
3.1308058e-20
3.0397468e-21
2.5988549e-22
1.9492273e-23
1.2652501e-24
6.9606546e-26
3.1624904e-27
1.1403709e-28
3.0641436e-30
5.4523308e-32
4.8144372e-34
0.00046987402
0.00047443821
0.0004920226
0.00051206587
0.00051870219
0.00052945421
0.0004553633
0.00043780468
0.00041455825
0.00037181721
0.00034189344
0.00035190792
0.00037805546
0.00038311743
0.00035123358
0.0002752041
0.00016107366
6.2030117e-05
1.6978225e-05
4.2107149e-06
1.1268408e-06
2.7912031e-07
4.7338297e-08
3.8407677e-09
1.2060285e-10
1.4295555e-12
6.3657462e-14
1.3153215e-14
2.6824682e-15
4.991186e-16
8.3770598e-17
1.2630236e-17
1.705807e-18
2.0592323e-19
2.2176895e-20
2.1266404e-21
1.8146006e-22
1.372946e-23
9.0774797e-25
5.1384364e-26
2.4196432e-27
9.0825341e-29
2.5405756e-30
4.6881338e-32
4.2640668e-34
0.00045165664
0.00046401574
0.0004730482
0.00049346376
0.00050928795
0.00051142533
0.00051769948
0.00043860986
0.00042274264
0.00038582921
0.0003576373
0.00036664777
0.00039091105
0.0003957586
0.00036841592
0.00030471981
0.00019521879
9.0522542e-05
3.401233e-05
1.3587937e-05
5.8858334e-06
2.1702359e-06
5.491808e-07
7.0008201e-08
3.63449e-09
6.3800446e-11
5.1636121e-13
5.1728425e-14
1.093853e-14
2.1569841e-15
3.867738e-16
6.2718962e-17
9.1758522e-18
1.2102491e-18
1.4397393e-19
1.5465357e-20
1.5019076e-21
1.3199986e-22
1.0436524e-23
7.2874064e-25
4.3841104e-26
2.1929686e-27
8.6948452e-29
2.5445105e-30
4.8569815e-32
4.5170529e-34
0.00043929415
0.0004463657
0.00045801608
0.00047104274
0.00049235771
0.00050314262
0.00049902823
0.00049992395
0.00042898896
0.00039815334
0.00037101238
0.00037853813
0.0004007344
0.00040371082
0.00037994288
0.00032769243
0.00023267702
0.00011890334
5.7317407e-05
3.3185408e-05
2.097371e-05
1.0986398e-05
4.0123288e-06
7.8438078e-07
6.6301827e-08
2.0050265e-09
1.8174571e-11
2.2217387e-13
4.1415741e-14
8.5670661e-15
1.6317017e-15
2.8327677e-16
4.473642e-17
6.4334091e-18
8.4543755e-19
1.0204987e-19
1.1368803e-20
1.1710227e-21
1.1102666e-22
9.5286014e-24
7.2038606e-25
4.6468694e-26
2.4576062e-27
1.0152049e-28
3.053613e-30
5.922421e-32
5.5436019e-34
0.00043579502
0.00043787665
0.0004396605
0.00045091971
0.00046789631
0.00048805029
0.00049228816
0.00048115065
0.00047599035
0.00040890203
0.00038230597
0.00038792233
0.00040745081
0.00040826439
0.00038649117
0.0003448214
0.00026435471
0.00015310068
8.4399186e-05
6.2774547e-05
5.2661537e-05
3.7136595e-05
1.8883305e-05
5.4975737e-06
7.4130146e-07
3.8213159e-08
6.2032681e-10
3.152242e-12
1.4972324e-13
3.1500557e-14
6.3311585e-15
1.1724891e-15
1.9959489e-16
3.1340781e-17
4.5730394e-18
6.2587673e-19
8.0921454e-20
9.8803178e-21
1.1271353e-21
1.1770982e-22
1.0943286e-23
8.7919615e-25
5.9118772e-26
3.2092998e-27
1.3448192e-28
4.0682835e-30
7.8869912e-32
7.3457998e-34
0.0004184476
0.00043920923
0.00043426876
0.00043159277
0.00044256707
0.00046235273
0.00047968451
0.00047616588
0.00045776485
0.00044510161
0.00039162528
0.0003951566
0.00041166181
0.00040957203
0.00038907993
0.00035678859
0.00029131344
0.00018655245
0.00011227538
9.8065664e-05
9.8360756e-05
8.7427325e-05
5.8899489e-05
2.4670447e-05
5.1762404e-06
4.4628443e-07
1.3074433e-08
1.106037e-10
7.687851e-13
1.0837986e-13
2.27507e-14
4.4825279e-15
8.2347373e-16
1.4197019e-16
2.3236998e-17
3.6527186e-18
5.5400149e-19
8.0433948e-20
1.0961362e-20
1.367164e-21
1.5205804e-22
1.4709452e-23
1.2086428e-24
8.2063338e-26
4.4629358e-27
1.8641911e-28
5.6042825e-30
1.0776609e-31
9.9430139e-34
0.00039926345
0.00042578289
0.0004398624
0.00042832193
0.00042150798
0.00043214937
0.00045342632
0.00046648804
0.00045478657
0.00042803054
0.00040740283
0.00040016678
0.00041353964
0.00040834498
0.00038850894
0.00036452361
0.00031371823
0.00021803568
0.00014121712
0.00012868086
0.0001487493
0.00015298584
0.00012779351
7.3165225e-05
2.3143451e-05
3.2624563e-06
1.6864023e-07
2.7479062e-09
1.6612796e-11
3.7634342e-13
7.6340845e-14
1.5964949e-14
3.1782942e-15
6.0743767e-16
1.1300851e-16
2.0640137e-17
3.6823688e-18
6.2987471e-19
1.0066123e-19
1.4648783e-20
1.8990689e-21
2.1519798e-22
2.0941898e-23
1.7171426e-24
1.1578919e-25
6.2400561e-27
2.5803902e-28
7.6777939e-30
1.4614151e-31
1.3350066e-33
0.00040311154
0.00040512453
0.00043076876
0.00043787648
0.00041985529
0.00040930182
0.0004190243
0.00044050993
0.00044818979
0.00042727523
0.00039197762
0.00036320079
0.00041307122
0.00040467143
0.00038548212
0.00036909218
0.00033178218
0.00024709486
0.00016960408
0.00015687967
0.00019066472
0.0002173285
0.00020746833
0.00015135514
6.8660971e-05
1.5336779e-05
1.3633494e-06
4.166878e-08
4.6802822e-10
2.8602189e-12
2.4346151e-13
5.348145e-14
1.161952e-14
2.4923638e-15
5.332562e-16
1.1357078e-16
2.3635445e-17
4.6772455e-18
8.5726229e-19
1.4238939e-19
2.1070076e-20
2.7391262e-21
3.0877121e-22
2.9770931e-23
2.4120203e-24
1.6061044e-25
8.5497297e-27
3.4946722e-28
1.0287147e-29
1.9389481e-31
1.7553657e-33
0.00041018568
0.00040396642
0.00040950428
0.00043341278
0.00043326278
0.00040909053
0.00039445766
0.0004031869
0.00042311515
0.00042402985
0.00039348923
0.00035003033
0.00031403572
0.00039873306
0.0003804399
0.00037151933
0.00034617112
0.00027345031
0.00019672362
0.00018292222
0.00022168556
0.00026875071
0.00027550082
0.00023523981
0.00014303817
4.8163588e-05
7.1122939e-06
3.9343261e-07
8.4028943e-09
7.0056414e-11
9.0710139e-13
1.7044922e-13
4.0735846e-14
9.9229188e-15
2.4540317e-15
6.0509058e-16
1.4444849e-16
3.2411654e-17
6.6799855e-18
1.2441626e-18
2.0682522e-19
3.0370138e-20
3.9008805e-21
4.3369175e-22
4.1224544e-23
3.2914861e-24
2.1621203e-25
1.1368046e-26
4.5954708e-28
1.339573e-29
2.5032585e-31
1.3989105e-35
0.00039056959
0.0004045648
0.00040270371
0.0004126943
0.00043362576
0.00042618521
0.00039557456
0.00037657628
0.00038397418
0.00040038856
0.00039371675
0.00035386388
0.00030286741
0.00025676993
0.00037392996
0.00037246278
0.00035795873
0.0002969248
0.00022239276
0.00020667061
0.00024810029
0.00030084405
0.00032479614
0.0002998732
0.00022423284
0.00010686817
2.4855136e-05
2.3863036e-06
9.3032938e-08
1.4468078e-09
1.0361296e-11
5.3669485e-13
1.3838694e-13
3.8550136e-14
1.097319e-14
3.0854303e-15
8.2869536e-16
2.0708635e-16
4.7279259e-17
9.7447702e-18
1.797909e-18
2.9466559e-19
4.2576525e-20
5.3794025e-21
5.8864669e-22
5.5107066e-23
4.3369474e-24
2.8124846e-25
1.4621526e-26
5.8531733e-28
1.6920038e-29
2.2172226e-33
5.0702281e-38
0.00036634109
0.00038012889
0.00039607296
0.00039996341
0.00041437351
0.00043125345
0.00041630071
0.00037889707
0.00035535524
0.00036022778
0.00037204642
0.00035729157
0.00030781857
0.00024741478
0.00018998844
0.00037243879
0.00036810832
0.00031784317
0.00024651758
0.00022849907
0.00027032928
0.00032705163
0.00035574143
0.00034185028
0.00028691342
0.00017892396
6.1434067e-05
9.6322938e-06
6.5485561e-07
1.8598881e-08
2.1631012e-10
2.4179001e-12
4.5952266e-13
1.4596448e-13
4.7249173e-14
1.4880962e-14
4.4190165e-15
1.2121008e-15
3.0307597e-16
6.8471394e-17
1.3890043e-17
2.5166054e-18
4.0483911e-19
5.7446075e-20
7.1356849e-21
7.6876604e-22
7.091647e-23
5.5078719e-24
3.5311269e-25
1.8179153e-26
7.2180984e-28
1.6718982e-31
9.0453807e-36
7.5666e-41
0.00037135896
0.00035732421
0.00036761175
0.00038585984
0.00039648154
0.0004138969
0.00042609983
0.00040316259
0.00035885971
0.00033014282
0.00033142077
0.00033757091
0.00031334693
0.00025269187
0.00018209234
0.00012035287
0.00037775252
0.00033651608
0.00026914277
0.00024865498
0.00028960676
0.00034780809
0.00037955827
0.00036912255
0.00032484381
0.00024235814
0.00011472175
2.7255449e-05
3.0353974e-06
1.5043174e-07
3.1708025e-09
3.0798547e-11
1.5607029e-12
5.3547273e-13
1.9402309e-13
6.7307089e-14
2.1789113e-14
6.4873358e-15
1.7603476e-15
4.3260577e-16
9.579847e-17
1.903615e-17
3.379789e-18
5.3333917e-19
7.4343712e-20
9.0863759e-21
9.6487327e-22
8.780877e-23
6.7409892e-24
4.2796124e-25
2.1856182e-26
7.9750262e-30
7.7301314e-34
1.5114919e-38
4.4659118e-44
0.00038609361
0.00036865235
0.00034657778
0.00035345702
0.00037549104
0.00039131626
0.00041080753
0.0004175435
0.00038673904
0.00033469183
0.00030029023
0.00029703415
0.00029621481
0.00025971459
0.00018633203
0.00011557643
6.2544824e-05
0.00035415602
0.0002903046
0.0002672272
0.00030634202
0.00036516258
0.00039716157
0.0003879276
0.00035010535
0.00028719272
0.00017231705
5.7557626e-05
9.7641826e-06
7.9261406e-07
2.9221614e-08
4.7007526e-10
7.4760559e-12
1.8940769e-12
7.5418592e-13
2.8419652e-13
9.9193002e-14
3.1776582e-14
9.2885053e-15
2.4661598e-15
5.9242329e-16
1.2828034e-16
2.4950343e-17
4.3417403e-18
6.7258915e-19
9.2201366e-20
1.1103208e-20
1.1635604e-21
1.046446e-22
7.9548228e-24
5.0102706e-25
2.7037749e-28
4.1931786e-32
1.4709542e-36
9.5225026e-42
1.2730609e-47
0.00037034465
0.00039184829
0.00036397671
0.00033434807
0.00033782324
0.00036254762
0.00038387683
0.0004043911
0.0004055351
0.00036604363
0.00030591549
0.00026560236
0.00025751562
0.00024567624
0.00019375688
0.00011877755
5.9878982e-05
2.5262656e-05
0.00030999986
0.00028426547
0.00032050838
0.00037928486
0.00041081113
0.00039986042
0.00036512109
0.00031721561
0.00022917866
9.6786189e-05
2.3155666e-05
2.8710733e-06
1.7368044e-07
4.8552693e-09
7.0965693e-11
6.6217063e-12
2.7642136e-12
1.11882e-12
4.1735844e-13
1.4281289e-13
4.4681221e-14
1.2740191e-14
3.3000717e-15
7.7409966e-16
1.6390344e-16
3.1222514e-17
5.3305443e-18
8.1168413e-19
1.0958798e-19
1.3024284e-20
1.3489379e-21
1.2011624e-22
9.0590697e-24
6.9452864e-27
1.6195709e-30
9.1641252e-35
1.0278709e-39
2.6291722e-45
2.3747897e-51
0.00032812138
0.00038410064
0.00039459724
0.00035742889
0.00032045503
0.000320151
0.00034725341
0.00037329075
0.00039412278
0.00038911423
0.00034042908
0.0002718863
0.00022649603
0.00021009371
0.00018374002
0.00012394365
6.1966604e-05
2.3925319e-05
7.5088479e-06
0.00029968089
0.00033204433
0.00038972367
0.00042064087
0.00040645762
0.00037173564
0.00033441074
0.00027168243
0.00015101535
4.3301456e-05
7.5906695e-06
7.0300287e-07
3.2337931e-08
7.2389957e-10
2.6522473e-11
9.5816892e-12
4.1150066e-12
1.6275229e-12
5.9105291e-13
1.9675573e-13
5.9911084e-14
1.6640929e-14
4.2042961e-15
9.634134e-16
1.9963409e-16
3.7288768e-17
6.2546383e-18
9.3762554e-19
1.2489133e-19
1.4675614e-20
1.5047039e-21
1.3292973e-22
1.4076953e-25
4.7439172e-29
4.0839923e-33
7.2574104e-38
2.9229762e-43
4.3451733e-49
3.4544172e-55
0.00031352684
0.00034456695
0.00039461522
0.00039468998
0.00034879956
0.00030475756
0.000300347
0.00032875377
0.00035879063
0.00037922455
0.00036746535
0.00030832217
0.00023188345
0.00018044169
0.00015391167
0.00011708212
6.5320334e-05
2.4869072e-05
6.9710136e-06
1.5866569e-06
0.00034061942
0.00039588865
0.00042594811
0.00040793922
0.00037153571
0.00034183905
0.00030100634
0.00020319566
7.9727815e-05
1.5651548e-05
2.0574153e-06
1.4547295e-07
5.2595905e-09
1.4712909e-10
3.200993e-11
1.4260648e-11
5.920979e-12
2.2627358e-12
7.9679154e-13
2.5766096e-13
7.6330333e-14
2.0658375e-14
5.0940714e-15
1.1414263e-15
2.3175337e-16
4.250648e-17
7.0163155e-18
1.0373502e-18
1.3657497e-19
1.5894683e-20
1.6167121e-21
2.3152852e-24
1.0967234e-27
1.3839931e-31
3.7115092e-36
2.2147699e-41
4.5364246e-47
5.4624704e-53
4.1247371e-59
0.00034645488
0.00032570673
0.00035911606
0.00040199922
0.00039213849
0.00033811142
0.00028700856
0.00027787363
0.00030656701
0.00033968352
0.00035909625
0.00033953665
0.00026833039
0.00018382688
0.00012825115
9.5725317e-05
6.1214375e-05
2.6614922e-05
7.2686453e-06
1.4324888e-06
2.3742757e-07
0.00039716385
0.00042546876
0.00040394601
0.00036529694
0.00034179659
0.00031882375
0.00024904641
0.00012340892
3.4322605e-05
4.6370907e-06
4.6973654e-07
2.6417962e-08
9.5249796e-10
1.1227547e-10
4.7323819e-11
2.0395614e-11
8.1134451e-12
2.9838198e-12
1.018442e-12
3.2004134e-13
9.2294328e-14
2.4357994e-14
5.8681707e-15
1.2873121e-15
2.5647354e-16
4.6266781e-17
7.5291893e-18
1.1000579e-18
1.4345269e-19
1.6565621e-20
3.1545911e-23
2.057062e-26
3.7075463e-30
1.4548197e-34
1.2460358e-39
3.4239074e-45
4.9684975e-51
5.8677757e-57
4.0665213e-63
0.000393558
0.0003495055
0.00033669464
0.000371561
0.00040636325
0.00038698242
0.00032497439
0.00026688808
0.00025261784
0.00028038848
0.00031546717
0.00033297045
0.00030247665
0.0002165282
0.00012937684
7.709462e-05
4.827009e-05
2.4883349e-05
7.9217677e-06
1.4963677e-06
2.0649363e-07
2.5507102e-08
0.00041847973
0.00039395079
0.00035360433
0.00033585321
0.00032850917
0.00028447425
0.00017140958
6.1116075e-05
1.2189316e-05
1.1666117e-06
1.0012065e-07
6.3274365e-09
6.2560848e-10
1.6954877e-10
6.8324539e-11
2.7778818e-11
1.0520944e-11
3.7220739e-12
1.2327863e-12
3.767835e-13
1.0586446e-13
2.727284e-14
6.4270933e-15
1.3823458e-15
2.706855e-16
4.8115177e-17
7.7349149e-18
1.1192193e-18
1.4489391e-19
3.6175852e-22
3.1940318e-25
8.0645092e-29
4.5331992e-33
5.4607891e-38
1.9964525e-43
3.4473622e-49
4.5829416e-55
5.4877716e-61
3.761397e-67
0.00040469464
0.00038524705
0.00035098453
0.00034679037
0.00038160013
0.00040760332
0.00037891074
0.00030903961
0.00024408324
0.00022444844
0.00024995248
0.00028533331
0.00029851754
0.00025002758
0.00015512664
7.6578762e-05
3.7028712e-05
1.884723e-05
7.4210349e-06
1.661514e-06
2.1573381e-07
2.1304369e-08
2.0048536e-09
0.00037803518
0.00033722105
0.00032547004
0.00033245251
0.00031172408
0.00021920827
9.587262e-05
2.5010484e-05
3.7110089e-06
3.3677345e-07
4.8529541e-08
8.0591309e-09
1.3486454e-09
2.8906412e-10
9.4533802e-11
3.5426154e-11
1.2803892e-11
4.3856335e-12
1.4126871e-12
4.2032008e-13
1.1517798e-13
2.8998854e-14
6.6941987e-15
1.4139281e-15
2.7261988e-16
4.7844753e-17
7.6145429e-18
1.0937066e-18
3.5361774e-21
4.1693557e-24
1.4524001e-27
1.1517414e-31
1.9256262e-36
9.2845702e-42
1.9567728e-47
2.7392499e-53
3.8481719e-59
4.9934089e-65
3.437885e-71
0.00035653225
0.00038486049
0.00037406527
0.00035175313
0.00035551393
0.0003887872
0.00040564734
0.00036755737
0.00028993171
0.00021837824
0.00019353784
0.00021501007
0.00025063703
0.0002496918
0.00018360108
9.3142085e-05
3.5701076e-05
1.3513088e-05
5.408142e-06
1.5625202e-06
2.4311575e-07
2.1851927e-08
1.616539e-09
1.1798681e-10
0.00031723399
0.00031190404
0.0003326329
0.00033348638
0.00026411931
0.0001374708
4.4319427e-05
8.8926102e-06
1.373586e-06
3.6322088e-07
1.0740589e-07
2.3173771e-08
3.6652858e-09
5.0721768e-10
1.2069845e-10
4.197815e-11
1.4629456e-11
4.8902366e-12
1.5322981e-12
4.4425559e-13
1.1886443e-13
2.9287581e-14
6.6332485e-15
1.378389e-15
2.6221503e-16
4.5534835e-17
7.1912277e-18
2.9772405e-20
4.6317478e-23
2.1981471e-26
2.4304798e-30
5.5930716e-35
3.5266001e-40
9.2088157e-46
1.4080387e-51
1.9684514e-57
3.3239292e-63
4.5697004e-69
3.0776808e-75
0.00029462067
0.00033052486
0.00036177374
0.00036182009
0.00035175037
0.00036224967
0.0003926408
0.00039991904
0.00035273667
0.00026701049
0.00018990201
0.00016074359
0.00018068193
0.00020561158
0.00018547157
0.00011386139
4.3876002e-05
1.2365831e-05
3.5798819e-06
1.1014943e-06
2.2911807e-07
2.4749556e-08
1.6014691e-09
9.2126214e-11
5.2552538e-12
0.00029624784
0.00033053416
0.00035182107
0.00030606822
0.00018393714
7.0845721e-05
1.8125741e-05
4.1256207e-06
1.8058365e-06
9.399744e-07
3.0607106e-07
6.7869915e-08
8.6447106e-09
7.4466422e-10
1.3860924e-10
4.634813e-11
1.5757153e-11
5.156082e-12
1.573044e-12
4.4489796e-13
1.1637851e-13
2.8105545e-14
6.2565697e-15
1.2816605e-15
2.4108631e-16
4.152418e-17
2.1781806e-19
4.422672e-22
2.8284169e-25
4.3198309e-29
1.3614839e-33
1.1159258e-38
3.6190146e-44
6.3475871e-50
8.6501228e-56
1.5294546e-61
2.9927845e-67
4.1250067e-73
2.6902103e-79
0.00027943888
0.00026989938
0.00030227088
0.00033733166
0.00034899612
0.00035032198
0.00036613396
0.0003924955
0.00039045558
0.00033328524
0.00024017404
0.00015848599
0.00012717763
0.00014015912
0.00014995353
0.00011653775