/*--------------------------------*- C++ -*----------------------------------*\
| =========                 |                                                 |
| \\      /  F ield         | OpenFOAM: The Open Source CFD Toolbox           |
|  \\    /   O peration     | Version:  5.0                                   |
|   \\  /    A nd           | Web:      www.OpenFOAM.org                      |
|    \\/     M anipulation  |                                                 |
\*---------------------------------------------------------------------------*/
FoamFile
{
    version     2.0;
    format      ascii;
    class       volScalarField;
    location    "160";
    object      p;
}
// * * * * * * * * * * * * * * * * * * * * * * * * * * * * * * * * * * * * * //

dimensions      [0 2 -2 0 0 0 0];

internalField   nonuniform List<scalar> 
9520
(
7.2223137e-05
7.2497528e-05
8.7704024e-05
7.271611e-05
8.8912692e-05
0.00014012523
7.2569333e-05
9.0818707e-05
0.00014256283
0.00017532349
7.1794517e-05
9.2703101e-05
0.00014642172
0.00017949244
0.00021591432
7.0155049e-05
9.3935889e-05
0.00015041095
0.00018624055
0.00022228909
0.0002471644
6.7545845e-05
9.3865026e-05
0.00015332715
0.00019366391
0.00023280406
0.00025656832
0.00027627945
6.3787138e-05
9.2054762e-05
0.00015406628
0.00019999855
0.00024492946
0.00027237587
0.00028892968
0.00029723263
5.8939756e-05
8.8186099e-05
0.00015179369
0.00020364615
0.00025621375
0.0002914513
0.00031075656
0.00031349922
0.00031032674
5.3450533e-05
8.2381683e-05
0.00014604475
0.00020320698
0.0002643236
0.00031061395
0.00033807877
0.00034211347
0.0003308957
0.00031357241
4.8716343e-05
7.4956459e-05
0.00013692852
0.00019766467
0.00026710234
0.00032675526
0.00036733901
0.00037891385
0.00036748947
0.00033863787
0.00030636125
4.5560957e-05
6.6931113e-05
0.0001244425
0.00018650536
0.00026257414
0.00033725244
0.00039482739
0.00042007376
0.0004154967
0.0003837196
0.00033599408
0.00028762659
4.9473935e-05
6.1508644e-05
0.00010986216
0.00016970648
0.00024908469
0.00033943402
0.00041746434
0.00046185991
0.00047067206
0.00044390064
0.00038974227
0.00032170681
0.0002569507
6.1651406e-05
6.4115864e-05
9.520611e-05
0.00014835223
0.00022531846
0.00033030342
0.00043233174
0.00050050534
0.00052898985
0.00051468162
0.00046246546
0.00038395904
0.00029519369
0.00021429259
8.3652949e-05
6.9963799e-05
8.2015915e-05
0.00011768783
0.00018779139
0.00030639804
0.00043664493
0.00053272326
0.00058655651
0.00059164058
0.00054951696
0.00046904803
0.00036549797
0.00025625535
0.0001597045
0.00010847209
8.6138267e-05
7.3110407e-05
7.3399921e-05
0.00013157141
0.00026425434
0.00042731329
0.0005559703
0.00063994826
0.00067101043
0.00064647893
0.00057231618
0.00046248608
0.00033388509
0.00020475739
9.3642946e-05
0.0001514925
0.00011180223
7.7886576e-05
1.6472733e-05
6.2801863e-05
0.00020264279
0.00040263328
0.00056944971
0.00068675993
0.00074924933
0.00074929027
0.00068936678
0.00058172276
0.00044212208
0.00028865107
0.00014099143
1.6843144e-05
0.00018229629
0.00014250143
0.00010222392
-4.5382741e-05
-1.7870912e-05
0.00011862107
0.00036287723
0.00057345837
0.00072567487
0.00082335761
0.00085402908
0.00081589443
0.00071896311
0.00057677243
0.00040671456
0.00022968448
6.5588994e-05
-6.9731649e-05
0.00024706468
0.00019922527
0.00014560373
-0.00011439833
-0.00012370299
6.0108474e-06
0.00030468308
0.0005683057
0.00075649491
0.00089060195
0.00095698215
0.00094755644
0.00086975834
0.00073372655
0.00055552895
0.00035563698
0.0001574635
-2.0572416e-05
-0.00016494863
0.00028885802
0.00026263868
0.00023547933
-0.00016822615
-0.00026090133
-0.00013895229
0.00022430165
0.00055630512
0.00077944029
0.00094994324
0.0010546638
0.001079945
0.0010296102
0.00090878205
0.00073094648
0.00051583784
0.0002890259
7.2733448e-05
-0.00011642371
-0.00026757062
0.00035708628
0.00036308377
0.00033423291
-0.00022110609
-0.00043441873
-0.0003247502
0.00012313343
0.00054284409
0.00080164457
0.0010010218
0.0011433299
0.0012084428
0.0011938289
0.0010976662
0.00092923949
0.00070698334
0.00045781528
0.00020758865
-2.3589104e-05
-0.0002207574
-0.00037627748
0.00042599852
0.00044975578
0.00053382149
-0.00025093059
-0.00066437096
-0.00056566564
-7.8937114e-06
0.0005212888
0.00082568131
0.0010426221
0.0012188047
0.0013275948
0.0013574756
0.0012959007
0.0011465888
0.00092619958
0.00066198925
0.00038270835
0.00011194356
-0.00013041459
-0.00033228213
-0.00048965332
0.00049526531
0.00057204268
0.00073723147
-0.00026475195
-0.00094351225
-0.00087438961
-0.00017172712
0.0004995334
0.00085540913
0.0010496857
0.0012756268
0.0014318645
0.0015151812
0.0014988608
0.001378866
0.0011698383
0.00089908031
0.00059689773
0.00029015477
2.9879746e-06
-0.00024651493
-0.00044959357
-0.00060624947
0.00057716778
0.0006684349
0.0011033641
-0.00024095974
-0.0013161809
-0.0012497337
-0.00037348974
0.00047842572
0.00090599784
0.0010592214
0.0013131608
0.0015139589
0.0016616765
0.0017018979
0.001621848
0.0014340059
0.0011657662
0.00084851435
0.00051093408
0.00018076823
-0.00011812696
-0.0003704771
-0.00057117677
-0.00072466416
0.00063169668
0.00092197819
0.0014276754
-0.00021202904
-0.001744371
-0.0017307694
-0.0006231511
0.00046986657
0.001002914
0.0010916537
0.0013202003
0.001581215
0.0017917685
0.0019008942
0.0018717371
0.0017146746
0.0014586401
0.0011352614
0.00077368274
0.00040412334
5.5595847e-05
-0.00025004797
-0.00050076225
-0.00069554513
-0.00084352935
0.00070412722
0.0011383455
0.0018470266
-0.0001741304
-0.0023621438
-0.0022666463
-0.00091921892
0.00049452177
0.0011486359
0.001157076
0.0012849181
0.0016160686
0.0019009678
0.002092389
0.0021258264
0.00200929
0.0017744173
0.0014540128
0.0010767605
0.0006736726
0.0002772672
-8.4132257e-05
-0.00039134013
-0.00063583264
-0.00082129438
-0.00096152266
0.00075907948
0.0013551866
0.002196099
-9.0552642e-05
-0.0029804761
-0.0029469044
-0.0012947843
0.00056179418
0.0013656517
0.0012468818
0.001213161
0.0015918343
0.0019791032
0.0022739715
0.0023843158
0.0023165424
0.0021102371
0.0018010064
0.001417341
0.00098873243
0.00054896619
0.00013139997
-0.00023707215
-0.00054030649
-0.0007740174
-0.00094702949
-0.0010774254
0.00083465957
0.0016842439
0.0029158652
-1.6460705e-05
-0.0039254643
-0.0036996412
-0.0017414835
0.00068698249
0.0016599893
0.0013890292
0.0011063554
0.0014979724
0.0020110774
0.0024395999
0.0026486816
0.0026372002
0.002463213
0.0021716991
0.0017912717
0.0013471036
0.00087127712
0.00040026915
-3.2214803e-05
-0.00040134902
-0.00069472249
-0.00091369787
-0.0010714544
-0.0011901143
0.00089568374
0.0022794512
0.0033696121
1.0446707e-05
-0.004884016
-0.004541758
-0.0023378299
0.00088488574
0.0020538035
0.0015351918
0.00096757296
0.0013068251
0.0019808124
0.0025790475
0.0029193189
0.0029719839
0.0028321266
0.0025617203
0.002193028
0.0017446082
0.0012429164
0.00072462218
0.00022865391
-0.00021169677
-0.00057481809
-0.00085312782
-0.0010534472
-0.0011932548
-0.0012985993
0.00097433448
0.0028175319
0.0035481102
0.00011209376
-0.0060168722
-0.0052618108
-0.0031048874
0.0011999418
0.0025444907
0.0018276392
0.00076904142
0.0010027266
0.0018635836
0.0026897204
0.0031947675
0.0033262859
0.0032166068
0.0029669955
0.0026158999
0.0021753497
0.0016604774
0.0011046652
0.00054953882
3.5648387e-05
-0.00040533346
-0.00075618058
-0.0010143399
-0.0011920933
-0.0013113692
-0.0014020541
0.00099055563
0.0032670836
0.0037529297
5.5202187e-05
-0.0069858111
-0.0064445414
-0.0040412501
0.0016940614
0.0031003955
0.0022214891
0.00051568295
0.00052994321
0.0016374067
0.0027579583
0.0034836736
0.0037054299
0.003620618
0.0033833991
0.0030520035
0.0026326532
0.0021198833
0.0015391651
0.00093263216
0.00034663455
-0.0001775689
-0.00061159875
-0.00094329538
-0.0011765467
-0.0013281948
-0.0014249022
-0.0014997086
0.00096516409
0.0036682704
0.0037154401
-0.00032633126
-0.0082763414
-0.0080879786
-0.0053424694
0.002315268
0.0036924465
0.0027780798
0.00017205543
-0.00013384095
0.0012678086
0.0027693815
0.0037860283
0.0041219381
0.0040483286
0.0038147966
0.0034946925
0.0031118767
0.0026153439
0.0020245772
0.001377898
0.00072548045
0.00011666783
-0.00040884059
-0.00082784139
-0.0011337717
-0.0013378184
-0.0014604024
-0.0015329013
-0.0015907796
0.00088128319
0.0039265706
0.0037729412
-0.00085221456
-0.0094119439
-0.0093919352
-0.0066632441
0.0031005731
0.0042476164
0.0034890795
-0.00027424012
-0.0010698364
0.00073071727
0.0027006479
0.0041116575
0.004586066
0.0045128409
0.0042552928
0.0039395322
0.0036007278
0.0031357821
0.0025529792
0.0018823162
0.0011737552
0.00048358291
-0.00013781655
-0.00065505807
-0.0010509917
-0.0013263356
-0.0014964385
-0.0015875199
-0.0016342859
-0.0016748173
0.00074299056
0.0040410912
0.0037094947
-0.0010814904
-0.010391428
-0.010127662
-0.0075251142
0.0039156426
0.0051007437
0.0043199077
-0.00091307526
-0.0023191701
-1.4591147e-05
0.0025179881
0.0044575548
0.0051219838
0.0050214328
0.0047132822
0.0043754345
0.0040567544
0.0036675834
0.0031124295
0.0024387157
0.001690359
0.00092687199
0.00020942667
-0.0004141194
-0.0009132557
-0.0012791406
-0.001518733
-0.0016512142
-0.0017089562
-0.0017285706
-0.0017518196
0.00055553112
0.0039203736
0.0035178289
-0.0010527459
-0.01157492
-0.010694906
-0.0078992971
0.0046157848
0.0059569388
0.0051549034
-0.0017389881
-0.0040565483
-0.00098333418
0.00218188
0.0048226838
0.0057439558
0.0055969925
0.0051884563
0.0048007059
0.0044874476
0.0041841152
0.0036881996
0.0030382944
0.0022706499
0.0014473457
0.00063888339
-9.4571862e-05
-0.00071021844
-0.0011825461
-0.0015112271
-0.0017088366
-0.00180143
-0.0018239325
-0.0018161604
-0.0018215456
0.00033409369
0.0035310269
0.0031990361
-0.0010425409
-0.012609828
-0.011461262
-0.0081376989
0.0046261338
0.0065146425
0.00605484
-0.0028569016
-0.0062652739
-0.0021868219
0.0016095332
0.0051908472
0.0064770787
0.0062435043
0.0056982792
0.0052005209
0.0048860557
0.004667836
0.004277578
0.0036700831
0.0029092682
0.0020437955
0.0011538019
0.0003115489
-0.00042597975
-0.0010216343
-0.0014590772
-0.0017435094
-0.0018952336
-0.0019457891
-0.0019311836
-0.0018963115
-0.0018837984
0.00010067058
0.0028262272
0.0027340909
-0.0011402839
-0.013495221
-0.012282252
-0.0087911268
0.0047293773
0.0059674571
0.0066069808
-0.0041717689
-0.0092503135
-0.0035941533
0.00072676233
0.0055415485
0.0073383992
0.0069783035
0.0062355763
0.0055778787
0.0052189779
0.0050931753
0.0048494605
0.0043320778
0.0035979751
0.0027129868
0.0017557961
0.00081099628
-5.2001643e-05
-0.00078093075
-0.0013465863
-0.0017404124
-0.001974582
-0.00207718
-0.0020817401
-0.0020304682
-0.0019686676
-0.0019385501
-0.00013110351
0.0018927982
0.0021445398
-0.0013180404
-0.014018454
-0.012949937
-0.0096688533
0.0043313168
0.0089069246
0.0070153528
-0.0060251636
-0.012818925
-0.0051756236
-0.00060812809
0.005874825
0.0083125261
0.0077905068
0.0068248938
0.0059100531
0.0054691319
0.0054289362
0.0053774771
0.0050014527
0.0043358546
0.0034516035
0.0024431146
0.0014066143
0.00042090031
-0.00044841048
-0.001156568
-0.0016817708
-0.0020233568
-0.002202628
-0.0022520667
-0.0022093359
-0.0021217842
-0.0020330927
-0.0019858355
-0.0003600721
0.00084042594
0.0013752327
-0.0015952888
-0.01405602
-0.013545808
-0.010568983
0.0035023035
0.0087137514
0.0066740869
-0.0078214297
-0.017017595
-0.0072733533
-0.0024224647
0.0060552339
0.0093807376
0.008658159
0.0074407538
0.0062080649
0.0055911666
0.0056495685
0.0058318203
0.0056602102
0.0051079963
0.0042555944
0.0032169372
0.0021000881
0.0009981295
-1.2999347e-05
-0.0008745536
-0.0015494084
-0.0020232457
-0.0023058002
-0.0024251434
-0.002417915
-0.0023284668
-0.0022046372
-0.0020896036
-0.0020257906
-0.00061071861
-0.00030850581
0.0003846081
-0.0019558794
-0.013687029
-0.013905916
-0.011447967
0.0024221482
0.008213074
0.0059336494
-0.010357195
-0.021030432
-0.010841373
-0.0051857183
0.0058556895
0.01045457
0.0095454843
0.0080944248
0.0064250036
0.0055700482
0.0056945985
0.0061841415
0.0062862327
0.0059022405
0.0051206263
0.0040725123
0.0028908218
0.0016833782
0.00053355465
-0.00048736271
-0.0013266665
-0.0019548678
-0.0023680552
-0.0025848572
-0.0026394777
-0.002574431
-0.0024385545
-0.0022789272
-0.0021383191
-0.0020586271
-0.0014874861
-0.00087913848
-0.00075574907
-0.002398686
-0.012939297
-0.01389064
-0.012209725
0.0010057335
0.0069301888
0.0056738627
-0.012634601
-0.025278364
-0.015370034
-0.0091574992
0.005116711
0.011612219
0.010351675
0.0087296024
0.0065746464
0.0053239216
0.0055602907
0.0063784344
0.0068554102
0.0067061827
0.0060409594
0.0050044317
0.0037804074
0.0024766933
0.0011955614
1.5448377e-05
-0.00099819233
-0.0017995719
-0.0023690489
-0.0027127271
-0.0028573768
-0.0028442278
-0.0027213217
-0.0025393434
-0.0023446951
-0.0021794412
-0.0020845964
-0.0019211919
-0.0026193449
-0.0011417581
-0.0028895251
-0.011814789
-0.013338154
-0.012638426
-0.00072784769
0.0050981135
0.0050071394
-0.013988202
-0.029494483
-0.019388212
-0.013502722
0.0040794591
0.012856617
0.010995254
0.009325338
0.0065768149
0.0048358356
0.0050795893
0.0063792488
0.0073330603
0.007512883
0.0070089257
0.0060157198
0.0047582305
0.0033762911
0.0019756881
0.00064145399
-0.00055079374
-0.0015397289
-0.0022883952
-0.0027878654
-0.0030534449
-0.0031209663
-0.0030384766
-0.0028579366
-0.0026305558
-0.0024019612
-0.0022131536
-0.0021039919
-0.0034057333
-0.0030756453
-0.0036974233
-0.0013799753
-0.010333957
-0.012254276
-0.012507653
-0.0028220335
0.0025819578
0.0036500346
-0.015162158
-0.033999428
-0.02441682
-0.01740597
0.00300448
0.013993482
0.011224151
0.0097591925
0.0064439679
0.0039779449
0.0042462426
0.0060785976
0.0076799339
0.0082993271
0.0080253586
0.0071056082
0.0058252182
0.0043798874
0.0028708298
0.0013929448
2.5077481e-05
-0.0011595004
-0.0021063182
-0.0027885476
-0.003206758
-0.0033869829
-0.003373906
-0.0032214168
-0.0029838123
-0.0027121098
-0.0024508461
-0.0022397654
-0.0021171553
-0.0085759811
-0.0039583506
-0.0041661226
-0.0046540809
-0.0015983275
-0.010766267
-0.011855519
-0.0054387688
-0.00064858356
0.0017810535
-0.016828677
-0.038319038
-0.031630712
-0.021411838
0.0020608489
0.014040843
0.01101228
0.0099804649
0.0060248166
0.0027427851
0.0028403948
0.005414789
0.0078378484
0.0090592092
0.0090821851
0.0082738227
0.0069798702
0.0054790817
0.0038759951
0.0022689286
0.00073468539
-0.00064625883
-0.0018044
-0.0026929468
-0.0032947486
-0.0036215889
-0.0037106943
-0.0036149053
-0.0033923384
-0.0030985799
-0.0027839747
-0.0024916818
-0.0022596315
-0.0021244406
-0.0089782225
-0.0065765654
-0.0043995941
-0.0051321559
-0.0054709563
-0.0018017769
-0.010731252
-0.0085625333
-0.0045420105
-0.00065870577
-0.018610054
-0.042662335
-0.038128219
-0.025464235
-0.0012983341
0.013929978
0.0099345136
0.0097491773
0.0053999969
0.00090197664
0.00083379007
0.0041977299
0.007744522
0.0097540892
0.010194273
0.0095157625
0.0082233716
0.0066628428
0.0049834578
0.0032611484
0.0015769125
7.8969544e-06
-0.0013666236
-0.0024798655
-0.0032938558
-0.0038018204
-0.0040287042
-0.0040224597
-0.0038427608
-0.0035505493
-0.0032020391
-0.0028463722
-0.0025247528
-0.0022730978
-0.0021262175
-0.0090080996
-0.0069523841
-0.0044844291
-0.0047329005
-0.0058925182
-0.0061346486
-0.0019757392
-0.01180189
-0.0090191461
-0.0036695348
-0.020323458
-0.04618807
-0.043821308
-0.029284801
-0.0054559296
0.011331027
0.0088818252
0.0091158356
0.0041927296
-0.0015167185
-0.0021846957
0.0023238106
0.0073159689
0.010353873
0.011340435
0.010836375
0.0095422058
0.0079305511
0.006175327
0.0043582169
0.0025447954
0.00080422916
-0.0007813859
-0.00213017
-0.0031800557
-0.0039028944
-0.0043050566
-0.0044249731
-0.0043204115
-0.0040562959
-0.0036955479
-0.0032942921
-0.0028997
-0.0025504596
-0.0022805504
-0.0021228187
-0.014931305
-0.0069419888
-0.0048464132
-0.0023500752
-0.004929533
-0.0063904879
-0.0065565366
-0.0020992955
-0.013839612
-0.0070910458
-0.021903398
-0.048505232
-0.048448796
-0.033480656
-0.010120081
0.0076362218
0.0070586582
0.0072944684
0.0027455764
-0.0049744897
-0.0061578281
-0.00050536427
0.0064051322
0.010766734
0.012516992
0.012214985
0.010942711
0.0092602167
0.0074400384
0.0055405953
0.0036231159
0.0017370134
-4.3472386e-05
-0.0016275228
-0.0029306896
-0.0038984485
-0.0045142726
-0.0048001783
-0.0048076199
-0.0046027228
-0.0042545559
-0.0038272724
-0.0033757239
-0.0029442018
-0.0025690561
-0.0022821777
-0.0021146216
-0.018605269
-0.017788219
-0.0050345578
-0.002669369
-0.00033805513
-0.0049795272
-0.0066513114
-0.0066976018
-0.0021747672
-0.010959363
-0.023077918
-0.049379042
-0.051942647
-0.037414206
-0.015128602
0.0018459568
0.0048345298
0.0043199148
0.00019563896
-0.0088905749
-0.011639585
-0.0043013514
0.0048734145
0.010891449
0.013656081
0.013649537
0.012382999
0.010653421
0.0087481019
0.0067859917
0.0047899061
0.0027914384
0.00084437386
-0.0009617057
-0.0025251415
-0.0037618597
-0.004628228
-0.0051225238
-0.005283261
-0.005173968
-0.004867801
-0.0044371938
-0.0039460556
-0.0034464499
-0.0029797722
-0.0025804725
-0.0022783827
-0.0021021894
-0.015209542
-0.022724537
-0.019988359
-0.0034876869
-0.00062583982
0.0014816648
-0.004891558
-0.0067709556
-0.0065633661
-0.0021891798
-0.023591013
-0.048680314
-0.053856729
-0.040671461
-0.020192443
-0.0051641472
0.00028052739
0.0019166824
-0.0020118049
-0.014500131
-0.018076764
-0.0094386284
0.0023873531
0.010537493
0.014688419
0.015098082
0.013847414
0.012049155
0.010087085
0.0080587051
0.0060161132
0.0039436674
0.0018702354
-0.00012998723
-0.0019465513
-0.0034683918
-0.0046170211
-0.0053627935
-0.0057224269
-0.0057504945
-0.0055215626
-0.0051148276
-0.0046044067
-0.0040518101
-0.0035058265
-0.0030062002
-0.002585445
-0.0022701958
-0.0020860239
-0.02316432
-0.019349959
-0.025966306
-0.021392075
-0.0022515801
0.0011195168
0.0030722996
-0.0046856808
-0.0067626216
-0.0062011577
-0.0021454585
-0.046238916
-0.053908113
-0.04257884
-0.025072533
-0.01322797
-0.0062133479
-0.0015528227
-0.0033864152
-0.019538019
-0.026950596
-0.01633648
-0.0011481872
0.0093995812
0.015519799
0.016457854
0.015281725
0.013431794
0.011389953
0.0093348172
0.0072596923
0.00516081
0.0030116818
0.00086091297
-0.0011851868
-0.0029943108
-0.004450644
-0.0054886438
-0.0060956085
-0.0063087641
-0.0061983046
-0.0058488418
-0.0053437742
-0.0047558694
-0.0041432485
-0.0035533782
-0.0030248066
-0.0025859006
-0.0022585445
-0.0020658955
-0.042160571
-0.022085796
-0.022514232
-0.028311873
-0.021979853
-0.0012986329
0.0024929873
0.0042773345
-0.0043829321
-0.0066413747
-0.0057473644
-0.0020753382
-0.051841075
-0.042798621
-0.029524086
-0.021867469
-0.015059283
-0.0073987484
-0.0052839905
-0.023873225
-0.036200489
-0.026175044
-0.0064851423
0.0072908965
0.015900595
0.017688958
0.016555438
0.014714276
0.01264608
0.010541651
0.0084862332
0.0063962729
0.0042348685
0.0019936066
-0.00023983504
-0.002321364
-0.0041001456
-0.0054650399
-0.0063688942
-0.0068198658
-0.0068765046
-0.0066241158
-0.0061553018
-0.0055539495
-0.0048894699
-0.004219424
-0.0035914391
-0.0030390801
-0.002583218
-0.0022420584
-0.0020400727
-0.047788313
-0.03654225
-0.020395281
-0.02456912
-0.029559133
-0.021872749
-0.00058938656
0.0035497808
0.004990095
-0.0040014768
-0.0064585219
-0.0051182252
-0.0019339852
-0.041053348
-0.033461101
-0.031035646
-0.025603033
-0.015598753
-0.008516266
-0.02774083
-0.047448664
-0.03813796
-0.014603279
0.0034920835
0.01547022
0.018539294
0.01765686
0.015791571
0.013742577
0.011665803
0.0096168982
0.007605837
0.0054922668
0.0032374469
0.00088046218
-0.0014384352
-0.0035375955
-0.0052575433
-0.0065042396
-0.0072494497
-0.0075287074
-0.0074217232
-0.0070266189
-0.0064397609
-0.0057421583
-0.0050036142
-0.0042839125
-0.0036255496
-0.0030504019
-0.0025734126
-0.0022164112
-0.0020091383
-0.037234303
-0.04176883
-0.030174415
-0.017951962
-0.025546558
-0.029738246
-0.021255855
-2.1646341e-05
0.0043927966
0.0052137006
-0.0036179344
-0.0061482143
-0.0044835408
-0.0018231742
-0.036675003
-0.040772101
-0.037483648
-0.026006499
-0.012613169
-0.032781648
-0.057334948
-0.055349847
-0.02410697
-0.0018983553
0.013801345
0.018752884
0.018148596
0.016624766
0.014624669
0.012582893
0.010631612
0.008703798
0.0067314939
0.0045485601
0.0021529211
-0.00034303143
-0.0027407514
-0.0048298624
-0.0064605197
-0.0075579737
-0.008121216
-0.0082164205
-0.0079421046
-0.0074037319
-0.0066980057
-0.0059059206
-0.0051032142
-0.0043449955
-0.0036568246
-0.0030505009
-0.0025477925
-0.0021855835
-0.0019734841
-0.038262056
-0.031463087
-0.034132844
-0.023400955
-0.015450702
-0.025459447
-0.028969231
-0.020238844
0.00040992394
0.0050359202
0.0051613658
-0.0034694093
-0.0059304928
-0.0037315301
-0.0017005805
-0.050438621
-0.05009512
-0.037329938
-0.017604397
-0.038664137
-0.068358263
-0.070498687
-0.038713627
-0.011833943
0.012243797
0.018010278
0.018201335
0.016819447
0.015190313
0.013274611
0.011392917
0.0096600579
0.007862555
0.0058707876
0.003542493
0.00095443748
-0.0016929546
-0.0041475445
-0.0061951587
-0.0077000384
-0.0086140123
-0.0089762338
-0.0088791806
-0.0084345739
-0.007749574
-0.0069262974
-0.0060514577
-0.0051999911
-0.0044035551
-0.0036707462
-0.0030249474
-0.0025165005
-0.0021497732
-0.0019331241
-0.058974537
-0.038327571
-0.025086648
-0.025989062
-0.016462654
-0.013114014
-0.024423899
-0.027480123
-0.01888241
0.00069956264
0.0053552972
0.0049050324
-0.0036807632
-0.0055826737
-0.0029788938
-0.0015865568
-0.062648498
-0.048425898
-0.024334875
-0.04515373
-0.079052612
-0.088986292
-0.057430282
-0.02598177
0.0054269618
0.017934876
0.016888745
0.016562951
0.015226526
0.013595176
0.011903506
0.010317785
0.0088406929
0.0071156372
0.0049965085
0.002432373
-0.00039118395
-0.0031792146
-0.0056643432
-0.007627615
-0.0089602502
-0.0096618518
-0.0098086796
-0.0095125551
-0.0088913714
-0.0080583543
-0.007130931
-0.0061947517
-0.0052946666
-0.0044363178
-0.0036455444
-0.0029927181
-0.002479831
-0.0021089733
-0.0018879414
-0.074047941
-0.065753385
-0.036969385
-0.018700549
-0.018223489
-0.0097799135
-0.0107494
-0.022754241
-0.02530256
-0.017541197
0.00087643387
0.0056292531
0.0046580854
-0.0038371134
-0.0051231563
-0.0025624235
-0.001401499
-0.059481719
-0.032763467
-0.052019149
-0.088964616
-0.10626158
-0.079425451
-0.041013163
-0.002706595
0.013586217
0.015665133
0.015071469
0.014761349
0.013471946
0.011973908
0.010690452
0.0094885364
0.0082221642
0.0064360413
0.0040494108
0.0011636364
-0.0019139067
-0.004824976
-0.0072895856
-0.0091059125
-0.010225868
-0.010693404
-0.010612277
-0.010106472
-0.0093041112
-0.0083399897
-0.0073339789
-0.0063362071
-0.0053527017
-0.0044122608
-0.0036120563
-0.002954579
-0.0024378934
-0.0020631042
-0.0018378964
-0.069912586
-0.083074432
-0.069738195
-0.034067032
-0.012716145
-0.011238909
-0.0037724989
-0.0082978338
-0.020670176
-0.022895851
-0.016049092
0.0012961037
0.0058590171
0.0043538416
-0.0036524286
-0.0043103653
-0.0021415634
-0.0012211849
-0.041599849
-0.058771727
-0.097091931
-0.12104965
-0.10112922
-0.056016843
-0.013922637
0.0082101957
0.011512133
0.01278715
0.013353352
0.012800378
0.011626992
0.010529817
0.0098184882
0.0090007558
0.0077894492
0.0057452857
0.0029468027
-0.00032069167
-0.0036279325
-0.0066229369
-0.0089884052
-0.010610984
-0.011486599
-0.011700069
-0.01137418
-0.010649097
-0.0096821896
-0.0086206066
-0.0075357889
-0.0064277489
-0.0053315175
-0.0043773277
-0.0035719946
-0.002910869
-0.002390706
-0.0020121834
-0.0017829989
-0.049744828
-0.078024983
-0.088370837
-0.071043148
-0.030602804
-0.0073087998
-0.0053490149
0.0013070577
-0.0058720425
-0.018458528
-0.01981729
-0.014084957
0.0021729893
0.0058709163
0.0036934791
-0.0031752625
-0.0035373379
-0.0018288544
-0.001106256
-0.064153099
-0.10222726
-0.13173021
-0.1201275
-0.072632173
-0.027180022
-0.0013795168
0.0081621707
0.0084864127
0.01125924
0.011422953
0.010572463
0.0099011196
0.0095048031
0.0094469396
0.008869527
0.0074494588
0.0049224902
0.0015959469
-0.0020532636
-0.0055413853
-0.008536752
-0.010748618
-0.012130936
-0.012732004
-0.012665658
-0.012078167
-0.011149974
-0.010060224
-0.0089009391
-0.0076719481
-0.006412251
-0.0052952584
-0.004335018
-0.0035260136
-0.0028616485
-0.0023382006
-0.0019561454
-0.0017231625
-0.065823724
-0.057233256
-0.081835849
-0.089951179
-0.069694825
-0.026959702
-0.0026617276
-0.00076231596
0.0053543527
-0.0036258441
-0.016158306
-0.01680987
-0.012241811
0.0025235165
0.0057137633
0.0030453363
-0.0025629921
-0.0030152873
-0.0014835265
-0.0008916066
-0.10311706
-0.13658263
-0.13464475
-0.089166105
-0.042501672
-0.012702461
0.0010167018
0.0046221363
0.0074296077
0.0093744958
0.0089791219
0.0083475922
0.0086391585
0.009163862
0.0096499806
0.0089957077
0.0070303405
0.0038270945
-7.1810487e-05
-0.004047292
-0.0076769998
-0.010563965
-0.012557022
-0.013652744
-0.013941919
-0.013568329
-0.012732714
-0.01165231
-0.010440127
-0.0090962851
-0.0076658496
-0.0063754478
-0.0052506184
-0.0042863677
-0.00347421
-0.0028067886
-0.002280361
-0.0018949279
-0.0016585051
-0.099289712
-0.064198105
-0.061857669
-0.081312233
-0.087839959
-0.066160481
-0.023371088
0.0012656993
0.0024624634
0.0085054015
-0.0015935906
-0.014366886
-0.01451424
-0.010355077
0.0023239746
0.005085058
0.0023458261
-0.0020058865
-0.002380812
-0.0013107761
-0.00072925466
-0.13450711
-0.14276398
-0.10202882
-0.058342948
-0.026537504
-0.0099320766
-0.0019475726
0.0032782582
0.0062906276
0.0063668055
0.0063574914
0.006671093
0.0082661872
0.0097014048
0.010353452
0.0091414415
0.0063355478
0.0023364694
-0.0020895282
-0.0063448731
-0.0099931459
-0.012691398
-0.014395826
-0.015152288
-0.015087024
-0.014413633
-0.013390546
-0.01215938
-0.010712703
-0.0091051206
-0.007629692
-0.0063287519
-0.0051991672
-0.0042315619
-0.0034164135
-0.0027463957
-0.0022172065
-0.001828837
-0.0015888788
-0.12579409
-0.090322858
-0.060002291
-0.06284151
-0.077371802
-0.082733808
-0.060836425
-0.019973946
0.0046183249
0.0045695817
0.010597474
-0.00015977063
-0.012515627
-0.012169906
-0.0081838303
0.0020673028
0.0033322011
0.0017565603
-0.0015699088
-0.0019903404
-0.000998996
-0.00056696577
-0.14296174
-0.10928807
-0.072868356
-0.042132948
-0.025354441
-0.01142256
-0.003807778
0.0030421207
0.0034210854
0.0028106965
0.0041850995
0.0060639093
0.0091191988
0.011080938
0.011317757
0.0090610386
0.0051569567
0.0003838964
-0.0044951558
-0.0089333319
-0.012454195
-0.0148881
-0.016234657
-0.016590157
-0.016167281
-0.015264964
-0.014058695
-0.012532423
-0.010744573
-0.0090713401
-0.0075819562
-0.0062747037
-0.0051410491
-0.0041703366
-0.0033528439
-0.0026805176
-0.002149049
-0.0017575138
-0.0015144184
-0.13424994
-0.11101246
-0.07809049
-0.052794445
-0.060332062
-0.071063751
-0.075330599
-0.054292397
-0.017006365
0.0066750996
0.0059598712
0.012063294
0.00015985356
-0.010025936
-0.0093742921
-0.0062792479
0.0016398016
0.0030811074
0.0013025538
-0.0011112423
-0.001431891
-0.00082507238
-0.0004469448
-0.11083241
-0.083643088
-0.058374049
-0.043459957
-0.025606254
-0.014630569
-0.0028664969
0.00062255445
-0.00058165027
-0.00047881987
0.003089088
0.0070643693
0.011229002
0.013027672
0.011959315
0.0083684184
0.0033816718
-0.0020716941
-0.0073097755
-0.011749432
-0.015046879
-0.017118367
-0.018022125
-0.017957435
-0.017257823
-0.016136308
-0.01456369
-0.012598455
-0.010715893
-0.0090245903
-0.0075258202
-0.0062132741
-0.0050760182
-0.0041029467
-0.0032835803
-0.0026095139
-0.0020754648
-0.0016811467
-0.0014351108
-0.10694685
-0.11780888
-0.092952749
-0.063606373
-0.043963179
-0.054363299
-0.0630034
-0.066581862
-0.047179789
-0.014796023
0.0073730112
0.0077176113
0.012155648
0.00063152224
-0.0072780763
-0.0070429868
-0.004355421
0.0013927048
0.0026137599
0.0010323427
-0.00076903853
-0.0011344353
-0.0006006834
-0.00032624793
-0.086900564
-0.073309785
-0.063544888
-0.045148201
-0.029562226
-0.012679984
-0.0035613947
-0.0045261786
-0.0045295419
-0.002605165
0.0040141977
0.0099286661
0.014312352
0.014767405
0.011914732
0.006909264
0.00093709374
-0.0050709531
-0.010484025
-0.014766718
-0.017720982
-0.01931639
-0.019736641
-0.019341835
-0.018384277
-0.016813167
-0.014680539
-0.012579124
-0.010673327
-0.0089676172
-0.0074614592
-0.0061441788
-0.005004276
-0.0040296909
-0.0032090632
-0.0025328288
-0.0019963367
-0.0015998441
-0.0013511452
-0.082246176
-0.096884797
-0.097671268
-0.073525146
-0.048400942
-0.034143924
-0.045636925
-0.054344382
-0.056348504
-0.040294778
-0.012529699
0.0078583327
0.0088703677
0.012147744
0.0013524452
-0.0050927521
-0.0051093159
-0.0029132508
0.0012147818
0.0021993439
0.00084870931
-0.00046988177
-0.00071183958
-0.00043104884
-0.00023051285
-0.085005156
-0.083881889
-0.068910176
-0.05023586
-0.026847366
-0.010771299
-0.0088948353
-0.010643377
-0.007826515
-0.0018953077
0.0075431977
0.014709815
0.017488511
0.015638244
0.010911941
0.0045990131
-0.0021748276
-0.0085766025
-0.013954952
-0.017938373
-0.02039233
-0.021445875
-0.021479571
-0.020786626
-0.019283958
-0.017003217
-0.014677184
-0.012545879
-0.010617626
-0.0089012061
-0.0073883464
-0.0060676594
-0.0049264205
-0.0039509883
-0.003128478
-0.0024498869
-0.0019121763
-0.0015138703
-0.0012625
-0.091109753
-0.073225622
-0.081383668
-0.076439873
-0.054553443
-0.033824864
-0.023681919
-0.03510801
-0.044909823
-0.047586451
-0.033046222
-0.0093268458
0.0081518573
0.0095084359
0.011101295
0.0023630243
-0.0035170327
-0.0037127079
-0.0016822858
0.0011211988
0.0018542173
0.00076761744
-0.00021644416
-0.00045471233
-0.0002503316
-0.00014108867
-0.10275526
-0.096258555
-0.076459657
-0.04653588
-0.021594358
-0.015279849
-0.016557074
-0.017376895
-0.0084984049
0.0020788
0.013965839
0.019647111
0.019543778
0.015287313
0.0088558304
0.0014216758
-0.0059681232
-0.012519899
-0.017664591
-0.021155454
-0.023013328
-0.023623073
-0.023318617
-0.021973235
-0.019577394
-0.017025159
-0.014661162
-0.012494887
-0.010550737
-0.0088245539
-0.0073067906
-0.005984614
-0.0048428395
-0.0038656263
-0.0030406723
-0.0023617842
-0.001823215
-0.0014232934
-0.001169352
-0.11797508
-0.091916324
-0.063849871
-0.063087329
-0.056462881
-0.03685931
-0.020310228
-0.013438625
-0.024355826
-0.035261308
-0.036927282
-0.026320605
-0.0055093051
0.0079474005
0.0095255197
0.0097350272
0.0029385624
-0.0020673952
-0.0023482739
-0.00078445572
0.0011239741
0.0016284553
0.00074894592
2.1447674e-05
-0.00017425515
-9.7673021e-05
-5.8740389e-05
-0.12525054