/*--------------------------------*- C++ -*----------------------------------*\
| =========                 |                                                 |
| \\      /  F ield         | OpenFOAM: The Open Source CFD Toolbox           |
|  \\    /   O peration     | Version:  5.0                                   |
|   \\  /    A nd           | Web:      www.OpenFOAM.org                      |
|    \\/     M anipulation  |                                                 |
\*---------------------------------------------------------------------------*/
FoamFile
{
    version     2.0;
    format      ascii;
    class       surfaceScalarField;
    location    "160";
    object      phi;
}
// * * * * * * * * * * * * * * * * * * * * * * * * * * * * * * * * * * * * * //

dimensions      [0 3 -1 0 0 0 0];

internalField   nonuniform List<scalar> 
18820
(
-0.00037829567
-1.3577722
-0.00073163171
-1.2697845
-0.00036546495
-1.3574067
-0.0010604427
-1.1875933
-0.00070751601
-1.2694425
-0.00035429186
-1.3570524
-0.0013649307
-1.1107895
-0.001026561
-1.1872742
-0.00068553978
-1.2691112
-0.00035246747
-1.3567
-0.001644844
-1.0390058
-0.0013231606
-1.1104929
-0.00099476745
-1.186965
-0.0006816777
-1.268782
-0.00035364129
-1.3563463
-0.0018997891
-0.97189405
-0.0015972826
-1.0387316
-0.0012830703
-1.1102046
-0.00098964899
-1.186657
-0.00068449544
-1.2684511
-0.00035152975
-1.3559948
-0.002129328
-0.90913791
-0.0018481573
-0.97164317
-0.0015511182
-1.0384636
-0.0012778539
-1.1099164
-0.0009952489
-1.1863463
-0.0006822911
-1.2681204
-0.0003395168
-1.3556553
-0.002332596
-0.85044652
-0.0020753855
-0.90891068
-0.0017982761
-0.97139602
-0.0015475321
-1.0381939
-0.0012872304
-1.1096244
-0.00099543872
-1.1860331
-0.0006612438
-1.2677987
-0.00031992227
-1.3553354
-0.002508439
-0.79555138
-0.0022793106
-0.85024259
-0.0020238714
-0.90868509
-0.0017989463
-0.9711446
-0.001561518
-1.0379196
-0.0012922675
-1.1093276
-0.00096843433
-1.1857259
-0.00062466641
-1.2674939
-0.00029853831
-1.3550368
-0.0026555759
-0.74420258
-0.0024620583
-0.79536863
-0.0022281408
-0.85003833
-0.0020316916
-0.90845234
-0.0018192272
-0.97088689
-0.0015737246
-1.0376382
-0.0012629362
-1.1090331
-0.00091762512
-1.185433
-0.00058334856
-1.2672091
-0.00028072423
-1.3547561
-0.0027755592
-0.69617169
-0.0026282417
-0.7440364
-0.0024133688
-0.79518341
-0.0022451443
-0.84982487
-0.0020605429
-0.90821103
-0.0018416557
-0.97061896
-0.0015456169
-1.0373555
-0.0012018379
-1.1087489
-0.00085818492
-1.1851581
-0.00054821339
-1.2669416
-0.00026827786
-1.3544878
-0.0028768246
-0.65123874
-0.0027866229
-0.69601331
-0.0025854271
-0.74386434
-0.0024379456
-0.7949906
-0.0022845301
-0.84960089
-0.0020971985
-0.90795548
-0.0018180419
-0.97034654
-0.0014788539
-1.0370785
-0.0011267516
-1.1084803
-0.00080707391
-1.1848993
-0.00052330872
-1.2666866
-0.00025909329
-1.3542287
-0.0029682617
-0.60919017
-0.0029560885
-0.65106927
-0.0027545208
-0.69584422
-0.0026085223
-0.74369376
-0.0024881613
-0.79478697
-0.0023400948
-0.84935799
-0.0020818622
-0.90769166
-0.0017493404
-0.97007605
-0.0013916297
-1.0368136
-0.0010610598
-1.1082263
-0.00077063344
-1.1846519
-0.00050517219
-1.2664405
-0.000249115
-1.3539796
-0.0030573634
-0.56983203
-0.0031476021
-0.60899866
-0.0029238017
-0.65089999
-0.0027517152
-0.69570103
-0.0026636763
-0.74351825
-0.002567541
-0.79455953
-0.0023389117
-0.84910094
-0.0020145535
-0.90742645
-0.0016530597
-0.96981462
-0.0013130629
-1.0365616
-0.0010142136
-1.1079827
-0.00074396843
-1.1844132
-0.00048621198
-1.2662034
-0.00023484485
-1.3537448
-0.0031540054
-0.53299152
-0.003345111
-0.56963452
-0.0030740379
-0.60884842
-0.0028444294
-0.65080728
-0.0027939483
-0.69557076
-0.0027744158
-0.74331137
-0.0025921687
-0.79430627
-0.0022766666
-0.84883883
-0.0019108961
-0.90716861
-0.001563991
-0.96956369
-0.0012568397
-1.036319
-0.00097967791
-1.107747
-0.00071642607
-1.1841829
-0.00045934256
-1.2659789
-0.00021494555
-1.3535298
-0.0032681823
-0.49852722
-0.0035558475
-0.53278078
-0.003187597
-0.56952097
-0.0028675872
-0.60882527
-0.0028630516
-0.65073817
-0.0029571686
-0.695388
-0.0028480151
-0.74305553
-0.0025405007
-0.79404244
-0.0021652388
-0.84858448
-0.0018132946
-0.90691931
-0.0015001931
-0.96932034
-0.0012153634
-1.0360833
-0.00094373562
-1.1075197
-0.00067799463
-1.1839643
-0.00042134471
-1.2657725
-0.00019057559
-1.3533392
-0.003423388
-0.46626926
-0.0037986053
-0.49828446
-0.0032569559
-0.53271142
-0.0028361132
-0.56955244
-0.0028769365
-0.60881138
-0.0031204254
-0.65057492
-0.003117248
-0.69511877
-0.0028132863
-0.74278274
-0.0024168394
-0.79379084
-0.0020594406
-0.84833834
-0.0017446419
-0.90667486
-0.0014535768
-0.96908213
-0.0011718009
-1.0358552
-0.00089396034
-1.1073038
-0.00062354455
-1.1837621
-0.0003740329
-1.265589
-0.00016465451
-1.3531746
-0.0036091534
-0.43609049
-0.004110781
-0.46595708
-0.0033089011
-0.49823251
-0.0027188071
-0.53282873
-0.0028491772
-0.5695802
-0.0032735024
-0.6086583
-0.0034184562
-0.65027371
-0.0031072464
-0.69482481
-0.0026665941
-0.74253299
-0.0022990068
-0.79355127
-0.0019889677
-0.84809401
-0.0016961679
-0.90643227
-0.001404117
-0.96884981
-0.0011111004
-1.0356381
-0.00082418562
-1.1071031
-0.00055446908
-1.1835817
-0.00032309568
-1.2654306
-0.00014044148
-1.3530341
-0.0038951532
-0.40781312
-0.0045127209
-0.43568855
-0.003329848
-0.46593614
-0.0024932522
-0.49845807
-0.0027572291
-0.53292068
-0.0034229939
-0.56943071
-0.0037683633
-0.6083084
-0.0034399691
-0.64994099
-0.0029172811
-0.69457412
-0.0025269578
-0.74230504
-0.0022295762
-0.79331066
-0.0019436314
-0.84784655
-0.0016439413
-0.90619245
-0.0013338164
-0.96862709
-0.0010262885
-1.035436
-0.00073507176
-1.1069225
-0.00047837078
-1.1834264
-0.0002750782
-1.265296
-0.00012019935
-1.3529139
-0.0041964554
-0.38136861
-0.0050506877
-0.40727515
-0.0033456511
-0.43567275
-0.0021056805
-0.46632371
-0.002549837
-0.49866546
-0.0035928357
-0.53275083
-0.0041812224
-0.56901785
-0.0038298308
-0.60791854
-0.0031699426
-0.64968832
-0.0027349851
-0.6943661
-0.0024600745
-0.74207454
-0.002194577
-0.79305972
-0.0018939037
-0.84759659
-0.0015662133
-0.90596005
-0.001234413
-0.96841897
-0.00091800292
-1.035253
-0.00063417139
-1.1067667
-0.00040554871
-1.1832959
-0.00023443018
-1.2651817
-0.00010463226
-1.3528093
-0.0046579807
-0.35651733
-0.0057038427
-0.38071546
-0.0033019351
-0.40731887
-0.001522445
-0.43625599
-0.0021855679
-0.46668798
-0.0037815727
-0.49847672
-0.0046906998
-0.53224136
-0.0042832334
-0.56856445
-0.0034297918
-0.60765869
-0.0029098343
-0.64951348
-0.0026686115
-0.69415756
-0.0024449729
-0.74182414
-0.0021562715
-0.79279735
-0.0018124925
-0.84735031
-0.0014525339
-0.90574193
-0.0011062763
-0.9682307
-0.00079312625
-1.0350941
-0.00053528039
-1.106637
-0.00034351273
-1.1831868
-0.00020249895
-1.2650839
-9.3157502e-05
-1.3527162
-0.0050657843
-0.33329169
-0.0065370901
-0.35568408
-0.0032961562
-0.38072124
-0.00067642336
-0.40816489
-0.0016157008
-0.43682585
-0.0040135401
-0.46645601
-0.0053567544
-0.49781067
-0.0048268075
-0.53169778
-0.0036720071
-0.56832223
-0.0030283948
-0.60754013
-0.0028360072
-0.64934608
-0.0026857794
-0.69391675
-0.00243283
-0.74154758
-0.0020778841
-0.79253196
-0.0016849763
-0.84711787
-0.0013030067
-0.9055452
-0.0009567214
-0.9680671
-0.00066736671
-1.034962
-0.00044999991
-1.1065305
-0.0002945723
-1.1830947
-0.00017834971
-1.2649987
-8.4580467e-05
-1.3526316
-0.0057691674
-0.31120782
-0.0074397122
-0.33238907
-0.0032158477
-0.35576439
0.00043787814
-0.38183554
-0.00080392724
-0.40897666
-0.0042829448
-0.43655645
-0.0062483847
-0.46556438
-0.005510345
-0.49712713
-0.0038952954
-0.53147449
-0.0030592844
-0.56829134
-0.002924363
-0.60745177
-0.0029015926
-0.64913027
-0.0027248676
-0.69362472
-0.0023695658
-0.7412559
-0.0019374235
-0.79227951
-0.0015114137
-0.84690946
-0.0011266095
-0.90537531
-0.00080285819
-0.96793161
-0.00055719088
-1.0348548
-0.00038229937
-1.1064428
-0.00025705153
-1.183016
-0.00016013472
-1.2649231
-7.7671354e-05
-1.3525539
-0.0066077149
-0.29038409
-0.0085866627
-0.31006086
-0.0032543041
-0.33235061
0.0019839121
-0.35731042
0.00032464016
-0.38296411
-0.0046316969
-0.40862791
-0.007444475
-0.43536036
-0.0063876219
-0.4646871
-0.0040941028
-0.49692832
-0.0029494552
-0.53158432
-0.0029173647
-0.56829834
-0.0030710991
-0.60728226
-0.003034394
-0.64882074
-0.0026990175
-0.69329526
-0.0022181767
-0.74097515
-0.0017351257
-0.7920558
-0.0013041272
-0.84673194
-0.00094285071
-0.90523532
-0.0006664737
-0.96782233
-0.00046848652
-1.0347686
-0.00033005238
-1.1063698
-0.0002279218
-1.1829483
-0.00014588431
-1.2648549
-7.1420794e-05
-1.3524825
-0.0076153244
-0.27138939
-0.0098106211
-0.28916013
-0.0030684629
-0.31024671
0.00380827
-0.33417497
0.0017989877
-0.35878477
-0.005019093
-0.38257671
-0.0090283761
-0.40704401
-0.00752712
-0.43422086
-0.0042610712
-0.46452013
-0.0026426351
-0.49723514
-0.002765823
-0.53173587
-0.0031972182
-0.56817222
-0.0033682455
-0.60694841
-0.003083877
-0.64843588
-0.0025406478
-0.69297279
-0.0019788389
-0.74073144
-0.0014898057
-0.79187012
-0.0010876265
-0.84658717
-0.00077893033
-0.90512286
-0.00055547688
-0.96773534
-0.00039904742
-1.0346996
-0.00028881929
-1.1063089
-0.00020449247
-1.1828897
-0.00013357425
-1.2647928
-6.5076111e-05
-1.3524174
-0.0085420137
-0.25351639
-0.011290851
-0.26990916
-0.0027503986
-0.28947819
0.0062006463
-0.31263908
0.0036813042
-0.33605728
-0.0055932607
-0.3582106
-0.011106122
-0.38049896
-0.0089880862
-0.40558304
-0.0043971897
-0.43408474
-0.0020777791
-0.46508499
-0.0023890258
-0.49761194
-0.0032876776
-0.53164541
-0.0037387329
-0.56780173
-0.0035534829
-0.60647881
-0.002924878
-0.64805165
-0.0022492798
-0.69270235
-0.0016831991
-0.74053804
-0.0012357564
-0.79172199
-0.00089484632
-0.84647125
-0.00064482072
-0.90503352
-0.00046710544
-0.96766728
-0.00034355374
-1.0346449
-0.00025451868
-1.1062588
-0.00018435482
-1.1828389
-0.00012121132
-1.2647366
-5.8188282e-05
-1.3523592
-0.010197979
-0.23476341
-0.01277603
-0.25203121
-0.0024549344
-0.27020462
0.0090177525
-0.2922953
0.0058934316
-0.31485121
-0.0061637545
-0.33548679
-0.013782036
-0.35553469
-0.010874593
-0.37861246
-0.0045013872
-0.40547884
-0.0011734235
-0.4349891
-0.0017015208
-0.46577249
-0.003301935
-0.49759768
-0.0041771995
-0.53120694
-0.0041332221
-0.56722199
-0.003401972
-0.60600171
-0.0025562478
-0.64774468
-0.0018823342
-0.69250322
-0.0013830398
-0.74039076
-0.0010125502
-0.79160429
-0.00073759066
-0.84637848
-0.00053667717
-0.90496395
-0.00039501137
-0.96761582
-0.00029654586
-1.0346029
-0.0002240229
-1.1062192
-0.00016487585
-1.1827952
-0.00010751063
-1.2646873
-5.0742298e-05
-1.3523085
-0.012022294
-0.21628944
-0.014565571
-0.23297386
-0.0023200901
-0.25216606
0.012399604
-0.27358647
0.0085017939
-0.29490366
-0.0070664526
-0.31394851
-0.017154878
-0.33211395
-0.01323187
-0.35317741
-0.004574757
-0.37853909
0.00015475709
-0.40680702
-0.00059655391
-0.43609406
-0.0031863643
-0.46588806
-0.0047188798
-0.497056
-0.0048643437
-0.53047582
-0.0039997207
-0.56662425
-0.0029138289
-0.60564413
-0.0020833905
-0.64754363
-0.0015209237
-0.69236533
-0.0011269276
-0.74027638
-0.00083332853
-0.79150855
-0.00061013651
-0.84630502
-0.00044661974
-0.90491234
-0.00033276279
-0.96757961
-0.00025369855
-1.0345732
-0.00019483815
-1.1061892
-0.00014416192
-1.1827586
-9.2446538e-05
-1.2646456
-4.3207612e-05
-1.3522653
-0.013788297
-0.19945293
-0.016056168
-0.21479884
-0.0011692107
-0.23412474
0.016011781
-0.25577823
0.011694911
-0.27677959
-0.0083144051
-0.29365571
-0.021253619
-0.30984977
-0.016224603
-0.32912122
-0.0045885874
-0.35316358
0.0020267899
-0.38041112
0.0010413151
-0.40844489
-0.0028808225
-0.43639961
-0.0053986958
-0.46520825
-0.0058264481
-0.4960939
-0.0047548152
-0.52972072
-0.0033376122
-0.56620046
-0.0022781311
-0.60544939
-0.0016354062
-0.64742914
-0.001227799
-0.69226446
-0.00092889252
-0.74018082
-0.00068915056
-0.79142953
-0.00050215256
-0.84624949
-0.00036722938
-0.90487787
-0.00027543342
-0.96755787
-0.00021269375
-1.0345553
-0.00016550141
-1.1061679
-0.00012164165
-1.1827294
-7.7277217e-05
-1.2646115
-3.6284214e-05
-1.352229
-0.015490132
-0.18364003
-0.017323546
-0.19818555
0.001185835
-0.21715388
0.020586213
-0.23869917
0.015368442
-0.25945177
-0.0098148468
-0.27527914
-0.02620224
-0.28870709
-0.019794164
-0.30628021
-0.0045365571
-0.32917325
0.0045608827
-0.35569767
0.0033541978
-0.382724
-0.00231713
-0.40900859
-0.0062534983
-0.4355448
-0.0071123761
-0.46392232
-0.0057430552
-0.49510566
-0.0038404716
-0.52921786
-0.0024567706
-0.56602182
-0.001703993
-0.6053808
-0.0012981665
-0.64735878
-0.0010171563
-0.6921762
-0.00077421574
-0.74009575
-0.00056569225
-0.791366
-0.00040484209
-0.84621188
-0.0002933643
-0.90485994
-0.00022070825
-0.96754986
-0.00017221438
-1.0345486
-0.00013485343
-1.1061547
-9.8234567e-05
-1.1827084
-6.3488401e-05
-1.2645843
-3.0555821e-05
-1.3521984
-0.019018415
-0.19846696
-0.0183166
-0.18264698
0.0040144588
-0.20101417
0.02578605
-0.22235372
0.019277803
-0.24260854
-0.010481037
-0.25878557
-0.03209698
-0.2693844
-0.023927279
-0.28457397
-0.0042866932
-0.30653007
0.0079112102
-0.33252357
0.0064755439
-0.35881902
-0.0014158768
-0.38362526
-0.0073265621
-0.40793552
-0.0088380246
-0.43381915
-0.007056841
-0.46260854
-0.0044481853
-0.49449795
-0.0026032493
-0.52907139
-0.0016967435
-0.56602907
-0.0013122736
-0.6053667
-0.0010858515
-0.64729008
-0.00086438159
-0.69208603
-0.00064221308
-0.74001923
-0.00045194104
-0.7913189
-0.00031280941
-0.84619243
-0.00022221806
-0.90485843
-0.00016625301
-0.96755582
-0.00013057207
-1.0345529
-0.00010274101
-1.1061502
-7.6643443e-05
-1.1826952
-5.2079068e-05
-1.2645628
-2.6382844e-05
-1.352172
-0.022034568
-0.19496453
-0.021055811
-0.19572775
0.0072826071
-0.18591513
0.030976033
-0.20620415
0.022594113
-0.22567003
-0.011740422
-0.24134915
-0.038572624
-0.25230993
-0.028949495
-0.26436219
-0.0037934736
-0.28506719
0.012236195
-0.31085506
0.010566662
-0.33661469
-0.00011091695
-0.36012398
-0.0086671202
-0.3822847
-0.011133736
-0.40563981
-0.0088141751
-0.43206182
-0.0051998601
-0.46185686
-0.002689101
-0.4944121
-0.0015693638
-0.52919877
-0.0012394303
-0.56610192
-0.001117783
-0.60533477
-0.00095743982
-0.64719702
-0.00073802162
-0.69199022
-0.00051701635
-0.73995416
-0.00034093953
-0.79129077
-0.00022207432
-0.84619258
-0.00015028914
-0.9048744
-0.00011027684
-0.96757611
-8.806236e-05
-1.0345676
-7.2499639e-05
-1.1061543
-5.8908949e-05
-1.1826884
-4.3703239e-05
-1.2645455
-2.3931105e-05
-1.3521481
-0.024529357
-0.19118187
-0.023260262
-0.19276008
0.0092038335
-0.19764898
0.035963732
-0.19090283
0.025171792
-0.20878183
-0.015305542
-0.22210491
-0.045865516
-0.23405626
-0.035800338
-0.24545909
-0.0032775838
-0.26487808
0.017651642
-0.29048264
0.015719816
-0.31600821
0.0017010568
-0.33842667
-0.01033773
-0.35845337
-0.014161463
-0.37925697
-0.011146488
-0.4033075
-0.0061440483
-0.43111763
-0.0026818454
-0.46186412
-0.0012626063
-0.49471885
-0.0010208785
-0.52941732
-0.0010881367
-0.56613156
-0.0010484115
-0.60524379
-0.00085970149
-0.64707534
-0.00061101698
-0.69189622
-0.000387691
-0.73990741
-0.00022726979
-0.79128557
-0.00012841974
-0.84621445
-7.6368029e-05
-0.90490831
-5.4788041e-05
-0.96760939
-4.8490764e-05
-1.0345916
-4.7480934e-05
-1.1061657
-4.563059e-05
-1.1826865
-3.8636201e-05
-1.2645308
-2.3162024e-05
-1.3521249
-0.026515316
-0.18736088
-0.024958247
-0.18948389
0.011957359
-0.1955136
0.039611812
-0.20129706
0.027182832
-0.19291387
-0.01991575
-0.20417162
-0.05395455
-0.21401588
-0.043140097
-0.2267165
-0.0032088945
-0.24552778
0.024188459
-0.2714149
0.022031832
-0.29679465
0.0040434129
-0.31835057
-0.012406863
-0.33635753
-0.018093934
-0.3545209
-0.01421844
-0.37618502
-0.0073371579
-0.40211439
-0.0025405508
-0.43125893
-0.00069922529
-0.4624275
-0.00058740315
-0.49515233
-0.0009562599
-0.52954919
-0.0011199172
-0.56606006
-0.0010121485
-0.60509135
-0.00074749273
-0.64693887
-0.00046621285
-0.6918177
-0.00024764066
-0.73988703
-0.00010689264
-0.7913071
-3.2138561e-05
-0.84625868
-4.5075949e-06
-0.90495859
-4.0856839e-06
-0.96765379
-1.5245828e-05
-1.0346238
-2.8653406e-05
-1.1061827
-3.7335425e-05
-1.1826878
-3.6661045e-05
-1.2645173
-2.3772367e-05
-1.3521012
-0.027969693
-0.18362483
-0.026209268
-0.18610986
0.015329301
-0.19285583
0.043892824
-0.19979462
0.028509146
-0.20262337
-0.024967686
-0.18786193
-0.061926431
-0.19619974
-0.048928705
-0.20822727
-0.0027924998
-0.22713289
0.032005017
-0.25334434
0.02950161
-0.27888468
0.0069498736
-0.29970111
-0.015003621
-0.31575381
-0.023137853
-0.33131361
-0.018190314
-0.35054902
-0.0088436227
-0.37467856
-0.0022202388
-0.4024347
0.00021557926
-0.43217373
0.00014765546
-0.46316256
-0.00065961751
-0.49544897
-0.0011727673
-0.52949634
-0.0011966531
-0.56587555
-0.00094435189
-0.60489449
-0.000594601
-0.64681048
-0.00029628521
-0.69176906
-9.4125795e-05
-0.7398998
1.799718e-05
-0.79135723
6.1905912e-05
-0.84632509
6.1961475e-05
-0.90502463
3.9571552e-05
-0.96770861
9.489353e-06
-1.034662
-1.6662678e-05
-1.1062034
-3.3951559e-05
-1.1826905
-3.7085584e-05
-1.264504
-2.5704623e-05
-1.3520755
-0.028886437
-0.18017165
-0.027004704
-0.18282939
0.019076354
-0.18985691
0.048537209
-0.19750021
0.030377573
-0.20166304
-0.030270201
-0.19732086
-0.069633161
-0.1801552
-0.053783604
-0.19134484
-0.00079462013
-0.21022515
0.041398828
-0.2365267
0.038467486
-0.26231021
0.010427149
-0.28236195
-0.018296609
-0.29640813
-0.029505513
-0.30938615
-0.023256284
-0.32624765
-0.010725907
-0.34866674
-0.0016587588
-0.37524004
0.0015922469
-0.40381137
0.0012938406
-0.43331992
-0.00012887859
-0.46369329
-0.0011797636
-0.49544197
-0.0014390997
-0.5292539
-0.0012231226
-0.56559678
-0.00079788606
-0.6046912
-0.00039148287
-0.64671528
-0.00010098764
-0.69176219
6.8590351e-05
-0.73995039
0.00014098898
-0.79143632
0.00014806701
-0.84641119
0.00011876282
-0.90510383
7.3062147e-05
-0.96777219
2.6383111e-05
-1.034705
-1.1534711e-05
-1.1062258
-3.4660019e-05
-1.1826929
-4.1065888e-05
-1.2644886
-2.8708364e-05
-1.3520468
-0.029269167
-0.17720739
-0.02736881
-0.17980755
0.022969594
-0.18672263
0.053354906
-0.19467461
0.032611417
-0.19973406
-0.035250487
-0.19668276
-0.078156305
-0.18879771
-0.057990102
-0.1759487
0.0023230371
-0.1944625
0.052015547
-0.22084187
0.049262892
-0.24732211
0.015012056
-0.26689512
-0.022369078
-0.27828948
-0.037417912
-0.28849573
-0.029535585
-0.30310685
-0.013057937
-0.32391562
-0.00078275948
-0.34954274
0.0035644608
-0.37721225
0.0029765137
-0.40549404
0.00072107555
-0.43416987
-0.0011033522
-0.46376971
-0.0017662649
-0.49511481
-0.0016148452
-0.52886217
-0.0011105187
-0.56528415
-0.00055747941
-0.60452521
-0.00014234102
-0.64667393
0.00011121667
-0.69180482
0.00022927091
-0.74003868
0.00025329416
-0.79154154
0.00022195815
-0.84651439
0.00016269273
-0.90519346
9.5401167e-05
-0.9678412
3.4154174e-05
-1.0347507
-1.25033e-05
-1.106248
-4.0394262e-05
-1.1826936
-4.6924564e-05
-1.2644704
-3.2423589e-05
-1.3520143
-0.029171209
-0.17489364
-0.02729073
-0.17728547
0.026737109
-0.18357506
0.058067775
-0.1914355
0.035199349
-0.19726254
-0.039889323
-0.19509522
-0.086326837
-0.18851222
-0.065321531
-0.18146628
0.0063816774
-0.18000734
0.063375844
-0.2058228
0.060616654
-0.23219563
0.021006714
-0.25331677
-0.026770641
-0.26249355
-0.046912676
-0.26879472
-0.037133016
-0.2808983
-0.015836874
-0.30032791
0.00050075696
-0.32519913
0.0062695203
-0.3522478
0.0053353395
-0.37957108
0.0019984742
-0.40677144
-0.00090020563
-0.43437302
-0.0021917113
-0.46334426
-0.0021789734
-0.49455068
-0.0015650173
-0.52840768
-0.00083060857
-0.56501102
-0.00023642688
-0.60443112
0.00013699773
-0.64669971
0.00032331124
-0.69189886
0.00037668831
-0.74016207
0.00034981071
-0.7916694
0.00027977462
-0.84663147
0.00019260917
-0.90529066
0.00010666362
-0.96791371
3.37854e-05
-1.034797
-1.9119504e-05
-1.1062692
-4.9019132e-05
-1.1826915
-5.4282878e-05
-1.2644485
-3.6528848e-05
-1.3519778
-0.028599293
-0.17335906
-0.026800503
-0.17538386
0.030187181
-0.18073555
0.062424495
-0.18793178
0.037899837
-0.19413599
-0.044052658
-0.1930992
-0.09392891
-0.18749315
-0.072338567
-0.18149519
0.0056554262
-0.18074003
0.07521297
-0.19184447
0.071843229
-0.21704937
0.027505628
-0.23869455
-0.031183377
-0.24890403
-0.057971513
-0.25143472
-0.04615965
-0.25976809
-0.019021961
-0.27771321
0.0023168606
-0.30214402
0.0098694463
-0.32879906
0.0085241711
-0.35543663
0.0038225746
-0.38139518
-0.00052497464
-0.40714667
-0.00273315
-0.43383158
-0.0029799266
-0.46254331
-0.0022277599
-0.49388794
-0.0012434198
-0.52799486
-0.00041026488
-0.56483718
0.00013493085
-0.60442905
0.00042021455
-0.64679661
0.00051841467
-0.69204059
0.0005031507
-0.74031541
0.00042563437
-0.79181526
0.0003197563
-0.84675862
0.00020861655
-0.90539262
0.00010751298
-0.96798744
2.6239491e-05
-1.0348424
-3.0367527e-05
-1.1062879
-6.0055807e-05
-1.1826857
-6.2470843e-05
-1.2644226
-4.0719508e-05
-1.3519371
-0.17275748
-0.02768748
-0.026022937
-0.17413662
0.033227718
-0.1784244
0.066195363
-0.18450641
0.040583863
-0.19061581
-0.047708585
-0.19048006
-0.10089609
-0.18613202
-0.07890461
-0.18092711
0.0053424557
-0.18118222
0.083749325
-0.18927639
0.082399928
-0.20240117
0.033298926
-0.22284267
-0.035212274
-0.23466565
-0.070924326
-0.23595122
-0.057197326
-0.24039704
-0.022703519
-0.25608653
0.004813612
-0.28020996
0.014521622
-0.30679619
0.01270227
-0.33297716
0.0063275754
-0.35794163
9.464079e-05
-0.38201479
-0.003410673
-0.40646915
-0.0040932754
-0.43271823
-0.0031870125
-0.46158405
-0.0018465265
-0.49328483
-0.00069508157
-0.52771005
9.269827e-05
-0.56479495
0.00051654984
-0.60452539
0.00067994263
-0.64695814
0.00068445931
-0.6922219
0.00060229702
-0.74049207
0.00047860948
-0.79197411
0.000342174
-0.84689218
0.00021153893
-0.90549664
9.9285707e-05
-0.96806049
1.2593375e-05
-1.0348853
-4.499415e-05
-1.1063029
-7.2454853e-05
-1.1826757
-7.0868015e-05
-1.2643924
-4.4757652e-05
-1.3518923
-0.17361906
-0.025161357
-0.17323662
-0.026405446
0.035474069
-0.17638297
0.069277601
-0.18150664
0.04304087
-0.18696342
-0.050727356
-0.18759704
-0.10698526
-0.18439088
-0.084966046
-0.18007059
0.0054011135
-0.18098576
0.092860237
-0.19029313
0.093106697
-0.19998316
0.037331264
-0.20643351
-0.040863463
-0.21719148
-0.085462839
-0.22012714
-0.070635358
-0.22251319
-0.027605157
-0.2354954
0.0081803376
-0.25945325
0.020396342
-0.28608468
0.018010235
-0.31210416
0.0096628757
-0.33631246
0.0010324851
-0.35887948
-0.0042433228
-0.38118214
-0.005608505
-0.40495392
-0.0045470775
-0.43135817
-0.0027211949
-0.46070938
-0.0011171006
-0.49286281
-8.8956436e-06
-0.52760845
0.00061316333
-0.56489156
0.00086650188
-0.60471195
0.00089884596
-0.64717253
0.0008134914
-0.69243309
0.00067168519
-0.74068515
0.00050933709
-0.79214127
0.00034822149
-0.84702886
0.00020301574
-0.90560037
8.3359804e-05
-0.96813125
-5.6042568e-06
-1.0349247
-6.1758668e-05
-1.1063136
-8.535542e-05
-1.1826613
-7.911988e-05
-1.2643581
-4.8521018e-05
-1.3518438
-0.17498792
0.036842923
-0.17433396
-0.024064024
-0.17499785
-0.024791809
0.071465363
-0.17857074
0.045083678
-0.18354945
-0.05305486
-0.18463592
-0.1120343
-0.182548
-0.090282522
-0.17907441
0.0057122115
-0.18038168
0.1024076
-0.19053313
0.10442132
-0.20160775
0.045477669
-0.20812956
-0.048320141
-0.19897683
-0.10056175
-0.20209257
-0.085716189
-0.20504631
-0.033974117
-0.21614423
0.012260493
-0.23957556
0.027649986
-0.2667069
0.024596014
-0.29267046
0.013958295
-0.31639958
0.0023901841
-0.33767016
-0.0052638668
-0.35785893
-0.007639023
-0.37915162
-0.0064318325
-0.40306916
-0.0039645838
-0.43011478
-0.0017231827
-0.4601033
-0.00018263818
-0.49268907
0.00070924169
-0.52770453
0.0010860063
-0.56511106
0.001155526
-0.60496863
0.0010657325
-0.64742477
0.00090293081
-0.69266434
0.00071258673
-0.7408884
0.00051963358
-0.79231269
0.00033997922
-0.84716582
0.00018486068
-0.90570187
6.1352019e-05
-0.96819821
-2.6950277e-05
-1.0349595
-7.9568205e-05
-1.1063194
-9.817375e-05
-1.1826422
-8.687427e-05
-1.2643197
-5.1856288e-05
-1.351792
-0.1764083
0.072885746
-0.17483771
0.037346682
-0.17621483
-0.022847047
-0.17755497
-0.022856882
0.046794367
-0.18028143
-0.054642891
-0.18196141
-0.11584856
-0.18082165
-0.09467319
-0.17815733
0.0062047244
-0.17956692
0.11203553
-0.19000962
0.11613211
-0.20224392
0.054357644
-0.21048772
-0.049868856
-0.20658085
-0.11479634
-0.18474224
-0.099464791
-0.18834397
-0.040797052
-0.19822337
0.016962444
-0.22084618
0.03648153
-0.2484071
0.032527951
-0.27463884
0.019372188
-0.29808435
0.0042586859
-0.31826808
-0.0064770396
-0.33645698
-0.010309919
-0.35518804
-0.0089982701
-0.37658519
-0.005687975
-0.40134577
-0.0025764901
-0.42926147
-0.0004344008
-0.45985154
0.00080690166
-0.49278673
0.0013549681
-0.52797349
0.0014685178
-0.56542406
0.0013692667
-0.60527216
0.0011784895
-0.64770033
0.00095529326
-0.69290704
0.00072785913
-0.74109662
0.00051220038
-0.79248491
0.00031976381
-0.84730073
0.00015904521
-0.90579957
3.511514e-05
-0.96826028
-5.0001982e-05
-1.0349891
-9.7464791e-05
-1.1063201
-0.00011037523
-1.1826187
-9.3813463e-05
-1.2642778
-5.4732894e-05
-1.3517372
-0.17771937
0.048105438
-0.17524177
0.073289799
-0.17583193
0.036963779
-0.17896555
-0.02143647
-0.18058028
-0.020716814
-0.05516902
-0.1797553
-0.11837331
-0.17943666
-0.098010553
-0.17748429
0.0069163715
-0.17886898
0.12132175
-0.18885314
0.12780397
-0.20168147
0.063354735
-0.21124101
-0.050552308
-0.20980427
-0.12646523
-0.19491195
-0.11116931
-0.17303772
-0.047102674
-0.18203834
0.022041258
-0.20330219
0.046909795
-0.23127444
0.041955338
-0.25783449
0.025980136
-0.28124678
0.0067760232
-0.30060169
-0.0079194281
-0.31682569
-0.013782591
-0.33298431
-0.012420795
-0.35176551
-0.0080285871
-0.37424457
-0.003747031
-0.40017523
-0.00077825068
-0.42891762
0.0009221601
-0.4599668
0.0016952714
-0.49312703
0.0018608848
-0.52836586
0.0017410344
-0.56579582
0.0015081482
-0.60560182
0.0012422578
-0.64798729
0.00097517716
-0.69315436
0.00072121759
-0.74130564
0.00049003018
-0.79265517
0.00029002047
-0.8474317
0.00012766347
-0.90589211
6.3886232e-06
-0.96831667
-7.352645e-05
-1.035013
-0.00011477945
-1.1063157
-0.00012151917
-1.182591
-9.9943598e-05
-1.2642326
-5.7138807e-05
-1.3516801
-0.17827523
-0.054613157
-0.17600594
0.048869614
-0.17562521
0.07308308
-0.17773944
0.035737674
-0.18215469
-0.01986205
-0.18424186
-0.018454429
-0.11963753
-0.17849108
-0.10024813
-0.17719909
0.0077399346
-0.17830785
0.12987305
-0.18742028
0.13893725
-0.19998642
0.072670074
-0.21099681
-0.051282762
-0.21051056
-0.13813027
-0.19813923
-0.12655469
-0.17952657
-0.052692062
-0.16744833
0.027283655
-0.18728074
0.0587691
-0.21516149
0.052885892
-0.242205
0.033897334
-0.26575169
0.010022479
-0.28449324
-0.0095709148
-0.2989502
-0.01822499
-0.31238329
-0.016925626
-0.32847948
-0.011130801
-0.3486633
-0.0053111476
-0.37268046
-0.0012327603
-0.39972072
0.0010820643
-0.42907752
0.0021353973
-0.46040692
0.0023655467
-0.49363169
0.0022053534
-0.52883018
0.0019069463
-0.56619462
0.0015807144
-0.60594028
0.0012644446
-0.64827656
0.0009680811
-0.69340122
0.00069670274
-0.74151231
0.00045618287
-0.79282134
0.00025321218
-0.84755725
9.2751947e-05
-0.90597848
-2.3346717e-05
-0.96836685
-9.6641437e-05
-1.0350312
-0.00013094424
-1.1063063
-0.00013150112
-1.1825594
-0.00010510904
-1.2641846
-5.9057192e-05
-1.351621
-0.1783886
-0.11952416
-0.17779915
-0.052819953
-0.17580757
0.049051977
-0.17654667
0.071890311
-0.18026642
0.033849394
-0.18586723
-0.018236676
-0.18823219
-0.016215391
-0.10138587
-0.17735334
0.0084774312
-0.17793659
0.13736368
-0.18579849
0.14899508
-0.1974781
0.081770086
-0.20908644
-0.051543443
-0.21073613
-0.14921014
-0.19943069
-0.14175136
-0.18294257
-0.068027992
-0.16419064
0.032540845
-0.17270552
0.071457984
-0.19996962
0.065315807
-0.22759141
0.043047159
-0.25135482
0.014071944
-0.26980116
-0.011492215
-0.28257194
-0.023845528
-0.29332967
-0.022728084
-0.30658083
-0.015171173
-0.32443911
-0.0073433755
-0.34663107
-0.0018073094
-0.37210591
0.0013157401
-0.3999544
0.0027199264
-0.42966205
0.0030264214
-0.4610678
0.0027967959
-0.49422314
0.0023969801
-0.52932021
0.0019816687
-0.56659558
0.0015993655
-0.6062752
0.0012534522
-0.64856193
0.00093970115
-0.69364422
0.00065825008
-0.74171438
0.00041362359
-0.79298175
0.00021168209
-0.84767618
5.6060167e-05
-0.90605789
-5.3041841e-05
-0.96841045
-0.00011867642
-1.0350434
-0.00014567263
-1.1062921
-0.00014013453
-1.1825244
-0.00010934477
-1.2641343
-6.0556918e-05
-1.3515605
-0.17866841
-0.10110606
-0.1797154
-0.11760791
-0.17821184
-0.050415687
-0.17633114
0.048836444
-0.17816093
0.069784821
-0.1833159
0.031298064
-0.18977753
-0.016691333
-0.19227508
-0.014163228
0.0095872224
-0.17846313
0.14344474
-0.18401764
0.15751565
-0.19431906
0.090332565
-0.20604058
-0.051651679
-0.2089782
-0.1599336
-0.20001267
-0.15611435
-0.1850677
-0.083194665
-0.1677759
0.026710362
-0.15836016
0.085160056
-0.1864076
0.079017912
-0.21367173
0.053518943
-0.23806319
0.018851676
-0.25613455
-0.013774909
-0.26751846
-0.030878883
-0.27553858
-0.030108525
-0.28594922
-0.020303537
-0.30144847
-0.009912503
-0.32186998
-0.0025101136
-0.34592827
0.0016656656
-0.37245583
0.0035071814
-0.40074165
0.003897172
-0.4305328
0.0035632628
-0.46183427
0.003009408
-0.49483556
0.0024614967
-0.52980004
0.001985659
-0.56698187
0.001577486
-0.60659923
0.0012176063
-0.64883983
0.0008952863
-0.69388126
0.00060948528
-0.74191024
0.00036508438
-0.79313515
0.00016748333
-0.84778761
1.8963709e-05
-0.90612989
-8.1858472e-05
-0.96844726
-0.00013917806
-1.0350499
-0.0001588068
-1.1062735
-0.00014742118
-1.1824863
-0.00011276867
-1.2640821
-6.1652501e-05
-1.3514988
-0.18008359
0.0110024
-0.18154635
-0.09927511
-0.18161819
-0.11420156
-0.17972998
-0.047016848
-0.17745162
0.048127142
-0.18031202
0.066780942
-0.18663066
0.028151195
-0.19361288
-0.015353533
-0.19620821
-0.012473971
0.14786717
-0.18288556
0.16437743
-0.19087942
0.097829745
-0.20181624
-0.051477511
-0.20621475
-0.16976757
-0.19914423
-0.16973063
-0.18639639
-0.09813056
-0.17013181
0.019869232
-0.16093477
0.093194847
-0.16639495
0.093839501
-0.20122919
0.065370217
-0.225523
0.024652059
-0.24386358
-0.016560173
-0.25334929
-0.039741955
-0.25865539