/*--------------------------------*- C++ -*----------------------------------*\
| =========                 |                                                 |
| \\      /  F ield         | OpenFOAM: The Open Source CFD Toolbox           |
|  \\    /   O peration     | Version:  5.0                                   |
|   \\  /    A nd           | Web:      www.OpenFOAM.org                      |
|    \\/     M anipulation  |                                                 |
\*---------------------------------------------------------------------------*/
FoamFile
{
    version     2.0;
    format      ascii;
    class       surfaceScalarField;
    location    "160";
    object      phi_0;
}
// * * * * * * * * * * * * * * * * * * * * * * * * * * * * * * * * * * * * * //

dimensions      [0 3 -1 0 0 0 0];

internalField   nonuniform List<scalar> 
18820
(
-0.00037828094
-1.3577814
-0.00073159282
-1.2697931
-0.00036542399
-1.357416
-0.001060378
-1.1876012
-0.00070744907
-1.2694511
-0.00035398596
-1.357062
-0.0013648365
-1.1107968
-0.001026478
-1.1872822
-0.00068498309
-1.2691201
-0.00035185058
-1.3567102
-0.001644715
-1.0390124
-0.0013230551
-1.1105002
-0.00099399802
-1.1869732
-0.00068050732
-1.2687914
-0.00035298114
-1.3563572
-0.0018996313
-0.97190006
-0.0015971269
-1.0387383
-0.0012821182
-1.1102121
-0.00098797369
-1.1866657
-0.00068319814
-1.2684612
-0.00035107807
-1.3560061
-0.0021291454
-0.90914329
-0.0018479263
-0.97164926
-0.0015499953
-1.0384705
-0.0012757312
-1.1099243
-0.00099333707
-1.1863556
-0.00068136283
-1.2681309
-0.00033935662
-1.3556667
-0.0023323608
-0.8504513
-0.0020750596
-0.90891616
-0.0017969731
-0.97140228
-0.0015450207
-1.0382012
-0.0012847455
-1.1096329
-0.00099401764
-1.1860429
-0.00066088757
-1.2678094
-0.00031989966
-1.3553468
-0.0025080332
-0.79555561
-0.0022788579
-0.8502475
-0.0020223698
-0.90869076
-0.0017960721
-0.97115123
-0.0015585201
-1.0379274
-0.0012903456
-1.1093366
-0.00096785876
-1.1857359
-0.00062461581
-1.2675047
-0.00029840176
-1.3550484
-0.0026546999
-0.74420635
-0.0024613905
-0.79537308
-0.0022264226
-0.85004345
-0.002028459
-0.90845838
-0.0018157567
-0.970894
-0.001571316
-1.0376464
-0.0012620945
-1.1090424
-0.00091754946
-1.185443
-0.00058311225
-1.26722
-0.00028031036
-1.3547681
-0.0027736228
-0.69617518
-0.0026271145
-0.74404063
-0.0024114581
-0.79518804
-0.0022415688
-0.84983034
-0.0020566229
-0.90821751
-0.0018387774
-0.97062654
-0.0015444664
-1.0373641
-0.0012017139
-1.1087582
-0.00085786775
-1.1851682
-0.0005474531
-1.2669528
-0.00026759338
-1.3545005
-0.0028727941
-0.6512424
-0.002784472
-0.69601782
-0.0025834643
-0.74386862
-0.0024341348
-0.79499548
-0.0022801872
-0.84960678
-0.002093852
-0.90796244
-0.0018165766
-0.97035443
-0.0014786263
-1.0370871
-0.0011263729
-1.1084897
-0.00080599145
-1.1849097
-0.00052200832
-1.2666984
-0.00025829363
-1.3542422
-0.0029609657
-0.60919473
-0.0029522918
-0.65107458
-0.0027529979
-0.69584828
-0.0026048086
-0.74369795
-0.0024834457
-0.79479222
-0.0023362385
-0.84936439
-0.0020800877
-0.90769892
-0.0017490092
-0.97008404
-0.0013911879
-1.0368223
-0.0010596777
-1.108236
-0.00076875445
-1.184663
-0.00050360833
-1.2664531
-0.00024840681
-1.3539938
-0.0030461126
-0.56983723
-0.0031427507
-0.60900427
-0.0029241256
-0.65090345
-0.0027489203
-0.69570417
-0.0026587177
-0.74352268
-0.0025630297
-0.79456543
-0.0023368028
-0.84910767
-0.0020141733
-0.90743376
-0.001652562
-0.96982267
-0.0013114185
-1.0365706
-0.0010117801
-1.107993
-0.00074168037
-1.1844249
-0.00048478371
-1.2662167
-0.0002343853
-1.3537595
-0.003138184
-0.53299766
-0.0033402549
-0.56963973
-0.0030780935
-0.6088503
-0.0028436762
-0.6508087
-0.0027888648
-0.69557403
-0.0027688518
-0.74331685
-0.002589586
-0.79431264
-0.0022763395
-0.84884551
-0.0019103979
-0.90717592
-0.0015620949
-0.96957199
-0.0012538783
-1.0363285
-0.00097669974
-1.107758
-0.00071428314
-1.1841954
-0.00045837866
-1.2659927
-0.00021478202
-1.3535447
-0.00324699
-0.49853467
-0.0035523068
-0.53278561
-0.0031959958
-0.56952182
-0.0028692596
-0.60882472
-0.0028573918
-0.65074017
-0.0029496493
-0.69539323
-0.0028445736
-0.74306187
-0.0025403757
-0.79404861
-0.0021648823
-0.84859102
-0.0018111494
-0.90692687
-0.0014967028
-0.96932917
-0.0012117065
-1.0360935
-0.00094090721
-1.1075314
-0.00067646936
-1.1839773
-0.00042096651
-1.2657865
-0.00019063667
-1.353354
-0.0033951721
-0.46627939
-0.0037973379
-0.49828964
-0.0032711236
-0.53271048
-0.0028406722
-0.56955041
-0.0028695217
-0.60881259
-0.003109367
-0.65058045
-0.0031122223
-0.69512558
-0.0028136631
-0.74278858
-0.0024169283
-0.79379656
-0.0020570763
-0.8483451
-0.0017405775
-0.90668299
-0.001449222
-0.96909165
-0.0011682934
-1.0358661
-0.00089185384
-1.107316
-0.0006228646
-1.1837754
-0.00037411436
-1.2656031
-0.00016479419
-1.3531892
-0.0035719393
-0.43610334
-0.0041136684
-0.46596306
-0.0033312651
-0.4982295
-0.0027269113
-0.53282424
-0.0028389294
-0.569581
-0.0032571952
-0.60866476
-0.0034109009
-0.65028177
-0.0031085891
-0.69483065
-0.0026677033
-0.7425378
-0.0022965377
-0.7935571
-0.0019842451
-0.84810143
-0.0016910445
-0.90644117
-0.0013998961
-0.96886005
-0.0011084101
-1.0356495
-0.00082309797
-1.1071157
-0.00055452611
-1.183595
-0.00032334679
-1.2654445
-0.00014051463
-1.3530487
-0.003846636
-0.40783069
-0.0045212657
-0.43569574
-0.0033644059
-0.46592992
-0.0025067359
-0.49844968
-0.0027417917
-0.53292138
-0.00339963
-0.56943857
-0.003757161
-0.6083185
-0.0034431351
-0.64994723
-0.0029204125
-0.69457794
-0.002524598
-0.74230974
-0.002224077
-0.79331727
-0.0019376006
-0.84785487
-0.0016389326
-0.90620213
-0.0013305114
-0.96863795
-0.0010247524
-1.0354479
-0.00073498282
-1.1069353
-0.00047873639
-1.1834396
-0.00027521342
-1.2653098
-0.00012012253
-1.3529286
-0.0041349398
-0.38138946
-0.0050678908
-0.40728406
-0.0033969854
-0.43566316
-0.0021269749
-0.46630968
-0.0025257803
-0.49866569
-0.0035598858
-0.53276112
-0.0041648867
-0.56903084
-0.0038358713
-0.60792576
-0.0031766979
-0.64969094
-0.0027332057
-0.69436934
-0.0024536655
-0.74208015
-0.0021873947
-0.79306747
-0.0018879642
-0.84760584
-0.0015622552
-0.90597039
-0.0012324262
-0.96843027
-0.0009176531
-1.0352652
-0.00063462185
-1.1067794
-0.00040575094
-1.1833091
-0.00023429359
-1.2651956
-0.00010440064
-1.3528242
-0.0045789958
-0.35654462
-0.0057316385
-0.38072571
-0.0033776905
-0.40730336
-0.0015550252
-0.43623511
-0.0021483075
-0.46668715
-0.0037344696
-0.4984911
-0.0046682424
-0.53225777
-0.0042946907
-0.56857202
-0.0034425374
-0.60765992
-0.0029094497
-0.6495147
-0.0026612141
-0.69416179
-0.0024362446
-0.7418313
-0.0021491249
-0.79280631
-0.0018078189
-0.84736028
-0.0014501233
-0.90575269
-0.0011056634
-0.96824226
-0.00079357864
-1.0351063
-0.0005355564
-1.1066496
-0.00034328713
-1.1832001
-0.00020208117
-1.265098
-9.2823417e-05
-1.3527314
-0.0049686732
-0.33332101
-0.0065785489
-0.35569771
-0.0034022774
-0.38070112
-0.00072329139
-0.40813509
-0.0015603067
-0.43682311
-0.0039451262
-0.46647649
-0.0053263632
-0.49783298
-0.0048460572
-0.5317064
-0.0036943338
-0.56832023
-0.0030314979
-0.60753788
-0.0028277393
-0.64934817
-0.002674865
-0.69392317
-0.0024239566
-0.74155647
-0.0020723656
-0.79254177
-0.0016822139
-0.84712819
-0.0013022143
-0.90555614
-0.00095713779
-0.9680787
-0.00066767903
-1.0349741
-0.00044968464
-1.1065432
-0.00029391397
-1.1831082
-0.00017773087
-1.265013
-8.4219116e-05
-1.3526472
-0.0056488205
-0.31124695
-0.0074963953
-0.33240317
-0.00336571
-0.35573428
0.000371385
-0.3817958
-0.00072344605
-0.40897195
-0.0041832548
-0.43658498
-0.0062077102
-0.46559515
-0.0055422022
-0.49713684
-0.0039322655
-0.53146847
-0.0030674645
-0.56828426
-0.0029152523
-0.60745036
-0.0028873806
-0.64913566
-0.0027132773
-0.69363385
-0.0023629253
-0.74126591
-0.0019344384
-0.79228954
-0.001510608
-0.84691979
-0.0011270309
-0.90538625
-0.00080317511
-0.96794321
-0.00055677057
-1.0348671
-0.00038136267
-1.1064557
-0.00025610825
-1.1830299
-0.00015942633
-1.2649378
-7.7357219e-05
-1.3525698
-0.0064697723
-0.29042575
-0.0086652243
-0.31007813
-0.0034524567
-0.33231642
0.0018948378
-0.35725773
0.00043642892
-0.38295567
-0.004487973
-0.40866723
-0.0073902712
-0.43540242
-0.0064378395
-0.46469951
-0.0041522162
-0.49691689
-0.0029657493
-0.53157019
-0.0029056835
-0.56829383
-0.0030513151
-0.60728643
-0.0030183007
-0.64883063
-0.0026906802
-0.69330609
-0.0022151755
-0.74098518
-0.0017346241
-0.79206553
-0.0013047077
-0.84674212
-0.00094316317
-0.90524626
-0.00066588271
-0.96783409
-0.00046726557
-1.0347812
-0.00032870767
-1.1063831
-0.00022686496
-1.1829624
-0.00014521585
-1.26487
-7.1219731e-05
-1.3524986
-0.0074528077
-0.27143826
-0.0099173084
-0.28917367
-0.0033330923
-0.31019749
0.0036894331
-0.33411102
0.001952556
-0.35877386
-0.0048145399
-0.38262911
-0.0089573831
-0.40710012
-0.0076038394
-0.43423642
-0.004350248
-0.46450148
-0.0026707065
-0.49721193
-0.0027482053
-0.53172766
-0.0031694119
-0.56817573
-0.0033446665
-0.60696006
-0.0030728134
-0.6484485
-0.0025379543
-0.69298331
-0.0019792217
-0.74074058
-0.0014908637
-0.79187937
-0.0010879726
-0.84659731
-0.00077809979
-0.90513405
-0.00055389607
-0.96774746
-0.00039727053
-1.0347126
-0.00028733951
-1.1063227
-0.00020348253
-1.1829042
-0.00013309923
-1.2648081
-6.5041232e-05
-1.3524335
-0.0083532036
-0.25356759
-0.011423258
-0.26993231
-0.0030897333
-0.28941703
0.0060531024
-0.31256116
0.0038814959
-0.33603996
-0.0053076686
-0.35828073
-0.011013536
-0.38057295
-0.0091012305
-0.40560273
-0.0045297238
-0.43405695
-0.0021235238
-0.46504866
-0.0023633255
-0.49759681
-0.0032475926
-0.53164948
-0.0037041357
-0.56781626
-0.003538049
-0.60649483
-0.0029230365
-0.64806342
-0.0022515613
-0.69271097
-0.0016852882
-0.74054615
-0.001236261
-0.79173108
-0.00089370737
-0.8464817
-0.00064276673
-0.90504517
-0.00046483742
-0.9676799
-0.00034157759
-1.0346583
-0.00025314798
-1.106273
-0.00018358977
-1.1828537
-0.00012107457
-1.2647521
-5.8347552e-05
-1.3523752
-0.0099959412
-0.23482862
-0.01293571
-0.25205514
-0.0028914371
-0.2701306
0.0088417503
-0.29220568
0.0061541526
-0.31483382
-0.005771977
-0.33557565
-0.013664651
-0.35562962
-0.011035992
-0.37863819
-0.0046927404
-0.40543971
-0.00124422
-0.43493625
-0.0016645309
-0.46574746
-0.0032417953
-0.49760261
-0.0041275469
-0.53122607
-0.0041114097
-0.5672429
-0.0034019494
-0.60601592
-0.0025620301
-0.64775295
-0.001886429
-0.69250983
-0.0013839998
-0.74039842
-0.0010110403
-0.79161375
-0.00073490847
-0.84638956
-0.00053379565
-0.90497622
-0.00039248856
-0.96762899
-0.00029473047
-1.0346168
-0.00022299091
-1.1062336
-0.00016457022
-1.1828102
-0.00010777615
-1.2647026
-5.1084327e-05
-1.3523241
-0.01182775
-0.21634812
-0.014775809
-0.23298852
-0.0028558249
-0.25209075
0.01218762
-0.27347647
0.0088350541
-0.29488658
-0.0065444996
-0.31406129
-0.01700592
-0.33223438
-0.013455804
-0.3532098
-0.0048446845
-0.37848625
4.9575953e-05
-0.40673351
-0.00054493573
-0.43605585
-0.0030954936
-0.46589376
-0.0046474909
-0.49708266
-0.0048339076
-0.53050357
-0.0040027322
-0.56664212
-0.0029257752
-0.60565217
-0.0020911511
-0.64754823
-0.0015229021
-0.69237093
-0.0011249997
-0.74028446
-0.00082979838
-0.79151886
-0.00060644913
-0.8463169
-0.00044343595
-0.90492527
-0.00033042738
-0.96759329
-0.00025233421
-1.0345874
-0.00019433746
-1.1062038
-0.00014441214
-1.1827735
-9.3083544e-05
-1.2646606
-4.3684345e-05
-1.3522804
-0.013609193
-0.19950399
-0.016338329
-0.2147856
-0.0018293794
-0.23401497
0.015763372
-0.25566651
0.012112234
-0.27675365
-0.0076330488
-0.29379803
-0.021070531
-0.30999668
-0.016527059
-0.32916312
-0.0049620574
-0.35309243
0.0018741314
-0.3803108
0.0011113559
-0.4083898
-0.0027455872
-0.43640575
-0.0052953626
-0.46524589
-0.0057841228
-0.49613245
-0.0047627396
-0.52974357
-0.0033593996
-0.56620849
-0.0022921883
-0.60545113
-0.0016393785
-0.64743175
-0.0012254267
-0.6922705
-0.00092417846
-0.74019008
-0.0006843553
-0.79144095
-0.00049812042
-0.84626222
-0.00036425684
-0.90489144
-0.0002736052
-0.96757202
-0.00021193602
-1.0345698
-0.0001656398
-1.1061826
-0.00012245591
-1.1827442
-7.8170091e-05
-1.2646262
-3.6836632e-05
-1.3522436
-0.015333958
-0.18368525
-0.0176833
-0.19815902
0.00038367773
-0.21699866
0.020318988
-0.23857059
0.015844179
-0.25939845
-0.0089384135
-0.27544829
-0.025992867
-0.28887569
-0.020194675
-0.30632907
-0.0050460645
-0.32907912
0.0043478009
-0.3555661
0.003448133
-0.38264758
-0.002120492
-0.4090149
-0.006103666
-0.43559745
-0.0070536564
-0.46397635
-0.005759167
-0.49513602
-0.0038770259
-0.52922594
-0.0024810941
-0.56601959
-0.0017114486
-0.60537906
-0.0012953477
-0.64736183
-0.0010107057
-0.69218398
-0.00076781497
-0.74010662
-0.00056049332
-0.79137858
-0.00040104609
-0.84622543
-0.0002909439
-0.9048741
-0.00021958722
-0.96756437
-0.00017221144
-1.0345633
-0.0001357085
-1.1061693
-9.9494445e-05
-1.1827228
-6.4529152e-05
-1.2645985
-3.11319e-05
-1.3522125
-0.018890872
-0.19851914
-0.01876108
-0.18260747
0.0030925736
-0.20086792
0.025542688
-0.22222236
0.019840241
-0.24256665
-0.0093801034
-0.25895676
-0.031861524
-0.26957963
-0.024440472
-0.2846299
-0.0049692532
-0.30640588
0.0076233361
-0.33235465
0.0065993667
-0.35871734
-0.0011369255
-0.38363115
-0.0071107068
-0.40800785
-0.0087565046
-0.4338946
-0.0070858059
-0.46264971
-0.0045071718
-0.49450588
-0.0026433491
-0.52906368
-0.001709625
-0.56602141
-0.0013089151
-0.60536549
-0.0010766872
-0.64729585
-0.00085547691
-0.69209631
-0.00063525878
-0.74003185
-0.00044702517
-0.7913326
-0.00030965866
-0.84620671
-0.00022065276
-0.90487303
-0.00016606127
-0.96757052
-0.00013142571
-1.0345675
-0.00010424033
-1.1061646
-7.8129534e-05
-1.1827092
-5.3173237e-05
-1.2645764
-2.6941446e-05
-1.3521855
-0.021938867
-0.1950184
-0.021592711
-0.19568751
0.0062520205
-0.18576692
0.030762516
-0.20608775
0.023327413
-0.22570953
-0.010387713
-0.24155904
-0.038256623
-0.25256166
-0.029582026
-0.26443808
-0.0046911901
-0.28490796
0.011861465
-0.31064401
0.010727003
-0.33648229
0.00027508132
-0.36012934
-0.0083594127
-0.38238244
-0.011021065
-0.40574329
-0.0088623937
-0.43211801
-0.0052922228
-0.46186466
-0.0027525526
-0.49439667
-0.0015911352
-0.52918217
-0.0012349865
-0.56609534
-0.0011040756
-0.60533811
-0.00094452073
-0.6472068
-0.00072838251
-0.69200319
-0.00051054873
-0.73996833
-0.00033689982
-0.79130536
-0.00021999779
-0.84620737
-0.00014985967
-0.90488924
-0.00011108611
-0.96759086
-8.9665769e-05
-1.0345821
-7.4354937e-05
-1.1061684
-6.0492718e-05
-1.1827019
-4.4772984e-05
-1.2645586
-2.4443219e-05
-1.3521611
-0.02446699
-0.19123525
-0.023896042
-0.19271507
0.008052515
-0.197488
0.03579551
-0.19079991
0.026083646
-0.20884398
-0.013711925
-0.22238532
-0.045466377
-0.23434929
-0.036557826
-0.24558586
-0.004445732
-0.26468353
0.017179632
-0.29022613
0.015926142
-0.31584315
0.0022236999
-0.33843091
-0.0099055441
-0.35858321
-0.014006748
-0.37939676
-0.011222333
-0.40338335
-0.0062848851
-0.43112535
-0.0027792524
-0.46183796
-0.0012978133
-0.49468999
-0.0010152572
-0.5294019
-0.0010682422
-0.56613117
-0.0010297317
-0.6052529
-0.00084611278
-0.64708907
-0.00060239067
-0.69191135
-0.00038257376
-0.73992265
-0.00022464465
-0.79130071
-0.00012772822
-0.8462295
-7.7101787e-05
-0.90492322
-5.6431878e-05
-0.96762409
-5.0571479e-05
-1.0346059
-4.9483807e-05
-1.1061794
-4.7199679e-05
-1.1826995
-3.9639067e-05
-1.2645434
-2.3614701e-05
-1.3521375
-0.026485435
-0.18741287
-0.025695156
-0.18943613
0.010680942
-0.1953435
0.039481251
-0.20117374
0.028278964
-0.19299523
-0.018094641
-0.20446126
-0.053571913
-0.21427978
-0.044050785
-0.22685633
-0.0047297974
-0.2453018
0.02360818
-0.27111208
0.02229546
-0.29659544
0.0047364433
-0.31835589
-0.01180893
-0.33652752
-0.017884537
-0.35470542
-0.014332897
-0.37628619
-0.0075461338
-0.40212211
-0.0026862891
-0.43121831
-0.00075375761
-0.46238202
-0.0005807673
-0.49512448
-0.00092667122
-0.52954348
-0.001093354
-0.56606755
-0.00099275505
-0.60510625
-0.0007357881
-0.64695568
-0.00045977756
-0.69183415
-0.00024448883
-0.73990281
-0.0001059885
-0.79132245
-3.2782163e-05
-0.84627382
-6.1323582e-06
-0.90497352
-6.2789534e-06
-0.96766838
-1.7516233e-05
-1.0346379
-3.0661418e-05
-1.1061959
-3.8802597e-05
-1.1827003
-3.7582515e-05
-1.2645294
-2.4171918e-05
-1.3521133
-0.027969848
-0.18367267
-0.027045369
-0.18606266
0.013924856
-0.19268005
0.043807799
-0.19967004
0.0297739
-0.20266868
-0.022937409
-0.18815246
-0.061599682
-0.19643349
-0.050019199
-0.20831137
-0.004724613
-0.22686151
0.031292972
-0.25298659
0.029835623
-0.27865225
0.0078506429
-0.29970964
-0.014189564
-0.31597525
-0.022858896
-0.33155316
-0.018357548
-0.35068077
-0.0091463578
-0.37468597
-0.0024329939
-0.4023754
0.00013406545
-0.43210614
0.00015529587
-0.46311808
-0.00061601412
-0.49543514
-0.0011330889
-0.52950374
-0.0011681716
-0.56589214
-0.00092796962
-0.60491407
-0.00058646236
-0.64682899
-0.00029270753
-0.69178593
-9.319358e-05
-0.73991561
1.7322352e-05
-0.79137256
6.021176e-05
-0.84634017
5.9622902e-05
-0.90503942
3.7013037e-05
-0.96772291
7.0977653e-06
-1.0346756
-1.8553133e-05
-1.1062162
-3.528184e-05
-1.1827026
-3.7903828e-05
-1.2645157
-2.6045263e-05
-1.3520872
-0.028912123
-0.18021349
-0.027934276
-0.18278376
0.017544593
-0.18968239
0.048507786
-0.19738003
0.031813048
-0.20170919
-0.028007909
-0.19759818
-0.069378188
-0.18037395
-0.055062735
-0.19138996
-0.0031337186
-0.20990226
0.04050535
-0.23607389
0.038872945
-0.26202391
0.011571347
-0.28237295
-0.017204637
-0.29669457
-0.029143895
-0.30969025
-0.023494242
-0.32641647
-0.011153828
-0.3486733
-0.0019623394
-0.37515662
0.0014740046
-0.40371534
0.0013027721
-0.43325361
-6.5552881e-05
-0.46366854
-0.0011191293
-0.4954491
-0.0013977893
-0.52927412
-0.0011993589
-0.56562075
-0.00078741359
-0.60471312
-0.00038769897
-0.646734
-0.00010040402
-0.69177872
6.760575e-05
-0.73996589
0.00013914246
-0.79145149
0.00014564776
-0.84642619
0.00011607018
-0.90511848
7.0460326e-05
-0.96778627
2.4136706e-05
-1.0347183
-1.3248921e-05
-1.1062382
-3.5841568e-05
-1.1827047
-4.1739715e-05
-1.2645
-2.8999435e-05
-1.3520582
-0.029316162
-0.17723988
-0.028382088
-0.17976568
0.021318394
-0.18655756
0.053383876
-0.19455848
0.034216046
-0.19978303
-0.032749602
-0.1969675
-0.077914401
-0.18906197
-0.059494319
-0.17594237
-0.00042837332
-0.1940953
0.050971011
-0.22036792
0.049766489
-0.24696743
0.016424914
-0.26687748
-0.020938115
-0.27863947
-0.036966166
-0.2888723
-0.029868783
-0.30331571
-0.013649853
-0.32392044
-0.0012062708
-0.34942937
0.0033982035
-0.37708082
0.0029869687
-0.40539954
0.00081142442
-0.43413059
-0.0010120806
-0.46377559
-0.0017054839
-0.49514141
-0.0015808329
-0.52889265
-0.0010965791
-0.56531158
-0.00055393301
-0.60454689
-0.00014282162
-0.64669158
0.00010935324
-0.69182046
0.00022697027
-0.74005372
0.00025069532
-0.79155654
0.00021915913
-0.84652928
0.00015993717
-0.90520796
9.2891234e-05
-0.96785503
3.2085915e-05
-1.0347636
-1.4028031e-05
-1.10626
-4.1397658e-05
-1.182705
-4.7509191e-05
-1.2644815
-3.2681629e-05
-1.3520256
-0.029235358
-0.17491651
-0.028373677
-0.17724829
0.024981329
-0.18342861
0.058154847
-0.19132854
0.036967605
-0.19731004
-0.037153434
-0.1953792
-0.086097971
-0.18878393
-0.066970971
-0.18158532
0.0032568034
-0.17962755
0.062213819
-0.20533811
0.061263303
-0.23186474
0.022740605
-0.25328312
-0.02492459
-0.262891
-0.04636626
-0.26923938
-0.037592476
-0.28114861
-0.016638309
-0.30032726
-7.8047102e-05
-0.32504867
0.0060418654
-0.35207303
0.0053474824
-0.37944134
0.0021253731
-0.40671349
-0.00076586212
-0.43437681
-0.0021013643
-0.46337971
-0.0021305748
-0.49459167
-0.0015464255
-0.5284428
-0.00082796815
-0.56503755
-0.00023918463
-0.60445052
0.00013322702
-0.64671546
0.00031995535
-0.69191345
0.00037368714
-0.74017671
0.00034689947
-0.79168428
0.00027694282
-0.84664629
0.00018995239
-0.90530502
0.00010433858
-0.96792728
3.1934043e-05
-1.0348096
-2.0456154e-05
-1.106281
-4.9902072e-05
-1.1827026
-5.4800582e-05
-1.2644594
-3.6772828e-05
-1.3519888
-0.028672988
-0.17337191
-0.027938592
-0.1753516
0.028349375
-0.18061634
0.062564082
-0.18783785
0.039823296
-0.19418423
-0.041086997
-0.19337648
-0.093716341
-0.18776083
-0.074139283
-0.18161562
0.0021358771
-0.18046439
0.073961894
-0.19137562
0.072669447
-0.21674426
0.029507786
-0.23863192
-0.028841797
-0.24936592
-0.057301979
-0.25195528
-0.046769604
-0.26006225
-0.020084885
-0.27770203
0.001543107
-0.30194841
0.0095659998
-0.3285728
0.0085383352
-0.35526388
0.0039968214
-0.38131279
-0.00033194959
-0.4071474
-0.002599389
-0.43387879
-0.0029104783
-0.46259981
-0.0022034667
-0.49393462
-0.0012424389
-0.52802833
-0.000417337
-0.56485939
0.00012764844
-0.60444495
0.00041477099
-0.64681027
0.00051454268
-0.69205431
0.00050002913
-0.74032984
0.00042281011
-0.79183015
0.00031708587
-0.84677342
0.00020615948
-0.90540684
0.00010541158
-0.96800076
2.4589819e-05
-1.0348547
-3.154984e-05
-1.1062993
-6.0843873e-05
-1.1826966
-6.2961357e-05
-1.2644332
-4.0968552e-05
-1.3519478
-0.17276062
-0.027761875
-0.027193894
-0.17411661
0.031330806
-0.17833303
0.066379619
-0.18443187
0.042646831
-0.19066138
-0.044531741
-0.19073948
-0.1007013
-0.18639152
-0.080852273
-0.18104784
0.0014241741
-0.18090391
0.082294748
-0.18879724
0.083424344
-0.20213052
0.035619004
-0.22285547
-0.032274597
-0.23519912
-0.070086753
-0.23658114
-0.057957502
-0.24076739
-0.024087505
-0.25605963
0.0038015746
-0.2799605
0.014128463
-0.30651088
0.012718888
-0.33275335
0.006561626
-0.35782869
0.00036631761
-0.38201105
-0.0032150727
-0.40653172
-0.0039930424
-0.43279622
-0.0031552286
-0.46164805
-0.0018492167
-0.49332785
-0.00070903791
-0.52773663
7.9225177e-05
-0.56481097
0.00050732437
-0.6045375
0.00067438014
-0.64697011
0.00068088019
-0.69223516
0.00059954239
-0.74050657
0.00047609076
-0.79198915
0.00033975339
-0.84690701
0.00020931889
-0.90551075
9.7401131e-05
-0.96807357
1.1123133e-05
-1.0348973
-4.6066931e-05
-1.1063141
-7.320351e-05
-1.1826863
-7.1363315e-05
-1.2644028
-4.5024962e-05
-1.3519028
-0.17361401
-0.026340512
-0.17323241
-0.026473569
0.033540711
-0.17632651
0.0694999
-0.18145331
0.0452201
-0.18700514
-0.047362022
-0.1878311
-0.10681335
-0.18462743
-0.087053709
-0.18019008
0.0010850231
-0.18070869
0.091191021
-0.18980019
0.094179113
-0.19955201
0.040050545
-0.20656206
-0.037308566
-0.2178215
-0.084395765
-0.2208901
-0.071553969
-0.22298467
-0.029379804
-0.23547509
0.0068817115
-0.25913977
0.019900558
-0.28573259
0.018030216
-0.3118222
0.0099702325
-0.33616196
0.0014081231
-0.35887049
-0.0039618373
-0.38126429
-0.0054642108
-0.40506055
-0.0045050656
-0.43144638
-0.0027308466
-0.46076642
-0.0011417494
-0.49289513
-3.2322974e-05
-0.52762508
0.00059760517
-0.56490125
0.0008578182
-0.60472094
0.00089432098
-0.64718355
0.00081082885
-0.69244644
0.00066952477
-0.74070001
0.00050718058
-0.79215658
0.00034606668
-0.84704376
0.00020101366
-0.90561436
8.1656407e-05
-0.9681441
-6.9467631e-06
-1.0349364
-6.2779601e-05
-1.1063245
-8.6109418e-05
-1.1826716
-7.9644996e-05
-1.2643682
-4.8817976e-05
-1.351854
-0.17496774
0.034894442
-0.17434285
-0.025230069
-0.17498525
-0.024844777
0.071710416
-0.17853703
0.04735237
-0.18358558
-0.049531171
-0.184836
-0.1118926
-0.18275185
-0.09249236
-0.17918878
0.0010080139
-0.18011307
0.10051946
-0.19003713
0.10555305
-0.20117412
0.048444792
-0.20794626
-0.044215355
-0.19965527
-0.099365293
-0.20285198
-0.086878121
-0.20556595
-0.036221153
-0.21614332
0.010598094
-0.23919147
0.027044117
-0.26628333
0.024620376
-0.29232275
0.014353269
-0.31620524
0.0028983244
-0.33765216
-0.004866735
-0.3579656
-0.0074326422
-0.37929586
-0.0063758559
-0.40318976
-0.0039856987
-0.43019153
-0.0017651246
-0.46014304
-0.00022104851
-0.49270641
0.00068311822
-0.5277106
0.0010721115
-0.56511555
0.0011493287
-0.60497595
0.0010631381
-0.64743586
0.0009013968
-0.69267832
0.0007110175
-0.74090384
0.00051780953
-0.79232832
0.00033804496
-0.84718079
0.00018302363
-0.90571573
5.9762051e-05
-0.96821081
-2.8251522e-05
-1.034971
-8.0597085e-05
-1.10633
-9.8970631e-05
-1.1826523
-8.7457028e-05
-1.2643295
-5.2190669e-05
-1.3518018
-0.17639675
0.07313943
-0.17485592
0.035407511
-0.1762385
-0.023976817
-0.17753216
-0.022888135
0.049116073
-0.18030073
-0.051001277
-0.18211548
-0.1157479
-0.1809807
-0.096987889
-0.17825632
0.0011324118
-0.17931318
0.10993536
-0.18952898
0.11730873
-0.20179282
0.057570648
-0.21029998
-0.045132944
-0.20702867
-0.11364102
-0.18537954
-0.10090788
-0.18882221
-0.043556057
-0.19823105
0.014846384
-0.22039161
0.03575539
-0.24790274
0.03255916
-0.27422211
0.019867839
-0.29783732
0.0049326337
-0.31823955
-0.0059250852
-0.33659381
-0.010017878
-0.35538036
-0.008923239
-0.37674847
-0.0057266635
-0.40144879
-0.0026451607
-0.4293115
-0.00049504824
-0.45986904
0.00076450958
-0.4927878
0.0013327739
-0.52797126
0.0014594076
-0.56542563
0.0013666139
-0.60527942
0.0011779365
-0.6477124
0.00095477389
-0.69292207
0.00072676716
-0.7411128
0.0005106157
-0.79250089
0.00031796939
-0.84731574
0.00015729411
-0.90581326
3.3552281e-05
-0.96827262
-5.1326018e-05
-1.0350002
-9.8552437e-05
-1.1063304
-0.00011125232
-1.1826285
-9.4465579e-05
-1.2642873
-5.510612e-05
-1.3517467
-0.17772676
0.050446076
-0.17525559
0.073539097
-0.17588127
0.035050277
-0.17899974
-0.022509243
-0.18054731
-0.020722859
-0.05145081
-0.1798512
-0.11831206
-0.17955131
-0.10040598
-0.1775626
0.0015110188
-0.17863493
0.11902892
-0.18840674
0.12901712
-0.20123737
0.066868864
-0.21109103
-0.045207419
-0.2102255
-0.1250787
-0.19559099
-0.11283286
-0.17345456
-0.050333697
-0.18204457
0.019404587
-0.20278925
0.046052288
-0.23068851
0.041998933
-0.25734252
0.026588679
-0.28094295
0.0076523385
-0.30055703
-0.0071658812
-0.31699876
-0.013373515
-0.33323818
-0.012320838
-0.35198276
-0.0080934595
-0.37438168
-0.003854962
-0.40023899
-0.00087187088
-0.42893467
0.00085647989
-0.45996101
0.001660235
-0.49311526
0.0018471281
-0.52835898
0.0017380661
-0.56579708
0.0015090387
-0.60561052
0.0012434517
-0.64800108
0.00097541511
-0.69317072
0.00072041996
-0.7413226
0.00048855473
-0.79267148
0.00028826228
-0.84744671
0.00012590321
-0.90590561
4.7730866e-06
-0.96832871
-7.4930864e-05
-1.0350239
-0.00011596694
-1.1063257
-0.000122496
-1.1826004
-0.0001006713
-1.2642417
-5.7552062e-05
-1.3516891
-0.17830488
-0.05087269
-0.17599439
0.051184872
-0.17565389
0.073311726
-0.17782553
0.033876068
-0.18219372
-0.020862841
-0.18419988
-0.018431238
-0.11959253
-0.17857073
-0.1026923
-0.17726499
0.0020495898
-0.17810117
0.12742529
-0.1870313
0.14017947
-0.19956908
0.076472543
-0.21084105
-0.045361168
-0.21093728
-0.13645185
-0.19885235
-0.12815121
-0.18027264
-0.056325556
-0.1674627
0.024099784
-0.18673977
0.057760363
-0.21449733
0.052951675
-0.24164126
0.034631648
-0.26538549
0.011141616
-0.28443223
-0.0085565844
-0.29916632
-0.017659987
-0.31271228
-0.016793974
-0.32876504
-0.011233789
-0.34884243
-0.0054753204
-0.37276132
-0.0013738796
-0.39973698
0.00098376165
-0.42906196
0.0020814682
-0.46038225
0.0023446975
-0.49361283
0.0022016412
-0.52882256
0.0019099136
-0.56619795
0.0015845713
-0.60595164
0.0012668883
-0.64829255
0.00096873468
-0.69341904
0.0006959788
-0.74153003
0.00045466912
-0.79283788
0.0002513769
-0.84757218
9.0890911e-05
-0.90599173
-2.5075353e-05
-0.96837857
-9.8169567e-05
-1.0350417
-0.00013225974
-1.106316
-0.00013258825
-1.1825685
-0.00010591723
-1.2641933
-5.9506956e-05
-1.3516296
-0.17842181
-0.1194756
-0.17775109
-0.049115987
-0.17579473
0.051325704
-0.17660092
0.072087113
-0.18038223
0.032064576
-0.18591098
-0.019151745
-0.18818413
-0.016159574
-0.10387442
-0.17738862
0.0025579443
-0.17777335
0.13480222
-0.1854781
0.15025265
-0.19710448
0.085847436
-0.20894398
-0.045058154
-0.21114406
-0.14726951
-0.20011962
-0.14329931
-0.18370425
-0.071872417
-0.16472578
0.028772478
-0.1721354
0.070268487
-0.1992479
0.065410113
-0.22695577
0.043924588
-0.25093419
0.015480877
-0.26972475
-0.010145736
-0.28284308
-0.023074741
-0.29375157
-0.02255845
-0.30694781
-0.015329635
-0.32466919
-0.0075855754
-0.34673218
-0.0020149437
-0.37212026
0.0011723619
-0.39992558
0.0026397628
-0.42962025
0.0029948876
-0.46103244
0.002791703
-0.49420289
0.0024028314
-0.52931547
0.0019895071
-0.56660289
0.0016052799
-0.60629004
0.001256536
-0.64858035
0.00094039468
-0.69366345
0.00065737588
-0.74173274
0.00041192386
-0.79299843
0.00020966326
-0.84769095
5.4025837e-05
-0.90607083
-5.4931471e-05
-0.96842181
-0.00012035926
-1.0350536
-0.00014712801
-1.1063014
-0.00014133818
-1.1825331
-0.00011022366
-1.2641426
-6.1038124e-05
-1.3515686
-0.17867104
-0.10362519
-0.1796939
-0.11753279
-0.17810904
-0.046801674
-0.17630187
0.051026656
-0.17823658
0.069941462
-0.18345844
0.029612037
-0.18982415
-0.017511725
-0.19222309
-0.014073271
0.0035111209
-0.17834179
0.14080379
-0.18377492
0.15878187
-0.19400732
0.094651492
-0.20590854
-0.044641564
-0.20936057
-0.15772533
-0.20068824
-0.15759726
-0.18582168
-0.087222128
-0.16835454
0.022217148
-0.15817045
0.083761725
-0.18562864
0.079128771
-0.21296655
0.054544754
-0.23757593
0.020595103
-0.25604842
-0.012001917
-0.26786857
-0.029844023
-0.27607379
-0.029895372
-0.28641465
-0.020539826
-0.30173762
-0.010261422
-0.32199335
-0.0028073645
-0.34593976
0.0014617052
-0.3724096
0.0033916069
-0.40067743
0.0038502814
-0.43047564
0.0035559688
-0.4617967
0.0030192227
-0.49481929
0.002475163
-0.52980113
0.0019968559
-0.56699447
0.0015844262
-0.60661793
0.0012207085
-0.64886067
0.00089566492
-0.69390174
0.00060825576
-0.74192907
0.00036306753
-0.79315184
0.00016519703
-0.84780212
1.6708048e-05
-0.90614247
-8.3940643e-05
-0.96845823
-0.00014103221
-1.0350597
-0.0001604121
-1.1062824
-0.00014873076
-1.1824946
-0.00011371138
-1.2640899
-6.2159257e-05
-1.3515064
-0.18002757
0.0048676562
-0.18153242
-0.10178666
-0.18153707
-0.11410475
-0.1795682
-0.043535336
-0.17741284
0.050202917
-0.18040723
0.066890257
-0.18679287
0.026580762
-0.19366003
-0.016074784
-0.19615483
-0.012349877
0.14521341
-0.18275141
0.16564539
-0.19063844
0.10234851
-0.20170433
-0.043989811
-0.20656029
-0.16732247
-0.19976342
-0.17115426
-0.18713124
-0.10230903
-0.17073477
0.014664012
-0.1608014
0.091243369
-0.1656521
0.09396374
-0.20046361
0.066532074
-0.22495387
0.026747393
-0.24372822
-0.014276132
-0.25377421
-0.03837974