/*--------------------------------*- C++ -*----------------------------------*\
| =========                 |                                                 |
| \\      /  F ield         | OpenFOAM: The Open Source CFD Toolbox           |
|  \\    /   O peration     | Version:  5.0                                   |
|   \\  /    A nd           | Web:      www.OpenFOAM.org                      |
|    \\/     M anipulation  |                                                 |
\*---------------------------------------------------------------------------*/
FoamFile
{
    version     2.0;
    format      ascii;
    class       volScalarField;
    location    "160";
    object      pMean;
}
// * * * * * * * * * * * * * * * * * * * * * * * * * * * * * * * * * * * * * //

dimensions      [0 2 -2 0 0 0 0];

internalField   nonuniform List<scalar> 
9520
(
-2.2379353e-06
-1.3345106e-06
2.858911e-05
2.0158608e-07
3.1075771e-05
4.5814018e-05
2.0286414e-06
3.5344285e-05
4.9943902e-05
6.3193323e-05
3.9074527e-06
4.0662937e-05
5.7191445e-05
6.9301241e-05
7.3070947e-05
5.5783918e-06
4.6385825e-05
6.635838e-05
7.9970006e-05
8.1347186e-05
7.7931879e-05
6.866974e-06
5.184649e-05
7.6375181e-05
9.3588715e-05
9.5904504e-05
8.8608467e-05
7.6012176e-05
7.5290561e-06
5.6518115e-05
8.6188722e-05
0.00010866706
0.00011468823
0.00010751866
8.9322574e-05
6.7089813e-05
7.4832077e-06
5.9974962e-05
9.4951128e-05
0.00012376227
0.00013581148
0.00013220277
0.00011305378
8.3139127e-05
5.0538117e-05
6.6015089e-06
6.203555e-05
0.00010182019
0.00013767052
0.00015746737
0.00016041727
0.00014436224
0.00011197293
6.9418261e-05
2.5783191e-05
5.3194242e-06
6.2068467e-05
0.00010632198
0.00014933068
0.00017811296
0.00018999728
0.00018067377
0.00015044708
0.00010356489
4.742902e-05
-7.4162125e-06
2.619985e-06
6.0183123e-05
0.00010788191
0.00015798865
0.00019636135
0.00021903825
0.00021949968
0.00019571965
0.00014958631
8.6849551e-05
1.6873527e-05
-4.9208175e-05
-4.0862246e-08
5.5538018e-05
0.00010650595
0.00016276389
0.00021113403
0.00024577805
0.00025861873
0.00024502298
0.00020444802
0.00014051977
6.1403597e-05
-2.2562674e-05
-9.9531282e-05
-6.0015891e-06
4.9664492e-05
0.0001011849
0.00016353925
0.0002213954
0.00026882327
0.00029596865
0.00029581759
0.0002651903
0.00020532454
0.00012261545
2.6614163e-05
-7.0902492e-05
-0.00015805768
-9.4447969e-06
3.9890551e-05
9.3235548e-05
0.00015953873
0.00022667471
0.00028684962
0.00032981786
0.00034571981
0.00032905791
0.00027819502
0.00019742527
9.4869588e-05
-1.7702312e-05
-0.00012797238
-0.00022436399
-1.8874526e-05
3.192149e-05
8.0175146e-05
0.00015181058
0.00022598765
0.00029933652
0.00035859388
0.00039270093
0.00039341802
0.00035621287
0.00028276438
0.00017929824
5.6863148e-05
-7.1652352e-05
-0.00019344416
-0.00029771216
-2.1914479e-05
1.7319842e-05
6.7288795e-05
0.00013807154
0.00022041997
0.00030516742
0.00038125183
0.00043496022
0.00045590823
0.00043652245
0.00037565251
0.00027696995
0.0001502066
8.0976145e-06
-0.00013508582
-0.0002666881
-0.00037738359
-3.3405066e-05
9.5841887e-06
4.7319961e-05
0.00012326133
0.00020783618
0.0003049524
0.00039655807
0.00047111379
0.00051435311
0.00051650475
0.00047309338
0.00038495346
0.00025967205
0.0001091629
-5.152964e-05
-0.00020760155
-0.00034702062
-0.0004623022
-3.6566173e-05
-9.8533527e-06
3.1890599e-05
0.00010036632
0.00019262822
0.0002965623
0.00040485644
0.00049962309
0.00056706035
0.00059365367
0.00057219808
0.0005002013
0.00038249848
0.00022932638
5.5729907e-05
-0.00012197119
-0.00028864059
-0.00043344602
-0.0005514435
-4.8769456e-05
-1.6841119e-05
5.7517049e-06
8.0314141e-05
0.00016789276
0.00028382354
0.00040385185
0.00052053037
0.00061228355
0.00066596599
0.00067016235
0.0006196498
0.00051568967
0.00036616203
0.00018506525
-1.0498078e-05
-0.00020288532
-0.00037736093
-0.00052501717
-0.0006435224
-5.224564e-05
-3.9985661e-05
-1.0840569e-05
4.9237328e-05
0.00014438387
0.00026015662
0.00039686042
0.0005313803
0.00064973931
0.00073138581
0.00076470132
0.00074023066
0.00065609334
0.00051685858
0.00033454111
0.00012594637
-8.951042e-05
-0.00029366587
-0.00047287978
-0.00062047794
-0.00073745792
-6.2114202e-05
-5.0231551e-05
-4.2837325e-05
2.4966786e-05
0.00010819541
0.00023583207
0.00037770383
0.00053492887
0.00067683942
0.0007891983
0.00085340172
0.00085928775
0.00080048331
0.00067829425
0.00050168031
0.00028608973
5.1542339e-05
-0.00018103293
-0.00039355459
-0.00057401713
-0.00071871989
-0.0008319624
-6.8053085e-05
-7.6197719e-05
-6.097933e-05
-1.2983839e-05
7.7676438e-05
0.00019680911
0.00035637033
0.0005254122
0.00069570458
0.0008366908
0.00093501737
0.00097402532
0.00094582039
0.00084711021
0.00068352163
0.0004679546
0.00021983303
-3.8332841e-05
-0.00028452581
-0.0005015082
-0.000679654
-0.00081838726
-0.00092592436
-7.3730794e-05
-9.196035e-05
-9.6571943e-05
-4.0146089e-05
3.2050915e-05
0.00016204987
0.00031863604
0.00051231395
0.00070101561
0.00087555611
0.0010066446
0.0010826736
0.0010889318
0.0010199292
0.00087668757
0.00066888908
0.00041405207
0.00013499348
-0.00014346487
-0.00039915518
-0.00061642752
-0.00078841073
-0.00091833548
-0.001018116
-8.1136893e-05
-0.00012044662
-0.00011835905
-8.425045e-05
-4.1620323e-06
0.00010937843
0.00028334708
0.00048145899
0.0007018129
0.000900675
0.0010695684
0.0011821818
0.0012275118
0.0011932924
0.0010775609
0.00088560468
0.00063202537
0.0003385055
3.1348488e-05
-0.00026333105
-0.00052392442
-0.00073693385
-0.00089906694
-0.0010172695
-0.0011075261
-8.202041e-05
-0.00014101167
-0.00015758352
-0.00011607903
-5.8928281e-05
6.3825716e-05
0.00022760629
0.00045149516
0.00068397163
0.00092048203
0.001118552
0.0012731089
0.0013581707
0.0013643227
0.0012823799
0.0011143659
0.0008707121
0.0005707019
0.00024051336
-9.1036722e-05
-0.0003971381
-0.00065750922
-0.00086171213
-0.0010101857
-0.0011140862
-0.001193142
-8.6146084e-05
-0.00017056483
-0.00019225205
-0.00016718033
-0.00010459424
-4.201625e-06
0.00017628943
0.0003988122
0.00066605499
0.00092088456
0.0011613664
0.0013500446
0.0014807025
0.0015291825
0.0014877445
0.0013511505
0.001126393
0.00082897005
0.0004833844
0.00011955333
-0.00023166809
-0.00054371496
-0.00079853717
-0.00098921013
-0.0011205319
-0.0012076697
-0.0012741167
-8.7916686e-05
-0.00019830754
-0.00023134949
-0.0002169036
-0.0001698539
-6.6118052e-05
9.8989602e-05
0.00034827728
0.00062379979
0.00092031477
0.0011839632
0.0014198829
0.0015895714
0.001686838
0.0016894229
0.0015921182
0.0013948836
0.0011097727
0.00075798832
0.00036885498
-2.433352e-05
-0.00038968423
-0.00070171186
-0.00094536055
-0.0011180316
-0.0012287926
-0.0012970921
-0.0013496858
-9.1521374e-05
-0.0002169855
-0.00027617959
-0.00027527979
-0.000239222
-0.0001516234
2.2671625e-05
0.0002682071
0.00058232559
0.00089363474
0.0012047424
0.0014684089
0.0016905932
0.0018316246
0.0018854652
0.0018326534
0.0016718809
0.0014088194
0.0010611772
0.00065575615
0.00022653875
-0.00019074582
-0.00056386015
-0.00086945455
-0.0010964148
-0.0012466147
-0.0013338774
-0.0013814744
-0.0014192047
-8.9157736e-05
-0.00024593795
-0.0003147862
-0.00034524221
-0.00032496846
-0.00024629228
-8.2288571e-05
0.00018513741
0.00050889786
0.00086623364
0.0011969173
0.0015140426
0.0017695385
0.0019682567
0.0020700152
0.00206992
0.0019524708
0.0017214592
0.0013887315
0.00097768066
0.00052090737
5.6222037e-05
-0.00037873616
-0.00075262449
-0.0010452208
-0.0012499011
-0.0013736058
-0.0014346838
-0.0014600588
-0.0014821505
-8.4821573e-05
-0.0002673195
-0.00036276387
-0.00041084263
-0.00042803664
-0.00036749293
-0.00020136894
6.6193603e-05
0.00042883512
0.00080430159
0.0011865503
0.0015283483
0.0018440196
0.0020825931
0.0022466224
0.0022976692
0.0022330039
0.0020425341
0.0017358131
0.0013307209
0.00085703671
0.0003524922
-0.00014162444
-0.00058697783
-0.00095415222
-0.0012270028
-0.0014041341
-0.0014975672
-0.0015302532
-0.0015322032
-0.0015381233
-7.4466637e-05
-0.00029943419
-0.00040649926
-0.00048693122
-0.00053227356
-0.00051418982
-0.00035830873
-7.1949419e-05
0.00030550706
0.00073156216
0.0011377795
0.0015376151
0.001884394
0.0021913586
0.002401377
0.0025184085
0.0025066599
0.0023675958
0.0020968884
0.0017100266
0.0012315548
0.00069740302
0.00015027982
-0.00036609864
-0.00081369511
-0.0011662977
-0.0014127888
-0.0015572829
-0.001617281
-0.0016197216
-0.0015973902
-0.0015868455
-6.2717972e-05
-0.00032819872
-0.00046194013
-0.00055949909
-0.00064761609
-0.00066968628
-0.00055570627
-0.00026113152
0.00015778936
0.00060911352
0.0010734471
0.001502887
0.0019178471
0.0022631115
0.0025497274
0.0027183435
0.0027748809
0.0026891771
0.0024668285
0.0021097947
0.0016398347
0.001088389
0.00049767523
-8.5446355e-05
-0.00061567144
-0.0010567337
-0.0013867728
-0.0016003854
-0.001707807
-0.0017315804
-0.0017023694
-0.0016552449
-0.0016281667
-4.7710316e-05
-0.00036565755
-0.00051753303
-0.00064811162
-0.00076239145
-0.00083853466
-0.00077255306
-0.00050345245
-5.5003252e-05
0.00045390249
0.00095235766
0.0014464188
0.0019011201
0.0023266721
0.0026595836
0.0029114578
0.0030238571
0.0030075726
0.0028376457
0.0025241582
0.0020760341
0.0015212797
0.00089910367
0.00025725715
-0.00035367915
-0.00088836255
-0.0013136338
-0.0016130758
-0.0017878428
-0.0018541435
-0.0018394893
-0.0017776008
-0.0017055258
-0.001662036
-3.0704589e-05
-0.00040756658
-0.00058219807
-0.00073839341
-0.00089978006
-0.0010070481
-0.0010074098
-0.00078354789
-0.00033420106
0.00022021829
0.00078671988
0.0013231432
0.0018575286
0.002334761
0.0027603627
0.0030655429
0.0032662057
0.0033087408
0.0032081711
0.0029447897
0.0025335598
0.0019904508
0.0013511331
0.00066203346
-2.3544827e-05
-0.00065279507
-0.0011816949
-0.0015816536
-0.0018427858
-0.0019730818
-0.0019949427
-0.0019401182
-0.0018449709
-0.0017481028
-0.0016884979
-1.4333525e-05
-0.0004481205
-0.00065188461
-0.00084131356
-0.0010389271
-0.0012108906
-0.0012404899
-0.0010902767
-0.00067875962
-9.5192618e-05
0.00053010203
0.0011409758
0.0017368978
0.0023120353
0.0028008676
0.003210902
0.0034694347
0.0036038885
0.0035640181
0.0033688711
0.0030036297
0.002488959
0.0018485715
0.0011265414
0.00037648962
-0.00034377298
-0.00098048682
-0.0014927025
-0.001857851
-0.0020733085
-0.0021543038
-0.0021288962
-0.0020327052
-0.001904226
-0.0017829383
-0.0017076751
3.7274793e-06
-0.00048771152
-0.00071965801
-0.00095612461
-0.0011927786
-0.0014162358
-0.0015282945
-0.0013925084
-0.0010624566
-0.00050872561
0.00017608585
0.00085427225
0.0015449611
0.0022024778
0.0028078532
0.0032917962
0.0036639987
0.0038602842
0.0039150594
0.0037817171
0.0034822505
0.0030074115
0.0023845651
0.0016462586
0.00084556132
4.2477875e-05
-0.00070159364
-0.0013338766
-0.0018181736
-0.0021391625
-0.0023022654
-0.0023296632
-0.0022548999
-0.0021166402
-0.0019552026
-0.0018100977
-0.0017197578
2.2499155e-05
-0.00052180731
-0.00078692402
-0.0010698612
-0.0013627606
-0.0016368044
-0.0018196817
-0.0017776941
-0.0014428569
-0.00098337947
-0.00031348048
0.00044466866
0.0012301265
0.002009717
0.0027190134
0.0033383013
0.0037908045
0.0041079346
0.0042280116
0.0041911695
0.0039539206
0.0035407648
0.0029494207
0.00221499
0.0013802152
0.00050694532
-0.00033896701
-0.0010944835
-0.0017095946
-0.0021546189
-0.0024225929
-0.0025272021
-0.0024976135
-0.0023719383
-0.0021915738
-0.0019978143
-0.0018297259
-0.0017249885
4.0434185e-05
-0.00054831608
-0.000845593
-0.0011835441
-0.0015291987
-0.0018819743
-0.0021267797
-0.0021734798
-0.001941676
-0.0014589206
-0.00088650878
-0.00013488892
0.00076852946
0.0016763335
0.0025368401
0.0032816859
0.0038833851
0.0042843191
0.0045321418
0.0045638706
0.0044244509
0.0040730089
0.0035367685
0.0028228468
0.0019752832
0.0010477622
0.00011057086
-0.00076601907
-0.0015191618
-0.0021038392
-0.0024984111
-0.0027050512
-0.0027459801
-0.0026566251
-0.0024792682
-0.0022572649
-0.0020320945
-0.0018420326
-0.0017236707
5.6041217e-05
-0.00056481207
-0.00089259505
-0.0012868846
-0.0016926388
-0.0021205766
-0.0024683238
-0.0025869673
-0.0024630935
-0.0020829816
-0.0014730172
-0.0008233072
9.7481947e-05
0.0011760054
0.0021950753
0.0031245643
0.0038653751
0.0044269975
0.0047619342
0.0049274746
0.0048600978
0.0046072525
0.004130449
0.003462293
0.0026211906
0.0016609828
0.00064728686
-0.00034275362
-0.0012358066
-0.0019717396
-0.0025124622
-0.0028457787
-0.002983647
-0.0029564308
-0.002805511
-0.002576333
-0.0023135692
-0.0020581773
-0.0018472856
-0.0017161541
-0.00056785546
5.9024085e-05
-0.00092597594
-0.0013744078
-0.0018387245
-0.0023508258
-0.002799604
-0.0030510386
-0.0030085559
-0.0027457583
-0.0022375839
-0.0015388405
-0.00071757516
0.00042940909
0.0016682083
0.002790586
0.0037410218
0.0044513345
0.0049581105
0.0052138362
0.005286583
0.0051095568
0.0047312921
0.0041174879
0.003309406
0.0023381024
0.0012685971
0.00017802494
-0.00085102643
-0.0017446799
-0.0024477231
-0.0029310391
-0.0031930066
-0.0032554854
-0.0031567998
-0.0029432183
-0.0026627809
-0.0023604783
-0.0020762764
-0.0018458126
-0.0017028221
-0.00093990262
-0.00056461599
4.8826741e-05
-0.0014414187
-0.0019607395
-0.0025556219
-0.0031158471
-0.0035049329
-0.003623528
-0.0034421179
-0.0030578307
-0.0024704626
-0.0015779934
-0.00051362647
0.00085851841
0.0022576865
0.0034270817
0.0043666597
0.0050279018
0.0054672156
0.0056338759
0.0056040262
0.0053046867
0.0047867217
0.0040245916
0.0030698992
0.0019679552
0.00079569086
-0.00035931769
-0.0014112201
-0.0022880784
-0.0029421601
-0.0033550187
-0.0035363635
-0.0035180414
-0.0033454053
-0.0030690295
-0.0027383794
-0.0023980875
-0.0020866555
-0.0018379728
-0.0016840583
-0.0014777824
-0.00094283764
-0.00055459186
3.3858448e-05
-0.0020517014
-0.0027244431
-0.0033962616
-0.0039392477
-0.0042349796
-0.004231572
-0.003921354
-0.0034773956
-0.0026960021
-0.0015228654
-0.00019330503
0.001415238
0.0028945232
0.0040785048
0.0049865229
0.0055851004
0.0059480285
0.0060175304
0.0058724115
0.0054350769
0.0047627611
0.0038418271
0.0027359797
0.0015060595
0.00024118671
-0.00096281618
-0.0020191342
-0.0028607526
-0.0034497224
-0.0037797535
-0.0038723833
-0.0037688879
-0.0035210287
-0.0031823621
-0.0028030455
-0.0024265724
-0.0020896376
-0.0018241631
-0.0016602678
-0.002097294
-0.0014918819
-0.00093378489
-0.00052974139
1.6880805e-05
-0.0028453092
-0.0036247329
-0.0043298952
-0.0048256887
-0.0050259691
-0.0049026211
-0.0045378233
-0.0039181392
-0.00283025
-0.0013432968
0.0002739924
0.0020376275
0.0035520944
0.004728496
0.0055917287
0.0061175131
0.0063982912
0.0063590285
0.0060820154
0.0054891167
0.0046476557
0.0035590697
0.0023005472
0.0009491639
-0.00039451324
-0.0016290812
-0.0026695651
-0.0034567731
-0.0039648476
-0.0042007117
-0.0041977398
-0.0040060889
-0.0036825694
-0.0032828864
-0.0028567816
-0.0024461793
-0.0020856291
-0.0018048194
-0.0016318617
-0.0028995901
-0.0021067439
-0.0014826878
-0.00090442648
-0.00049483432
1.1355639e-07
-0.0037833614
-0.0046533283
-0.0053668939
-0.0058011493
-0.005900813
-0.0057448506
-0.0052040166
-0.0042759706
-0.0028371371
-0.001005379
0.00082025784
0.0026862694
0.0042147968
0.0053675049
0.006175325
0.0066260184
0.006814674
0.0066500269
0.0062202596
0.0054533204
0.0044291606
0.0031667029
0.0017577129
0.00029542177
-0.0011094453
-0.0023534218
-0.0033562809
-0.0040697504
-0.0044818663
-0.0046134903
-0.0045095486
-0.0042278801
-0.0038293152
-0.0033703271
-0.0028997281
-0.0024573192
-0.0020751229
-0.0017803855
-0.0015992378
-0.0038492253
-0.0028952914
-0.0020784104
-0.0014396254
-0.00086123057
-0.00045444518
-1.5274336e-05
-0.0048848436
-0.0058253134
-0.0065202913
-0.0068809553
-0.0069765618
-0.0066673933
-0.0058028889
-0.0045099725
-0.0026820191
-0.00057940222
0.0014113712
0.0033490635
0.0048754199
0.0059898039
0.0067425538
0.0071114685
0.0071906445
0.0068773141
0.006272512
0.0053134419
0.0040948502
0.0026558246
0.0011028581
-0.00045512532
-0.0019000453
-0.0031297345
-0.0040722603
-0.0046929123
-0.00499515
-0.0050140499
-0.0048051955
-0.0044329449
-0.0039605504
-0.003444676
-0.0029322694
-0.0024605593
-0.0020585834
-0.0017512179
-0.0015627608
-0.0049901654
-0.0038269808
-0.0028326387
-0.0020025321
-0.001370555
-0.00080636364
-0.00040961345
-3.0691211e-05
-0.0061648506
-0.0071389637
-0.0077957594
-0.0081881621
-0.0081650473
-0.0075465606
-0.0062881908
-0.0045820633
-0.0024340267
-0.00010327138
0.0020341422
0.0040124981
0.0055259348
0.0066016769
0.0072986543
0.007568166
0.0075135608
0.0070249084
0.0062223278
0.0050544257
0.0036332244
0.0020187661
0.00033331121
-0.0013006906
-0.0027610034
-0.0039507806
-0.0048097763
-0.0053193204
-0.0054993141
-0.0053986854
-0.0050825318
-0.0046200071
-0.0040759719
-0.0035061878
-0.0029550498
-0.002456352
-0.0020362302
-0.0017175768
-0.0015228243
-0.0063367222
-0.0049672481
-0.0037185396
-0.0027027074
-0.0018936381
-0.0012808515
-0.00074224759
-0.00036533203
-4.350953e-05
-0.0076083296
-0.0085881145
-0.0093163776
-0.0096380667
-0.0093360241
-0.0083317034
-0.0066264427
-0.004555541
-0.0021272469
0.00042565486
0.0026721212
0.0046696932
0.0061765748
0.0072160543
0.0078402689
0.0079837831
0.0077652635
0.0070743941
0.0060519631
0.0046615277
0.0030331148
0.0012496724
-0.00055164262
-0.0022373798
-0.0036853973
-0.0048081665
-0.0055606468
-0.0059420929
-0.0059893077
-0.0057641463
-0.005339521
-0.00478827
-0.004175729
-0.0035555938
-0.0029684672
-0.0024446633
-0.0020081415
-0.001679934
-0.001479965
-0.0078604924
-0.0063345212
-0.0048221134
-0.0035212845
-0.0025260409
-0.0017580884
-0.0011759563
-0.00067678314
-0.00032143441
-5.2692973e-05
-0.0091995762
-0.010292396
-0.011006315
-0.011098254
-0.010435104
-0.0089829312
-0.0068672757
-0.0044692621
-0.0017526709
0.00098358087
0.0033102911
0.0053345881
0.0068468293
0.0078333222
0.0083567472
0.0083391243
0.0079250834
0.0070059847
0.0057436206
0.0041202779
0.0022850245
0.0003446625
-0.001550238
-0.0032591383
-0.0046646008
-0.0056926215
-0.0063164252
-0.0065546018
-0.0064605025
-0.0061073715
-0.005574637
-0.0049375462
-0.0042605397
-0.0035931868
-0.0029721165
-0.0024253256
-0.0019751018
-0.0016393608
-0.0014347046
-0.0095381165
-0.0078800783
-0.0061597123
-0.004555306
-0.0032609806
-0.0023152969
-0.0016024334
-0.0010667929
-0.00060794132
-0.00028290201
-6.0708667e-05
-0.011041163
-0.012184428
-0.012733121
-0.012511304
-0.011425762
-0.0095510692
-0.0070404794
-0.0042994426
-0.001344459
0.001557707
0.0039752178
0.0060428075
0.007539873
0.0084418233
0.0088270785
0.0086116293
0.0079717986
0.0067995026
0.0052792644
0.0034172598
0.0013812965
-0.00069760625
-0.0026582088
-0.0043576715
-0.0056885976
-0.0065942223
-0.0070687192
-0.0071505559
-0.0069084845
-0.0064258217
-0.0057871946
-0.0050685777
-0.0043305222
-0.0036180605
-0.0029655056
-0.0023997349
-0.0019392922
-0.0015967918
-0.001386936
-0.011444065
-0.0095772633
-0.0076662645
-0.005819074
-0.0042018237
-0.0029570662
-0.0020813063
-0.0014407012
-0.0009522675
-0.00054305618
-0.00025405807
-6.4969114e-05
-0.013081447
-0.014137375
-0.014439078
-0.013845705
-0.012357301
-0.010049358
-0.0071254648
-0.0040999857
-0.00092009714
0.002168191
0.0047020982
0.0067960773
0.0082501757
0.0090204113
0.0092272317
0.008778402
0.0078830801
0.0064338069
0.0046416097
0.0025402747
0.00031672554
-0.001875654
-0.0038686701
-0.0055229761
-0.0067462605
-0.0075027823
-0.0078093188
-0.0077238389
-0.0073293683
-0.0067180702
-0.0059776912
-0.0051812063
-0.004384101
-0.0036292566
-0.0029509132
-0.0023717351
-0.0019020886
-0.0015507797
-0.0013336226
-0.01354969
-0.011465464
-0.0093109258
-0.0072334268
-0.0053603915
-0.003789231
-0.0026264009
-0.0018401985
-0.0012722281
-0.00084643401
-0.00048605546
-0.0002218997
-6.7547074e-05
-0.015199805
-0.016095155
-0.01610389
-0.015153768
-0.013230178
-0.010453991
-0.0071632673
-0.0038952759
-0.00043077119
0.0028743376
0.0054941781
0.0075917922
0.0089534033
0.0095424493
0.0095326699
0.0088154335
0.0076346356
0.0058873296
0.0038143074
0.0014795767
-0.00091091118
-0.0031849272
-0.0051723631
-0.0067432221
-0.0078257066
-0.0084079919
-0.0085300662
-0.0082688216
-0.0077206474
-0.0069841986
-0.0061457031
-0.0052729607
-0.0044196615
-0.0036302125
-0.0029344583
-0.0023430498
-0.0018590914
-0.0014958914
-0.0012747031
-0.015743491
-0.013540099
-0.011102451
-0.0087597016
-0.0066465997
-0.0048202632
-0.0033426725
-0.0022878522
-0.0015939083
-0.0011188367
-0.00075087551
-0.00042519041
-0.00019859906
-6.519965e-05
-0.01734294
-0.018055083
-0.017777114
-0.016419952
-0.01400884
-0.010814504
-0.0072052774
-0.0036266999
0.00017563746
0.0036817064
0.0063632883
0.0084047689
0.0096123585
0.0099808979
0.0097174705
0.0086959505
0.007200852
0.0051388937
0.0027824011
0.00022826675
-0.0023004535
-0.0046176707
-0.0065572243
-0.0080051567
-0.0089144809
-0.0092993264
-0.0092231541
-0.0087815081
-0.0080817124
-0.0072232551
-0.0062875144
-0.0053413056
-0.004442055
-0.0036300199
-0.0029181495
-0.0023046552
-0.0018004943
-0.0014357823
-0.0012115049
-0.017972059
-0.015705963
-0.013053176
-0.010385542
-0.008013639
-0.005950954
-0.0042337161
-0.0028841734
-0.0019469675
-0.0013732232
-0.00097630877
-0.00065372306
-0.00037750452
-0.00017045862
-6.5781945e-05
-0.019533554
-0.020057052
-0.01943158
-0.017596418
-0.014745263
-0.01117961
-0.007215307
-0.0032261202
0.00090801536
0.0046109664
0.0072845691
0.0091970969
0.01020475
0.010309486
0.009753734
0.0083913729
0.0065555542
0.0041681525
0.0015337021
-0.00121704
-0.0038469786
-0.0061627462
-0.008008973
-0.0092942837
-0.0099995138
-0.010166372
-0.0098826117
-0.0092602769
-0.0084108384
-0.0074299811
-0.0063993664
-0.0053927427
-0.0044641804
-0.0036309895
-0.002886449
-0.002240499
-0.0017370816
-0.0013709642
-0.0011440312
-0.020292433
-0.017908495
-0.015089452
-0.012136631
-0.0094332125
-0.0071311741
-0.0051932526
-0.0036277631
-0.0024239589
-0.0016443103
-0.0011670605
-0.0008345342
-0.00057331493
-0.00032405912
-0.00015574278
-6.2937753e-05
-0.021798037
-0.022061509
-0.021004959
-0.018735266
-0.015505092
-0.01152714
-0.0070937494
-0.0026477878
0.0018090099
0.0056305341
0.0082093983
0.009940712
0.010704015
0.010499206
0.0096089351
0.0078714983
0.0056722589
0.0029571305
5.9378087e-05
-0.0028554818
-0.005541522
-0.0078061677
-0.0095116865
-0.010594953
-0.01106742
-0.011000667
-0.010505387
-0.0097023044
-0.008700802
-0.0075988913
-0.0064896507
-0.005444998
-0.0044887432
-0.003608814
-0.0028149651
-0.0021718728
-0.0016684209
-0.0013015724
-0.0010722715
-0.022716762
-0.020241755
-0.017162038
-0.013959475
-0.010938627
-0.0083184405
-0.006170157
-0.0044098835
-0.0030195416
-0.0020169169
-0.0013597224
-0.00096495273
-0.00071798418
-0.00048691814
-0.00028107174
-0.00013227374
-6.2477922e-05
-0.024080453
-0.023991644
-0.022544968
-0.01992343
-0.016270103
-0.011765434
-0.0067771147
-0.0018724112
0.002851694
0.0066702291
0.0091051647
0.010607744
0.011080169
0.010514677
0.0092492162
0.0071053646
0.0045267893
0.0014906285
-0.0016451671
-0.0046816517
-0.0073714813
-0.0095311969
-0.011047367
-0.011890552
-0.012106745
-0.011797244
-0.011087199
-0.010097724
-0.0089437279
-0.0077404745
-0.00658211
-0.0055012725
-0.0044799572
-0.00352827
-0.0027392531
-0.0020972231
-0.001594995
-0.0012275841
-0.00099623687
-0.025168431
-0.022702268
-0.019390466
-0.015814774
-0.012497991
-0.0095526561
-0.0071122958
-0.0051800702
-0.0036260628
-0.00248037
-0.0016318601
-0.0010829812
-0.00080216906
-0.00059755136
-0.00040977547
-0.00023316315
-0.00011123004
-5.653801e-05
-0.026290589
-0.02588619
-0.024157692
-0.021144216
-0.016943782
-0.011790032
-0.006243277
-0.00091412652
0.0039676471
0.0077085186
0.0099585703
0.011166971
0.01129856
0.010318092
0.0086385457
0.006061487
0.0030973297
-0.0002430285
-0.0035794907
-0.0066855489
-0.0093201065
-0.011317441
-0.012596154
-0.013166266
-0.013110065
-0.012549898
-0.011614875
-0.01043564
-0.0091524038
-0.0078859626
-0.0066805657
-0.0055110977
-0.0043887285
-0.0034434874
-0.0026564901
-0.0020176397
-0.0015167168
-0.0011490304
-0.00091595085
-0.027542369
-0.025192335
-0.021755369
-0.017835587
-0.014082073
-0.010819514
-0.0080657267
-0.0058802351
-0.004195263
-0.0029284492
-0.0019625621
-0.0012561566
-0.00086399001
-0.00063783704
-0.00048584008
-0.00032730179
-0.00019164237
-9.543096e-05
-5.3341083e-05
-0.028455556
-0.027866735
-0.025827788
-0.022304352
-0.017406618
-0.011572618
-0.0054935312
0.00018671599
0.0051093071
0.0087256815
0.010739256
0.011583383
0.011317167
0.0098688428
0.0077386881
0.004711426
0.0013646024
-0.0022503744
-0.0057377168
-0.0088519493
-0.011366168
-0.013141931
-0.014139537
-0.014411746
-0.014068739
-0.013241364
-0.012073252
-0.010731128
-0.009367218
-0.0080400009
-0.0067159196
-0.0054077165
-0.0042927747
-0.003350367
-0.0025686691
-0.001932888
-0.0014336456
-0.001065955
-0.00083146154
-0.029858853
-0.027598325
-0.024149155
-0.019994882
-0.015829424
-0.01210453
-0.009032173
-0.0065596876
-0.0046653333
-0.0033180346
-0.002255031
-0.0014625863
-0.00096148001
-0.00064395258
-0.00048615627
-0.00037167983
-0.0002563109
-0.00015543241
-7.2264848e-05
-4.885063e-05
-0.030699505
-0.029919492
-0.027469968
-0.023267641
-0.017615058
-0.011114342
-0.0045749464
0.0013727047
0.0062659164
0.0096969117
0.011396903
0.011808184
0.011092164
0.0091237475
0.0065111563
0.0030279331
-0.00068561633
-0.0045320301
-0.0081081701
-0.011159824
-0.013484378
-0.014982636
-0.015663926
-0.015615278
-0.014960451
-0.013850946
-0.012479899
-0.011035708
-0.0095938869
-0.0081101154
-0.0065991951
-0.0052983882
-0.0041869208
-0.0032520464
-0.002475318
-0.0018431061
-0.0013458302
-0.000978463
-0.00074282048
-0.032236122
-0.029936599
-0.026450186
-0.022168252
-0.017702046
-0.013537362
-0.010007062
-0.0072343973
-0.0050895105
-0.0035890015
-0.0024708831
-0.0016172858
-0.0010741499
-0.00066550406
-0.00044619105
-0.00034136658
-0.00027460304
-0.00019827294
-0.00011411039
-6.0004163e-05
-4.1200199e-05
-0.033015984
-0.031965452
-0.028939302
-0.023975298
-0.017569044
-0.010466074
-0.0035134591
0.0026126617
0.0074274619
0.010580047
0.011882971
0.011792242
0.010573922
0.0080375738
0.0049193152
0.00098726479
-0.0030614453
-0.0070814527
-0.010671538
-0.01358223
-0.015649011
-0.016822627
-0.017154012
-0.016748497
-0.01575749
-0.014398287
-0.012899669
-0.011356634
-0.0097108987
-0.0079793379
-0.0064742603
-0.0051772662
-0.0040757014
-0.0031478095
-0.0023766775
-0.0017483253
-0.0012534304
-0.00088666167
-0.00065006513
-0.034666613
-0.032298394
-0.028669598
-0.024239607
-0.019566901
-0.015073904
-0.011109266
-0.0079063796
-0.0054878868
-0.0037926763
-0.0025555888
-0.0016855634
-0.0011206429
-0.00068641387
-0.00040171007
-0.00026746866
-0.0002252976
-0.00019712981
-0.00013724113
-9.278037e-05
-3.8232995e-05
-3.9435497e-05
-0.035333021
-0.03386817
-0.030169177
-0.024430752
-0.017324523
-0.0096541343
-0.0023412764
0.0039070997
0.0085434649
0.011322204
0.012147096
0.011484264
0.0097125722
0.0065663208
0.0029308639
-0.0014280104
-0.0057636516
-0.0098829595
-0.013400803
-0.016091084
-0.017839449
-0.018642618
-0.018574345
-0.017774924
-0.016481071
-0.014964463
-0.013341949
-0.01153648
-0.0095660983
-0.0078366196
-0.0063352337
-0.0050505607
-0.0039581109
-0.0030379712
-0.0022727534
-0.0016488103
-0.0011566168
-0.00079058075
-0.00055323461
-0.037095843
-0.034689664
-0.030869014
-0.026205858
-0.021316593
-0.016577497
-0.012287348
-0.0086806929
-0.0058776314
-0.0039647102
-0.0025671376
-0.0016080853
-0.0010761893
-0.00062583805
-0.00033920989
-0.0001765322
-0.00012811855
-0.00013287678
-0.00012362441
-0.00010007935
-5.5459076e-05
-3.1404492e-05
-2.9827881e-05
-0.037528521
-0.035546156
-0.031164471
-0.024682384
-0.016893752
-0.0086905711
-0.0010676767
0.0052375421
0.0095602261
0.011867157
0.012137355
0.010827191
0.0084532178
0.0046683573
0.0005148588
-0.0042288031
-0.0087822731
-0.012911281
-0.016266297
-0.018663124
-0.020032644
-0.020398991
-0.019877597
-0.018716565
-0.017231245
-0.015561739
-0.013605254
-0.011378886
-0.00940364
-0.0076770137
-0.0061902778
-0.0049169265
-0.0038345323
-0.0029225476
-0.0021639333
-0.0015447875
-0.0010553159
-0.00069018006
-0.00045250337
-0.039415882
-0.037061335
-0.033069946
-0.028114316
-0.02293095
-0.017948318
-0.013407145
-0.0095029375
-0.0063506021
-0.0041264511
-0.0025394687
-0.0014545435
-0.0008867983
-0.00047687833
-0.00018904088
-5.9059179e-05
-3.2531146e-06
-2.162106e-05
-4.9690864e-05
-7.1495518e-05
-4.8880395e-05
-3.7391411e-05
-9.4990735e-06
-2.8612426e-05
-0.039515182
-0.037028001
-0.03198215
-0.024747291
-0.016289182
-0.0075720125
0.00030504776
0.0065442098
0.010418573
0.012156276
0.011794264
0.0097579304
0.0067416072
0.0023025103
-0.0023516346
-0.0074147254
-0.012095494
-0.016136731
-0.019243367
-0.021271061
-0.022175852
-0.022031415
-0.021085511
-0.019695668
-0.018024827
-0.015934984
-0.013437918
-0.011195208
-0.0092209195
-0.0075109215
-0.0060376887
-0.0047768119
-0.0037049961
-0.0028020436
-0.0020504993
-0.0014360278
-0.00094926469
-0.0005858507
-0.00034797216
-0.041537169
-0.039330234
-0.035232239
-0.029989461
-0.024448681
-0.019152729
-0.014379673
-0.010241322
-0.0068396906
-0.004344788
-0.0024992703
-0.0012536253
-0.00061395182
-0.00018664502
4.7999673e-05
0.00014387313
0.00015870392
0.00012271495
7.1321632e-05
1.1124013e-05
-1.0205482e-05
-1.8450034e-05
-4.3606873e-06
-3.274214e-06
-1.808224e-05
-0.041341758
-0.038364499
-0.032633949
-0.024624799
-0.015503866
-0.0063059459
0.0017202531
0.0077558618
0.01105764
0.012115219
0.011049758
0.0082094313
0.0045214348
-0.00056802072
-0.0056798888
-0.010971812
-0.015675532
-0.019534254
-0.022302171
-0.023851835
-0.024193535
-0.023559992
-0.022346106
-0.020735415
-0.01854167
-0.015763624
-0.013232419
-0.010987212
-0.0090307966
-0.0073362716
-0.005877958
-0.0046302417
-0.0035701582
-0.0026767838
-0.0019319885
-0.0013219099
-0.00083919472
-0.00047773856
-0.00023977044
-0.043528846
-0.041409625
-0.037284781
-0.031801929
-0.0258951
-0.020223812
-0.015162799
-0.010824469
-0.0072327655
-0.0045539582
-0.0024920155
-0.001041167
-0.00028563052
0.0001905639
0.00040844133
0.0004320558
0.00039657151
0.00030830058
0.00023129716
0.00013842295
7.829805e-05
3.0285743e-05
2.4129476e-05
1.1865751e-05
1.600148e-05
-1.5835936e-05
-0.04307372
-0.03957984
-0.033113889
-0.024308495
-0.014528316
-0.004922259
0.0031224436
0.0088147519
0.01140051
0.011659451
0.0098313374
0.0061149483
0.0017404573
-0.0039655947
-0.0094636765
-0.014877821
-0.019499315