/*--------------------------------*- C++ -*----------------------------------*\
| =========                 |                                                 |
| \\      /  F ield         | OpenFOAM: The Open Source CFD Toolbox           |
|  \\    /   O peration     | Version:  5.0                                   |
|   \\  /    A nd           | Web:      www.OpenFOAM.org                      |
|    \\/     M anipulation  |                                                 |
\*---------------------------------------------------------------------------*/
FoamFile
{
    version     2.0;
    format      ascii;
    class       volScalarField;
    location    "160";
    object      pPrime2Mean;
}
// * * * * * * * * * * * * * * * * * * * * * * * * * * * * * * * * * * * * * //

dimensions      [0 4 -4 0 0 0 0];

internalField   nonuniform List<scalar> 
9520
(
3.6713589e-07
3.3982896e-07
2.4889491e-06
2.9385382e-07
2.3029689e-06
6.7362678e-06
2.3821306e-07
1.9895693e-06
6.2350612e-06
1.326524e-05
1.8079488e-07
1.6098915e-06
5.3901409e-06
1.228226e-05
2.242783e-05
1.2767612e-07
1.2176009e-06
4.3657503e-06
1.0624162e-05
2.0776173e-05
3.4675423e-05
8.2946939e-08
8.54052e-07
3.3063046e-06
8.6119767e-06
1.7987796e-05
3.2140692e-05
5.0601759e-05
4.8881562e-08
5.4705272e-07
2.3233201e-06
6.5284789e-06
1.4599712e-05
2.7857232e-05
4.6935598e-05
7.0905866e-05
2.63253e-08
3.1195895e-07
1.4920966e-06
4.5926619e-06
1.1085928e-05
2.2644525e-05
4.073264e-05
6.5821517e-05
9.6403497e-05
1.5078535e-08
1.5401702e-07
8.5447982e-07
2.9530532e-06
7.8150225e-06
1.7227758e-05
3.3170154e-05
5.7207091e-05
8.9572292e-05
0.0001280127
1.4342455e-08
7.0967142e-08
4.2476497e-07
1.6927984e-06
5.0385952e-06
1.2173585e-05
2.5293106e-05
4.668222e-05
7.7980031e-05
0.00011906274
0.00016675199
2.311988e-08
5.5673968e-08
1.9688295e-07
8.412366e-07
2.8991645e-06
7.8717652e-06
1.7922714e-05
3.5689484e-05
6.3782806e-05
0.00010384858
0.00015526828
0.00021372328
4.0564659e-08
9.8342085e-08
1.5150178e-07
3.8736269e-07
1.44883e-06
4.5462067e-06
1.1628914e-05
2.5369997e-05
4.8908237e-05
8.5165468e-05
0.00013570943
0.00019925021
0.00027010164
6.6386928e-08
1.8850065e-07
2.6151081e-07
2.9342168e-07
6.7202677e-07
2.282365e-06
6.7443388e-06
1.6523832e-05
3.4892232e-05
6.5522782e-05
0.00011161969
0.00017454824
0.0002521476
0.00033711517
1.0115512e-07
3.1638149e-07
4.9741868e-07
5.0667518e-07
5.0698415e-07
1.0606748e-06
3.4014858e-06
9.6260842e-06
2.2824082e-05
4.6935908e-05
8.6195125e-05
0.00014402537
0.00022143513
0.00031515955
0.00041602572
1.46474e-07
4.7312205e-07
8.3003818e-07
9.6779193e-07
8.6588829e-07
7.9049822e-07
1.5792375e-06
4.874763e-06
1.3363187e-05
3.0852293e-05
6.2024987e-05
0.00011167551
0.00018335269
0.00027751096
0.00038952797
0.00050810262
2.0407597e-07
6.5374526e-07
1.2330122e-06
1.6176915e-06
1.648866e-06
1.3383656e-06
1.1511291e-06
2.2529955e-06
6.7981457e-06
1.8166794e-05
4.0994455e-05
8.0764588e-05
0.00014280658
0.00023065298
0.00034397404
0.00047651402
0.00061459827
2.7787408e-07
8.4990581e-07
1.6840744e-06
2.4013079e-06
2.7564694e-06
2.5513565e-06
1.9266406e-06
1.592972e-06
3.1258766e-06
9.2918336e-06
2.4295738e-05
5.3705509e-05
0.00010384897
0.00018051923
0.00028705138
0.00042206109
0.00057737499
0.00073671849
3.6951958e-07
1.0731914e-06
2.1676607e-06
3.2721909e-06
4.0958159e-06
4.2767234e-06
3.6852541e-06
2.6337186e-06
2.1350029e-06
4.2546543e-06
1.2507556e-05
3.2060884e-05
6.952012e-05
0.00013206188
0.00022583208
0.00035373305
0.00051302679
0.00069333633
0.00087559814
4.8198552e-07
1.29642e-06
2.6748253e-06
4.1930414e-06
5.5868654e-06
6.3725934e-06
6.202787e-06
5.0697258e-06
3.4817941e-06
2.8014891e-06
5.7107547e-06
1.6629205e-05
4.1837865e-05
8.9056869e-05
0.00016628281
0.00027984321
0.00043192734
0.00061811933
0.0008255655
0.0010322714
6.130305e-07
1.5885258e-06
3.1929337e-06
5.1349405e-06
7.1622812e-06
8.7150838e-06
9.271996e-06
8.5845985e-06
6.7566401e-06
4.4959591e-06
3.6158977e-06
7.5776246e-06
2.188602e-05
5.4074111e-05
0.00011302987
0.00020748434
0.00034372071
0.00052288852
0.00073855565
0.00097514544
0.0012076482
7.6445684e-07
1.8448221e-06
3.7544426e-06
6.0849655e-06
8.7765382e-06
1.1201168e-05
1.2712171e-05
1.2882568e-05
1.153053e-05
8.8051139e-06
5.6869657e-06
4.59409e-06
9.9621026e-06
2.8562167e-05
6.9303454e-05
0.00014225149
0.00025672975
0.0004186897
0.00062787444
0.00087549238
0.0011430499
0.0014024874
9.2717019e-07
2.2611194e-06
4.3099202e-06
7.0443774e-06
1.0394887e-05
1.3758807e-05
1.6370119e-05
1.7703509e-05
1.7391837e-05
1.5164582e-05
1.1249429e-05
7.0383146e-06
5.7530746e-06
1.3006121e-05
3.7011282e-05
8.815386e-05
0.0001776366
0.00031516717
0.00050601565
0.00074811771
0.0010300064
0.0013301154
0.0016173805
1.1035624e-06
2.571457e-06
5.0096855e-06
8.0090782e-06
1.201771e-05
1.6331493e-05
2.0131712e-05
2.2824313e-05
2.3973023e-05
2.3021005e-05
1.9577243e-05
1.4076349e-05
8.5145695e-06
7.1248797e-06
1.6899787e-05
4.7668063e-05
0.00011135591
0.00022020389
0.00038401948
0.00060698418
0.00088480657
0.0012030635
0.0015370229
0.0018527334
1.261377e-06
3.1523785e-06
5.674724e-06
9.0655504e-06
1.3629693e-05
1.891534e-05
2.391697e-05
2.8074592e-05
3.0959559e-05
3.187495e-05
2.9950177e-05
2.4792148e-05
1.7236623e-05
1.0078427e-05
8.7678954e-06
2.1893848e-05
6.1058082e-05
0.00013975109
0.0002710733
0.00046457118
0.00072287425
0.0010390571
0.0013954976
0.0017642773
0.0021087584
1.4453364e-06
3.626124e-06
6.6445071e-06
1.014094e-05
1.5333419e-05
2.1485713e-05
2.7699085e-05
3.333373e-05
3.8107761e-05
4.1295594e-05
4.1712019e-05
3.8269773e-05
3.0782206e-05
2.0668268e-05
1.1701956e-05
1.077739e-05
2.8308263e-05
7.7811095e-05
0.00017429604
0.00033146183
0.0005581517
0.0008549398
0.0012118884
0.0016079856
0.0020121972
0.002385466
1.6328707e-06
4.368726e-06
7.5861698e-06
1.1494244e-05
1.7067228e-05
2.4169395e-05
3.1461741e-05
3.8540018e-05
4.5233402e-05
5.0943901e-05
5.4287414e-05
5.3661957e-05
4.8002698e-05
3.750566e-05
2.4309679e-05
1.3370624e-05
1.328952e-05
3.6546731e-05
9.867056e-05
0.00021606825
0.00040267398
0.00066610774
0.0010043839
0.0014041943
0.0018410343
0.0022809033
0.0026826658
1.900541e-06
5.0832513e-06
8.8947451e-06
1.2912445e-05
1.9121348e-05
2.6910669e-05
3.5320452e-05
4.3681944e-05
5.2234221e-05
6.0551922e-05
6.72179e-05
7.0217761e-05
6.7816625e-05
5.9164185e-05
4.4925083e-05
2.8095531e-05
1.507898e-05
1.6492034e-05
4.710922e-05
0.00012450815
0.00026626482
0.00048608819
0.00078978994
0.0011723284
0.0016167244
0.0020949624
0.0025703165
0.0029999706
2.1821415e-06
5.8033567e-06
1.0217944e-05
1.4776355e-05
2.1306522e-05
3.0064366e-05
3.9270199e-05
4.8849053e-05
5.9078515e-05
6.9966986e-05
8.0130135e-05
8.7329235e-05
8.9256171e-05
8.4278215e-05
7.1796213e-05
5.299359e-05
3.1941468e-05
1.6834228e-05
2.0636749e-05
6.0612345e-05
0.0001563316
0.0003262002
0.00058313314
0.00093052254
0.0013597897
0.0018500599
0.0023698943
0.0028801583
0.0033368041
2.4662012e-06
6.5272187e-06
1.1503413e-05
1.6741293e-05
2.4099867e-05
3.3442116e-05
4.3681464e-05
5.4103442e-05
6.5840291e-05
7.911129e-05
9.2805445e-05
0.00010449306
0.00011152205
0.00011160927
0.00010321823
8.5944591e-05
6.1623212e-05
3.5733365e-05
1.8664055e-05
2.6061785e-05
7.7805644e-05
0.00019529433
0.00039729559
0.00069527264
0.0010895766
0.0015676493
0.0021046023
0.0026657536
0.0032099563
0.0036924146
2.7405248e-06
6.9912097e-06
1.2772834e-05
1.8750958e-05
2.7089125e-05
3.7647214e-05
4.840979e-05
5.9811809e-05
7.2632691e-05
8.8048144e-05
0.00010510127
0.00012140199
0.00013394807
0.00014011196
0.00013761959
0.00012484703
0.00010160497
7.0654303e-05
3.9325364e-05
2.0636577e-05
3.3214337e-05
9.9592055e-05
0.00024269556
0.00048106158
0.00082398016
0.0012681367
0.0017966346
0.0023805574
0.0029822644
0.0035590555
0.0040658906
2.9192131e-06
7.5626234e-06
1.3711364e-05
2.0661583e-05
3.0256156e-05
4.2205396e-05
5.422203e-05
6.5911063e-05
7.9826904e-05
9.6904257e-05
0.00011706371
0.00013782704
0.00015610408
0.00016891055
0.00017364358
0.0001677308
0.00014933196
0.00011866379
7.9841027e-05
4.2554765e-05
2.2885046e-05
4.2679059e-05
0.00012703957
0.0002999796
0.00057908115
0.00097070497
0.0014672747
0.0020472955
0.0026779307
0.003318957
0.0039266313
0.004456179
3.0086062e-06
7.825018e-06
1.4775575e-05
2.2261273e-05
3.3194532e-05
4.7083732e-05
6.0661504e-05
7.3313011e-05
8.746794e-05
0.00010607184
0.00012880111
0.00015378506
0.00017765405
0.00019740387
0.0002101474
0.00021285859
0.00020236927
0.00017670451
0.00013686418
8.8857226e-05
4.5265046e-05
2.5641179e-05
5.5200214e-05
0.00016139491
0.00036872238
0.00069298657
0.001136842
0.0016879191
0.0023199903
0.0029965226
0.003675177
0.0043117059
0.004862106
2.939587e-06
7.9622813e-06
1.5431637e-05
2.3936485e-05
3.5842029e-05
5.1492795e-05
6.7653614e-05
8.1596143e-05
9.6612829e-05
0.00011568448
0.00014072197
0.0001693542
0.00019855877
0.00022511563
0.00024629918
0.00025875125
0.00025852654
0.00024180985
0.00020679866
0.00015580358
9.7316561e-05
4.7341302e-05
2.9264967e-05
7.1708855e-05
0.00020408502
0.00045061476
0.00082442903
0.0013236978
0.0019308328
0.0026148707
0.0033359334
0.0040500971
0.0047131683
0.0052823986
2.7199582e-06
7.8107845e-06
1.5808279e-05
2.5104725e-05
3.8471296e-05
5.5614449e-05
7.3963495e-05
9.0949598e-05
0.00010694012
0.00012687218
0.00015303346
0.00018494158
0.00021884343
0.00025191546
0.00028143836
0.00030428387
0.00031591166
0.0003112599
0.00028608071
0.00023923698
0.00017495297
0.00010480581
4.8742205e-05
3.4281589e-05
9.333848e-05
0.00025671767
0.00054744829
0.00097504398
0.001532459
0.002196587
0.0029318788
0.0036955686
0.0044427342
0.0051297947
0.0057157059
2.3739977e-06
7.3508407e-06
1.573176e-05
2.5861029e-05
4.0419244e-05
5.9632534e-05
8.0001766e-05
9.9525161e-05
0.00011898418
0.00013943874
0.00016689575
0.00020083879
0.0002389222
0.00027774944
0.00031529955
0.00034855279
0.00037303714
0.0003826639
0.00037137803
0.00033493612
0.0002734537
0.00019368496
0.00011091461
4.9541579e-05
4.140912e-05
0.00012144315
0.00032106521
0.00066108472
0.001146414
0.0017641558
0.0024855463
0.0032707426
0.0040746509
0.0048519684
0.0055602694
0.006160621
1.9541741e-06
6.6031441e-06
1.5121512e-05
2.6046989e-05
4.1717859e-05
6.273969e-05
8.5843499e-05
0.00010786499
0.00013024573
0.00015448575
0.00018223794
0.00021818205
0.0002591258
0.00030301424
0.00034772568
0.00039111702
0.00042869007
0.00045409609
0.00045970962
0.00043886807
0.0003878856
0.00030872048
0.00021130154
0.00011527555
4.9962566e-05
5.1592199e-05
0.00015760402
0.00039906092
0.00079341996
0.0013400278
0.0020196365
0.0027978517
0.0036309811
0.0044722343
0.0052765636
0.0060032077
0.0066157023
1.5379191e-06
5.6427883e-06
1.4013409e-05
2.5477072e-05
4.2246465e-05
6.4802585e-05
9.0723829e-05
0.00011601678
0.00014148351
0.00016891233
0.00020079694
0.00023723214
0.00028057722
0.0003280719
0.00037906084
0.00043167559
0.00048219838
0.00052395387
0.0005486151
0.00054735712
0.00051342448
0.00044422942
0.00034417097
0.00022706212
0.00011759399
5.042065e-05
6.6027064e-05
0.00020363038
0.00049276966
0.00094634299
0.001557243
0.0022995374
0.0031334183
0.0040119107
0.0048872236
0.0057151892
0.0064571765
0.0070794924
1.2031002e-06
4.6368465e-06
1.2536201e-05
2.4189716e-05
4.1663883e-05
6.5826188e-05
9.4076447e-05
0.00012329512
0.00015241921
0.00018378533
0.00021897236
0.00026026817
0.00030388139
0.00035399765
0.00040966356
0.0004704912
0.00053305391
0.00059127322
0.00063601447
0.00065729711
0.00064558755
0.00059450778
0.00050308211
0.00037881449
0.0002402052
0.00011769571
5.1563226e-05
8.6189324e-05
0.00026155535
0.00060435543
0.0011216921
0.0017992445
0.0026042669
0.0034919284
0.0044126601
0.0053183939
0.0061664416
0.0069207153
0.007550537
1.0126878e-06
3.7905108e-06
1.095635e-05
2.2346146e-05
4.0017672e-05
6.5202493e-05
9.6119074e-05
0.00012857339
0.00016274752
0.00019783561
0.00023816131
0.00028307488
0.00033177182
0.00038166597
0.00044062816
0.00050789635
0.00058141069
0.00065526442
0.00072056966
0.00076602278
0.0007804863
0.00075414044
0.00068137518
0.0005633704
0.00041153809
0.00024998104
0.00011557043
5.4319705e-05
0.00011384738
0.00033362296
0.00073603846
0.001321206
0.0020670136
0.0029339846
0.0038728398
0.004832186
0.0057644124
0.0066288666
0.0073923553
0.0080274012
3.3156739e-06
9.9709909e-07
9.6087381e-06
2.0311092e-05
3.7519688e-05
6.2993704e-05
9.5910671e-05
0.00013244036
0.00017059529
0.00021185536
0.00025572537
0.00030784581
0.00036019564
0.00041424846
0.00047293294
0.00054501074
0.00062750155
0.00071593527
0.00080112591
0.0008717204
0.00091474602
0.00091830684
0.00087257384
0.00077306791
0.00062380762
0.00044111332
0.00025568769
0.00011143608
5.9942928e-05
0.00015107068
0.00042225754
0.00089004598
0.0015464779
0.0023612919
0.003288599
0.0042753929
0.0052692934
0.0062238608
0.00710098
0.0078706373
0.0085086834
8.8461193e-06
3.3365506e-06
1.1580921e-06
1.8558373e-05
3.4690381e-05
5.9488278e-05
9.3466112e-05
0.00013351378
0.00017704382
0.00022288725
0.00027395753
0.00032995937
0.00039180264
0.00044844667
0.00051015726
0.00058282388
0.00067243919
0.00077334952
0.00087749546
0.00097277424
0.0010459468
0.0010827665
0.0010707645
0.0010002536
0.00086835311
0.00068286205
0.00046620978
0.00025673551
0.00010580133
7.0052409e-05
0.00020023293
0.00053002361
0.0010685581
0.0017989062
0.0026825616
0.0036677599
0.0046986279
0.0057226571
0.0066952584
0.0075812872
0.0083541269
0.0089930277
1.7581278e-05
8.8796011e-06
3.8438779e-06
1.4636898e-06
3.2218651e-05
5.5426977e-05
8.9122535e-05
0.00013169593
0.00018027178
0.00023275688
0.00028875624
0.00035368332
0.00041959049
0.00048712859
0.00055002957
0.00062520142
0.00071724479
0.00082858314
0.00094948761
0.001068743
0.0011719166
0.0012443344
0.0012706547
0.0012377466
0.0011362531
0.000965638
0.00073873142
0.00048544243
0.0002527279
9.9541939e-05
8.665479e-05
0.0002639917
0.00065957396
0.0012736476
0.0020796543
0.0030310229
0.004070869
0.0051414005
0.0061908451
0.0071770839
0.0080683018
0.0088414288
0.0094791341
3.0791038e-05
1.7672423e-05
9.7016271e-06
4.7087234e-06
1.8563898e-06
5.1811442e-05
8.387986e-05
0.00012730427
0.00017997554
0.0002390767
0.00030285309
0.00037354951
0.00045096852
0.00052078424
0.0005958103
0.00067089458
0.00076566276
0.00088262372
0.0010181382
0.0011590643
0.0012918647
0.0014001544
0.0014680999
0.0014790049
0.0014189006
0.0012792127
0.0010628941
0.00078935551
0.00049744542
0.00024356278
9.3970002e-05
0.00011217327
0.00034525383
0.00081358797
0.001507222
0.0023896098
0.0034065896
0.0044970862
0.0056024064
0.0066723429
0.0076677964
0.0085605613
0.0093311977
0.009965767
4.9624476e-05
3.085667e-05
1.8816307e-05
1.109706e-05
5.721371e-06
2.2641056e-06
7.9081745e-05
0.00012157136
0.00017644829
0.00024131515
0.00031333318
0.00039360438
0.00047805376
0.00056045086
0.00063534218
0.0007240555
0.00081769033
0.00093904639
0.0010842627
0.0012447292
0.0014047951
0.0015489661
0.0016594011
0.0017186974
0.0017082896
0.0016134163
0.0014271941
0.0011576147
0.00083246295
0.00050098629
0.00022953359
9.089446e-05
0.00014944381
0.00044712588
0.00099470185
0.0017709629
0.0027293588
0.0038088813
0.0049453503
0.0060802033
0.0071655775
0.0081658561
0.0090566423
0.0098221484
0.010451761
7.605468e-05
4.9522086e-05
3.2402176e-05
2.0701879e-05
1.2707515e-05
6.6770118e-06
2.6109735e-06
0.00011612088
0.0001711281
0.0002396043
0.00031926518
0.00041002816
0.00050660736
0.000595999
0.00068367064
0.00076940041
0.00087927751
0.00099886883
0.0011514511
0.0013262348
0.0015116486
0.0016892459
0.0018426468
0.0019520809
0.0019976551
0.0019585668
0.0018198019
0.0015775651
0.0012468126
0.00086567141
0.00049509142
0.0002114418
9.2666865e-05
0.00020169613
0.00057284648
0.0012054331
0.002066276
0.00309916
0.0042372345
0.0054143959
0.0065732393
0.0076689416
0.0086697417
0.0095551714
0.010313063
0.010936027
0.00011260988
7.5720951e-05
5.1520466e-05
3.4971224e-05
2.2826747e-05
1.4200623e-05
7.4123341e-06
2.8425508e-06
0.00016586173
0.00023552772
0.00032048089
0.00042146011
0.00053177835
0.00063520805
0.0007284445
0.00082649851
0.00093038598
0.0010697714
0.0012212262
0.0014073245
0.0016125417
0.0018218151
0.0020156674
0.0021763577
0.0022809653
0.002306209
0.00222917
0.0020356988
0.0017269403
0.0013270881
0.00088662246
0.00047920173
0.00019069856
0.00010221472
0.00027250657
0.00072570558
0.001448106
0.0023942412
0.0034989362
0.0046907099
0.0059027836
0.0070798779
0.0081808161
0.0091779656
0.010054835
0.010802796
0.011417553
0.00016261815
0.00011221037
7.8146482e-05
5.4982529e-05
3.7867431e-05
2.4715809e-05
1.5311384e-05
7.8555447e-06
2.930086e-06
0.00023110511
0.00031858471
0.00042710677
0.00055150275
0.00067174371
0.00078034541
0.00088124418
0.00099612565
0.0011267253
0.0013031097
0.0014893929
0.0017115017
0.0019464276
0.0021790193
0.0023885861
0.0025542712
0.0026487205
0.002644883
0.0025184445
0.0022577381
0.0018711867
0.0013947454
0.00089316148
0.00045333299
0.00016941269
0.00012303954
0.00036573117
0.00090895345
0.0017247758
0.0027555776
0.0039282676
0.0051681185
0.0064089257
0.0075984279
0.0086995886
0.0096890857
0.010554387
0.011290282
0.011895407
0.00022857811
0.00016277683
0.00011502555
8.2461532e-05
5.8948909e-05
4.0400621e-05
2.6004933e-05
1.5912939e-05
7.9909827e-06
2.8622079e-06
0.00031565856
0.00042838329
0.00056390288
0.00070293577
0.00083089634
0.00094724178
0.0010612452
0.0011998888
0.0013660537
0.0015839179
0.0018094704
0.0020673217
0.0023321074
0.0025889024
0.002813712
0.0029807466
0.0030574002
0.003013145
0.0028235073
0.0024814671
0.0020054882
0.0014459628
0.00088353816
0.00041824623
0.00015046834
0.00015918816
0.00048541488
0.0011257024
0.0020371613
0.0031506135
0.0043864044
0.0056680443
0.0069311179
0.0081271632
0.009223669
0.010201718
0.011052661
0.011774537
0.012368741
0.00031421756
0.00022941467
0.00016630968
0.00011991649
8.739079e-05
6.2410139e-05
4.2053033e-05
2.6541461e-05
1.5969576e-05
7.8469497e-06
2.704014e-06
0.0004273377
0.00056995001
0.00072529997
0.00087687136
0.0010143424
0.0011430759
0.0012751133
0.0014451279
0.0016538658
0.0019201646
0.0021851158
0.0024791512
0.0027762577
0.0030586735
0.0032972127
0.0034596324
0.0035080058
0.0034091178
0.0031401161
0.0027013524
0.0021244919
0.0014770124
0.00085663888
0.00037558012
0.00013755689
0.00021518738
0.00063568243
0.0013788261
0.002386583
0.0035792768
0.0048722822
0.0061888781
0.0074675636
0.008664345
0.0097515084
0.010714556
0.011548575
0.012254657
0.012836783
0.00042657559
0.00031573016
0.00023346294
0.00017181047
0.00012528922
9.1595276e-05
6.461567e-05
4.2609972e-05
2.6301953e-05
1.5572126e-05
7.5719209e-06
2.4475013e-06
0.00057147766
0.00073901962
0.00091280923
0.0010785016
0.0012292816
0.001373895
0.0015309016
0.0017406919
0.0019991625
0.002315202
0.0026206267
0.0029547295
0.0032875629
0.0035964749
0.0038449377
0.0039938153
0.0040001513
0.0038293319
0.0034625616
0.0029108525
0.0022225008
0.001484531
0.00081220977
0.00032797307
0.00013516733
0.00029594797
0.00082061269
0.0016708606
0.002773922
0.0040410947
0.0053845501
0.0067288384
0.008016401
0.0092082464
0.010281626
0.011226377
0.012041124
0.012729811
0.013321266
0.00057118511
0.00042756938
0.00031980893
0.0002390802
0.00017726111
0.00012953035
9.404655e-05
6.5260839e-05
4.2033346e-05
2.5487237e-05
1.489558e-05
6.9911248e-06
2.1781499e-06
0.00074538455
0.00093772073
0.0011321332
0.0013153813
0.0014814535
0.0016475508
0.0018359889
0.0020952206
0.0024049944
0.0027723775
0.0031248726
0.0035041284
0.0038762554
0.0042103737
0.0044619111
0.0045848356
0.004531724
0.0042685562
0.0037836676
0.0031025594
0.0022937413
0.0014658077
0.00075108048
0.00027915671
0.00014854159
0.00040663376
0.0010441043
0.0020039219
0.0031995911
0.0045352052
0.0059215873
0.0072860051
0.0085757354
0.0097571936
0.010812627
0.011736031
0.012529363
0.013219476
0.013832813
0.0007467895
0.00057030996
0.00043008022
0.00032463632
0.00024383587
0.00018083103
0.00013138431
9.4365387e-05
6.4288931e-05
4.068709e-05
2.4257137e-05
1.3802854e-05
6.5162292e-06
1.9048125e-06
0.00095175459
0.0011726429
0.0013910591
0.0015926416
0.0017778855
0.0019719687
0.0022021657
0.0025155156
0.0028743631
0.0033017673
0.0037086653
0.0041396392
0.0045526761
0.0049077407
0.0051519942
0.0052325112
0.0050986786
0.0047196776
0.0040948211
0.003268414
0.0023326869
0.0014191154
0.00067537254
0.00023400396
0.00018357208
0.00055250533
0.0013097484
0.0023796386
0.0036635191
0.0050603612
0.0064815336
0.0078583622
0.0091436983
0.01030959
0.011343173
0.01224241
0.013031681
0.013734723
0.014357584
0.00095647931
0.00074420755
0.00056906667
0.00043232037
0.0003275335
0.00024571778
0.0001810744
0.00013047036
9.252235e-05
6.2279336e-05
3.8693992e-05
2.2516659e-05
1.2835248e-05
5.7923467e-06
1.6429523e-06
0.0011985138
0.0014517466
0.0016941327
0.0019163063
0.0021270005
0.0023597542
0.0026388862
0.0029985133
0.0034172132
0.0039145759
0.0043868091
0.0048740633
0.0053265206
0.0056950638
0.0059174179
0.0059346422
0.0056947727
0.0051736226
0.0043861065
0.0034000054
0.0023344525
0.0013440361
0.000588663
0.00019849625
0.00024665221
0.00073875507
0.0016207137
0.0027990927
0.0041651269
0.0056149532
0.0070623461
0.008443875
0.0097184777
0.010863871
0.01187194
0.012763869
0.013559434
0.01426532
0.014895394
0.0012098564
0.00095242845
0.00073815752
0.00056624869
0.00043155127
0.00032644858
0.00024319182
0.00017773364
0.00012687568
8.9370484e-05
5.9230484e-05
3.6013555e-05
2.0862018e-05
1.1544535e-05
5.079242e-06
1.4587479e-06
0.0014939782
0.0017787124
0.0020460982
0.0022953901
0.0025435442
0.0028232449
0.0031422405
0.0035498467
0.0040432612
0.0046285531
0.0051743103
0.0057193369
0.0062071953
0.0065773823
0.0067584858
0.0066867077
0.0063113865
0.0056193498
0.0046465138
0.0034889677
0.0022952201
0.0012417674
0.00049607572
0.00017962345
0.00034449734
0.00097034432
0.0019796297
0.0032627496
0.0047033324
0.006197076
0.0076618975
0.0090405284
0.010298256
0.011418447
0.012418298
0.013311888
0.014104772
0.014811005
0.015446011
0.001516109
0.0012062155
0.00094068529
0.00072826229
0.00055929054
0.00042577568
0.00031992562
0.00023631068
0.00017114288
0.00012184706
8.4714003e-05
5.5289229e-05
3.3333648e-05
1.8897925e-05
1.0244834e-05
4.3599241e-06
1.2801026e-06
0.00184033
0.0021563279
0.0024566848
0.0027472809
0.0030432332
0.0033594709
0.0037087469
0.0041805209
0.0047720916
0.0054615716
0.0060851717
0.0066881441
0.0072027893
0.0075580312
0.0076731858
0.0074815218
0.0069373345
0.0060439286
0.0048642698
0.0035274667
0.0022127039
0.0011153917
0.00040431098
0.00018524437
0.00048395003
0.0012518209
0.0023884493
0.0037704264
0.0052766205
0.0068046478
0.0082780199
0.0096462379
0.010881124
0.011994836
0.012993675
0.01387991
0.014667377
0.015371441
0.016009158
0.001875316
0.0015159897
0.0011886835
0.00092169354
0.00071252716
0.00054641751
0.00041371263
0.00030844159
0.00022575239
0.00016314596
0.0001148632
7.9098513e-05
5.1225515e-05
3.0359035e-05
1.6845701e-05
8.9111975e-06
3.6146572e-06
1.122372e-06
0.0022378671
0.0025948555
0.0029454974
0.0032900347
0.0036228497
0.0039590317
0.0043518025
0.0049097247
0.0056252375
0.0064287463
0.007135447
0.0077917407
0.0083200923
0.008638275
0.0086568082
0.0083089044
0.0075587628
0.0064326976
0.0050272897
0.0035087672
0.0020866107
0.00097008922
0.00032159818
0.00022389078
0.00067173414
0.0015870929
0.0028483575
0.0043213626
0.0058831839
0.0074354555
0.0089083787
0.010258738
0.011492008
0.01260421
0.013591729
0.014467585
0.015246839
0.015946214
0.016584513
0.0022849444
0.0018797814
0.0014936661
0.0011585814
0.00089426088
0.00068964335
0.00052658419
0.00039643953
0.00029311377
0.00021400992
0.00015267484
0.00010694981
7.3242838e-05
4.6890045e-05
2.715147e-05
1.484501e-05
7.5903944e-06
3.1462169e-06
9.4346071e-07
0.0026969238
0.003115288
0.0035325065
0.0039226439
0.0042691493
0.0046335167
0.0050904948
0.0057615625
0.0066161599
0.0075505609
0.0083395565
0.0090408155
0.0095643086
0.0098168086
0.0097014277
0.0091553653
0.0081591026
0.0067695977
0.0051237829
0.0034278776
0.0019190606
0.00081323999
0.00025756508
0.00030448796
0.00091412936
0.0019792522
0.0033598263
0.004914368
0.0065209575
0.0080869764
0.0095503323
0.010907745
0.012141605
0.013239282
0.014212106
0.015074456
0.015842641
0.016534835
0.017171708
0.0027553737
0.0022923427
0.0018523102
0.0014516307
0.0011161569
0.00085813337
0.00065920763
0.00050168498
0.00037551023
0.0002771772
0.00019934407
0.00014156028
9.8777054e-05
6.7123634e-05
4.2048965e-05
2.413139e-05
1.2950504e-05
6.6573899e-06
2.5697295e-06
7.8026142e-07
0.003238923
0.0037385588
0.0042193126
0.0046276245
0.0049903258
0.0053982065
0.0059500941
0.0067453167
0.0077706118
0.0088441488
0.0097122828
0.010444968
0.010938398
0.011089106
0.010795362
0.010003823
0.008719176
0.0070376849
0.0051429795
0.0032822074
0.0017149538
0.00065447131
0.00022298427
0.0004359355
0.0012166863
0.0024305975
0.0039227684
0.0055478325
0.007187369
0.0087562065
0.010239936
0.011603251
0.012820368
0.01389971
0.014854327
0.015699936
0.016454169
0.017136741
0.017770332
0.0033081
0.0027653208
0.0022582396
0.0017960284
0.0013911036
0.0010626431
0.00081376852
0.00062422316
0.00047378148
0.0003549657
0.00025789103
0.00018470874
0.00013024124
9.0416106e-05
6.0285075e-05
3.7499966e-05
2.1323176e-05
1.1524002e-05
5.6821751e-06
2.2577349e-06
6.25501e-07
0.0038840274
0.0044681609
0.0049867287
0.0054103993
0.0058024726
0.0062722034
0.0069380741
0.0078946571
0.0091060747
0.01032835
0.011268009
0.012012053
0.012442312
0.012446795
0.01192273
0.010833372
0.0092174722
0.0072198476
0.0050760034
0.0030722229
0.0014822774
0.00050552345
0.00022930246
0.00062670453
0.0015842014
0.0029427742
0.0045364793
0.0062193733
0.0078791226
0.0094872703
0.010986304
0.012331983
0.013527997
0.01458503
0.015517766
0.016343314
0.017080704
0.017751298
0.01837993
0.0039600615
0.0033173669
0.0027234675
0.0021856921
0.0017135693
0.0013155636
0.0010001106
0.00076582774
0.00058700355
0.00044733778
0.00033047537
0.00023950342
0.00016947094
0.00011890549
8.1241301e-05
5.394078e-05
3.3328902e-05
1.9132575e-05
1.0160339e-05
5.0176318e-06
1.8460203e-06
4.9053121e-07
0.0046368869
0.0052869964
0.0058383294
0.0062898608
0.0067237334
0.0072941351
0.0080881847
0.0092263962
0.010644922
0.01202298
0.01301999
0.013747472
0.01407242
0.013876973
0.013062833
0.011619256
0.0096306677
0.0072997653
0.0049168393
0.0028021051
0.0012322125
0.0003798048
0.00028812692
0.00088475526
0.0020208232
0.0035166135
0.005199146
0.0069255644
0.0086502438
0.010288354
0.011770765
0.013093723
0.014264075
0.015294602
0.016201649
0.017003751
0.017721429
0.018377798
0.019000004
0.0047173794
0.0039638695
0.0032639578
0.0026320296
0.0020788386
0.0016115156
0.001229583
0.00093548679
0.00071710428
0.00055359969
0.0004168896
0.00030809541
0.00021976136
0.00015467806
0.00010684765
7.3024822e-05
4.8213927e-05
2.9985333e-05
1.7071048e-05
9.0796762e-06
4.3176348e-06
1.5865836e-06
3.7573595e-07
0.0054847031
0.0061961976
0.0067942841
0.0072866397
0.007791229
0.0084712093
0.0094166241
0.010763412
0.012411719
0.013947436
0.014979802
0.015653481
0.015820585
0.015361302
0.014189611
0.012332977
0.0099344974
0.0072630582
0.0046633621
0.0024802544
0.00097885198
0.00029183308
0.00041110452
0.0012175975
0.0025297275
0.0041514274
0.0059074998
0.0077321623
0.0095081632
0.011133499
0.012593222
0.013888145
0.015027991
0.016027624
0.016905048
0.017680287
0.018375434
0.019015503
0.019630106
0.0055722536
0.0047111388
0.0038940064
0.0031499002
0.0024972015
0.0019475156
0.0014977667
0.0011434459
0.00087251436
0.00067531974
0.00051601574
0.00038989424
0.00028313768
0.00020112629
0.00013945916
9.6545798e-05
6.5713507e-05
4.3554638e-05
2.6861393e-05
1.5334442e-05
8.0179924e-06
3.7599667e-06
1.2972221e-06
2.8218271e-07
0.0064280768
0.0072211092
0.0078800553
0.0084267256
0.0090133758
0.0098244575
0.010947995
0.012533976
0.014431068
0.016119998
0.017156613
0.017728414
0.017673161
0.016874957
0.0152713
0.012942821
0.010104955
0.0070987153
0.0043183436
0.0021193534
0.00073871947
0.00025711269
0.0006099411
0.0016317305
0.0031121249
0.0048445686
0.0067406705
0.0086464361
0.01041763
0.012022756
0.013453483
0.014714711
0.015818947
0.016783116
0.017626891
0.018371839
0.019041779
0.019663722
0.020269673
0.0065260885
0.0055570778
0.004620289
0.0037517503
0.00298261
0.0023330707
0.0018041472
0.0013868299
0.0010617365
0.00082036959
0.00062983247
0.00048394848
0.00035892329
0.00026011914
0.00018224705
0.00012683337
8.7388237e-05
5.9689259e-05
3.9188446e-05
2.4132666e-05
1.3627877e-05
7.0510389e-06
3.1975019e-06
1.0732681e-06
2.0714107e-07
0.0074950316
0.0083883376
0.0091187321
0.0097261534
0.010423208
0.011371885
0.012715833
0.01456714
0.01672717
0.018557124
0.019556437
0.019965443
0.019609498
0.018385595
0.016270321
0.013414828
0.01011992
0.0068006694
0.0038900731
0.0017361119
0.00053072691
0.00029216996
0.00089553936
0.0021312515
0.0037666688
0.0056896083
0.0077070032
0.0096218415
0.011378853
0.012956113
0.014351128
0.015572674
0.01663595
0.017559925
0.018365954
0.019077305
0.019719556
0.02032162
0.020918115
0.0076078923
0.0065053277
0.005444324
0.0044445679
0.0035453801
0.0027807816
0.0021576989
0.0016676944
0.0012845255
0.00099686394
0.000765662
0.00059231466
0.00044662352
0.00033099392
0.00023699436
0.00016680564
0.00011560686
7.976784e-05
5.4029306e-05
3.5266174e-05
2.1461282e-05
1.2015375e-05
6.0898122e-06
2.6787825e-06
8.507729e-07
1.487252e-07
0.0087155284
0.0097236705
0.01052695
0.011210436
0.012022658
0.013150258
0.014751686
0.016891363
0.019323921
0.021273398
0.022181313
0.022351077
0.021600234
0.019852601
0.01714375
0.013714374
0.009961211
0.0063690668
0.0033925536
0.0013514838
0.00037636787
0.00041334814
0.0012760626
0.0027170517
0.0046013214
0.0066981994
0.0087469438
0.01065873
0.012392028
0.01393331
0.01528551
0.016461063
0.017477806
0.018356728
0.019121009
0.019795577
0.020407708
0.020988282
0.021574819
0.0088491434
0.0075834529
0.0063733496
0.0052319288
0.0041927085
0.003299818
0.0025695443
0.0019947122
0.0015450404
0.0012063565
0.00093101543
0.00072159636
0.00054813828
0.00041336429
0.00030342778
0.00021796829
0.00015292087
0.000106005
7.2585937e-05
4.8803453e-05
3.1429711e-05
1.8900846e-05
1.0393252e-05
5.1390324e-06
2.171246e-06
6.5483876e-07
1.0263165e-07
0.01011805
0.011247127
0.012125162
0.012907738
0.013851695
0.015198251
0.017088656
0.019534881