/*--------------------------------*- C++ -*----------------------------------*\
| =========                 |                                                 |
| \\      /  F ield         | OpenFOAM: The Open Source CFD Toolbox           |
|  \\    /   O peration     | Version:  5.0                                   |
|   \\  /    A nd           | Web:      www.OpenFOAM.org                      |
|    \\/     M anipulation  |                                                 |
\*---------------------------------------------------------------------------*/
FoamFile
{
    version     2.0;
    format      ascii;
    class       volVectorField;
    location    "160";
    object      U;
}
// * * * * * * * * * * * * * * * * * * * * * * * * * * * * * * * * * * * * * //

dimensions      [0 1 -1 0 0 0 0];

internalField   nonuniform List<vector> 
9520
(
(1.0141493 0.00015857939 0)
(1.0142525 0.00046539885 0)
(1.0136763 0.00015881226 0)
(1.014435 0.00075171804 0)
(1.0137799 0.00046636369 0)
(1.0134913 0.00015986903 0)
(1.0146798 0.0010174457 0)
(1.0139645 0.00075430384 0)
(1.0135944 0.00046869316 0)
(1.0131868 0.00016514882 0)
(1.0149718 0.0012629418 0)
(1.0142136 0.0010218965 0)
(1.0137793 0.00075792485 0)
(1.0132902 0.00048344484 0)
(1.0129454 0.00017172715 0)
(1.015297 0.0014874829 0)
(1.0145132 0.0012706811 0)
(1.014029 0.0010271245 0)
(1.0134752 0.00078157909 0)
(1.0130493 0.0005032012 0)
(1.0126688 0.00017656993 0)
(1.0156434 0.0016909652 0)
(1.0148499 0.0014993952 0)
(1.0143302 0.0012784958 0)
(1.0137251 0.0010602602 0)
(1.0132342 0.00081428093 0)
(1.0127717 0.0005192245 0)
(1.0124149 0.00017637283 0)
(1.0160011 0.0018729854 0)
(1.0152124 0.0017076846 0)
(1.0146706 0.0015112954 0)
(1.0140265 0.0013213278 0)
(1.0134842 0.0011067984 0)
(1.0129539 0.00084283459 0)
(1.0125158 0.00052069424 0)
(1.0121645 0.00017212821 0)
(1.0163626 0.0020325039 0)
(1.0155917 0.0018954481 0)
(1.0150388 0.0017250001 0)
(1.0143688 0.0015653438 0)
(1.0137858 0.0013814073 0)
(1.0132008 0.001149994 0)
(1.0126944 0.00084847106 0)
(1.0122608 0.0005092509 0)
(1.011935 0.000166706 0)
(1.0167241 0.0021694714 0)
(1.0159811 0.0020628934 0)
(1.0154246 0.0019191301 0)
(1.0147412 0.0017922943 0)
(1.014129 0.0016395662 0)
(1.0134993 0.0014407594 0)
(1.0129371 0.0011624003 0)
(1.0124324 0.00083239275 0)
(1.0120267 0.0004928867 0)
(1.0117193 0.00016293733 0)
(1.0170877 0.0022790785 0)
(1.0163779 0.0022131638 0)
(1.0158175 0.002094065 0)
(1.0151334 0.0020015105 0)
(1.0145041 0.0018820429 0)
(1.0138385 0.0017169424 0)
(1.013231 0.001463574 0)
(1.0126661 0.0011439962 0)
(1.0121913 0.00080675778 0)
(1.0118066 0.00048052676 0)
(1.0115153 0.00016186594 0)
(1.0174576 0.0023709615 0)
(1.0167807 0.0023515203 0)
(1.0162076 0.0022542972 0)
(1.0155339 0.0021923877 0)
(1.0149018 0.0021084978 0)
(1.0142095 0.0019803033 0)
(1.0135645 0.0017529286 0)
(1.0129502 0.0014478495 0)
(1.0124151 0.0011105344 0)
(1.0119638 0.00078648461 0)
(1.011599 0.00047613795 0)
(1.0113187 0.00016227867 0)
(1.0178129 0.0024477938 0)
(1.0171752 0.0024949495 0)
(1.0165777 0.0024056119 0)
(1.0159296 0.0023643927 0)
(1.0153133 0.0023173979 0)
(1.0146051 0.0022313986 0)
(1.0139287 0.0020324469 0)
(1.0132719 0.0017440187 0)
(1.0126872 0.0014099455 0)
(1.0121765 0.0010839146 0)
(1.0117487 0.0007786065 0)
(1.0113993 0.00047699551 0)
(1.0111284 0.00016167869 0)
(1.0181359 0.0025313681 0)
(1.017525 0.0026412785 0)
(1.0168891 0.0025588832 0)
(1.0163031 0.0025117289 0)
(1.0157297 0.0025037889 0)
(1.0150216 0.0024693271 0)
(1.0143172 0.0023037865 0)
(1.013622 0.0020336874 0)
(1.0129971 0.0017055207 0)
(1.0124339 0.0013782228 0)
(1.0119504 0.0010741157 0)
(1.0115414 0.00077963623 0)
(1.011206 0.00047601905 0)
(1.0109466 0.00015774993 0)
(1.01843 0.0025872037 0)
(1.017809 0.0028245652 0)
(1.0171502 0.0027116952 0)
(1.0166592 0.0026300737 0)
(1.0161505 0.0026568648 0)
(1.0154623 0.0026892179 0)
(1.0147268 0.002568842 0)
(1.0139924 0.0023184415 0)
(1.0133341 0.0019972188 0)
(1.0127272 0.0016710603 0)
(1.0121938 0.0013672441 0)
(1.0117317 0.001075907 0)
(1.0113408 0.0007787383 0)
(1.0110206 0.00046595762 0)
(1.0107776 0.00014941991 0)
(1.0187357 0.0027127816 0)
(1.0180334 0.0029860156 0)
(1.0174317 0.002836484 0)
(1.0170335 0.0026895748 0)
(1.0166015 0.0027637024 0)
(1.0159389 0.0028860336 0)
(1.0151559 0.0028320938 0)
(1.0143759 0.0026015774 0)
(1.0136886 0.0022849026 0)
(1.0130476 0.0019627499 0)
(1.0124711 0.0016603993 0)
(1.0119603 0.0013704959 0)
(1.0115199 0.0010750099 0)
(1.0111482 0.00076386696 0)
(1.0108474 0.00044287017 0)
(1.0106255 0.00013722712 0)
(1.01905 0.0027313728 0)
(1.0182231 0.003199525 0)
(1.0176361 0.0029133075 0)
(1.017418 0.002689649 0)
(1.01708 0.0027898372 0)
(1.0164575 0.0030602166 0)
(1.0156047 0.003103747 0)
(1.0147638 0.0028900422 0)
(1.0140494 0.0025689189 0)
(1.0133865 0.0022520295 0)
(1.0127748 0.0019551362 0)
(1.0122196 0.0016665572 0)
(1.0117335 0.0013698225 0)
(1.0113165 0.0010561266 0)
(1.0109672 0.00072754469 0)
(1.0106909 0.00040767249 0)
(1.0104928 0.00012302198 0)
(1.0193349 0.003052066 0)
(1.0183209 0.0033887092 0)
(1.0177542 0.0029559623 0)
(1.0177849 0.0026169436 0)
(1.0175488 0.0027895849 0)
(1.0170064 0.003212073 0)
(1.0160773 0.0033923906 0)
(1.0151483 0.0031917802 0)
(1.0144066 0.0028507665 0)
(1.0137353 0.0025364042 0)
(1.0130979 0.0022510096 0)
(1.0125026 0.001967252 0)
(1.0119736 0.0016677515 0)
(1.0115147 0.0013464328 0)
(1.0111252 0.0010090084 0)
(1.0108027 0.00067038055 0)
(1.0105542 0.00036552899 0)
(1.0103794 0.00010913864 0)
(1.0196749 0.0029287917 0)
(1.0183957 0.0037658232 0)
(1.0176949 0.0030405737 0)
(1.0180401 0.0024934794 0)
(1.0181094 0.0027412952 0)
(1.0175483 0.0033631308 0)
(1.0165515 0.0037288078 0)
(1.0155071 0.0035255274 0)
(1.0147439 0.0031304184 0)
(1.0140849 0.002811126 0)
(1.0134347 0.0025455787 0)
(1.0128044 0.0022742084 0)
(1.012233 0.0019733556 0)
(1.0117341 0.001641449 0)
(1.0113088 0.0012888486 0)
(1.0109499 0.00093171944 0)
(1.0106589 0.00060079583 0)
(1.0104376 0.0003233472 0)
(1.0102828 9.7434147e-05 0)
(1.0198239 0.0036665007 0)
(1.018192 0.0040547302 0)
(1.0174494 0.0029462011 0)
(1.0182246 0.0021898272 0)
(1.0187209 0.0026191732 0)
(1.0181686 0.003511809 0)
(1.0169966 0.0041202962 0)
(1.0158184 0.003911159 0)
(1.0150372 0.0034159797 0)
(1.0144209 0.003068444 0)
(1.0137804 0.0028327714 0)
(1.0131227 0.0025870609 0)
(1.0125071 0.002290589 0)
(1.0119666 0.0019465366 0)
(1.0115076 0.0015742234 0)
(1.01112 0.0011944416 0)
(1.0107953 0.00083343734 0)
(1.0105373 0.00053043603 0)
(1.010339 0.0002867719 0)
(1.0101997 8.8688054e-05 0)
(1.0200481 0.0032899123 0)
(1.0181481 0.0047096552 0)
(1.0169456 0.0031543238 0)
(1.0183089 0.0017703727 0)
(1.0194982 0.002325635 0)
(1.0189318 0.0037012032 0)
(1.0174406 0.0045836987 0)
(1.0160348 0.0043652237 0)
(1.0152476 0.0036993371 0)
(1.0147261 0.0032996395 0)
(1.014131 0.0031031711 0)
(1.0134584 0.0029025153 0)
(1.0127944 0.0026223212 0)
(1.0122067 0.0022673597 0)
(1.0117129 0.0018705291 0)
(1.0112995 0.001462447 0)
(1.0109516 0.0010698364 0)
(1.0106651 0.00073142225 0)
(1.0104358 0.00046839473 0)
(1.010255 0.00025846304 0)
(1.0101265 8.2617538e-05 0)
(1.0197053 0.0045687503 0)
(1.0174271 0.0051844065 0)
(1.016216 0.0027442533 0)
(1.0183298 0.0011294385 0)
(1.0203658 0.0019413179 0)
(1.0198836 0.0038811024 0)
(1.0179185 0.0051785251 0)
(1.0161612 0.0048891259 0)
(1.0153676 0.0039974328 0)
(1.0149641 0.0034711599 0)
(1.0144831 0.0033374215 0)
(1.0138174 0.0032142036 0)
(1.0130978 0.0029713849 0)
(1.0124514 0.0026095748 0)
(1.0119175 0.0021835936 0)
(1.0114794 0.0017402955 0)
(1.0111146 0.0013117379 0)
(1.0108092 0.00093566065 0)
(1.0105581 0.00064097668 0)
(1.0103508 0.00041858441 0)
(1.0101826 0.00023817424 0)
(1.0100605 7.8350119e-05 0)
(1.0192737 0.0038809508 0)
(1.0172847 0.0061344594 0)
(1.0149997 0.0033166594 0)
(1.01811 0.00013684144 0)
(1.0214901 0.001194556 0)
(1.0210673 0.0041825933 0)
(1.0184202 0.0059624079 0)
(1.0161265 0.0055423853 0)
(1.015342 0.0042487365 0)
(1.0152052 0.0035916258 0)
(1.014845 0.00350228 0)
(1.0142139 0.0035049115 0)
(1.0134292 0.0033400019 0)
(1.0127008 0.0029814811 0)
(1.0121147 0.0025196744 0)
(1.0116513 0.002032651 0)
(1.0112738 0.001561901 0)
(1.0109576 0.0011438332 0)
(1.0106931 0.00081359026 0)
(1.0104704 0.0005688302 0)
(1.0102785 0.00038077298 0)
(1.0101189 0.00022390625 0)
(1.0100001 7.4917499e-05 0)
(1.0177154 0.0057901508 0)
(1.01491 0.0068740938 0)
(1.0136607 0.0023691864 0)
(1.017807 -0.00092519584 0)
(1.0226274 0.00040210183 0)
(1.0225351 0.0043774475 0)
(1.018986 0.0070291657 0)
(1.0158791 0.0063576843 0)
(1.0150832 0.0045064817 0)
(1.015366 0.0035519002 0)
(1.0152578 0.0035683644 0)
(1.0146844 0.0037590538 0)
(1.0138091 0.003728481 0)
(1.0129607 0.0033943727 0)
(1.0122988 0.0028884004 0)
(1.0118062 0.0023441672 0)
(1.0114203 0.0018226105 0)
(1.0110997 0.0013584158 0)
(1.0108307 0.00098827727 0)
(1.0105997 0.00071385389 0)
(1.0103977 0.00051354946 0)
(1.0102163 0.00035290481 0)
(1.0100619 0.00021309347 0)
(1.0099445 7.1495882e-05 0)
(1.017994 0.0052325978 0)
(1.012228 0.0078813343 0)
(1.0109081 0.0036208747 0)
(1.0170368 -0.0027359321 0)
(1.0244254 -0.0010374133 0)
(1.0243553 0.0049646324 0)
(1.0195548 0.0084371214 0)
(1.0153533 0.0074415655 0)
(1.0145135 0.0046966872 0)
(1.0153872 0.0033428714 0)
(1.0157839 0.0034906694 0)
(1.0152281 0.0039270899 0)
(1.0142748 0.0041463913 0)
(1.0132415 0.0038673199 0)
(1.0124639 0.0033033886 0)
(1.0119336 0.0026809876 0)
(1.0115443 0.0020956903 0)
(1.011227 0.0015805347 0)
(1.0109599 0.0011673394 0)
(1.0107292 0.00085865371 0)
(1.0105247 0.00063596378 0)
(1.010337 0.00047016446 0)
(1.0101626 0.00033223189 0)
(1.0100099 0.00020324871 0)
(1.0098934 6.7495131e-05 0)
(1.0168917 0.0075240947 0)
(1.0110801 0.0091321663 0)
(1.0078812 0.0018089878 0)
(1.0161309 -0.0042898708 0)
(1.0256343 -0.00235661 0)
(1.0265583 0.0050310435 0)
(1.020243 0.010328889 0)
(1.0144602 0.0088086577 0)
(1.013531 0.0048962967 0)
(1.0152371 0.002842604 0)
(1.016403 0.0032119501 0)
(1.0159183 0.0040702811 0)
(1.0148147 0.0045881815 0)
(1.0135621 0.0044294679 0)
(1.0126035 0.0037883413 0)
(1.0120185 0.0030505474 0)
(1.0116342 0.0023812799 0)
(1.0113313 0.0018100545 0)
(1.0110731 0.0013521395 0)
(1.0108484 0.0010060167 0)
(1.0106489 0.00075446658 0)
(1.0104648 0.00057400256 0)
(1.0102864 0.0004343119 0)
(1.0101162 0.00031484519 0)
(1.0099625 0.00019217805 0)
(1.0098472 6.2625091e-05 0)
(1.0104372 0.0069078022 0)
(1.0104349 0.010640343 0)
(1.0051705 0.003382273 0)
(1.0145256 -0.0071995766 0)
(1.0276307 -0.0048435424 0)
(1.0289685 0.0062836848 0)
(1.0207454 0.012720657 0)
(1.0130745 0.010587545 0)
(1.0120415 0.0050010378 0)
(1.0148341 0.0020524734 0)
(1.0171084 0.0025832207 0)
(1.0168822 0.0041622394 0)
(1.0154569 0.0051006993 0)
(1.0138958 0.0051252456 0)
(1.0127032 0.0043759432 0)
(1.0120409 0.0034653563 0)
(1.0116746 0.0026776639 0)
(1.0114042 0.0020428404 0)
(1.0111644 0.0015423019 0)
(1.01095 0.0011584787 0)
(1.0107603 0.0008731933 0)
(1.0105868 0.000668791 0)
(1.0104177 0.00052089604 0)
(1.0102456 0.00040251781 0)
(1.0100759 0.00029568721 0)
(1.0099202 0.00017825107 0)
(1.0098064 5.6908446e-05 0)
(0.99690083 0.0099558508 0)
(0.99754184 0.011803739 0)
(1.0024597 0.0008353025 0)
(1.0133276 -0.0096572771 0)
(1.0290378 -0.0064441616 0)
(1.0310438 0.0060095377 0)
(1.0215348 0.015894786 0)
(1.0110058 0.012869955 0)
(1.0098227 0.0051376319 0)
(1.014113 0.00073707092 0)
(1.0179504 0.0015760199 0)
(1.0181916 0.0040980544 0)
(1.0163576 0.0057243868 0)
(1.0142349 0.0059829778 0)
(1.0127347 0.0051161379 0)
(1.0119656 0.003940301 0)
(1.0116444 0.0029814706 0)
(1.0114358 0.0022701219 0)
(1.0112308 0.0017329486 0)
(1.0110304 0.0013170667 0)
(1.0108513 0.0009966294 0)
(1.0106928 0.00076027128 0)
(1.0105412 0.0005929574 0)
(1.0103827 0.00047038999 0)
(1.0102139 0.00037021241 0)
(1.0100416 0.00027085736 0)
(1.0098837 0.00016106492 0)
(1.0097714 5.0690996e-05 0)
(0.98351432 0.010289759 0)
(0.98146002 0.013224403 0)
(0.99184283 0.0032177571 0)
(1.0117828 -0.013483914 0)
(1.0323898 -0.010163842 0)
(1.0332683 0.0083272328 0)
(1.0212081 0.019759952 0)
(1.008093 0.015689646 0)
(1.0067703 0.0051709074 0)
(1.0129573 -0.0010139094 0)
(1.0189381 -8.8541407e-05 0)
(1.0199647 0.0038859339 0)
(1.0176076 0.0064912242 0)
(1.0146653 0.0070886156 0)
(1.0126423 0.0060382262 0)
(1.0117562 0.0045010292 0)
(1.0115086 0.0032835881 0)
(1.0114127 0.0024746481 0)
(1.0112713 0.0019127526 0)
(1.0110914 0.0014794031 0)
(1.0109197 0.0011284712 0)
(1.0107743 0.00085517993 0)
(1.0106448 0.00065724194 0)
(1.0105111 0.00051921217 0)
(1.0103595 0.00041815684 0)
(1.0101906 0.0003333397 0)
(1.0100131 0.00023973135 0)
(1.0098535 0.00014191987 0)
(1.0097418 4.4605765e-05 0)
(0.96878586 0.012578164 0)
(0.96735495 0.014697982 0)
(0.97977796 -0.00097833572 0)
(1.0077789 -0.016414385 0)
(1.033876 -0.012187996 0)
(1.0377031 0.008115247 0)
(1.0197067 0.024608621 0)
(1.0036795 0.019363653 0)
(1.0025007 0.005155405 0)
(1.011335 -0.0036088641 0)
(1.020137 -0.0023417326 0)
(1.0223089 0.003312232 0)
(1.0193422 0.0074857969 0)
(1.015218 0.0085553789 0)
(1.012392 0.007224879 0)
(1.0113444 0.0051656516 0)
(1.0112227 0.0035704056 0)
(1.011316 0.0026294647 0)
(1.0112869 0.0020602735 0)
(1.0111407 0.0016375145 0)
(1.0109697 0.0012711107 0)
(1.0108284 0.00096045184 0)
(1.0107184 0.00072227236 0)
(1.0106156 0.00055581377 0)
(1.0104957 0.00044368662 0)
(1.0103478 0.00036228123 0)
(1.0101749 0.00028947222 0)
(1.0099916 0.00020582296 0)
(1.0098292 0.00012321652 0)
(1.0097171 3.9399899e-05 0)
(0.95222213 0.013589751 1.1839707e-23)
(0.95189388 0.015265997 0)
(0.96765845 -0.0012664259 0)
(1.0032152 -0.022025917 0)
(1.0340246 -0.017786712 0)
(1.0414401 0.011609543 0)
(1.0204855 0.029526461 0)
(0.99780302 0.023316377 0)
(0.99694366 0.0050708221 0)
(1.0090101 -0.0068735991 0)
(1.0216283 -0.0056664781 0)
(1.0254124 0.0025055203 0)
(1.0216814 0.0086796152 0)
(1.0159568 0.010536673 0)
(1.0119385 0.0087835233 0)
(1.0106154 0.0059626897 0)
(1.0107282 0.0038235429 0)
(1.0111197 0.0026943272 0)
(1.0112819 0.0021427744 0)
(1.011193 0.0017759128 0)
(1.0110133 0.0014239024 0)
(1.0108585 0.0010838615 0)
(1.0107567 0.00079787311 0)
(1.0106841 0.00058929091 0)
(1.0106048 0.00045174794 0)
(1.0104945 0.00036307181 0)
(1.0103465 0.00029952926 0)
(1.0101666 0.00023821381 0)
(1.0099773 0.00017339521 0)
(1.00981 0.00010722613 0)
(1.0096961 3.5719891e-05 0)
(0.93330067 0.015592521 -9.3196584e-24)
(0.93435313 0.016602843 -1.2371403e-23)
(0.95519582 -0.0056503261 0)
(0.99501332 -0.026162039 0)
(1.0310722 -0.019505672 0)
(1.0412541 0.0096280522 0)
(1.0277364 0.037037014 0)
(0.99257768 0.028056449 0)
(0.98975354 0.0045237015 0)
(1.0061281 -0.011397474 0)
(1.0233878 -0.0098245395 0)
(1.0293862 0.0010384317 0)
(1.0248311 0.01027151 0)
(1.0169095 0.01317132 0)
(1.0112114 0.010884444 0)
(1.0094565 0.0069216155 0)
(1.0099241 0.0040196 0)
(1.0107869 0.0026113854 0)
(1.011255 0.0021119985 0)
(1.0112685 0.0018692339 0)
(1.0110703 0.0015841238 0)
(1.0108758 0.0012351203 0)
(1.0107596 0.00089765587 0)
(1.0107078 0.00063119231 0)
(1.0106722 0.00045037431 0)
(1.0106124 0.0003389118 0)
(1.0105082 0.00027291227 0)
(1.0103558 0.00022838878 0)
(1.0101666 0.00018678167 0)
(1.009969 0.00014539851 0)
(1.0097948 9.561183e-05 0)
(1.0096776 3.3992532e-05 0)
(0.91301502 0.017189773 9.3565339e-24)
(0.9149311 0.017536927 4.191846e-23)
(0.93883165 -0.0078214568 0)
(0.98565852 -0.031291754 0)
(1.0228928 -0.024217713 0)
(1.0334862 0.014219017 0)
(1.0231138 0.043830905 0)
(0.98871382 0.034628837 0)
(0.98163582 0.0042557334 0)
(1.0022538 -0.016974422 0)
(1.0256377 -0.015569453 0)
(1.0344481 -0.00074050168 0)
(1.0289046 0.012114921 0)
(1.0181683 0.016692771 0)
(1.0101172 0.013665898 0)
(1.0077113 0.0081451419 0)
(1.0086807 0.0040856631 0)
(1.0102691 0.0023106747 0)
(1.01122 0.0019089252 0)
(1.0113766 0.0018799216 0)
(1.0111687 0.0017458479 0)
(1.0109004 0.001427231 0)
(1.0107329 0.0010392855 0)
(1.0106808 0.0006976652 0)
(1.0106853 0.00045122367 0)
(1.0106844 0.00029705101 0)
(1.0106402 0.00021305921 0)
(1.0105365 0.00017467897 0)
(1.0103751 0.00015621987 0)
(1.0101739 0.00014245333 0)
(1.0099655 0.00012439523 0)
(1.0097821 8.9481455e-05 0)
(1.0096602 3.4384077e-05 0)
(0.89260702 0.018911961 0)
(0.89485598 0.018757789 -4.1991208e-23)
(0.92078364 -0.011529382 0)
(0.97184554 -0.036354422 0)
(1.0126539 -0.024413568 0)
(1.0197674 0.016290037 0)
(0.99891983 0.052228466 0)
(0.97695264 0.043040697 0)
(0.97094021 0.0029370428 0)
(0.9976844 -0.023887998 0)
(1.0280215 -0.022207849 0)
(1.0405897 -0.0035854588 0)
(1.0341478 0.014632115 0)
(1.0196991 0.021279855 0)
(1.0085325 0.017374058 0)
(1.0052011 0.009646721 0)
(1.0068438 0.0040144095 0)
(1.0094943 0.0016628159 0)
(1.0111808 0.0014195505 0)
(1.0116278 0.0017780438 0)
(1.0113497 0.0018917835 0)
(1.0109661 0.0016705462 0)
(1.0106914 0.0012467168 0)
(1.0106015 0.0008105068 0)
(1.0106323 0.0004706523 0)
(1.0106943 0.00024787131 0)
(1.0107237 0.00012672324 0)
(1.0106875 7.9804744e-05 0)
(1.0105772 7.7233109e-05 0)
(1.0104028 9.2329398e-05 0)
(1.0101871 0.00010758728 0)
(1.0099655 0.00011217468 0)
(1.0097709 8.9325698e-05 0)
(1.009643 3.6833798e-05 0)
(0.87249096 0.02047571 -5.2813577e-24)
(0.87527134 0.019775107 0)
(0.90169096 -0.014997497 -3.6857502e-23)
(0.9549085 -0.041361641 0)
(0.99915348 -0.02803438 0)
(1.0056833 0.023285268 0)
(0.97862182 0.059875512 0)
(0.95602955 0.049760914 0)
(0.95803394 0.0038649732 0)
(0.99125 -0.03227304 0)
(1.0307656 -0.030847444 0)
(1.047676 -0.0065205096 0)
(1.0404022 0.017429409 0)
(1.0215997 0.027228382 0)
(1.0062793 0.022203441 0)
(1.0016626 0.011600042 0)
(1.0042309 0.0036630897 0)
(1.0083759 0.00057748274 0)
(1.0111457 0.00051145721 0)
(1.0120544 0.0014441974 0)
(1.011708 0.0020024308 0)
(1.011129 0.0019725928 0)
(1.010662 0.0015453137 0)
(1.010474 0.00099996166 0)
(1.0105039 0.00053163649 0)
(1.0106247 0.00020662375 0)
(1.0107397 2.1151002e-05 0)
(1.0107904 -5.1858429e-05 0)
(1.0107526 -5.0874156e-05 0)
(1.0106295 -1.1385343e-05 0)
(1.0104374 4.1198731e-05 0)
(1.0102051 8.535299e-05 0)
(1.0099677 0.00010897815 0)
(1.0097609 9.469718e-05 0)
(1.0096247 4.1286948e-05 0)
(0.85367768 0.021816876 4.4479895e-24)
(0.85690913 0.020814084 7.2693968e-23)
(0.882495 -0.018770445 3.6838074e-23)
(0.93580841 -0.046606535 -1.2402011e-23)
(0.9824745 -0.031004636 -1.5506097e-22)
(0.98977321 0.027526324 0)
(0.96103882 0.068752238 0)
(0.93738834 0.056337683 0)
(0.94417812 0.0019470353 0)
(0.98331742 -0.042084545 0)
(1.0332463 -0.040065739 0)
(1.0556143 -0.011062566 0)
(1.0473858 0.021424904 0)
(1.0233932 0.034793346 0)
(1.003156 0.028413349 0)
(0.99684459 0.013996367 0)
(1.0006085 0.0030702054 0)
(1.0068004 -0.0011869833 0)
(1.0111288 -0.00093810406 0)
(1.0127269 0.00078182772 0)
(1.0123786 0.0020733691 0)
(1.0114271 0.0023318059 0)
(1.0106936 0.0019814824 0)
(1.0103072 0.0013038896 0)
(1.0102903 0.00066428574 0)
(1.0104591 0.00019332784 0)
(1.010667 -9.1296615e-05 0)
(1.0108226 -0.00021556449 0)
(1.0108818 -0.0002271061 0)
(1.0108348 -0.00017160508 0)
(1.0106918 -8.3916612e-05 0)
(1.0104775 6.2730097e-06 0)
(1.0102256 7.7548067e-05 0)
(1.0099703 0.00011320659 0)
(1.0097496 0.00010609413 0)
(1.0096046 4.7479714e-05 0)
(0.83718427 0.022848152 -1.7057194e-24)
(0.84064652 0.021639526 -1.054155e-22)
(0.86418156 -0.02234709 0)
(0.91536206 -0.051724949 1.8690375e-22)
(0.96260026 -0.033460537 1.5432423e-22)
(0.97257781 0.030846914 1.1492797e-22)
(0.94274144 0.077076839 5.9758392e-23)
(0.91992659 0.059080422 0)
(0.92998449 0.00086523569 0)
(0.9771186 -0.054272308 0)
(1.037493 -0.052955676 0)
(1.06605 -0.014811304 0)
(1.0551126 0.025866571 0)
(1.0245115 0.044340952 0)
(0.99859006 0.036318998 0)
(0.99035026 0.017025453 0)
(0.99574492 0.0019780972 0)
(1.0046599 -0.0036862107 0)
(1.0111234 -0.0031853659 0)
(1.0137539 -0.00031577704 0)
(1.0134593 0.002022665 0)
(1.0120159 0.0028405423 0)
(1.0107905 0.0025767414 0)
(1.0101303 0.0017876323 0)
(1.009982 0.00091115014 0)
(1.0101762 0.00023343285 0)
(1.0104828 -0.00019659512 0)
(1.0107621 -0.00040506481 0)
(1.0109409 -0.00044951344 0)
(1.0109958 -0.00038991611 0)
(1.0109297 -0.00027267526 0)
(1.0107616 -0.00013643814 0)
(1.0105219 -1.0518415e-05 0)
(1.0102449 8.3504535e-05 0)
(1.0099717 0.00013222162 0)
(1.0097364 0.00012310687 0)
(1.0095819 5.5075024e-05 0)
(0.82400742 0.023613441 2.366402e-24)
(0.82738256 0.022286833 2.2326672e-23)
(0.84737713 -0.025816985 1.0943568e-23)
(0.89456123 -0.056493402 -8.8259704e-23)
(0.94133316 -0.03669847 -1.8131342e-22)
(0.95201156 0.036028952 1.550098e-22)
(0.92553147 0.084755561 -5.8542454e-23)
(0.90147784 0.066937867 2.6541959e-23)
(0.91611854 -0.0063142978 0)
(0.9701078 -0.066834162 0)
(1.0402498 -0.065618777 0)
(1.0799312 -0.023271627 0)
(1.0672783 0.031859418 0)
(1.0253391 0.056091557 0)
(0.99181061 0.045834857 0)
(0.98183911 0.020748052 0)
(0.98929038 0.00043336011 0)
(1.0018186 -0.0073242683 0)
(1.0111449 -0.0063303762 0)
(1.0152482 -0.002074379 0)
(1.0151122 0.0018220418 0)
(1.013038 0.0035022235 0)
(1.0110546 0.0034392234 0)
(1.0099279 0.0025038384 0)
(1.0095751 0.0013300183 0)
(1.0097533 0.00036465656 0)
(1.0101598 -0.00027625025 0)
(1.0105828 -0.00061158133 0)
(1.0109076 -0.00071550924 0)
(1.011091 -0.00066782454 0)
(1.0111284 -0.00052944321 0)
(1.0110347 -0.00034924535 0)
(1.0108365 -0.00016646289 0)
(1.0105668 -8.6650628e-06 0)
(1.010266 0.00010441127 0)
(1.0099714 0.00015883994 0)
(1.0097205 0.00014460894 0)
(1.0095562 6.3651366e-05 0)
(0.8145343 0.023986092 -2.5257839e-24)
(0.81758292 0.022607198 -1.6136902e-24)
(0.83335425 -0.028774094 0)
(0.87392648 -0.06081255 2.7206339e-24)
(0.91860306 -0.039394874 -7.1215557e-23)
(0.93121665 0.039941815 0)
(0.90622868 0.093090878 -2.6817614e-22)
(0.88473385 0.073270457 -2.2404303e-22)
(0.89857899 -0.0077528301 0)
(0.96463137 -0.080296604 0)
(1.0403131 -0.081108871 0)
(1.0865779 -0.028241122 0)
(1.0851772 0.036910727 0)
(1.0313645 0.069554402 0)
(0.98369626 0.057439411 0)
(0.97058514 0.02496835 0)
(0.98109248 -0.0018522222 0)
(0.9981111 -0.012083635 0)
(1.0111897 -0.010820884 0)
(1.0173365 -0.0045626382 0)
(1.0175206 0.001312694 0)
(1.0146638 0.0043714293 0)
(1.0116111 0.0046731671 0)
(1.0097126 0.00354353 0)
(1.0090524 0.0020010205 0)
(1.0091546 0.00062227514 0)
(1.0096653 -0.00030938449 0)
(1.0102557 -0.00082709264 0)
(1.0107568 -0.0010232245 0)
(1.0110986 -0.0010056687 0)
(1.0112675 -0.00085686645 0)
(1.0112752 -0.0006382353 0)
(1.0111469 -0.00039813134 0)
(1.0109133 -0.00017296231 0)
(1.0106116 1.1277918e-05 0)
(1.0102842 0.00013787642 0)
(1.0099682 0.00019319933 0)
(1.0097015 0.00016954515 0)
(1.0095273 7.2828026e-05 0)
(0.81009169 0.024047402 0)
(0.81199459 0.022715396 0)
(0.82273447 -0.03133329 1.6659142e-24)
(0.85514334 -0.064434192 0)
(0.89528028 -0.041968839 6.5297837e-24)
(0.90882901 0.04433966 1.6887727e-22)
(0.88763437 0.10089712 4.1613989e-22)
(0.86737399 0.08070744 -2.1030889e-22)
(0.88152356 -0.0078734413 0)
(0.95114065 -0.094596729 0)
(1.0392166 -0.091079648 0)
(1.0863391 -0.041061339 0)
(1.0949044 0.044250928 0)
(1.042992 0.085550694 0)
(0.97856985 0.070837849 0)
(0.9566036 0.029984949 0)
(0.97060868 -0.005065083 0)
(0.9935292 -0.018540618 0)
(1.0112487 -0.016584523 0)
(1.0201602 -0.0082129565 0)
(1.0209284 0.00052430949 0)
(1.0170866 0.0054268863 0)
(1.012588 0.0064201096 0)
(1.0095477 0.0050613468 0)
(1.0083418 0.0029831759 0)
(1.0083515 0.0010863416 0)
(1.0089526 -0.00027020832 0)
(1.0097442 -0.0010475963 0)
(1.0104608 -0.0013750689 0)
(1.0109958 -0.001407145 0)
(1.0113265 -0.0012581708 0)
(1.0114635 -0.0010073631 0)
(1.0114322 -0.00071269479 0)
(1.0112626 -0.00041784946 0)
(1.0109902 -0.00015660808 0)
(1.0106553 4.913347e-05 0)
(1.0102999 0.00018276768 0)
(1.0099615 0.00023324828 0)
(1.0096791 0.00019666036 0)
(1.0094954 8.2245078e-05 0)
(0.81070549 0.022648814 -5.6675662e-25)
(0.8106017 0.023845353 0)
(0.81507698 -0.033206546 -7.3265243e-24)
(0.83957741 -0.067241233 -1.4888164e-23)
(0.87278637 -0.044290022 2.0039449e-24)
(0.88659465 0.048195236 -1.2184047e-23)
(0.8687723 0.10834853 7.4557325e-24)
(0.8511507 0.087721461 -2.1459517e-22)
(0.86419327 -0.0086401709 2.6184797e-22)
(0.93359298 -0.10577615 0)
(1.0286785 -0.10766772 -1.2967929e-21)
(1.0820188 -0.041606898 0)
(1.0919483 0.047619127 0)
(1.0508587 0.10557077 0)
(0.97453499 0.088223225 0)
(0.94112047 0.035613273 0)
(0.95788381 -0.0092650999 0)
(0.98772925 -0.026583279 0)
(1.0114001 -0.024354071 0)
(1.0238326 -0.012907083 0)
(1.0255681 -0.00088802705 0)
(1.0205963 0.0068253363 0)
(1.0141236 0.0088105414 0)
(1.0094798 0.0072493809 0)
(1.0074133 0.0044171192 0)
(1.0072519 0.0018054283 0)
(1.0079617 -0.00013284442 0)
(1.0090014 -0.0012597253 0)
(1.0099859 -0.0017749977 0)
(1.0107594 -0.0018804152 0)
(1.0112864 -0.0017402142 0)
(1.0115811 -0.0014614674 0)
(1.0116733 -0.0011152102 0)
(1.0115945 -0.00075120068 0)
(1.0113792 -0.0004091251 0)
(1.0110656 -0.00011826431 0)
(1.0106958 0.00010183243 0)
(1.0103118 0.00023633454 0)
(1.0099512 0.00027694079 0)
(1.0096534 0.00022488199 0)
(1.0094605 9.1659193e-05 0)
(0.81094536 -0.034220415 6.0785778e-24)
(0.8149073 0.022552511 0)
(0.81733797 0.023306828 -1.2969863e-23)
(0.82522616 -0.069226271 1.487845e-23)
(0.85288386 -0.045914911 5.6138523e-24)
(0.8653906 0.051504901 3.2272888e-22)
(0.85132161 0.11492306 -4.8409013e-22)
(0.83648286 0.094474754 -2.2983562e-23)
(0.84783756 -0.0091687057 1.376309e-22)
(0.91489144 -0.11787886 6.1664105e-23)
(1.0116754 -0.12316843 -1.448939e-21)
(1.0721406 -0.05158087 1.3579504e-21)
(1.0764688 0.058075257 0)
(1.032261 0.12519225 0)
(0.96245628 0.10941298 0)
(0.92475067 0.044004887 0)
(0.94192898 -0.01528405 0)
(0.98114186 -0.036851771 0)
(1.0114731 -0.033692348 0)
(1.0285168 -0.019446971 0)
(1.0317354 -0.0027026882 0)
(1.0254358 0.0083853517 0)
(1.0164405 0.012070725 0)
(1.0095384 0.010308993 0)
(1.0062291 0.0064919363 0)
(1.0057279 0.0028406764 0)
(1.006615 0.00016935992 0)
(1.0079587 -0.0014821725 0)
(1.0092931 -0.0022440242 0)
(1.0103651 -0.0024418217 0)
(1.01113 -0.0023148801 0)
(1.0116127 -0.0020086498 0)
(1.0118539 -0.0016112484 0)
(1.0118908 -0.0011790403 0)
(1.0117587 -0.00075475356 0)
(1.0114942 -0.0003734332 0)
(1.0111379 -6.0176963e-05 0)
(1.0107323 0.0001666375 0)
(1.0103195 0.00029607829 0)
(1.0099369 0.00032325205 0)
(1.0096242 0.00025359103 0)
(1.009423 0.0001008689 0)
(0.8149664 -0.070234711 6.127062e-24)
(0.81362054 -0.034353935 2.2228324e-23)
(0.8253656 0.022201158 0)
(0.8278752 0.022393326 -2.3458254e-24)
(0.83413474 -0.047267777 3.0342048e-24)
(0.84667625 0.054255632 -1.4169184e-22)
(0.83592619 0.12039173 0)
(0.82432499 0.10036549 2.2825674e-23)
(0.83341379 -0.0096043294 6.8109882e-24)
(0.89558182 -0.13036479 -6.0846914e-23)
(0.99205021 -0.13789761 1.5874202e-21)
(1.0575542 -0.066549703 1.5145336e-21)
(1.0610288 0.067061382 0)
(1.0048228 0.14484699 0)
(0.94385429 0.13027723 0)
(0.90797216 0.053391144 0)
(0.92417852 -0.021259845 0)
(0.97275261 -0.049272908 0)
(1.0118045 -0.045715712 0)
(1.0341953 -0.027229601 0)
(1.03964 -0.005701914 0)
(1.032028 0.010516943 0)
(1.0196938 0.016344468 0)
(1.0097847 0.0145375 0)
(1.0047096 0.0093956167 0)
(1.0036666 0.0043279943 0)
(1.0047665 0.00061945176 0)
(1.0065317 -0.0016945393 0)
(1.0083246 -0.0027958711 0)
(1.0097837 -0.0031195183 0)
(1.0108426 -0.0030029185 0)
(1.0115473 -0.0026615304 0)
(1.0119617 -0.002208509 0)
(1.0121366 -0.0017068646 0)
(1.0121112 -0.0012002595 0)
(1.0119216 -0.00072544098 0)
(1.0116058 -0.00031328415 0)
(1.0112056 1.3958231e-05 0)
(1.0107639 0.00024070582 0)
(1.0103225 0.00035973315 0)
(1.0099186 0.00037042405 0)
(1.0095921 0.0002817683 0)
(1.0093831 0.00010973578 0)
(0.82018819 -0.048105832 -1.0778341e-23)
(0.81126141 -0.070276381 -6.1988764e-24)
(0.82170395 -0.033650202 -1.9814968e-23)
(0.8399515 0.021640468 -1.2989711e-23)
(0.84116787 0.021156077 5.9317275e-23)
(0.83087932 0.056173751 1.3257816e-22)
(0.82422346 0.12463984 6.9683084e-23)
(0.81580896 0.1053519 0)
(0.82190898 -0.010135305 -1.7279603e-23)
(0.87625524 -0.14228267 -2.9910251e-22)
(0.96995952 -0.15353306 0)
(1.0391242 -0.077259274 -1.9677499e-21)
(1.0496384 0.06199303 0)
(0.98594011 0.16438766 0)
(0.92615307 0.14517359 0)
(0.89271692 0.065339203 0)
(0.90598737 -0.030252676 0)
(0.96328703 -0.064319317 0)
(1.0119895 -0.05924503 0)
(1.041068 -0.037725428 0)
(1.049577 -0.0091211901 0)
(1.0405694 0.012657586 0)
(1.0242255 0.022040628 0)
(1.0102084 0.020214714 0)
(1.0027395 0.013414268 0)
(1.0009206 0.0063876276 0)
(1.0022463 0.0012566066 0)
(1.0046127 -0.0019203873 0)
(1.0070108 -0.0034964387 0)
(1.0089805 -0.0039529364 0)
(1.0104097 -0.0038345771 0)
(1.0113791 -0.003439349 0)
(1.0119907 -0.0029175849 0)
(1.0123221 -0.0023407567 0)
(1.0124229 -0.001750625 0)
(1.0123307 -0.0011816539 0)
(1.0120809 -0.00066640224 0)
(1.0117125 -0.00023241134 0)
(1.0112677 0.00010043992 0)
(1.0107901 0.00032090141 0)
(1.0103207 0.0004255162 0)
(1.0098968 0.00041699024 0)
(1.0095573 0.00030910109 0)
(1.0093412 0.00011820543 0)
(0.81943513 0.056962706 6.5917982e-24)
(0.8110738 -0.048363743 8.7719659e-24)
(0.81345411 -0.069747353 2.5693529e-23)
(0.83484834 -0.032205741 1.3399171e-23)
(0.8566823 0.020930593 -7.0978084e-23)
(0.85785155 0.019672685 -3.4809932e-23)
(0.81716583 0.12755635 -1.3897177e-22)
(0.81113116 0.10938723 -6.500877e-23)
(0.81343749 -0.010609603 -7.5249011e-23)
(0.85885975 -0.15313986 2.7536981e-22)
(0.94560794 -0.16849741 -1.9020241e-21)
(1.016957 -0.090084494 9.7724449e-22)
(1.02778 0.064954597 0)
(0.97432848 0.17736284 -7.9286324e-22)
(0.90539549 0.16689011 -7.352309e-22)
(0.87837525 0.068542016 0)
(0.88970982 -0.034945605 0)
(0.95242018 -0.081951165 0)
(1.0123586 -0.076422655 0)
(1.0490086 -0.049212924 0)
(1.0616057 -0.014663832 0)
(1.0516149 0.015768453 0)
(1.030102 0.029237427 0)
(1.0108607 0.027777445 0)
(1.0001548 0.018767577 0)
(0.99726558 0.0092085435 0)
(0.99886517 0.0021011572 0)
(1.0020448 -0.0022084687 0)
(1.0052611 -0.0043808294 0)
(1.007914 -0.0050123235 0)
(1.0098223 -0.0048647797 0)
(1.0111108 -0.0043739993 0)
(1.0119435 -0.0037540071 0)
(1.0124439 -0.0030876759 0)
(1.0126846 -0.0024097176 0)
(1.0127077 -0.001746605 0)
(1.0125462 -0.0011271638 0)
(1.0122345 -0.00058171452 0)
(1.0118127 -0.00013515842 0)