/*--------------------------------*- C++ -*----------------------------------*\
| =========                 |                                                 |
| \\      /  F ield         | OpenFOAM: The Open Source CFD Toolbox           |
|  \\    /   O peration     | Version:  5.0                                   |
|   \\  /    A nd           | Web:      www.OpenFOAM.org                      |
|    \\/     M anipulation  |                                                 |
\*---------------------------------------------------------------------------*/
FoamFile
{
    version     2.0;
    format      ascii;
    class       volVectorField;
    location    "160";
    object      U_0;
}
// * * * * * * * * * * * * * * * * * * * * * * * * * * * * * * * * * * * * * //

dimensions      [0 1 -1 0 0 0 0];

internalField   nonuniform List<vector> 
9520
(
(1.0141562 0.00015857551 0)
(1.0142594 0.00046537941 0)
(1.0136832 0.00015878795 0)
(1.0144418 0.00075167279 0)
(1.0137867 0.00046631547 0)
(1.0134982 0.00015972076 0)
(1.0146864 0.0010173821 0)
(1.0139713 0.00075423534 0)
(1.0136013 0.00046829672 0)
(1.0131941 0.00016485616 0)
(1.0149783 0.0012628465 0)
(1.0142203 0.0010218183 0)
(1.0137861 0.00075732299 0)
(1.0132975 0.00048260226 0)
(1.0129532 0.00017141519 0)
(1.0153033 0.0014873579 0)
(1.0145197 0.0012705726 0)
(1.0140357 0.0010263425 0)
(1.0134824 0.00078024794 0)
(1.013057 0.0005022544 0)
(1.0126771 0.00017635912 0)
(1.0156494 0.0016908176 0)
(1.0148563 0.0014992304 0)
(1.0143367 0.0012775613 0)
(1.0137321 0.0010584712 0)
(1.0132419 0.00081273093 0)
(1.0127799 0.00051854272 0)
(1.0124235 0.00017630133 0)
(1.0160067 0.0018728107 0)
(1.0152185 0.0017074447 0)
(1.014677 0.0015102042 0)
(1.0140333 0.0013191556 0)
(1.0134917 0.0011046589 0)
(1.0129621 0.00084166462 0)
(1.0125244 0.00052043792 0)
(1.0121731 0.00017211451 0)
(1.0163677 0.0020322579 0)
(1.0155975 0.0018951155 0)
(1.0150449 0.0017237371 0)
(1.0143755 0.0015628254 0)
(1.0137931 0.0013787432 0)
(1.0132089 0.0011483232 0)
(1.0127029 0.00084799211 0)
(1.0122694 0.00050921697 0)
(1.0119436 0.00016661578 0)
(1.0167286 0.0021690146 0)
(1.0159866 0.0020624244 0)
(1.0154305 0.0019176777 0)
(1.0147477 0.0017894401 0)
(1.0141361 0.0016364306 0)
(1.0135072 0.0014385842 0)
(1.0129455 0.0011616865 0)
(1.0124409 0.00083232109 0)
(1.0120353 0.00049267499 0)
(1.0117281 0.00016267913 0)
(1.0170913 0.0022780306 0)
(1.0163834 0.0022124192 0)
(1.0158234 0.0020924116 0)
(1.0151397 0.0019983185 0)
(1.0145111 0.0018784653 0)
(1.0138462 0.0017142889 0)
(1.0132393 0.0014625462 0)
(1.0126747 0.0011439066 0)
(1.0121999 0.00080644456 0)
(1.0118154 0.00047983518 0)
(1.0115245 0.00016144298 0)
(1.0174601 0.0023685982 0)
(1.0167869 0.0023501677 0)
(1.0162137 0.0022524811 0)
(1.0155399 0.0021888858 0)
(1.0149085 0.0021044949 0)
(1.014217 0.001977186 0)
(1.0135727 0.0017515678 0)
(1.0129586 0.0014476709 0)
(1.0124236 0.0011101409 0)
(1.0119725 0.00078541821 0)
(1.0116082 0.00047493308 0)
(1.0113285 0.00016178334 0)
(1.0178151 0.0024432934 0)
(1.0171835 0.0024925607 0)
(1.0165849 0.0024038568 0)
(1.0159352 0.0023607775 0)
(1.0153196 0.0023130037 0)
(1.0146125 0.0022278108 0)
(1.0139368 0.0020307606 0)
(1.0132802 0.0017437121 0)
(1.0126958 0.0014094893 0)
(1.0121852 0.0010824725 0)
(1.0117578 0.00077669329 0)
(1.0114091 0.0004755198 0)
(1.0111388 0.00016123846 0)
(1.0181383 0.0025237646 0)
(1.0175369 0.0026372124 0)
(1.0168974 0.0025578237 0)
(1.0163079 0.0025085263 0)
(1.0157351 0.0024991035 0)
(1.0150287 0.0024652024 0)
(1.0143252 0.0023017814 0)
(1.0136302 0.0020332814 0)
(1.0130055 0.0017049894 0)
(1.0124425 0.0013764584 0)
(1.0119595 0.0010715125 0)
(1.0115511 0.00077722523 0)
(1.0112164 0.00047465017 0)
(1.0109575 0.00015746654 0)
(1.0184332 0.0025760383 0)
(1.0178229 0.0028198408 0)
(1.0171572 0.0027131886 0)
(1.0166618 0.002628066 0)
(1.0161541 0.0026519803 0)
(1.0154689 0.0026843209 0)
(1.0147348 0.0025664632 0)
(1.0140004 0.00231802 0)
(1.0133422 0.0019966353 0)
(1.0127356 0.0016690027 0)
(1.0122028 0.0013639893 0)
(1.0117414 0.0010726141 0)
(1.0113511 0.00077642823 0)
(1.0110315 0.00046502488 0)
(1.0107887 0.00014932852 0)
(1.0187402 0.002697455 0)
(1.0180501 0.002982156 0)
(1.017437 0.002842051 0)
(1.0170326 0.0026900926 0)
(1.0166024 0.0027586861 0)
(1.0159447 0.002879758 0)
(1.0151644 0.002829072 0)
(1.0143841 0.0026012607 0)
(1.0136964 0.002284361 0)
(1.0130558 0.0019603988 0)
(1.01248 0.0016565187 0)
(1.0119699 0.0013663531 0)
(1.0115302 0.0010717807 0)
(1.0111591 0.00076222583 0)
(1.0108586 0.00044251456 0)
(1.0106366 0.00013728444 0)
(1.0190571 0.0027109957 0)
(1.0182441 0.0031975344 0)
(1.017639 0.0029224974 0)
(1.0174148 0.002692516 0)
(1.0170783 0.0027838613 0)
(1.0164627 0.0030515752 0)
(1.0156145 0.0030995907 0)
(1.0147726 0.0028900436 0)
(1.0140569 0.0025686409 0)
(1.0133943 0.0022493928 0)
(1.0127835 0.0019506043 0)
(1.0122291 0.0016615647 0)
(1.0117438 0.001365729 0)
(1.0113274 0.0010536851 0)
(1.0109785 0.00072685715 0)
(1.0107021 0.00040779288 0)
(1.0105038 0.00012312821 0)
(1.0193442 0.0030257509 0)
(1.0183507 0.0033870982 0)
(1.0177564 0.0029717901 0)
(1.0177761 0.0026225186 0)
(1.0175444 0.0027816057 0)
(1.0170118 0.0031987599 0)
(1.0160899 0.003386154 0)
(1.0151584 0.0031925285 0)
(1.0144137 0.0028512132 0)
(1.0137425 0.0025335458 0)
(1.0131062 0.0022457473 0)
(1.0125121 0.001961362 0)
(1.0119839 0.0016627604 0)
(1.0115257 0.0013432249 0)
(1.0111366 0.0010078133 0)
(1.0108141 0.0006705016 0)
(1.0105653 0.0003658396 0)
(1.0103903 0.00010918556 0)
(1.019691 0.0028916485 0)
(1.0184374 0.003773406 0)
(1.0176952 0.003064726 0)
(1.0180214 0.0025028697 0)
(1.0181017 0.0027298768 0)
(1.0175542 0.0033437421 0)
(1.0165687 0.0037193621 0)
(1.0155199 0.0035275398 0)
(1.0147506 0.0031324109 0)
(1.0140912 0.0028082337 0)
(1.0134424 0.0025394661 0)
(1.0128137 0.0022672966 0)
(1.0122434 0.001967407 0)
(1.0117452 0.0016374325 0)
(1.0113202 0.001287033 0)
(1.0109616 0.00093177361 0)
(1.0106702 0.00060124337 0)
(1.0104487 0.00032352762 0)
(1.0102937 9.7353475e-05 0)
(1.0198454 0.0036247205 0)
(1.0182522 0.0040598571 0)
(1.0174472 0.0029842649 0)
(1.0181906 0.0022062007 0)
(1.0187065 0.0026014633 0)
(1.0181766 0.0034845412 0)
(1.0170205 0.004106322 0)
(1.0158355 0.0039157159 0)
(1.0150435 0.0034208134 0)
(1.0144256 0.0030658297 0)
(1.0137871 0.0028256612 0)
(1.0131318 0.0025789108 0)
(1.0125176 0.0022835539 0)
(1.0119779 0.001941669 0)
(1.0115192 0.0015717689 0)
(1.0111318 0.0011941504 0)
(1.010807 0.00083409451 0)
(1.0105485 0.00053068287 0)
(1.01035 0.00028661007 0)
(1.0102107 8.8473978e-05 0)
(1.0200767 0.0032255033 0)
(1.0182247 0.0047360328 0)
(1.0169388 0.0032074357 0)
(1.0182567 0.0017928852 0)
(1.0194719 0.0022975669 0)
(1.0189439 0.003662842 0)
(1.0174744 0.0045637667 0)
(1.0160587 0.0043736671 0)
(1.0152541 0.0037095246 0)
(1.0147284 0.0032982161 0)
(1.0141358 0.0030948978 0)
(1.0134669 0.0028927431 0)
(1.0128051 0.0026139601 0)
(1.0122183 0.002261581 0)
(1.0117247 0.0018674469 0)
(1.0113114 0.0014617398 0)
(1.0109636 0.0010705374 0)
(1.0106766 0.00073181001 0)
(1.0104471 0.00046812528 0)
(1.0102662 0.00025791411 0)
(1.0101377 8.231551e-05 0)
(1.0197402 0.0045051625 0)
(1.0175393 0.0052036128 0)
(1.0162059 0.0028270673 0)
(1.0182469 0.0011689378 0)
(1.020321 0.0018982373 0)
(1.0199026 0.0038252041 0)
(1.0179684 0.0051516213 0)
(1.016192 0.0049047832 0)
(1.0153703 0.0040154361 0)
(1.0149621 0.0034722298 0)
(1.0144844 0.0033279693 0)
(1.0138246 0.0032022025 0)
(1.0131089 0.0029612211 0)
(1.0124636 0.0026027749 0)
(1.0119297 0.0021799494 0)
(1.0114915 0.0017392431 0)
(1.0111267 0.0013124079 0)
(1.0108211 0.00093614159 0)
(1.0105696 0.00064052943 0)
(1.0103622 0.0004177468 0)
(1.0101939 0.00023733394 0)
(1.010072 7.8028786e-05 0)
(1.0193262 0.0037790822 0)
(1.0174111 0.006188721 0)
(1.0149812 0.0034244358 0)
(1.0179964 0.00018090489 0)
(1.0214219 0.001132184 0)
(1.0210958 0.0041019259 0)
(1.018495 0.0059259021 0)
(1.0161706 0.0055680254 0)
(1.0153437 0.0042800878 0)
(1.0151941 0.0035970595 0)
(1.0148392 0.0034914536 0)
(1.0142187 0.0034896932 0)
(1.0134407 0.0033271698 0)
(1.0127141 0.0029734175 0)
(1.0121276 0.0025155973 0)
(1.0116637 0.0020314153 0)
(1.0112861 0.0015625012 0)
(1.0109697 0.0011443393 0)
(1.010705 0.00081303096 0)
(1.010482 0.00056748228 0)
(1.0102901 0.00037947861 0)
(1.0101305 0.00022294645 0)
(1.0100119 7.4647377e-05 0)
(1.0177999 0.0056949702 0)
(1.0150935 0.0069116746 0)
(1.0136419 0.0025297427 0)
(1.0176356 -0.00084477648 0)
(1.0225231 0.00030898096 0)
(1.0225774 0.0042586464 0)
(1.0190961 0.0069810906 0)
(1.0159425 0.0063996484 0)
(1.0150784 0.0045569006 0)
(1.0153385 0.0035650335 0)
(1.0152448 0.0035578302 0)
(1.0146851 0.0037385664 0)
(1.0138212 0.0037112644 0)
(1.012976 0.0033845449 0)
(1.0123129 0.0028841107 0)
(1.0118189 0.0023430618 0)
(1.0114326 0.0018232843 0)
(1.0111119 0.0013589104 0)
(1.0108428 0.00098749639 0)
(1.0106117 0.00071208048 0)
(1.0104097 0.00051158877 0)
(1.0102283 0.00035133101 0)
(1.0100738 0.0002122109 0)
(1.0099565 7.1339491e-05 0)
(1.0180847 0.005091845 0)
(1.0124191 0.0079824773 0)
(1.0108656 0.0038202188 0)
(1.016822 -0.0026509303 0)
(1.0242818 -0.001159068 0)
(1.0244149 0.0047959141 0)
(1.0197147 0.0083716593 0)
(1.0154449 0.0075065154 0)
(1.0145051 0.0047757558 0)
(1.0153415 0.003367306 0)
(1.0157593 0.0034739691 0)
(1.0152241 0.0038985358 0)
(1.0142883 0.0041220808 0)
(1.0132605 0.0038546812 0)
(1.0124803 0.0032992291 0)
(1.0119468 0.002680588 0)
(1.0115564 0.0020967505 0)
(1.0112391 0.0015810289 0)
(1.0109722 0.001166232 0)
(1.0107416 0.00085635673 0)
(1.0105371 0.00063327497 0)
(1.0103494 0.00046794943 0)
(1.0101749 0.00033063829 0)
(1.0100221 0.00020264405 0)
(1.0099055 6.7499883e-05 0)
(1.0169908 0.0073967098 0)
(1.0113457 0.0092145135 0)
(1.0078124 0.0020813619 0)
(1.0158228 -0.0041541322 0)
(1.0254348 -0.0025363319 0)
(1.0266451 0.0047903164 0)
(1.0204692 0.010247896 0)
(1.0145887 0.008907649 0)
(1.0135143 0.0050159641 0)
(1.0151593 0.0028836187 0)
(1.0163549 0.0031868023 0)
(1.0159107 0.0040300095 0)
(1.0148311 0.0045515327 0)
(1.0135877 0.0044123367 0)
(1.012624 0.0037848246 0)
(1.0120328 0.0030519507 0)
(1.011646 0.0023833702 0)
(1.0113429 0.0018106553 0)
(1.0110852 0.0013505903 0)
(1.0108611 0.0010030414 0)
(1.0106618 0.00075100264 0)
(1.0104776 0.00057090981 0)
(1.0102992 0.00043214653 0)
(1.0101287 0.00031362759 0)
(1.0099749 0.00019204167 0)
(1.0098593 6.2818092e-05 0)
(1.0106583 0.0067213644 0)
(1.0107406 0.010786239 0)
(1.0051042 0.0037189332 0)
(1.0141378 -0.0070559918 0)
(1.0273948 -0.005039783 0)
(1.0290789 0.0059549211 0)
(1.0210632 0.012607145 0)
(1.013256 0.010730414 0)
(1.0120141 0.0051771513 0)
(1.0147148 0.0021171393 0)
(1.0170257 0.0025468418 0)
(1.0168686 0.0041031369 0)
(1.0154793 0.005047803 0)
(1.0139317 0.0051008353 0)
(1.0127312 0.0043741297 0)
(1.0120571 0.0034703953 0)
(1.0116856 0.0026818072 0)
(1.0114146 0.0020438376 0)
(1.0111761 0.001540208 0)
(1.0109627 0.0011546031 0)
(1.0107736 0.00086879983 0)
(1.0106003 0.00066478445 0)
(1.0104311 0.00051795838 0)
(1.0102587 0.00040078431 0)
(1.0100886 0.00029528386 0)
(1.0099325 0.00017871743 0)
(1.0098183 5.7291845e-05 0)
(0.99720173 0.0097996342 0)
(0.99788598 0.011934294 0)
(1.0023802 0.0012933177 0)
(1.0128128 -0.0094717971 0)
(1.0287412 -0.0067614955 0)
(1.0311898 0.0055493147 0)
(1.0219657 0.015766739 0)
(1.0112514 0.013072364 0)
(1.0097819 0.0053882118 0)
(1.0139377 0.0008385879 0)
(1.0178182 0.0015242707 0)
(1.0181667 0.0040081028 0)
(1.0163901 0.0056489976 0)
(1.0142865 0.0059486864 0)
(1.0127738 0.0051175759 0)
(1.0119851 0.0039518004 0)
(1.011654 0.002989548 0)
(1.0114442 0.0022721322 0)
(1.0112412 0.0017302165 0)
(1.0110429 0.001312 0)
(1.010865 0.00099104067 0)
(1.0107069 0.00075520731 0)
(1.0105553 0.00058913081 0)
(1.0103965 0.0004681386 0)
(1.0102272 0.00036940779 0)
(1.0100544 0.00027150251 0)
(1.0098959 0.00016214371 0)
(1.0097829 5.1235857e-05 0)
(0.98383826 0.010120567 0)
(0.98172411 0.013466546 0)
(0.99165399 0.0037270097 0)
(1.0112149 -0.013285931 0)
(1.0319993 -0.010493394 0)
(1.033496 0.0077392903 0)
(1.0217924 0.019580356 0)
(1.008431 0.015966074 0)
(1.0067096 0.0055236332 0)
(1.0127057 -0.00086680554 0)
(1.0187373 -0.00015979538 0)
(1.0199213 0.0037505416 0)
(1.0176561 0.0063820297 0)
(1.0147427 0.0070408528 0)
(1.0126973 0.0060446854 0)
(1.011781 0.0045236646 0)
(1.011516 0.0032986651 0)
(1.0114174 0.0024788206 0)
(1.0112792 0.0019093341 0)
(1.011103 0.0014727021 0)
(1.0109335 0.0011212847 0)
(1.010789 0.00084879346 0)
(1.0106596 0.00065235855 0)
(1.0105257 0.00051619587 0)
(1.0103736 0.00041696544 0)
(1.010204 0.0003337605 0)
(1.0100259 0.0002414086 0)
(1.0098653 0.00014348992 0)
(1.0097529 4.5259656e-05 0)
(0.96914135 0.012445731 0)
(0.96757402 0.014951999 0)
(0.9794024 -0.00032529642 0)
(1.0069855 -0.016133879 0)
(1.0334558 -0.012670399 0)
(1.0379867 0.0073562637 0)
(1.0204453 0.024415564 0)
(1.0041091 0.019735264 0)
(1.0024115 0.0056381102 0)
(1.0109816 -0.0034006342 0)
(1.0198412 -0.0024379798 0)
(1.0222377 0.0031120572 0)
(1.0194138 0.0073281075 0)
(1.0153351 0.0084891241 0)
(1.0124733 0.0072398098 0)
(1.0113766 0.0052053905 0)
(1.0112266 0.0035972422 0)
(1.0113143 0.0026376688 0)
(1.0112903 0.0020561414 0)
(1.0111504 0.0016284873 0)
(1.0109833 0.0012616606 0)
(1.0108437 0.00095232234 0)
(1.0107341 0.00071606237 0)
(1.0106311 0.000551767 0)
(1.0105107 0.00044185529 0)
(1.010362 0.00036245582 0)
(1.0101884 0.00029132393 0)
(1.0100041 0.00020825183 0)
(1.0098406 0.00012510385 0)
(1.0097278 4.0103529e-05 0)
(0.95260268 0.013464374 1.1122681e-23)
(0.95206651 0.015628368 0)
(0.96718035 -0.0004901055 0)
(1.0021422 -0.021789058 0)
(1.0336125 -0.018209482 0)
(1.0415544 0.010624779 0)
(1.0213954 0.029279604 0)
(0.9983316 0.02380689 0)
(0.99680932 0.0057284018 0)
(1.0085235 -0.0065903653 0)
(1.0212099 -0.0057941632 0)
(1.025301 0.0022175365 0)
(1.0217854 0.0084496694 0)
(1.0161323 0.010444957 0)
(1.0120595 0.0088125822 0)
(1.0106581 0.0060279113 0)
(1.0107267 0.0038692822 0)
(1.0111076 0.0027091824 0)
(1.0112773 0.002137912 0)
(1.0111991 0.0017633369 0)
(1.0110264 0.0014111546 0)
(1.0108746 0.0010732868 0)
(1.0107736 0.00078991917 0)
(1.0107008 0.00058397364 0)
(1.0106209 0.00044909736 0)
(1.0105098 0.00036291039 0)
(1.0103609 0.00030140564 0)
(1.01018 0.00024142816 0)
(1.0099894 0.00017633975 0)
(1.0098211 0.00010926856 0)
(1.0097064 3.6420126e-05 0)
(0.93370468 0.015499048 -8.6042026e-24)
(0.9345238 0.017023528 -1.1621521e-23)
(0.95460226 -0.0047823412 0)
(0.99401855 -0.025955534 0)
(1.0308044 -0.020199964 0)
(1.0414189 0.0083531532 0)
(1.0288701 0.036761751 0)
(0.99327133 0.02865458 0)
(0.98956233 0.0053951071 0)
(1.0054668 -0.011013511 0)
(1.0228093 -0.009991888 0)
(1.0292219 0.00063362794 0)
(1.0249795 0.0099435229 0)
(1.0171679 0.013043621 0)
(1.0113915 0.010934736 0)
(1.0095151 0.0070258057 0)
(1.0099134 0.0040935746 0)
(1.0107589 0.0026366857 0)
(1.011239 0.0021062023 0)
(1.0112695 0.0018513632 0)
(1.0110824 0.0015661203 0)
(1.0108928 0.0012207323 0)
(1.010778 0.00088727881 0)
(1.0107259 0.00062431937 0)
(1.0106897 0.00044674952 0)
(1.0106289 0.00033830441 0)
(1.0105236 0.00027475535 0)
(1.01037 0.0002319342 0)
(1.0101796 0.00019074542 0)
(1.0099808 0.0001486268 0)
(1.0098055 9.7670889e-05 0)
(1.0096874 3.464914e-05 0)
(0.91342403 0.017120969 8.6382223e-24)
(0.91509787 0.018056723 3.9814834e-23)
(0.9381664 -0.0068207421 0)
(0.98464364 -0.031124638 0)
(1.0226068 -0.024949609 0)
(1.0342363 0.012772609 0)
(1.0246216 0.043440465 0)
(0.98980861 0.035409535 0)
(0.98140914 0.0053858176 0)
(1.0013773 -0.016491808 0)
(1.0248653 -0.015783272 0)
(1.0342118 -0.0012974128 0)
(1.0291125 0.011646471 0)
(1.0185421 0.016517942 0)
(1.0103807 0.013748305 0)
(1.0077934 0.0083063792 0)
(1.0086555 0.0042012813 0)
(1.0102168 0.0023529671 0)
(1.0111838 0.00190069 0)
(1.0113704 0.001852973 0)
(1.0111789 0.0017192248 0)
(1.0109188 0.0014070589 0)
(1.0107536 0.0010255542 0)
(1.010701 0.00068890164 0)
(1.0107044 0.0004465125 0)
(1.0107023 0.000295884 0)
(1.0106568 0.00021476628 0)
(1.0105519 0.00017837516 0)
(1.0103892 0.00016089666 0)
(1.0101866 0.00014686148 0)
(1.0099768 0.00012768471 0)
(1.0097924 9.1453453e-05 0)
(1.0096697 3.4975287e-05 0)
(0.89300582 0.01887104 0)
(0.89501597 0.019363095 -3.9883553e-23)
(0.92006899 -0.010429434 0)
(0.97078409 -0.036211179 0)
(1.0124565 -0.025405519 0)
(1.0207953 0.014553654 0)
(1.0006247 0.051808799 0)
(0.97822305 0.043929421 0)
(0.97070099 0.0044229908 0)
(0.99655012 -0.023266627 0)
(1.0270191 -0.022488432 0)
(1.0402727 -0.0043309688 0)
(1.0344357 0.013983303 0)
(1.0202298 0.021038955 0)
(1.008913 0.017500866 0)
(1.0053161 0.0098905284 0)
(1.0067968 0.0041899028 0)
(1.0094054 0.0017299197 0)
(1.0111145 0.0014099668 0)
(1.0116053 0.0017383185 0)
(1.0113543 0.0018536953 0)
(1.0109861 0.0016419499 0)
(1.0107157 0.0012282707 0)
(1.0106249 0.00079944068 0)
(1.0106537 0.00046481674 0)
(1.0107138 0.00024616352 0)
(1.0107418 0.00012820609 0)
(1.0107042 8.3561343e-05 0)
(1.0105925 8.2343583e-05 0)
(1.0104167 9.7587657e-05 0)
(1.0101994 0.00011214291 0)
(1.0099764 0.0001153869 0)
(1.0097808 9.1149647e-05 0)
(1.0096522 3.7355169e-05 0)
(0.872859 0.020462531 -5.0376048e-24)
(0.87542792 0.020475781 0)
(0.90095018 -0.013766745 -3.5781499e-23)
(0.95383287 -0.041243189 0)
(0.99899292 -0.029192093 0)
(1.0068745 0.021376222 0)
(0.980332 0.059503676 0)
(0.9570386 0.050868569 0)
(0.95773766 0.0057724909 0)
(0.98982492 -0.031554397 0)
(1.0295041 -0.031195731 0)
(1.0472662 -0.0075024593 0)
(1.0408 0.016529267 0)
(1.0223396 0.026908263 0)
(1.0068148 0.022392984 0)
(1.0018222 0.01195756 0)
(1.0041529 0.0039235104 0)
(1.0082334 0.00067985005 0)
(1.0110351 0.00050004983 0)
(1.0120061 0.0013853893 0)
(1.0117094 0.0019487605 0)
(1.0111505 0.0019310108 0)
(1.0106916 0.0015200339 0)
(1.0105022 0.0009860582 0)
(1.0105285 0.00052476159 0)
(1.0106464 0.00020455652 0)
(1.0107593 2.2489339e-05 0)
(1.0108085 -4.8088892e-05 0)
(1.0107693 -4.552993e-05 0)
(1.0106446 -5.5061485e-06 0)
(1.0104509 4.6673744e-05 0)
(1.010217 8.9757943e-05 0)
(1.0099782 0.00011207004 0)
(1.0097704 9.6378269e-05 0)
(1.0096336 4.1742075e-05 0)
(0.85399657 0.021827085 3.2075491e-24)
(0.85705261 0.021601321 7.0488592e-23)
(0.88176479 -0.017418704 3.5763111e-23)
(0.93473673 -0.046550839 -9.2689877e-24)
(0.98231332 -0.032335308 -1.5004417e-22)
(0.99108338 0.025344649 0)
(0.96280307 0.068461888 0)
(0.9382579 0.057544789 0)
(0.94367516 0.0043741117 0)
(0.98149766 -0.041126152 0)
(1.0316353 -0.040521712 0)
(1.0551072 -0.012322591 0)
(1.0479378 0.020217951 0)
(1.0244153 0.034364513 0)
(1.0038989 0.028686012 0)
(0.99706146 0.014510368 0)
(1.0004857 0.0034463736 0)
(1.0065827 -0.0010362379 0)
(1.0109547 -0.00095124468 0)
(1.0126417 0.00069572184 0)
(1.0123721 0.0019902913 0)
(1.0114532 0.0022713726 0)
(1.0107313 0.0019454642 0)
(1.010343 0.0012861639 0)
(1.0103199 0.00065671348 0)
(1.0104837 0.00019144437 0)
(1.0106884 -8.9715368e-05 0)
(1.0108421 -0.00021169571 0)
(1.0108998 -0.00022158686 0)
(1.0108512 -0.00016526637 0)
(1.0107066 -7.7712413e-05 0)
(1.0104907 1.1681089e-05 0)
(1.0102371 8.1643208e-05 0)
(1.0099805 0.00011606092 0)
(1.0097588 0.00010757928 0)
(1.0096133 4.788531e-05 0)
(0.83743926 0.022878804 -5.1453497e-26)
(0.84077129 0.022503274 -1.0240142e-22)
(0.86349061 -0.02087434 0)
(0.91431909 -0.051719745 1.7762958e-22)
(0.96246935 -0.034965919 1.493286e-22)
(0.97391995 0.028423235 1.2576431e-22)
(0.94453761 0.076825917 6.5462598e-23)
(0.92068847 0.060631157 0)
(0.92926066 0.0035338548 0)
(0.97492353 -0.053178544 0)
(1.0352182 -0.053471374 0)
(1.0653157 -0.016400958 0)
(1.0558388 0.024240993 0)
(1.0259013 0.043804172 0)
(0.99958862 0.036704283 0)
(0.99063995 0.017745233 0)
(0.99556004 0.0025110187 0)
(1.0043392 -0.0034707517 0)
(1.0108599 -0.0032004686 0)
(1.013616 -0.00044034864 0)
(1.0134379 0.0018963527 0)
(1.012051 0.002752729 0)
(1.0108413 0.0025241569 0)
(1.0101782 0.0017647051 0)
(1.0100194 0.00090333736 0)
(1.0102051 0.00023279582 0)
(1.0105064 -0.00019392699 0)
(1.010783 -0.000400635 0)
(1.0109601 -0.00044372705 0)
(1.0110136 -0.00038324425 0)
(1.010946 -0.00026592647 0)
(1.0107762 -0.0001302264 0)
(1.0105347 -5.3897636e-06 0)
(1.0102561 8.7263023e-05 0)
(1.0099816 0.00013462607 0)
(1.0097453 0.00012441904 0)
(1.0095903 5.5455116e-05 0)
(0.82419727 0.023662291 2.231589e-24)
(0.82746865 0.023226117 2.1928057e-23)
(0.84676376 -0.024228211 9.2523236e-24)
(0.89359059 -0.056547371 -8.590145e-23)
(0.9412076 -0.038368985 -1.7489195e-22)
(0.95336144 0.033356597 1.5588798e-22)
(0.92732768 0.084493072 -3.8317549e-23)
(0.90222234 0.068656265 2.5400709e-23)
(0.91512078 -0.0032091298 0)
(0.9675702 -0.065457185 0)
(1.0378254 -0.066350139 0)
(1.0790753 -0.025256448 0)
(1.0681024 0.029793397 0)
(1.0271148 0.055416937 0)
(0.99311235 0.046375979 0)
(0.9822062 0.021736499 0)
(0.98901931 0.0011687444 0)
(1.0013605 -0.0070230243 0)
(1.0107609 -0.0063481469 0)
(1.0150363 -0.0022508536 0)
(1.0150676 0.0016337275 0)
(1.0130852 0.0033718521 0)
(1.0111274 0.0033648307 0)
(1.0099937 0.0024726353 0)
(1.0096252 0.0013234983 0)
(1.0097883 0.00036712929 0)
(1.0101861 -0.00027093044 0)
(1.0106049 -0.00060568856 0)
(1.0109279 -0.00070916414 0)
(1.0111101 -0.00066092525 0)
(1.0111462 -0.00052236086 0)
(1.0110508 -0.00034245558 0)
(1.0108508 -0.00016049786 0)
(1.0105793 -3.9152911e-06 0)
(1.0102768 0.00010780665 0)
(1.009981 0.00016102737 0)
(1.0097293 0.00014580841 0)
(1.0095645 6.4035776e-05 0)
(0.81464068 0.024048257 -2.9168462e-24)
(0.81763001 0.023606386 -1.4476429e-24)
(0.8328531 -0.027099654 0)
(0.87306987 -0.060920592 3.8868776e-24)
(0.91849665 -0.041224505 -7.3118909e-23)
(0.93253057 0.037007935 0)
(0.90795362 0.092857209 -2.8653193e-22)
(0.88548917 0.075156111 -2.4749693e-22)
(0.89748879 -0.0039418029 0)
(0.96188419 -0.078985563 0)
(1.0377555 -0.081907491 0)
(1.0858754 -0.030572324 0)
(1.0860997 0.034237435 0)
(1.0335117 0.068773697 0)
(0.9853455 0.058181189 0)
(0.9710291 0.026292679 0)
(0.98070174 -0.00085131898 0)
(0.99747273 -0.011678261 0)
(1.0106453 -0.010840924 0)
(1.0170223 -0.0048086063 0)
(1.0174428 0.0010381638 0)
(1.0147272 0.0041777784 0)
(1.0117175 0.0045668996 0)
(1.0098075 0.0035025096 0)
(1.0091206 0.0019965544 0)
(1.0091993 0.0006310822 0)
(1.0096952 -0.00029850314 0)
(1.0102787 -0.00081796695 0)
(1.0107773 -0.0010155767 0)
(1.0111184 -0.00099845502 0)
(1.0112865 -0.00084970187 0)
(1.0112929 -0.00063118892 0)
(1.0111629 -0.00039158452 0)
(1.0109273 -0.00016738041 0)
(1.0106237 1.5614435e-05 0)
(1.0102948 0.00014097812 0)
(1.0099776 0.00019521352 0)
(1.00971 0.00017071139 0)
(1.0095354 7.32462e-05 0)
(0.81010958 0.024111272 0)
(0.81201659 0.02375454 0)
(0.82234757 -0.02959469 1.4949509e-24)
(0.85444757 -0.064588611 0)
(0.89519068 -0.043958896 5.9948197e-24)
(0.9100795 0.041162108 1.6856471e-22)
(0.88927705 0.10067298 4.4461669e-22)
(0.86810766 0.082769125 -1.9171644e-22)
(0.88046276 -0.0036781177 0)
(0.94823258 -0.093031722 0)
(1.0366979 -0.092281962 0)
(1.0858165 -0.043751564 0)
(1.0954793 0.040863516 0)
(1.0456824 0.084520262 0)
(0.98073266 0.071786309 0)
(0.95713927 0.031720391 0)
(0.97005571 -0.0037450702 0)
(0.99266111 -0.018001641 0)
(1.0104985 -0.016609676 0)
(1.0197091 -0.008547328 0)
(1.0208013 0.00013052635 0)
(1.0171713 0.0051403572 0)
(1.0127436 0.0062673083 0)
(1.0096882 0.0050079003 0)
(1.0084375 0.0029831993 0)
(1.0084111 0.0011067655 0)
(1.0089872 -0.00024998811 0)
(1.0097675 -0.0010324143 0)
(1.0104806 -0.0013646829 0)
(1.0110153 -0.0013992289 0)
(1.0113461 -0.0012511151 0)
(1.0114826 -0.0010004668 0)
(1.0114499 -0.0007059659 0)
(1.0112784 -0.00041169582 0)
(1.011004 -0.00015144144 0)
(1.0106672 5.3119459e-05 0)
(1.0103102 0.0001856457 0)
(1.0099707 0.00023523715 0)
(1.0096874 0.00019788555 0)
(1.0095033 8.2722209e-05 0)
(0.81071119 0.023708151 -5.8007077e-25)
(0.8105505 0.023907627 0)
(0.81485864 -0.031420578 -7.7230265e-24)
(0.83905065 -0.067438686 -1.3757703e-23)
(0.87271983 -0.046413531 1.6014116e-24)
(0.8877259 0.044806429 -8.9254743e-24)
(0.87025198 0.10813927 5.5984123e-24)
(0.85185237 0.089949519 -2.1615846e-22)
(0.86317299 -0.0039413093 2.3783225e-22)
(0.93068248 -0.10390052 0)
(1.0262248 -0.10896732 -1.2742447e-21)
(1.0816159 -0.044701223 0)
(1.0930661 0.043301713 0)
(1.0546901 0.10432379 0)
(0.97744806 0.08935764 0)
(0.94190814 0.037868497 0)
(0.95710339 -0.0075444276 0)
(0.98657294 -0.025901245 0)
(1.0103944 -0.024380736 0)
(1.0232027 -0.013353017 0)
(1.0253741 -0.0014374592 0)
(1.0207085 0.0064104676 0)
(1.0143499 0.0085893143 0)
(1.0096879 0.0071791223 0)
(1.0075527 0.0044272489 0)
(1.0073317 0.0018425052 0)
(1.008004 -9.5381211e-05 0)
(1.0090243 -0.001233664 0)
(1.0100032 -0.0017595469 0)
(1.010777 -0.0018710129 0)
(1.0113056 -0.0017333881 0)
(1.0116011 -0.0014551904 0)
(1.0116927 -0.0011088237 0)
(1.0116123 -0.00074491064 0)
(1.0113949 -0.00040337791 0)
(1.0110791 -0.00011345961 0)
(1.0107074 0.00010562524 0)
(1.0103219 0.00023916533 0)
(1.0099601 0.00027901773 0)
(1.0096615 0.0002262357 0)
(1.0094682 9.2214189e-05 0)
(0.81091356 -0.032405319 6.4907748e-24)
(0.81489999 0.023609885 0)
(0.81720454 0.023360619 -1.2156915e-23)
(0.82488395 -0.06945262 1.3748642e-23)
(0.85284286 -0.048144045 5.8432879e-24)
(0.86636646 0.047927567 3.2351192e-22)
(0.85261901 0.11474453 -4.9129205e-22)
(0.83710947 0.096865259 -3.2481341e-23)
(0.84690235 -0.00399662 1.1745573e-22)
(0.91205427 -0.11577311 5.9922128e-23)
(1.0091154 -0.12448388 -1.4251018e-21)
(1.0717614 -0.055261993 1.3339522e-21)
(1.0787264 0.053280142 0)
(1.0367797 0.12357265 0)
(0.96593269 0.11087151 0)
(0.92587006 0.046879599 0)
(0.94090313 -0.01309701 0)
(0.97963404 -0.035988753 0)
(1.0101553 -0.03373088 0)
(1.0276609 -0.02002573 0)
(1.0314447 -0.0034551398 0)
(1.0255834 0.0077911966 0)
(1.0167653 0.011754359 0)
(1.0098437 0.010215941 0)
(1.0064337 0.0065196073 0)
(1.0058373 0.0029054465 0)
(1.0066677 0.0002330067 0)
(1.00798 -0.0014387791 0)
(1.0093049 -0.0022191657 0)
(1.010378 -0.0024293209 0)
(1.0111469 -0.0023082671 0)
(1.0116325 -0.00200359 0)
(1.0118745 -0.001605916 0)
(1.0119105 -0.0011732158 0)
(1.0117765 -0.00074886147 0)
(1.0115097 -0.00036800635 0)
(1.0111512 -5.556424e-05 0)
(1.0107436 0.00017039252 0)
(1.0103293 0.00029903649 0)
(1.0099456 0.0003255293 0)
(1.0096322 0.00025514709 0)
(1.0094304 0.00010151608 0)
(0.81480388 -0.070477688 6.1224188e-24)
(0.81375263 -0.032541587 2.2527983e-23)
(0.825351 0.023235237 0)
(0.82766261 0.022430029 -2.2668948e-24)
(0.83408546 -0.049574945 2.6014264e-24)
(0.84746137 0.050532453 -1.4311718e-22)
(0.83700242 0.12025849 0)
(0.82481912 0.10289138 3.2257938e-23)
(0.83260531 -0.0039733776 4.4078879e-24)
(0.8928727 -0.12798273 -5.9129467e-23)
(0.98946313 -0.1393169 1.5598012e-21)
(1.057232 -0.070418964 1.4891509e-21)
(1.0634923 0.061207785 0)
(1.0090917 0.14322982 0)
(0.94719006 0.13208375 0)
(0.90923671 0.057039361 0)
(0.92291431 -0.01844519 0)
(0.97080009 -0.048256878 0)
(1.0101263 -0.045753534 0)
(1.0330552 -0.027969797 0)
(1.0392247 -0.006709277 0)
(1.0322175 0.0096868735 0)
(1.0201545 0.015890206 0)
(1.0102285 0.014412586 0)
(1.0050073 0.0094513527 0)
(1.0038203 0.00443693 0)
(1.0048313 0.00072128625 0)
(1.0065501 -0.0016213618 0)
(1.0083268 -0.0027561961 0)
(1.009788 -0.0031020963 0)
(1.0108541 -0.0029964317 0)
(1.0115651 -0.0026584792 0)
(1.0119827 -0.0022052524 0)
(1.0121582 -0.0017023928 0)
(1.0121314 -0.0011948705 0)
(1.0119395 -0.00071979595 0)
(1.0116212 -0.00030798996 0)
(1.0112186 1.8617219e-05 0)
(1.0107749 0.00024463145 0)
(1.010332 0.00036297507 0)
(1.0099271 0.00037304632 0)
(1.0095998 0.00028358739 0)
(1.0093903 0.00011048212 0)
(0.82015746 -0.050453731 -1.0876559e-23)
(0.8113103 -0.070521525 -6.2644083e-24)
(0.82200897 -0.031851848 -2.0086054e-23)
(0.83991033 0.022631749 -1.3039012e-23)
(0.84089082 0.021171967 5.6462211e-23)
(0.83138785 0.052334925 1.3420813e-22)
(0.82501123 0.12455235 7.1459667e-23)
(0.81609377 0.1079768 0)
(0.82123145 -0.0040833024 -1.4054513e-23)
(0.87373787 -0.13964166 -2.7675621e-22)
(0.96743734 -0.15500682 0)
(1.0386856 -0.081566778 -1.9376797e-21)
(1.0519164 0.055303075 0)
(0.99027458 0.16282258 0)
(0.92903802 0.14742863 0)
(0.89399576 0.069657339 0)
(0.90456598 -0.026742485 0)
(0.96082334 -0.063065892 0)
(1.0098815 -0.059313646 0)
(1.039592 -0.038638811 0)
(1.0489859 -0.010448973 0)
(1.0408091 0.011506799 0)
(1.0248705 0.021406217 0)
(1.0108442 0.020047838 0)
(1.0031688 0.013511861 0)
(1.0011378 0.0065632774 0)
(1.0023264 0.0014159007 0)
(1.0046251 -0.0018040713 0)
(1.0069973 -0.0034332351 0)
(1.0089699 -0.0039263739 0)
(1.0104111 -0.0038276205 0)
(1.0113918 -0.0034393396 0)
(1.0120106 -0.0029178681 0)
(1.0123449 -0.0023389808 0)
(1.0124455 -0.0017467283 0)
(1.0123514 -0.0011764476 0)
(1.0120988 -0.0006607587 0)
(1.0117277 -0.00022697406 0)
(1.0112805 0.00010538518 0)
(1.0108008 0.00032520673 0)
(1.01033 0.00042919723 0)
(1.009905 0.00042002127 0)
(1.0095647 0.00031121024 0)
(1.0093481 0.0001190539 0)
(0.81967144 0.053075131 6.7011075e-24)
(0.81108309 -0.050696883 8.9319592e-24)
(0.81364658 -0.069977808 2.6638986e-23)
(0.83530372 -0.03044634 1.3454002e-23)
(0.85660034 0.021859718 -7.0889084e-23)
(0.85751311 0.019664233 -3.2947509e-23)
(0.81764719 0.12750194 -1.4193297e-22)
(0.8112673 0.1120794 -6.6396403e-23)
(0.8129709 -0.0041743943 -7.9617272e-23)
(0.85661725 -0.15028214 2.5254981e-22)
(0.94325483 -0.17001726 -1.861614e-21)
(1.0164618 -0.094762286 9.7385865e-22)
(1.0304105 0.057517904 0)
(0.97877068 0.17523781 -8.3011202e-22)
(0.90831423 0.16921117 -6.6661842e-22)
(0.87977601 0.073565535 0)
(0.88822399 -0.030538245 0)
(0.94941144 -0.080551485 0)
(1.0097705 -0.076487398 0)
(1.0471304 -0.050332611 0)
(1.0608027 -0.016369517 0)
(1.0519113 0.014216343 0)
(1.0309932 0.0283436 0)
(1.0117636 0.027555801 0)
(1.0007611 0.018928157 0)
(0.99756953 0.0094808979 0)
(0.99896657 0.0023453798 0)
(1.0020455 -0.0020312759 0)
(1.0052239 -0.0042814437 0)
(1.0078798 -0.0049724959 0)
(1.0098066 -0.004856739 0)
(1.0111139 -0.0043783999 0)
(1.0119598 -0.0037599222 0)
(1.012467 -0.0030905848 0)
(1.0127095 -0.0024088453 0)
(1.0127314 -0.0017428459 0)
(1.0125672 -0.0011217887 0)
(1.0122524 -0.00057575577 0)