/*--------------------------------*- C++ -*----------------------------------*\
| =========                 |                                                 |
| \\      /  F ield         | OpenFOAM: The Open Source CFD Toolbox           |
|  \\    /   O peration     | Version:  5.0                                   |
|   \\  /    A nd           | Web:      www.OpenFOAM.org                      |
|    \\/     M anipulation  |                                                 |
\*---------------------------------------------------------------------------*/
FoamFile
{
    version     2.0;
    format      ascii;
    class       volVectorField;
    location    "160";
    object      UMean;
}
// * * * * * * * * * * * * * * * * * * * * * * * * * * * * * * * * * * * * * //

dimensions      [0 1 -1 0 0 0 0];

internalField   nonuniform List<vector> 
9520
(
(1.0074991 -4.5937294e-05 0)
(1.0075822 -0.00013471061 0)
(1.0076365 -4.5179623e-05 0)
(1.0077302 -0.0002163735 0)
(1.0077183 -0.00013218743 0)
(1.0076874 -4.5381228e-05 0)
(1.0079294 -0.00029164463 0)
(1.0078641 -0.00021197034 0)
(1.0077686 -0.00013298657 0)
(1.0077751 -4.6582141e-05 0)
(1.0081674 -0.00036062409 0)
(1.0080608 -0.00028510579 0)
(1.0079133 -0.0002129506 0)
(1.0078547 -0.00013610453 0)
(1.007841 -4.8017853e-05 0)
(1.0084331 -0.00042426747 0)
(1.0082963 -0.00035162877 0)
(1.0081086 -0.00028586226 0)
(1.0079969 -0.00021740618 0)
(1.0079196 -0.00014035029 0)
(1.00792 -5.0723578e-05 0)
(1.0087169 -0.00048332499 0)
(1.0085603 -0.00041245653 0)
(1.0083428 -0.0003516194 0)
(1.0081891 -0.00029082687 0)
(1.0080597 -0.00022380616 0)
(1.0079967 -0.00014803577 0)
(1.0079918 -5.372368e-05 0)
(1.0090103 -0.00053846298 0)
(1.0088435 -0.00046834971 0)
(1.0086057 -0.00041104942 0)
(1.0084199 -0.000356146 0)
(1.0082492 -0.00029850316 0)
(1.0081335 -0.00023560486 0)
(1.0080669 -0.00015674617 0)
(1.0080727 -5.7985179e-05 0)
(1.0093062 -0.00059124859 0)
(1.0091379 -0.00052032617 0)
(1.008888 -0.00046477585 0)
(1.0086794 -0.00041412388 0)
(1.0084767 -0.00036401646 0)
(1.0083184 -0.00031332579 0)
(1.0082005 -0.00024918742 0)
(1.0081456 -0.00016912819 0)
(1.0081512 -6.267653e-05 0)
(1.0095986 -0.00064095374 0)
(1.0094358 -0.00056933221 0)
(1.0091816 -0.000513348 0)
(1.0089586 -0.00046538699 0)
(1.0087326 -0.00042100887 0)
(1.0085406 -0.00038056706 0)
(1.008381 -0.00033071248 0)
(1.0082753 -0.00026876837 0)
(1.0082221 -0.00018284776 0)
(1.0082388 -6.8430668e-05 0)
(1.0098824 -0.00069176862 0)
(1.0097324 -0.00061462211 0)
(1.0094798 -0.00055848368 0)
(1.0092501 -0.0005108257 0)
(1.0090083 -0.0004699733 0)
(1.0087907 -0.00043777621 0)
(1.0085977 -0.00040047614 0)
(1.0084502 -0.00035635191 0)
(1.0083478 -0.00029067355 0)
(1.0083076 -0.00019978764 0)
(1.0083263 -7.4546093e-05 0)
(1.010154 -0.00073611419 0)
(1.0100226 -0.00066088375 0)
(1.0097771 -0.00060026155 0)
(1.0095472 -0.00055179326 0)
(1.0092963 -0.00051167462 0)
(1.0090604 -0.00048532376 0)
(1.0088414 -0.0004587053 0)
(1.0086597 -0.000430789 0)
(1.0085171 -0.00038544036 0)
(1.0084292 -0.00031806674 0)
(1.008393 -0.00021787229 0)
(1.0084227 -8.1403219e-05 0)
(1.0104107 -0.00079160175 0)
(1.0103033 -0.00070193441 0)
(1.0100682 -0.00064128287 0)
(1.0098444 -0.00058792495 0)
(1.0095902 -0.00054723613 0)
(1.0093426 -0.00052396667 0)
(1.0091041 -0.0005055632 0)
(1.0088951 -0.00049206161 0)
(1.0087195 -0.00046583598 0)
(1.0085923 -0.00042243257 0)
(1.0085107 -0.00034753634 0)
(1.0084878 -0.00023827829 0)
(1.0085204 -8.8417782e-05 0)
(1.0106506 -0.00082499904 0)
(1.0105704 -0.00075202568 0)
(1.0103499 -0.00067709749 0)
(1.0101376 -0.00062304634 0)
(1.0098849 -0.00057716119 0)
(1.0096313 -0.0005549895 0)
(1.0093789 -0.00054166515 0)
(1.0091484 -0.00054010733 0)
(1.0089461 -0.00053157555 0)
(1.0087865 -0.00051133292 0)
(1.008668 -0.00046267586 0)
(1.0086021 -0.00038116489 0)
(1.008584 -0.00025923804 0)
(1.0086261 -9.5800788e-05 0)
(1.010872 -0.00089874851 0)
(1.0108241 -0.00078342621 0)
(1.0106178 -0.00072009235 0)
(1.0104226 -0.00065238955 0)
(1.0101751 -0.00060373544 0)
(1.0099214 -0.00057861874 0)
(1.0096597 -0.00056789571 0)
(1.0094132 -0.00057536482 0)
(1.0091893 -0.00058232588 0)
(1.009003 -0.00058418444 0)
(1.0088543 -0.00056157764 0)
(1.0087538 -0.00050925248 0)
(1.0086952 -0.00041597038 0)
(1.008689 -0.00028142849 0)
(1.0087334 -0.00010307705 0)
(1.0110729 -0.00090895451 0)
(1.0110566 -0.00084818723 0)
(1.0108717 -0.00074523406 0)
(1.0106942 -0.00068735696 0)
(1.0104583 -0.00062454878 0)
(1.0102089 -0.00059795705 0)
(1.0099421 -0.00058501736 0)
(1.009684 -0.00059873093 0)
(1.0094426 -0.00061826895 0)
(1.0092342 -0.00064034655 0)
(1.0090608 -0.0006433674 0)
(1.0089322 -0.0006206888 0)
(1.0088421 -0.00055798519 0)
(1.0087982 -0.00045321815 0)
(1.0087959 -0.00030340394 0)
(1.0088472 -0.00011032084 0)
(1.0112526 -0.0010138775 0)
(1.0112732 -0.00085585067 0)
(1.0111067 -0.00080156842 0)
(1.0109533 -0.00070644492 0)
(1.0107295 -0.00064926818 0)
(1.0104896 -0.00061009141 0)
(1.0102219 -0.00059512834 0)
(1.0099564 -0.0006108052 0)
(1.0097005 -0.00063990024 0)
(1.009474 -0.00067972035 0)
(1.0092798 -0.00070706487 0)
(1.0091283 -0.00071428047 0)
(1.0090135 -0.00068338204 0)
(1.0089414 -0.0006108432 0)
(1.008904 -0.00049043192 0)
(1.0089102 -0.00032543674 0)
(1.0089622 -0.0001171462 0)
(1.0114063 -0.00098965102 0)
(1.011463 -0.00095064572 0)
(1.0113272 -0.00080435844 0)
(1.0111929 -0.00075375475 0)
(1.0109893 -0.00065955612 0)
(1.0107594 -0.00062434784 0)
(1.0104966 -0.00059702314 0)
(1.0102264 -0.00061342223 0)
(1.0099591 -0.00064785638 0)
(1.0097174 -0.00070264897 0)
(1.0095052 -0.00075222267 0)
(1.0093343 -0.00078866175 0)
(1.0091999 -0.00079069596 0)
(1.0091067 -0.00075241746 0)
(1.0090445 -0.00066428031 0)
(1.0090186 -0.00052819072 0)
(1.0090263 -0.00034633987 0)
(1.0090815 -0.00012351995 0)
(1.0115345 -0.0011342177 0)
(1.0116387 -0.00091945903 0)
(1.0115257 -0.00089155239 0)
(1.0114188 -0.00075164599 0)
(1.0112327 -0.00069494643 0)
(1.0110189 -0.0006246027 0)
(1.0107614 -0.00059853011 0)
(1.0104911 -0.00060559752 0)
(1.010215 -0.00064376895 0)
(1.0099604 -0.0007093867 0)
(1.0097318 -0.00077873081 0)
(1.0095441 -0.00084295372 0)
(1.0093934 -0.0008781656 0)
(1.0092843 -0.00087619833 0)
(1.0092052 -0.00082319547 0)
(1.0091585 -0.0007192791 0)
(1.0091361 -0.00056443719 0)
(1.0091477 -0.00036605865 0)
(1.0092011 -0.00012914366 0)
(1.0116164 -0.0010702539 0)
(1.0117728 -0.0010614547 0)
(1.0117011 -0.00085654756 0)
(1.0116202 -0.00082775845 0)
(1.0114629 -0.00068594351 0)
(1.0112648 -0.00064637667 0)
(1.011017 -0.00058597437 0)
(1.0107466 -0.0005942993 0)
(1.0104657 -0.00062696681 0)
(1.0101994 -0.00070159601 0)
(1.0099565 -0.00078673092 0)
(1.0097532 -0.00087666225 0)
(1.0095877 -0.00094444088 0)
(1.0094657 -0.00098000936 0)
(1.0093754 -0.00096524226 0)
(1.0093166 -0.00089718538 0)
(1.0092769 -0.00077284229 0)
(1.0092608 -0.00059915925 0)
(1.0092701 -0.00038363818 0)
(1.0093225 -0.00013393296 0)
(1.0116582 -0.0012519247 0)
(1.0118824 -0.0009767917 0)
(1.0118455 -0.00098991702 0)
(1.0118008 -0.00078828854 0)
(1.0116702 -0.00075139872 0)
(1.0114989 -0.00062666621 0)
(1.0112608 -0.00059087915 0)
(1.010993 -0.00056765065 0)
(1.0107073 -0.00060364048 0)
(1.0104323 -0.00067859854 0)
(1.010176 -0.00077761974 0)
(1.0099579 -0.00088958604 0)
(1.0097782 -0.00098847486 0)
(1.0096447 -0.0010619376 0)
(1.0095463 -0.0010878483 0)
(1.0094814 -0.0010598323 0)
(1.0094343 -0.00097041654 0)
(1.0094049 -0.00082512767 0)
(1.0093877 -0.00063066568 0)
(1.0093953 -0.00039884023 0)
(1.0094427 -0.00013765805 0)
(1.0115863 -0.0011598158 0)
(1.0119249 -0.0011669769 0)
(1.0119498 -0.00090000334 0)
(1.0119491 -0.00090990177 0)
(1.0118577 -0.00070789092 0)
(1.0117123 -0.00067669868 0)
(1.0114951 -0.00055624701 0)
(1.0112284 -0.00055360589 0)
(1.0109396 -0.00056370482 0)
(1.0106558 -0.0006460011 0)
(1.0103884 -0.00075100858 0)
(1.0101557 -0.00088278817 0)
(1.0099616 -0.001009727 0)
(1.0098164 -0.0011203831 0)
(1.0097109 -0.0011885476 0)
(1.0096433 -0.0012042693 0)
(1.0095961 -0.0011550753 0)
(1.0095645 -0.0010432566 0)
(1.009537 -0.00087356451 0)
(1.0095195 -0.00065859938 0)
(1.0095201 -0.00041098083 0)
(1.0095622 -0.00014025069 0)
(1.0113525 -0.0013486937 0)
(1.0118937 -0.0010437262 0)
(1.0120072 -0.0010881902 0)
(1.0120591 -0.00081933013 0)
(1.0120137 -0.00082337099 0)
(1.0119093 -0.00062198919 0)
(1.0117099 -0.00058581646 0)
(1.0114555 -0.00050070926 0)
(1.0111603 -0.00053178838 0)
(1.0108696 -0.00059563833 0)
(1.010591 -0.00071195647 0)
(1.0103449 -0.00085603651 0)
(1.010136 -0.0010085375 0)
(1.0099777 -0.0011542178 0)
(1.0098643 -0.0012650671 0)
(1.009795 -0.0013274472 0)
(1.0097516 -0.0013235486 0)
(1.0097261 -0.0012515273 0)
(1.0097012 -0.0011122298 0)
(1.0096767 -0.00091773431 0)
(1.0096522 -0.00068171149 0)
(1.0096451 -0.00041977661 0)
(1.0096788 -0.00014154907 0)
(1.0107656 -0.0012731935 0)
(1.0116673 -0.0012533469 0)
(1.011963 -0.00095021184 0)
(1.0121138 -0.00099672385 0)
(1.0121301 -0.00073088324 0)
(1.0120758 -0.00072410753 0)
(1.0119132 -0.00051326557 0)
(1.011663 -0.00050488068 0)
(1.0113728 -0.00046212367 0)
(1.0110705 -0.00054912385 0)
(1.0107833 -0.00065388901 0)
(1.0105236 -0.00081386797 0)
(1.0103 -0.00098497059 0)
(1.010127 -0.0011631269 0)
(1.0100034 -0.0013156152 0)
(1.0099312 -0.0014264171 0)
(1.0098927 -0.0014722456 0)
(1.0098782 -0.0014464863 0)
(1.0098657 -0.001344883 0)
(1.0098489 -0.001176854 0)
(1.0098193 -0.00095566412 0)
(1.009787 -0.00069955341 0)
(1.0097679 -0.000424808 0)
(1.0097922 -0.00014151021 0)
(1.0098757 -0.0014068679 0)
(1.0110816 -0.0011381204 0)
(1.0117554 -0.0011562722 0)
(1.0120758 -0.00085661271 0)
(1.0121958 -0.00090968717 0)
(1.0122098 -0.00062060871 0)
(1.0120868 -0.00059076138 0)
(1.0118611 -0.00040888785 0)
(1.0115654 -0.00044280652 0)
(1.0112635 -0.00046660011 0)
(1.0109629 -0.00059624705 0)
(1.010691 -0.00075116419 0)
(1.0104525 -0.00094265238 0)
(1.0102635 -0.0011470602 0)
(1.0101268 -0.0013391184 0)
(1.0100486 -0.0014986013 0)
(1.0100137 -0.0015975051 0)
(1.0100117 -0.0016240343 0)
(1.0100177 -0.0015679209 0)
(1.01002 -0.0014344992 0)
(1.0100022 -0.001234345 0)
(1.0099669 -0.00098674392 0)
(1.0099209 -0.00071133302 0)
(1.0098884 -0.00042590248 0)
(1.009901 -0.00014008947 0)
(1.0079109 -0.001397014 0)
(1.0102283 -0.0013310845 0)
(1.0111749 -0.0010195356 0)
(1.0118731 -0.0010658509 0)
(1.0121643 -0.00076924271 0)
(1.0122926 -0.0007924037 0)
(1.0122348 -0.00046598188 0)
(1.0120293 -0.00045433608 0)
(1.011748 -0.00032611298 0)
(1.0114357 -0.00042865539 0)
(1.0111348 -0.00050473529 0)
(1.010847 -0.00068487086 0)
(1.0105928 -0.00087797368 0)
(1.0103868 -0.0011084576 0)
(1.0102343 -0.0013349263 0)
(1.0101458 -0.0015421414 0)
(1.0101108 -0.0016959453 0)
(1.01012 -0.0017798123 0)
(1.010147 -0.0017768287 0)
(1.0101758 -0.0016871271 0)
(1.0101833 -0.0015167997 0)
(1.0101639 -0.00128388 0)
(1.0101154 -0.0010096768 0)
(1.0100541 -0.0007167042 0)
(1.0100048 -0.00042288326 0)
(1.0100046 -0.00013728239 0)
(1.0041898 -0.0014844249 0)
(1.0083603 -0.0012311795 0)
(1.0103279 -0.0012034943 0)
(1.0112938 -0.00091532637 0)
(1.0119748 -0.00099109497 0)
(1.0122836 -0.00063992805 0)
(1.0123316 -0.00061021321 0)
(1.0121746 -0.00029966654 0)
(1.0118991 -0.00034313193 0)
(1.0115973 -0.00029768886 0)
(1.0112862 -0.00045281436 0)
(1.0109955 -0.00058588859 0)
(1.0107218 -0.00080519423 0)
(1.0104962 -0.0010447788 0)
(1.0103258 -0.0013047008 0)
(1.0102228 -0.0015556116 0)
(1.0101826 -0.0017648224 0)
(1.010199 -0.001909576 0)
(1.0102462 -0.0019665662 0)
(1.0103051 -0.0019298988 0)
(1.0103471 -0.0017996212 0)
(1.0103591 -0.0015906201 0)
(1.0103293 -0.0013235174 0)
(1.0102658 -0.0010239147 0)
(1.0101844 -0.00071529707 0)
(1.0101167 -0.00041570851 0)
(1.0101022 -0.00013310449 0)
(0.99902793 -0.0014951326 0)
(1.0045509 -0.0014443203 0)
(1.0085416 -0.0010945017 0)
(1.0104635 -0.0011244648 0)
(1.0114223 -0.00083670259 0)
(1.0121152 -0.00087124783 0)
(1.0123454 -0.00042716041 0)
(1.0122661 -0.00040349072 0)
(1.0120262 -0.00016296293 0)
(1.0117259 -0.00029546357 0)
(1.011428 -0.00031381995 0)
(1.0111258 -0.00052087215 0)
(1.0108441 -0.00069945096 0)
(1.0105935 -0.00096789643 0)
(1.0104012 -0.0012461785 0)
(1.0102801 -0.0015397655 0)
(1.0102293 -0.0018020235 0)
(1.010247 -0.0020096955 0)
(1.0103105 -0.0021320741 0)
(1.0103993 -0.0021571717 0)
(1.0104809 -0.0020777922 0)
(1.0105356 -0.0019039308 0)
(1.0105423 -0.0016533385 0)
(1.0105 -0.0013524386 0)
(1.010415 -0.001028778 0)
(1.0103114 -0.00070698127 0)
(1.0102229 -0.00040441853 0)
(1.0101932 -0.00012758695 0)
(0.9927114 -0.0015242717 0)
(0.99935268 -0.0013792686 0)
(1.0047069 -0.0012653885 0)
(1.0087521 -0.0010050842 0)
(1.0106371 -0.0010764214 0)
(1.0116036 -0.00069860235 0)
(1.0122003 -0.00063611889 0)
(1.01228 -0.00017983986 0)
(1.0120965 -0.00023318927 0)
(1.0118293 -0.00010035695 0)
(1.011537 -0.00029994089 0)
(1.0112489 -0.00037398223 0)
(1.0109511 -0.00062065599 0)
(1.0106838 -0.00085646409 0)
(1.010462 -0.0011691018 0)
(1.010318 -0.0014924617 0)
(1.0102518 -0.0018069708 0)
(1.0102643 -0.0020770837 0)
(1.0103376 -0.0022688303 0)
(1.0104527 -0.0023630137 0)
(1.0105748 -0.0023451683 0)
(1.010679 -0.0022187699 0)
(1.0107358 -0.0019965894 0)
(1.0107348 -0.0017036973 0)
(1.0106719 -0.0013695114 0)
(1.0105629 -0.0010239558 0)
(1.0104336 -0.00069174495 0)
(1.0103229 -0.00038907351 0)
(1.0102769 -0.00012078719 0)
(0.98566567 -0.0015639562 0)
(0.99298841 -0.0014701411 0)
(0.99943997 -0.0012330532 0)
(1.0049545 -0.00119928 0)
(1.0090284 -0.00095186579 0)
(1.0108835 -0.00096306208 0)
(1.0117144 -0.00041888603 0)
(1.0121314 -0.00034596453 0)
(1.0120872 2.2734878e-05 0)
(1.0118741 -0.00015476833 0)
(1.0116229 -9.9125186e-05 0)
(1.0113429 -0.00034828758 0)
(1.0110539 -0.00046367444 0)
(1.0107608 -0.00076328022 0)
(1.0105145 -0.0010552458 0)
(1.0103377 -0.0014213714 0)
(1.0102507 -0.0017780462 0)
(1.0102519 -0.0021102172 0)
(1.0103276 -0.0023726911 0)
(1.0104624 -0.0025417364 0)
(1.010622 -0.0025950506 0)
(1.010778 -0.0025286313 0)
(1.0108939 -0.0023484064 0)
(1.0109503 -0.002075874 0)
(1.010932 -0.0017400313 0)
(1.0108454 -0.0013741256 0)
(1.0107074 -0.0010093031 0)
(1.0105503 -0.00066963619 0)
(1.0104158 -0.00036983705 0)
(1.0103531 -0.00011277599 0)
(0.97713461 -0.0015585507 -9.590972e-25)
(0.98593619 -0.0014848428 0)
(0.99310095 -0.0012815226 0)
(0.99964078 -0.0012138204 0)
(1.0053928 -0.0011874316 0)
(1.0094181 -0.0008097468 0)
(1.0110412 -0.00066694034 0)
(1.0116423 -6.9574019e-05 0)
(1.0119147 -0.00010789224 0)
(1.0118384 0.00011431339 0)
(1.0116518 -0.00015109409 0)
(1.0114196 -0.00013991519 0)
(1.0111319 -0.00041989744 0)
(1.0108358 -0.00059335844 0)
(1.0105533 -0.00095026644 0)
(1.0103459 -0.001310989 0)
(1.010227 -0.0017207942 0)
(1.0102112 -0.0021074599 0)
(1.0102822 -0.0024411316 0)
(1.0104284 -0.0026884283 0)
(1.010619 -0.0028208065 0)
(1.0108246 -0.0028260933 0)
(1.0110037 -0.0027021073 0)
(1.0111289 -0.0024645013 0)
(1.0111737 -0.0021394046 0)
(1.0111346 -0.0017612739 0)
(1.0110174 -0.0013658671 0)
(1.0108477 -0.00098469039 0)
(1.0106605 -0.0006408467 0)
(1.0105013 -0.00034690466 0)
(1.0104213 -0.00010363659 0)
(0.9666373 -0.0015909961 6.0324679e-25)
(0.97732576 -0.0015068318 1.0008338e-24)
(0.98605038 -0.0013256659 0)
(0.99332033 -0.0012890894 0)
(1.0000632 -0.001243123 0)
(1.0059944 -0.0010935295 0)
(1.0097689 -0.00044034367 0)
(1.0109642 -0.00028174866 0)
(1.0114024 0.00021079484 0)
(1.0116426 -8.0217621e-06 0)
(1.0116052 0.00011562671 0)
(1.0114447 -0.00018755667 0)
(1.0112007 -0.0001968647 0)
(1.0108894 -0.00052502411 0)
(1.0105898 -0.00076900887 0)
(1.0103383 -0.0012008181 0)
(1.0101875 -0.0016222969 0)
(1.0101429 -0.0020724648 0)
(1.010203 -0.0024717967 0)
(1.010352 -0.0027992142 0)
(1.010565 -0.003016008 0)
(1.010814 -0.0031034198 0)
(1.0110557 -0.0030497231 0)
(1.0112559 -0.0028629431 0)
(1.0113781 -0.0025637826 0)
(1.0114075 -0.002185542 0)
(1.0113384 -0.0017666749 0)
(1.0111875 -0.0013445273 0)
(1.0109823 -0.00095041052 0)
(1.0107635 -0.00060566786 0)
(1.0105789 -0.00032053416 0)
(1.0104815 -9.3475697e-05 0)
(0.95533891 -0.0015191678 -6.0760273e-25)
(0.9667415 -0.0015585672 -3.6500886e-24)
(0.97740179 -0.0013199184 0)
(0.98632227 -0.0013782084 0)
(0.99378136 -0.0013663626 0)
(1.0006727 -0.0011507283 0)
(1.0065877 -0.0007202427 0)
(1.0098566 3.3377508e-05 0)
(1.0106775 2.4921423e-05 0)
(1.0111112 0.00031831432 0)
(1.0114087 -1.8623849e-05 0)
(1.0114052 8.1786516e-05 0)
(1.0112251 -0.00022774836 0)
(1.0109398 -0.00027740422 0)
(1.0106057 -0.00067497033 0)
(1.0103256 -0.0010147052 0)
(1.0101286 -0.0015167681 0)
(1.0100541 -0.0019947905 0)
(1.010091 -0.0024673487 0)
(1.0102358 -0.0028710848 0)
(1.0104615 -0.0031757932 0)
(1.0107447 -0.0033531808 0)
(1.0110437 -0.0033826455 0)
(1.01132 -0.0032628531 0)
(1.0115285 -0.0030068256 0)
(1.0116435 -0.002643961 0)
(1.0116464 -0.0022130264 0)
(1.0115436 -0.00175555 0)
(1.0113533 -0.0013101545 0)
(1.0111106 -0.00090672476 0)
(1.0108587 -0.00056449869 0)
(1.0106483 -0.0002909889 0)
(1.0105335 -8.2411733e-05 0)
(0.94368524 -0.0014985248 0)
(0.9552531 -0.0014852082 3.6543727e-24)
(0.9668059 -0.0013987722 0)
(0.97765035 -0.0014053002 0)
(0.98686788 -0.0014850287 0)
(0.99439418 -0.0013265557 0)
(1.0012762 -0.00071914189 0)
(1.0069282 -0.00018899144 0)
(1.0096305 0.00039740507 0)
(1.0103306 0.00012996797 0)
(1.0108876 0.00029021863 0)
(1.0112329 -6.2950166e-05 0)
(1.0111991 6.3601409e-05 0)
(1.0109511 -0.00027646784 0)
(1.0106207 -0.00040128131 0)
(1.0102905 -0.00090180327 0)
(1.0100609 -0.001336672 0)
(1.009942 -0.0019039856 0)
(1.0099537 -0.0024191097 0)
(1.0100815 -0.0029049749 0)
(1.0103112 -0.0032959607 0)
(1.0106181 -0.0035686374 0)
(1.0109652 -0.0036919891 0)
(1.0113135 -0.0036547649 0)
(1.0116119 -0.0034600707 0)
(1.0118242 -0.0031307807 0)
(1.011919 -0.0027030104 0)
(1.0118909 -0.0022204934 0)
(1.0117465 -0.0017278131 0)
(1.011514 -0.0012628677 0)
(1.0112313 -0.00085410255 0)
(1.0109457 -0.00051777429 0)
(1.0107094 -0.00025855587 0)
(1.0105774 -7.0486638e-05 0)
(0.9318184 -0.0013486805 6.074593e-25)
(0.94328678 -0.0014907047 0)
(0.95522559 -0.0013129877 6.7958792e-24)
(0.96705351 -0.0015534813 0)
(0.978197 -0.0015452699 0)
(0.98757249 -0.0014280203 0)
(0.9949272 -0.00091871355 0)
(1.0016737 -0.00010164434 0)
(1.0069809 0.00023363401 0)
(1.0093069 0.0004904098 0)
(1.0100884 7.5399756e-05 0)
(1.010757 0.00023925217 0)
(1.0110582 -6.9516225e-05 0)
(1.0109247 5.7036799e-05 0)
(1.0105971 -0.00036325202 0)
(1.0102524 -0.00061047397 0)
(1.0099674 -0.0012178122 0)
(1.0098173 -0.0017411662 0)
(1.0097894 -0.0023523106 0)
(1.0098969 -0.0028938226 0)
(1.0101166 -0.0033757666 0)
(1.0104371 -0.003744541 0)
(1.0108207 -0.003969654 0)
(1.0112324 -0.0040288082 0)
(1.0116186 -0.0039136108 0)
(1.0119345 -0.0036377542 0)
(1.0121364 -0.0032318008 0)
(1.0122057 -0.0027388307 0)
(1.0121361 -0.0022076382 0)
(1.0119466 -0.0016832228 0)
(1.0116679 -0.0012032279 0)
(1.0113439 -0.00079307941 0)
(1.011024 -0.0004659728 0)
(1.010762 -0.00022356674 0)
(1.0106132 -5.7871163e-05 0)
(0.92017768 -0.0012345572 2.2999521e-25)
(0.93102849 -0.0013452965 -1.0578594e-23)
(0.94312386 -0.0013395935 -6.7909908e-24)
(0.95536176 -0.0014958931 -1.0303007e-23)
(0.96762264 -0.0017662452 -1.32891e-23)
(0.97890637 -0.0014971745 0)
(0.98818841 -0.00095264769 0)
(0.99521917 -0.00033175129 0)
(1.0019194 0.00037324328 0)
(1.0069917 0.00033299374 0)
(1.0090937 0.00038744256 0)
(1.0099739 1.5281035e-07 0)
(1.0106403 0.00025851085 0)
(1.0107988 -3.7989494e-05 0)
(1.0105424 1.909478e-05 0)
(1.0101721 -0.00054364836 0)
(1.0098672 -0.00092572466 0)
(1.0096638 -0.001629551 0)
(1.0096092 -0.0022162225 0)
(1.0096816 -0.0028586845 0)
(1.0098866 -0.0034088126 0)
(1.0102043 -0.0038782525 0)
(1.0106135 -0.0042084528 0)
(1.0110761 -0.0043750949 0)
(1.0115426 -0.0043563574 0)
(1.0119625 -0.0041546443 0)
(1.0122812 -0.0037916862 0)
(1.0124665 -0.0033069621 0)
(1.0124975 -0.0027506043 0)
(1.012382 -0.0021735675 0)
(1.0121411 -0.0016223601 0)
(1.0118141 -0.0011317189 0)
(1.0114476 -0.00072430441 0)
(1.0110936 -0.00040952997 0)
(1.0108063 -0.00018633631 0)
(1.0106411 -4.4631142e-05 0)
(0.90913464 -0.001016254 -1.2143722e-24)
(0.91894809 -0.0012302633 1.8758283e-23)
(0.9306911 -0.0011943275 0)
(0.94306334 -0.0015845402 3.6880477e-23)
(0.95583456 -0.001734305 1.3218682e-23)
(0.96837094 -0.0017835173 2.1326396e-23)
(0.97950324 -0.00098456479 1.0900414e-23)
(0.98857071 -0.00030076853 0)
(0.99539665 0.0001016999 0)
(1.0022267 0.00046436212 0)
(1.0071571 0.00019949457 0)
(1.0090261 0.00028129788 0)
(1.009894 2.3472728e-05 0)
(1.0104216 0.00035425265 0)
(1.0103959 -2.6649795e-05 0)
(1.0100616 -0.00012287947 0)
(1.0097196 -0.00084837852 0)
(1.0095006 -0.0013523276 0)
(1.0093984 -0.0021223838 0)
(1.0094475 -0.002756499 0)
(1.0096219 -0.003412268 0)
(1.0099296 -0.0039628223 0)
(1.010346 -0.0044040548 0)
(1.0108476 -0.0046844281 0)
(1.0113821 -0.0047770938 0)
(1.0119003 -0.0046697746 0)
(1.0123394 -0.0043726215 0)
(1.0126537 -0.0039181069 0)
(1.0128075 -0.0033545859 0)
(1.0127945 -0.0027366541 0)
(1.0126242 -0.0021189224 0)
(1.0123291 -0.0015454783 0)
(1.0119514 -0.0010491817 0)
(1.0115419 -0.00064844945 0)
(1.0111542 -0.00034902198 0)
(1.0108423 -0.00014719435 0)
(1.0106614 -3.0884524e-05 0)
(0.89881188 -0.0008072215 -2.0959481e-25)
(0.90740794 -0.00099622697 -4.7061791e-24)
(0.91840408 -0.0010897771 7.4034453e-24)
(0.93034921 -0.0014842096 -1.4901027e-23)
(0.94337051 -0.0018869609 -2.7570686e-23)
(0.95649472 -0.0017445845 1.8824711e-23)
(0.96902547 -0.0013066038 7.6188281e-23)
(0.97985347 -0.00027529846 -1.3386647e-23)
(0.98884129 0.00013412206 0)
(0.99571917 0.00011784227 0)
(1.0027979 0.00031614205 0)
(1.0074543 5.2994079e-05 0)
(1.0089974 0.00033154685 0)
(1.0096997 0.00016329033 0)
(1.0100208 0.00044465354 0)
(1.0098609 -0.00013158198 0)
(1.0095404 -0.00041321759 0)
(1.0092867 -0.0012824388 0)
(1.0091766 -0.0018719124 0)
(1.0091824 -0.0026871125 0)
(1.0093353 -0.0033494177 0)
(1.0096159 -0.0040116987 0)
(1.010028 -0.0045487258 0)
(1.0105492 -0.0049507495 0)
(1.0111389 -0.0051646019 0)
(1.0117441 -0.0051704267 0)
(1.0123007 -0.0049623572 0)
(1.0127512 -0.004562618 0)
(1.0130449 -0.004014044 0)
(1.0131597 -0.0033721168 0)
(1.013091 -0.0026973796 0)
(1.0128621 -0.0020433102 0)
(1.0125084 -0.0014536175 0)
(1.012079 -0.00095638354 0)
(1.0116267 -0.00056615983 0)
(1.0112058 -0.00028503114 0)
(1.0108702 -0.00010647297 0)
(1.0106744 -1.6761098e-05 0)
(0.88921153 -0.00049841415 5.3655281e-25)
(0.89654959 -0.00075851528 1.9348494e-24)
(0.90663454 -0.00087146345 0)
(0.91774145 -0.0014180823 -1.1299846e-23)
(0.93040575 -0.001834535 -3.6256905e-24)
(0.94386224 -0.0019383809 0)
(0.95707838 -0.0012138733 -5.4833812e-23)
(0.96945705 -0.00063062551 -6.2199419e-23)
(0.98009895 0.00020669486 0)
(0.9892757 6.3887105e-05 0)
(0.99644946 -0.00014992889 0)
(1.0036333 0.00019580113 0)
(1.0077291 8.8097144e-05 0)
(1.0088278 0.00056148265 0)
(1.0092886 0.00031399195 0)
(1.0094516 0.0004043785 0)
(1.0092698 -0.00041462151 0)
(1.0090419 -0.00085693068 0)
(1.0089036 -0.001820342 0)
(1.0089068 -0.0024694445 0)
(1.0090178 -0.003308748 0)
(1.0092762 -0.0039933812 0)
(1.0096653 -0.0046505467 0)
(1.0101897 -0.0051645211 0)
(1.0108154 -0.0055104638 0)
(1.011494 -0.0056437681 0)
(1.0121588 -0.0055473306 0)
(1.0127461 -0.0052283821 0)
(1.013191 -0.0047203523 0)
(1.0134548 -0.0040760258 0)
(1.0135164 -0.003359285 0)
(1.0133867 -0.0026316645 0)
(1.0130921 -0.0019481677 0)
(1.0126782 -0.0013474629 0)
(1.0121963 -0.00085431311 0)
(1.0117016 -0.00047831532 0)
(1.0112485 -0.00021809725 0)
(1.0108903 -6.4515902e-05 0)
(1.0106803 -2.4043276e-06 0)
(0.88075211 -0.0001987575 0)
(0.88637452 -0.00039971833 0)
(0.89549865 -0.00064634297 -1.9963903e-24)
(0.90560929 -0.001232478 0)
(0.9174989 -0.0018136391 -1.8511332e-24)
(0.93061563 -0.0019135093 2.7440159e-23)
(0.94430853 -0.0014111673 1.3361922e-22)
(0.95747036 -0.00047750405 1.178132e-22)
(0.96980829 -0.00019492771 0)
(0.98052894 0.00011648065 0)
(0.99014558 -0.0003170969 0)
(0.99760022 -0.00039877369 0)
(1.0045529 0.00032159119 0)
(1.0077889 0.00035172108 0)
(1.0083752 0.00081891557 0)
(1.0086783 0.00031599665 0)
(1.0088119 0.00015148945 0)
(1.0087049 -0.00087863938 0)
(1.0086033 -0.0014189165 0)
(1.008582 -0.0024405305 0)
(1.0086914 -0.0031266814 0)
(1.0089047 -0.0039848025 0)
(1.0092708 -0.0046833714 0)
(1.0097772 -0.005329527 0)
(1.0104183 -0.0058039773 0)
(1.0111523 -0.006078641 0)
(1.0119117 -0.0061132598 0)
(1.0126295 -0.0059011966 0)
(1.0132304 -0.0054618236 0)
(1.0136588 -0.0048411042 0)
(1.0138759 -0.0041026418 0)
(1.0138769 -0.0033141948 0)
(1.0136763 -0.0025410383 0)
(1.0133136 -0.0018336129 0)
(1.012837 -0.0012283464 0)
(1.0123027 -0.0007438821 0)
(1.0117665 -0.00038566428 0)
(1.0112825 -0.00014879388 0)
(1.0109029 -2.1613918e-05 0)
(1.0106796 1.2227061e-05 0)
(0.8772494 -2.9494039e-05 -2.5310598e-25)
(0.88073959 0.000243445 0)
(0.88498725 -0.00029293773 -5.1446271e-24)
(0.89404255 -0.0010265489 -8.0519057e-24)
(0.90502402 -0.0016724783 -5.2138103e-24)
(0.91737728 -0.0019186277 9.7674218e-24)
(0.93080153 -0.0013811005 4.1895142e-24)
(0.94459176 -0.00066515339 1.5346609e-23)
(0.95781015 -7.3730493e-06 -1.5500643e-22)
(0.97035977 -0.00037744013 0)
(0.98142463 -0.00033276007 -1.4347903e-22)
(0.99144216 -0.00063594126 0)
(0.99893069 -0.00034140644 0)
(1.0053294 0.00076284696 0)
(1.0074484 0.00067189767 0)
(1.0076542 0.00090851615 0)
(1.0079924 6.3517751e-05 0)
(1.0082051 -0.00031394088 0)
(1.0082135 -0.0014755692 0)
(1.0082367 -0.0020682787 0)
(1.0083196 -0.0031193603 0)
(1.0085259 -0.0038385576 0)
(1.0088413 -0.0047117452 0)
(1.0093251 -0.0054223027 0)
(1.0099571 -0.0060435389 0)
(1.0107231 -0.0064630056 0)
(1.0115608 -0.0066463516 0)
(1.0123967 -0.0065655788 0)
(1.0131512 -0.0062242529 0)
(1.0137537 -0.0056567228 0)
(1.0141468 -0.0049220368 0)
(1.0143073 -0.0040911256 0)
(1.0142348 -0.0032380234 0)
(1.0139593 -0.0024249902 0)
(1.0135237 -0.0017016501 0)
(1.0129842 -0.0010972328 0)
(1.0123979 -0.00062619506 0)
(1.0118215 -0.00028907986 0)
(1.011308 -7.7627355e-05 0)
(1.0109083 2.1951322e-05 0)
(1.0106727 2.6945297e-05 0)
(0.87553813 6.4415457e-05 4.5664094e-24)
(0.87728451 0.00051610809 0)
(0.88919511 0.00053489397 6.3521597e-25)
(0.88303189 -0.00067753143 8.0470257e-24)
(0.89303633 -0.0014940993 2.0397208e-24)
(0.90451023 -0.0017970886 5.6796677e-23)
(0.91725616 -0.0013787408 -1.0683736e-22)
(0.9308436 -0.00062665033 -4.8957968e-23)
(0.9448462 -0.00019619658 -1.4565823e-22)
(0.95836992 -0.00023044885 -5.5392379e-23)
(0.97139398 -0.00095622884 -1.9731869e-22)
(0.98275608 -0.00071599616 1.4909645e-22)
(0.99292374 -0.00059510809 0)
(1.0001551 0.00016152848 0)
(1.0055397 0.0012830802 0)
(1.0066934 0.00081227976 0)
(1.006833 0.00068628943 0)
(1.007363 -0.00044600765 0)
(1.0076883 -0.00092798512 0)
(1.0078064 -0.0021620419 0)
(1.0079358 -0.0027757308 0)
(1.0081055 -0.0038499079 0)
(1.0084042 -0.0046040219 0)
(1.0088321 -0.0054958661 0)
(1.0094453 -0.0062086291 0)
(1.0102163 -0.0067908171 0)
(1.0111081 -0.0071330844 0)
(1.0120476 -0.0072055103 0)
(1.0129458 -0.0069914876 0)
(1.0137246 -0.0065091054 0)
(1.0143082 -0.0058083167 0)
(1.0146534 -0.0049591972 0)
(1.0147415 -0.0040417712 0)
(1.0145891 -0.0031296456 0)
(1.0142313 -0.0022859913 0)
(1.0137219 -0.0015527929 0)
(1.0131188 -0.0009556238 0)
(1.0124817 -0.00050229935 0)
(1.0118667 -0.00018929792 0)
(1.0113254 -5.1316375e-06 0)
(1.0109069 6.5892906e-05 0)
(1.01066 4.1706377e-05 0)
(0.87308074 -0.00031328079 2.1434048e-24)
(0.87557942 0.00059990178 6.0146688e-24)
(0.88643854 0.00087411725 0)
(0.89877574 0.00083980039 -1.8782433e-25)
(0.881521 -0.0011589578 -2.6703215e-24)
(0.89201076 -0.0016273306 -3.1280656e-23)
(0.90401254 -0.0012482983 0)
(0.91701658 -0.00060924119 4.8633768e-23)
(0.93087545 -0.00016995319 -7.3177799e-23)
(0.94532236 -0.00048004418 5.4677825e-23)
(0.9594231 -0.00089793158 2.5255499e-22)
(0.97289788 -0.0014916598 2.0476451e-22)
(0.98427015 -0.00066996077 0)
(0.99425165 -4.719457e-05 0)
(1.0008799 0.00084752496 0)
(1.0051708 0.001563661 0)
(1.0057607 0.00058687817 0)
(1.0061096 0.00016654566 0)
(1.0068537 -0.0011232546 0)
(1.0072704 -0.0016324589 0)
(1.007474 -0.002899823 0)
(1.007683 -0.0035290921 0)
(1.0079274 -0.0046314605 0)
(1.0083264 -0.0054328615 0)
(1.0088836 -0.0063394516 0)
(1.0096447 -0.0070427865 0)
(1.010562 -0.0075632617 0)
(1.0115817 -0.0078062601 0)
(1.0126114 -0.0077457166 0)
(1.0135608 -0.007381898 0)
(1.0143426 -0.0067488465 0)
(1.0148923 -0.005911314 0)
(1.0151705 -0.004951586 0)
(1.0151767 -0.0039527933 0)
(1.0149341 -0.0029915457 0)
(1.0144917 -0.0021240503 0)
(1.0139062 -0.0013894044 0)
(1.0132405 -0.00080467889 0)
(1.0125541 -0.000373321 0)
(1.0119024 -8.7119148e-05 0)
(1.011335 6.823266e-05 0)
(1.0108992 0.00010996244 0)
(1.0106418 5.63919e-05 0)
(0.8711594 -0.00080606373 -3.1635283e-24)
(0.87314226 0.0002361596 -2.1576408e-24)
(0.88514943 0.00095139945 -5.171265e-24)
(0.8965955 0.001209829 -1.9243834e-24)
(0.90905936 0.0010372673 -3.3073266e-25)
(0.87993372 -0.0012910074 3.1884933e-23)
(0.89101782 -0.0010686773 2.3366267e-23)
(0.90340144 -0.00046408436 0)
(0.91678788 -0.00014863117 7.5370119e-23)
(0.93110888 -0.00052560132 -2.3812866e-23)
(0.94628394 -0.0012561596 0)
(0.96097053 -0.0015234686 -3.0147895e-22)
(0.97462377 -0.0015822537 0)
(0.98563078 -2.742045e-05 0)
(0.9952134 0.00069127202 0)
(1.0011472 0.0013171799 0)
(1.0044563 0.0013525126 0)
(1.0049122 8.8554009e-07 0)
(1.0055642 -0.00053149726 0)
(1.0064671 -0.0018897729 0)
(1.0069365 -0.0023827756 0)
(1.0071905 -0.0036695842 0)
(1.0074566 -0.0043275881 0)
(1.0077803 -0.0054789011 0)
(1.0083003 -0.0063337216 0)
(1.0090113 -0.0072477123 0)
(1.0099346 -0.0079188812 0)
(1.0110056 -0.0083535712 0)
(1.0121462 -0.0084708508 0)
(1.0132561 -0.0082563943 0)
(1.0142355 -0.007727659 0)
(1.0150032 -0.0069364426 0)
(1.0154969 -0.0059628427 0)
(1.0156954 -0.0048964837 0)
(1.015606 -0.0038261496 0)
(1.0152688 -0.002823331 0)
(1.0147371 -0.0019423007 0)
(1.0140761 -0.0012122801 0)
(1.0133488 -0.00064599724 0)
(1.0126152 -0.00024027632 0)
(1.0119287 1.6756759e-05 0)
(1.0113372 0.00014199857 0)
(1.0108856 0.00015391884 0)
(1.0106187 7.0966079e-05 0)
(0.86909027 -0.00094317027 1.9032748e-24)