/*--------------------------------*- C++ -*----------------------------------*\
| =========                 |                                                 |
| \\      /  F ield         | OpenFOAM: The Open Source CFD Toolbox           |
|  \\    /   O peration     | Version:  5.0                                   |
|   \\  /    A nd           | Web:      www.OpenFOAM.org                      |
|    \\/     M anipulation  |                                                 |
\*---------------------------------------------------------------------------*/
FoamFile
{
    version     2.0;
    format      ascii;
    class       volSymmTensorField;
    location    "160";
    object      UPrime2Mean;
}
// * * * * * * * * * * * * * * * * * * * * * * * * * * * * * * * * * * * * * //

dimensions      [0 2 -2 0 0 0 0];

internalField   nonuniform List<symmTensor> 
9520
(
(2.8294947e-05 5.4707714e-07 0 1.9373288e-08 0 0)
(2.8825534e-05 1.608306e-06 0 1.6711786e-07 0 0)
(2.5152044e-05 5.3073546e-07 0 2.0320595e-08 0 0)
(2.9794463e-05 2.6070448e-06 0 4.3715077e-07 0 0)
(2.5689321e-05 1.5632032e-06 0 1.7536727e-07 0 0)
(2.3868898e-05 5.3004339e-07 0 2.0973885e-08 0 0)
(3.1143038e-05 3.5471809e-06 0 8.0573801e-07 0 0)
(2.6676142e-05 2.540954e-06 0 4.5886995e-07 0 0)
(2.4405571e-05 1.562163e-06 0 1.8096629e-07 0 0)
(2.1899607e-05 5.2581019e-07 0 2.2216387e-08 0 0)
(3.2821114e-05 4.4306145e-06 0 1.2528202e-06 0 0)
(2.8057691e-05 3.4705005e-06 0 8.4633363e-07 0 0)
(2.5390866e-05 2.5437421e-06 0 4.7384062e-07 0 0)
(2.2431006e-05 1.5524332e-06 0 1.919136e-07 0 0)
(2.0389526e-05 5.2326315e-07 0 2.3411395e-08 0 0)
(3.4784167e-05 5.2559508e-06 0 1.761758e-06 0 0)
(2.9789003e-05 4.3552748e-06 0 1.3170471e-06 0 0)
(2.6772529e-05 3.4825701e-06 0 8.7455237e-07 0 0)
(2.3411599e-05 2.5349534e-06 0 5.0310901e-07 0 0)
(2.0915323e-05 1.5464531e-06 0 2.022703e-07 0 0)
(1.8728895e-05 5.1989342e-07 0 2.4991917e-08 0 0)
(3.6988075e-05 6.0209818e-06 0 2.3188689e-06 0 0)
(3.1830438e-05 5.1947097e-06 0 1.8537671e-06 0 0)
(2.8508186e-05 4.383199e-06 0 1.3619913e-06 0 0)
(2.4791723e-05 3.4836306e-06 0 9.2992612e-07 0 0)
(2.1885845e-05 2.5308925e-06 0 5.3080478e-07 0 0)
(1.9241681e-05 1.5388939e-06 0 2.1616999e-07 0 0)
(1.7275038e-05 5.1435111e-07 0 2.651022e-08 0 0)
(3.9388923e-05 6.7230986e-06 0 2.9136023e-06 0 0)
(3.4142585e-05 5.9868763e-06 0 2.4425265e-06 0 0)
(3.0560627e-05 5.2456448e-06 0 1.9183455e-06 0 0)
(2.6532631e-05 4.4049419e-06 0 1.4508293e-06 0 0)
(2.3254541e-05 3.4889889e-06 0 9.8250349e-07 0 0)
(2.0190775e-05 2.525481e-06 0 5.682542e-07 0 0)
(1.7775358e-05 1.5244802e-06 0 2.2947831e-07 0 0)
(1.5793297e-05 5.0694316e-07 0 2.8264764e-08 0 0)
(4.1942185e-05 7.3566048e-06 0 3.5371517e-06 0 0)
(3.6687512e-05 6.7279128e-06 0 3.0722136e-06 0 0)
(3.2892361e-05 6.0683721e-06 0 2.5287443e-06 0 0)
(2.8600692e-05 5.3001633e-06 0 2.0477273e-06 0 0)
(2.4985867e-05 4.428868e-06 0 1.535447e-06 0 0)
(2.1533425e-05 3.4945978e-06 0 1.0541641e-06 0 0)
(1.8702237e-05 2.5078206e-06 0 6.0417477e-07 0 0)
(1.6274607e-05 1.5047147e-06 0 2.4494007e-07 0 0)
(1.4461809e-05 4.9587415e-07 0 2.9899883e-08 0 0)
(4.4604603e-05 7.9225294e-06 0 4.1846853e-06 0 0)
(3.9418361e-05 7.4125971e-06 0 3.7333674e-06 0 0)
(3.5462936e-05 6.8487513e-06 0 3.1814232e-06 0 0)
(3.0962043e-05 6.1683561e-06 0 2.7054893e-06 0 0)
(2.7049392e-05 5.3528427e-06 0 2.1711656e-06 0 0)
(2.3237888e-05 4.4561632e-06 0 1.6517348e-06 0 0)
(2.0015973e-05 3.481602e-06 0 1.1231252e-06 0 0)
(1.7167822e-05 2.4815753e-06 0 6.4613078e-07 0 0)
(1.4924644e-05 1.4738063e-06 0 2.5935152e-07 0 0)
(1.315285e-05 4.8194761e-07 0 3.16362e-08 0 0)
(4.7333835e-05 8.4087385e-06 0 4.8520273e-06 0 0)
(4.2300547e-05 8.0419508e-06 0 4.4211953e-06 0 0)
(3.8234451e-05 7.5817698e-06 0 3.8681011e-06 0 0)
(3.3582535e-05 7.006268e-06 0 3.4115917e-06 0 0)
(2.9413447e-05 6.2607773e-06 0 2.8742731e-06 0 0)
(2.5277668e-05 5.413998e-06 0 2.3423469e-06 0 0)
(2.1687815e-05 4.4573941e-06 0 1.7641274e-06 0 0)
(1.8437414e-05 3.456957e-06 0 1.2041224e-06 0 0)
(1.5784727e-05 2.4361048e-06 0 6.8534306e-07 0 0)
(1.3592628e-05 1.4341718e-06 0 2.7471758e-07 0 0)
(1.1975421e-05 4.6454332e-07 0 3.319518e-08 0 0)
(5.0093256e-05 8.8367125e-06 0 5.5393995e-06 0 0)
(4.529535e-05 8.6007007e-06 0 5.1301675e-06 0 0)
(4.1169339e-05 8.2649694e-06 0 4.5817858e-06 0 0)
(3.6424082e-05 7.8078839e-06 0 4.1547944e-06 0 0)
(3.2044435e-05 7.1498501e-06 0 3.6322276e-06 0 0)
(2.7625069e-05 6.3690456e-06 0 3.11038e-06 0 0)
(2.3694053e-05 5.4404004e-06 0 2.5085715e-06 0 0)
(2.0058452e-05 4.444173e-06 0 1.8969465e-06 0 0)
(1.7009642e-05 3.4040163e-06 0 1.2801707e-06 0 0)
(1.4411208e-05 2.3757617e-06 0 7.2739609e-07 0 0)
(1.2393139e-05 1.3838073e-06 0 2.8853132e-07 0 0)
(1.0848659e-05 4.4442458e-07 0 3.4734624e-08 0 0)
(5.2851877e-05 9.1584251e-06 0 6.2545067e-06 0 0)
(4.8373511e-05 9.1054353e-06 0 5.8619311e-06 0 0)
(4.4222562e-05 8.8900142e-06 0 5.3180533e-06 0 0)
(3.9448453e-05 8.5726518e-06 0 4.9301705e-06 0 0)
(3.490498e-05 8.0154282e-06 0 4.4347906e-06 0 0)
(3.0250995e-05 7.3189095e-06 0 3.9425496e-06 0 0)
(2.6009935e-05 6.4325263e-06 0 3.3409485e-06 0 0)
(2.2010755e-05 5.4498755e-06 0 2.7062662e-06 0 0)
(1.85774e-05 4.3924383e-06 0 2.0224214e-06 0 0)
(1.5579893e-05 3.329384e-06 0 1.3622261e-06 0 0)
(1.3171949e-05 2.2967023e-06 0 7.6532392e-07 0 0)
(1.1241959e-05 1.3249992e-06 0 3.02249e-07 0 0)
(9.8426796e-06 4.2181064e-07 0 3.6025347e-08 0 0)
(5.5591492e-05 9.4729331e-06 0 6.9870366e-06 0 0)
(5.1496024e-05 9.5175616e-06 0 6.6205676e-06 0 0)
(4.7359328e-05 9.4652468e-06 0 6.0761202e-06 0 0)
(4.2623889e-05 9.2881625e-06 0 5.7295937e-06 0 0)
(3.7962046e-05 8.8543789e-06 0 5.2746129e-06 0 0)
(3.3123408e-05 8.2583245e-06 0 4.8271581e-06 0 0)
(2.8608344e-05 7.4319889e-06 0 4.2480768e-06 0 0)
(2.4273183e-05 6.4772551e-06 0 3.6166533e-06 0 0)
(2.0470264e-05 5.4092595e-06 0 2.894292e-06 0 0)
(1.7080201e-05 4.3113726e-06 0 2.1585745e-06 0 0)
(1.4286035e-05 3.2269212e-06 0 1.4366843e-06 0 0)
(1.1976375e-05 2.2028283e-06 0 8.0330508e-07 0 0)
(1.0213308e-05 1.2584439e-06 0 3.1379162e-07 0 0)
(8.9012155e-06 3.9708349e-07 0 3.7185874e-08 0 0)
(5.8275811e-05 9.5864131e-06 0 7.7756715e-06 0 0)
(5.4647141e-05 9.9108874e-06 0 7.4063787e-06 0 0)
(5.0536373e-05 9.9587108e-06 0 6.8623955e-06 0 0)
(4.5907286e-05 9.9653737e-06 0 6.5568884e-06 0 0)
(4.116913e-05 9.6575071e-06 0 6.1464712e-06 0 0)
(3.6208252e-05 9.1838005e-06 0 5.7569519e-06 0 0)
(3.1458355e-05 8.4347445e-06 0 5.2189897e-06 0 0)
(2.6823339e-05 7.5255832e-06 0 4.6145951e-06 0 0)
(2.2669414e-05 6.4586497e-06 0 3.8808146e-06 0 0)
(1.8897524e-05 5.3309299e-06 0 3.0994774e-06 0 0)
(1.5719569e-05 4.1919373e-06 0 2.2831555e-06 0 0)
(1.3029351e-05 3.1021351e-06 0 1.5119089e-06 0 0)
(1.0906304e-05 2.0951012e-06 0 8.3547648e-07 0 0)
(9.2484372e-06 1.1852791e-06 0 3.2426647e-07 0 0)
(8.0695578e-06 3.7085237e-07 0 3.8038643e-08 0 0)
(6.0898546e-05 9.8313527e-06 0 8.5809519e-06 0 0)
(5.7769736e-05 1.0141103e-05 0 8.2597191e-06 0 0)
(5.373845e-05 1.0436118e-05 0 7.6783511e-06 0 0)
(4.92446e-05 1.0568551e-05 0 7.4140346e-06 0 0)
(4.4500855e-05 1.0427441e-05 0 7.0486137e-06 0 0)
(3.9474597e-05 1.0083709e-05 0 6.7231152e-06 0 0)
(3.4530154e-05 9.4354876e-06 0 6.2453619e-06 0 0)
(2.9635906e-05 8.591374e-06 0 5.6882189e-06 0 0)
(2.5153452e-05 7.540637e-06 0 4.9687996e-06 0 0)
(2.1016162e-05 6.3935479e-06 0 4.1706311e-06 0 0)
(1.7460248e-05 5.2019684e-06 0 3.2889843e-06 0 0)
(1.4388061e-05 4.0412147e-06 0 2.4100006e-06 0 0)
(1.1901631e-05 2.9561285e-06 0 1.5762616e-06 0 0)
(9.8983852e-06 1.9754322e-06 0 8.6509532e-07 0 0)
(8.3958123e-06 1.1074456e-06 0 3.3203631e-07 0 0)
(7.3077456e-06 3.4316176e-07 0 3.8681911e-08 0 0)
(6.3425257e-05 9.6947379e-06 0 9.524048e-06 0 0)
(6.0906979e-05 1.0470134e-05 0 9.1535954e-06 0 0)
(5.6941431e-05 1.0762964e-05 0 8.5562031e-06 0 0)
(5.2633582e-05 1.1150016e-05 0 8.3056165e-06 0 0)
(4.7910767e-05 1.1133591e-05 0 7.984795e-06 0 0)
(4.2880612e-05 1.0959799e-05 0 7.7287565e-06 0 0)
(3.7793374e-05 1.0426309e-05 0 7.3201691e-06 0 0)
(3.2683013e-05 9.6701202e-06 0 6.828484e-06 0 0)
(2.7896989e-05 8.6527377e-06 0 6.1468087e-06 0 0)
(2.3418305e-05 7.5005326e-06 0 5.3590323e-06 0 0)
(1.9494313e-05 6.2632756e-06 0 4.4409215e-06 0 0)
(1.6043037e-05 5.0313207e-06 0 3.4833181e-06 0 0)
(1.3188751e-05 3.8602649e-06 0 2.5199407e-06 0 0)
(1.0834055e-05 2.7915511e-06 0 1.6363879e-06 0 0)
(9.007059e-06 1.8471612e-06 0 8.8743116e-07 0 0)
(7.613281e-06 1.0249464e-06 0 3.3802023e-07 0 0)
(6.6434387e-06 3.1486733e-07 0 3.899894e-08 0 0)
(6.5859229e-05 9.9142991e-06 0 1.0477952e-05 0 0)
(6.4014027e-05 1.0453028e-05 0 1.0215652e-05 0 0)
(6.0188251e-05 1.1166642e-05 0 9.4769761e-06 0 0)
(5.6026392e-05 1.1592194e-05 0 9.2676057e-06 0 0)
(5.1392897e-05 1.1817614e-05 0 8.9666005e-06 0 0)
(4.6388044e-05 1.1778703e-05 0 8.7743751e-06 0 0)
(4.1224078e-05 1.1405322e-05 0 8.4419867e-06 0 0)
(3.593415e-05 1.0754094e-05 0 8.0279563e-06 0 0)
(3.0875687e-05 9.7910815e-06 0 7.405266e-06 0 0)
(2.6082536e-05 8.6503817e-06 0 6.6526522e-06 0 0)
(2.1804722e-05 7.3775999e-06 0 5.7267735e-06 0 0)
(1.7983169e-05 6.0797869e-06 0 4.7200673e-06 0 0)
(1.4760305e-05 4.8193936e-06 0 3.6542279e-06 0 0)
(1.2047234e-05 3.6524702e-06 0 2.6240495e-06 0 0)
(9.8882877e-06 2.6132285e-06 0 1.6827222e-06 0 0)
(8.1862068e-06 1.7101208e-06 0 9.0522288e-07 0 0)
(6.9310584e-06 9.4050504e-07 0 3.411165e-07 0 0)
(6.0485462e-06 2.8595117e-07 0 3.9071061e-08 0 0)
(6.8149756e-05 9.4454777e-06 0 1.1715837e-05 0 0)
(6.7259896e-05 1.0775476e-05 0 1.1365768e-05 0 0)
(6.3478008e-05 1.1250834e-05 0 1.0579912e-05 0 0)
(5.9480638e-05 1.2089026e-05 0 1.028452e-05 0 0)
(5.4931534e-05 1.2376581e-05 0 1.0026251e-05 0 0)
(4.999715e-05 1.2575704e-05 0 9.8763714e-06 0 0)
(4.4780839e-05 1.2342311e-05 0 9.6143513e-06 0 0)
(3.9363861e-05 1.1840265e-05 0 9.286593e-06 0 0)
(3.4063014e-05 1.0949853e-05 0 8.7357415e-06 0 0)
(2.8983367e-05 9.8399002e-06 0 8.0413766e-06 0 0)
(2.4370335e-05 8.544016e-06 0 7.1352753e-06 0 0)
(2.019478e-05 7.1895891e-06 0 6.1090782e-06 0 0)
(1.6607341e-05 5.8415628e-06 0 4.9690551e-06 0 0)
(1.3532867e-05 4.570786e-06 0 3.8180204e-06 0 0)
(1.1032978e-05 3.424109e-06 0 2.7062831e-06 0 0)
(9.014121e-06 2.4207348e-06 0 1.7209641e-06 0 0)
(7.470932e-06 1.5692299e-06 0 9.1513476e-07 0 0)
(6.3192656e-06 8.5385053e-07 0 3.4208958e-07 0 0)
(5.537301e-06 2.5738108e-07 0 3.8837584e-08 0 0)
(7.0138832e-05 9.6789785e-06 0 1.303101e-05 0 0)
(7.0488729e-05 1.0304538e-05 0 1.2902429e-05 0 0)
(6.682394e-05 1.1619783e-05 0 1.1795605e-05 0 0)
(6.297766e-05 1.2295707e-05 0 1.1531468e-05 0 0)
(5.8562171e-05 1.2962803e-05 0 1.1169105e-05 0 0)
(5.371915e-05 1.326074e-05 0 1.1070074e-05 0 0)
(4.8465862e-05 1.3263595e-05 0 1.0856921e-05 0 0)
(4.2936463e-05 1.2901786e-05 0 1.0606688e-05 0 0)
(3.7435441e-05 1.2126752e-05 0 1.0137381e-05 0 0)
(3.2091455e-05 1.106218e-05 0 9.5160994e-06 0 0)
(2.7169547e-05 9.7601256e-06 0 8.6561116e-06 0 0)
(2.2659929e-05 8.3606139e-06 0 7.6396141e-06 0 0)
(1.8717752e-05 6.930193e-06 0 6.4547281e-06 0 0)
(1.5284211e-05 5.5553828e-06 0 5.2103586e-06 0 0)
(1.2437691e-05 4.2926188e-06 0 3.950747e-06 0 0)
(1.009212e-05 3.1745957e-06 0 2.7763387e-06 0 0)
(8.2521276e-06 2.2214848e-06 0 1.7440619e-06 0 0)
(6.8279218e-06 1.4236656e-06 0 9.1950491e-07 0 0)
(5.794165e-06 7.6814969e-07 0 3.4035315e-07 0 0)
(5.0904037e-06 2.2925079e-07 0 3.8359109e-08 0 0)
(7.1879841e-05 8.641886e-06 0 1.4729509e-05 0 0)
(7.3935214e-05 1.0801221e-05 0 1.4774049e-05 0 0)
(7.0382739e-05 1.1258162e-05 0 1.3485787e-05 0 0)
(6.6645219e-05 1.2719482e-05 0 1.2939687e-05 0 0)
(6.2317763e-05 1.3272094e-05 0 1.2590111e-05 0 0)
(5.7592455e-05 1.3959377e-05 0 1.2381201e-05 0 0)
(5.2308629e-05 1.4092873e-05 0 1.2211011e-05 0 0)
(4.6650775e-05 1.3957388e-05 0 1.2012986e-05 0 0)
(4.0958732e-05 1.329766e-05 0 1.1610707e-05 0 0)
(3.5381796e-05 1.231563e-05 0 1.1075331e-05 0 0)
(3.0174799e-05 1.1019994e-05 0 1.0280197e-05 0 0)
(2.535646e-05 9.5899759e-06 0 9.3017181e-06 0 0)
(2.1075541e-05 8.0857608e-06 0 8.1016202e-06 0 0)
(1.7291864e-05 6.6109325e-06 0 6.7931084e-06 0 0)
(1.4097421e-05 5.2282821e-06 0 5.410638e-06 0 0)
(1.1418279e-05 3.984715e-06 0 4.066915e-06 0 0)
(9.270958e-06 2.91397e-06 0 2.8219943e-06 0 0)
(7.565513e-06 2.013723e-06 0 1.7568745e-06 0 0)
(6.2773521e-06 1.2793574e-06 0 9.1640148e-07 0 0)
(5.3347957e-06 6.8338089e-07 0 3.364868e-07 0 0)
(4.7121675e-06 2.0242902e-07 0 3.7624134e-08 0 0)
(7.2405267e-05 8.8555623e-06 0 1.6903648e-05 0 0)
(7.7446387e-05 9.356424e-06 0 1.7316716e-05 0 0)
(7.4095344e-05 1.1715187e-05 0 1.566189e-05 0 0)
(7.0650871e-05 1.2486084e-05 0 1.5020952e-05 0 0)
(6.6358758e-05 1.3732747e-05 0 1.4263369e-05 0 0)
(6.1719107e-05 1.4395264e-05 0 1.4032099e-05 0 0)
(5.6383438e-05 1.4936821e-05 0 1.3728167e-05 0 0)
(5.0549388e-05 1.4941851e-05 0 1.3553458e-05 0 0)
(4.4627217e-05 1.4473305e-05 0 1.3184706e-05 0 0)
(3.8825915e-05 1.3578194e-05 0 1.2717687e-05 0 0)
(3.336124e-05 1.2321329e-05 0 1.200506e-05 0 0)
(2.8259172e-05 1.0871206e-05 0 1.1086803e-05 0 0)
(2.3662701e-05 9.3059141e-06 0 9.9007337e-06 0 0)
(1.9542763e-05 7.7388176e-06 0 8.5578233e-06 0 0)
(1.6004598e-05 6.236629e-06 0 7.0799911e-06 0 0)
(1.2989015e-05 4.8612233e-06 0 5.5900635e-06 0 0)
(1.0526178e-05 3.6592102e-06 0 4.1477819e-06 0 0)
(8.5296508e-06 2.6394816e-06 0 2.8515605e-06 0 0)
(6.9788873e-06 1.80688e-06 0 1.7550719e-06 0 0)
(5.7951834e-06 1.1356993e-06 0 9.0762333e-07 0 0)
(4.9469805e-06 6.0245808e-07 0 3.3030281e-07 0 0)
(4.3892353e-06 1.7705021e-07 0 3.6671007e-08 0 0)
(7.135497e-05 6.7160228e-06 0 1.906332e-05 0 0)
(8.0396189e-05 1.0284281e-05 0 2.0897289e-05 0 0)
(7.8650489e-05 1.0217462e-05 0 1.8765713e-05 0 0)
(7.5159107e-05 1.2875065e-05 0 1.7720121e-05 0 0)
(7.0980959e-05 1.3548299e-05 0 1.6807972e-05 0 0)
(6.6350817e-05 1.4940013e-05 0 1.6058126e-05 0 0)
(6.0832014e-05 1.5537951e-05 0 1.5659714e-05 0 0)
(5.4743584e-05 1.5947634e-05 0 1.5302037e-05 0 0)
(4.8483483e-05 1.5596916e-05 0 1.49107e-05 0 0)
(4.2418397e-05 1.4855304e-05 0 1.4474811e-05 0 0)
(3.6703462e-05 1.3642894e-05 0 1.3829969e-05 0 0)
(3.1345477e-05 1.2200537e-05 0 1.2992488e-05 0 0)
(2.645841e-05 1.058525e-05 0 1.1843655e-05 0 0)
(2.2020865e-05 8.9370599e-06 0 1.0495959e-05 0 0)
(1.8148107e-05 7.320173e-06 0 8.9516668e-06 0 0)
(1.4798233e-05 5.8107858e-06 0 7.342235e-06 0 0)
(1.201535e-05 4.467628e-06 0 5.7220855e-06 0 0)
(9.7201531e-06 3.3129922e-06 0 4.2059976e-06 0 0)
(7.8971603e-06 2.364383e-06 0 2.8570393e-06 0 0)
(6.4650876e-06 1.5992551e-06 0 1.7424982e-06 0 0)
(5.3902248e-06 9.9840381e-07 0 8.9236447e-07 0 0)
(4.6160828e-06 5.2560669e-07 0 3.2223015e-07 0 0)
(4.1196754e-06 1.5368216e-07 0 3.5524676e-08 0 0)
(6.7039658e-05 5.9706098e-06 0 2.2852551e-05 0 0)
(8.2572882e-05 6.6827393e-06 0 2.5100076e-05 0 0)
(8.2749162e-05 1.1112542e-05 0 2.3529097e-05 0 0)
(8.0932064e-05 1.1392122e-05 0 2.199575e-05 0 0)
(7.6518196e-05 1.3811644e-05 0 2.0301076e-05 0 0)
(7.1884017e-05 1.4832858e-05 0 1.9214054e-05 0 0)
(6.6025581e-05 1.6231848e-05 0 1.8123647e-05 0 0)
(5.9401998e-05 1.6735702e-05 0 1.7554226e-05 0 0)
(5.2675703e-05 1.6748688e-05 0 1.6884707e-05 0 0)
(4.6191666e-05 1.6093344e-05 0 1.6400594e-05 0 0)
(4.0198584e-05 1.4985791e-05 0 1.5789589e-05 0 0)
(3.4595616e-05 1.3557318e-05 0 1.5020157e-05 0 0)
(2.9444306e-05 1.1917732e-05 0 1.3929248e-05 0 0)
(2.4710256e-05 1.0200775e-05 0 1.2599445e-05 0 0)
(2.0515144e-05 8.4782714e-06 0 1.1017854e-05 0 0)
(1.6836682e-05 6.8373054e-06 0 9.3179458e-06 0 0)
(1.3733556e-05 5.3467777e-06 0 7.5441806e-06 0 0)
(1.113514e-05 4.0445758e-06 0 5.8244444e-06 0 0)
(9.0324054e-06 2.9626671e-06 0 4.228464e-06 0 0)
(7.3439798e-06 2.0857292e-06 0 2.8451131e-06 0 0)
(6.0361436e-06 1.4003373e-06 0 1.7170446e-06 0 0)
(5.045164e-06 8.6717027e-07 0 8.7193078e-07 0 0)
(4.3411288e-06 4.5478925e-07 0 3.1238001e-07 0 0)
(3.8942216e-06 1.3240309e-07 0 3.4218587e-08 0 0)
(6.2519889e-05 1.5467651e-06 0 2.5699228e-05 0 0)
(8.1513995e-05 6.7292796e-06 0 3.1792304e-05 0 0)
(8.7452961e-05 6.851076e-06 0 2.9770349e-05 0 0)
(8.7338116e-05 1.2065765e-05 0 2.8432972e-05 0 0)
(8.4109305e-05 1.2229286e-05 0 2.6063901e-05 0 0)
(7.9023558e-05 1.5037442e-05 0 2.3710072e-05 0 0)
(7.2479816e-05 1.631991e-05 0 2.204116e-05 0 0)
(6.5003153e-05 1.7600599e-05 0 2.0516419e-05 0 0)
(5.7405533e-05 1.7705936e-05 0 1.943417e-05 0 0)
(5.0328544e-05 1.736525e-05 0 1.8612114e-05 0 0)
(4.3885836e-05 1.6299428e-05 0 1.7942715e-05 0 0)
(3.8010044e-05 1.4934707e-05 0 1.720675e-05 0 0)
(3.2607307e-05 1.3284588e-05 0 1.6161481e-05 0 0)
(2.7597107e-05 1.1522784e-05 0 1.4867494e-05 0 0)
(2.3093005e-05 9.7076442e-06 0 1.3270624e-05 0 0)
(1.909291e-05 7.9418003e-06 0 1.1509819e-05 0 0)
(1.5672283e-05 6.3019665e-06 0 9.6106241e-06 0 0)
(1.2770142e-05 4.8424617e-06 0 7.7097038e-06 0 0)
(1.0383595e-05 3.6116555e-06 0 5.8777653e-06 0 0)
(8.4330283e-06 2.6046033e-06 0 4.2255724e-06 0 0)
(6.884908e-06 1.8174624e-06 0 2.8114633e-06 0 0)
(5.671945e-06 1.2086683e-06 0 1.6814843e-06 0 0)
(4.7609754e-06 7.4622819e-07 0 8.4640466e-07 0 0)
(4.1118659e-06 3.9015349e-07 0 3.0107359e-07 0 0)
(3.708136e-06 1.1342149e-07 0 3.2782589e-08 0 0)
(5.8233059e-05 -4.0081655e-06 0 3.172131e-05 0 0)
(8.3903241e-05 -1.4941998e-06 0 3.8493417e-05 0 0)
(8.9051018e-05 6.7843677e-06 0 3.9473568e-05 0 0)
(9.5497433e-05 7.2945071e-06 0 3.8010096e-05 0 0)
(9.3696142e-05 1.2408223e-05 0 3.4919003e-05 0 0)
(8.9135768e-05 1.3360639e-05 0 3.136134e-05 0 0)
(8.1277016e-05 1.6623634e-05 0 2.7790525e-05 0 0)
(7.2216867e-05 1.7892854e-05 0 2.5302944e-05 0 0)
(6.3255043e-05 1.8723233e-05 0 2.2858886e-05 0 0)
(5.5065001e-05 1.8467968e-05 0 2.1467415e-05 0 0)
(4.7961892e-05 1.7645294e-05 0 2.0436019e-05 0 0)
(4.1653274e-05 1.628977e-05 0 1.9623102e-05 0 0)
(3.5953894e-05 1.4670332e-05 0 1.8579966e-05 0 0)
(3.0676879e-05 1.2887443e-05 0 1.7305093e-05 0 0)
(2.5872415e-05 1.1001567e-05 0 1.5707566e-05 0 0)
(2.1556132e-05 9.1227196e-06 0 1.3909269e-05 0 0)
(1.7821071e-05 7.3361784e-06 0 1.191518e-05 0 0)
(1.4617201e-05 5.7132746e-06 0 9.861285e-06 0 0)
(1.194692e-05 4.3197874e-06 0 7.8118079e-06 0 0)
(9.7315265e-06 3.1647654e-06 0 5.8966452e-06 0 0)
(7.9381784e-06 2.2572174e-06 0 4.1896177e-06 0 0)
(6.4978039e-06 1.5567008e-06 0 2.7609465e-06 0 0)
(5.3756082e-06 1.0319011e-06 0 1.6355066e-06 0 0)
(4.5253029e-06 6.3527344e-07 0 8.1679323e-07 0 0)
(3.9238892e-06 3.3253119e-07 0 2.8857967e-07 0 0)
(3.5548242e-06 9.6722263e-08 0 3.1247907e-08 0 0)
(6.9932707e-05 -1.7794738e-05 0 3.5097369e-05 0 0)
(8.6269029e-05 -6.3149262e-06 0 5.0617916e-05 0 0)
(9.6177952e-05 -3.7885566e-06 0 5.1338113e-05 0 0)
(0.00010167759 6.768033e-06 0 5.2311103e-05 0 0)
(0.00010680572 6.9152608e-06 0 4.8920792e-05 0 0)
(0.00010320963 1.2988867e-05 0 4.317629e-05 0 0)
(9.4082558e-05 1.5164647e-05 0 3.7806319e-05 0 0)
(8.2472468e-05 1.8278609e-05 0 3.250683e-05 0 0)
(7.1086716e-05 1.9182048e-05 0 2.8440152e-05 0 0)
(6.1086807e-05 1.9629705e-05 0 2.5365492e-05 0 0)
(5.2707569e-05 1.8835532e-05 0 2.3664835e-05 0 0)
(4.572806e-05 1.7665535e-05 0 2.2445661e-05 0 0)
(3.956948e-05 1.6036606e-05 0 2.1267885e-05 0 0)
(3.3962142e-05 1.4273377e-05 0 1.9954319e-05 0 0)
(2.8853891e-05 1.2346932e-05 0 1.8335365e-05 0 0)
(2.4220153e-05 1.0375748e-05 0 1.6510892e-05 0 0)
(2.0169247e-05 8.4503121e-06 0 1.444867e-05 0 0)
(1.6665641e-05 6.662047e-06 0 1.2274705e-05 0 0)
(1.3714658e-05 5.094719e-06 0 1.0033961e-05 0 0)
(1.1235811e-05 3.7744405e-06 0 7.8700131e-06 0 0)
(9.1962218e-06 2.7271702e-06 0 5.8688588e-06 0 0)
(7.5256809e-06 1.9166032e-06 0 4.1280852e-06 0 0)
(6.187246e-06 1.3155134e-06 0 2.6923291e-06 0 0)
(5.1322656e-06 8.6853155e-07 0 1.5811901e-06 0 0)
(4.3346879e-06 5.3646418e-07 0 7.8370606e-07 0 0)
(3.769991e-06 2.8184768e-07 0 2.7518571e-07 0 0)
(3.429219e-06 8.2280855e-08 0 2.9645926e-08 0 0)
(0.00011618078 -3.144208e-05 0 4.3629255e-05 0 0)
(0.00010912942 -3.1363396e-05 0 5.9874052e-05 0 0)
(0.00010372198 -8.623115e-06 0 6.9907913e-05 0 0)
(0.00011587816 -5.8815684e-06 0 7.1599683e-05 0 0)
(0.00012036396 5.2940975e-06 0 7.0052474e-05 0 0)
(0.00012313902 6.5919912e-06 0 6.2663487e-05 0 0)
(0.00011309154 1.4570422e-05 0 5.3408635e-05 0 0)
(9.7842807e-05 1.6973084e-05 0 4.5305125e-05 0 0)
(8.2693788e-05 1.9622695e-05 0 3.7028913e-05 0 0)
(6.945372e-05 2.0269062e-05 0 3.1749379e-05 0 0)
(5.8905662e-05 2.0073383e-05 0 2.8147495e-05 0 0)
(5.0585567e-05 1.8885172e-05 0 2.6107933e-05 0 0)
(4.3682142e-05 1.7415403e-05 0 2.4430946e-05 0 0)
(3.7551313e-05 1.5643746e-05 0 2.2906576e-05 0 0)
(3.2055265e-05 1.3719878e-05 0 2.1195226e-05 0 0)
(2.7088252e-05 1.1689911e-05 0 1.932005e-05 0 0)
(2.271088e-05 9.6427431e-06 0 1.7203934e-05 0 0)
(1.8904515e-05 7.6921879e-06 0 1.4941164e-05 0 0)
(1.5676246e-05 5.9430041e-06 0 1.2542892e-05 0 0)
(1.2938507e-05 4.441772e-06 0 1.0153899e-05 0 0)
(1.0656169e-05 3.234629e-06 0 7.8660424e-06 0 0)
(8.7564334e-06 2.2938739e-06 0 5.8048589e-06 0 0)
(7.199645e-06 1.5996562e-06 0 4.0380493e-06 0 0)
(5.9364308e-06 1.0907651e-06 0 2.6091672e-06 0 0)
(4.939618e-06 7.2332655e-07 0 1.5195045e-06 0 0)
(4.1804869e-06 4.4935738e-07 0 7.47956e-07 0 0)
(3.6450179e-06 2.3811635e-07 0 2.6115695e-07 0 0)
(3.3263892e-06 6.99929e-08 0 2.8006716e-08 0 0)
(0.00020816827 -4.6442853e-05 0 4.8289911e-05 0 0)
(0.00016555106 -5.1550357e-05 0 7.9308875e-05 0 0)
(0.00013535204 -4.3260114e-05 0 8.9949635e-05 0 0)
(0.00013267269 -1.118077e-05 0 0.00010029192 0 0)
(0.0001446009 -9.6627756e-06 0 9.9452154e-05 0 0)
(0.00014755987 3.5600489e-06 0 9.2305509e-05 0 0)
(0.0001408689 7.8639324e-06 0 7.9703553e-05 0 0)
(0.00012165266 1.5947208e-05 0 6.5364151e-05 0 0)
(0.00010072687 1.8396147e-05 0 5.2453011e-05 0 0)
(8.2317782e-05 2.0871233e-05 0 4.1774381e-05 0 0)
(6.7804824e-05 2.0802392e-05 0 3.5510214e-05 0 0)
(5.7106737e-05 2.0117016e-05 0 3.125354e-05 0 0)
(4.8715658e-05 1.8642811e-05 0 2.8539595e-05 0 0)
(4.1700203e-05 1.702317e-05 0 2.6390256e-05 0 0)
(3.5578428e-05 1.5084856e-05 0 2.4381389e-05 0 0)
(3.0181872e-05 1.3043766e-05 0 2.2371199e-05 0 0)
(2.5450911e-05 1.0907118e-05 0 2.0181158e-05 0 0)
(2.1326584e-05 8.8060036e-06 0 1.785225e-05 0 0)
(1.7819157e-05 6.869875e-06 0 1.5332019e-05 0 0)
(1.4829032e-05 5.1745971e-06 0 1.2751614e-05 0 0)
(1.2311104e-05 3.7875311e-06 0 1.0195121e-05 0 0)
(1.0187712e-05 2.6945316e-06 0 7.8137178e-06 0 0)
(8.4149927e-06 1.8876321e-06 0 5.6990521e-06 0 0)
(6.9434741e-06 1.3019169e-06 0 3.924887e-06 0 0)
(5.7435332e-06 8.9102234e-07 0 2.5126559e-06 0 0)
(4.7869016e-06 5.9467391e-07 0 1.4520564e-06 0 0)
(4.0576309e-06 3.7442033e-07 0 7.1027095e-07 0 0)
(3.5436768e-06 2.0103118e-07 0 2.4677514e-07 0 0)
(3.2421258e-06 5.9737372e-08 0 2.6357069e-08 0 0)
(0.00036162045 -6.3457707e-05 0 5.7092583e-05 0 0)
(0.00026479265 -7.9198823e-05 0 9.5449527e-05 0 0)
(0.00020158198 -7.1948765e-05 0 0.0001204263 0 0)
(0.00017482028 -5.5221448e-05 0 0.00013509445 0 0)
(0.00017623714 -1.6418759e-05 0 0.00014375362 0 0)
(0.00018630248 -1.3721936e-05 0 0.00013458898 0 0)
(0.00017789794 3.5681777e-06 0 0.00012018764 0 0)
(0.00015764378 8.539136e-06 0 9.986872e-05 0 0)
(0.00012966666 1.6890167e-05 0 7.6897545e-05 0 0)
(0.00010297484 1.9918939e-05 0 5.9862663e-05 0 0)
(8.1896866e-05 2.1473949e-05 0 4.7282387e-05 0 0)
(6.6760952e-05 2.0811718e-05 0 3.9684669e-05 0 0)
(5.5662125e-05 1.9860842e-05 0 3.4352046e-05 0 0)
(4.6892681e-05 1.8266142e-05 0 3.0915298e-05 0 0)
(3.9703626e-05 1.6457748e-05 0 2.8139261e-05 0 0)
(3.3599204e-05 1.440096e-05 0 2.5758041e-05 0 0)
(2.8411003e-05 1.2225294e-05 0 2.3408632e-05 0 0)
(2.3935342e-05 1.0001485e-05 0 2.1004343e-05 0 0)
(2.0134306e-05 7.880837e-06 0 1.8394343e-05 0 0)
(1.6895489e-05 5.9808806e-06 0 1.5661091e-05 0 0)
(1.4150947e-05 4.3941187e-06 0 1.2865273e-05 0 0)
(1.1813437e-05 3.1257987e-06 0 1.0174947e-05 0 0)
(9.8323289e-06 2.1832905e-06 0 7.7032919e-06 0 0)
(8.1568735e-06 1.502361e-06 0 5.5587965e-06 0 0)
(6.75342e-06 1.036379e-06 0 3.789734e-06 0 0)
(5.5959771e-06 7.1291033e-07 0 2.4055153e-06 0 0)
(4.6693202e-06 4.8453975e-07 0 1.3803169e-06 0 0)
(3.9599999e-06 3.1105962e-07 0 6.7142973e-07 0 0)
(3.4614725e-06 1.7023839e-07 0 2.3227388e-07 0 0)
(3.1727362e-06 5.1364865e-08 0 2.4720735e-08 0 0)
(0.00061281563 -7.8402694e-05 -6.3641715e-27 6.4276952e-05 5.2362681e-26 9.4420096e-47)
(0.00042708375 -0.00010580706 0 0.00011861395 0 0)
(0.00030931882 -0.00011044349 0 0.00015287763 0 0)
(0.00025200031 -9.4590547e-05 0 0.00018177059 0 0)
(0.00023319868 -7.0405512e-05 0 0.00019933408 0 0)
(0.00024005163 -2.1488713e-05 0 0.0001993899 0 0)
(0.00023404058 -1.5019599e-05 0 0.00017907413 0 0)
(0.00020866928 1.9527799e-06 0 0.00015296194 0 0)
(0.00017482178 8.8033653e-06 0 0.00011950985 0 0)
(0.00013699024 1.844544e-05 0 8.894522e-05 0 0)
(0.00010510046 2.0618709e-05 0 6.8512452e-05 0 0)
(8.2409177e-05 2.1361113e-05 0 5.3312484e-05 0 0)
(6.6216212e-05 2.0546685e-05 0 4.3828781e-05 0 0)
(5.4214351e-05 1.9496176e-05 0 3.7350304e-05 0 0)
(4.495602e-05 1.7707395e-05 0 3.3008168e-05 0 0)
(3.7638667e-05 1.5769724e-05 0 2.9728059e-05 0 0)
(3.1684406e-05 1.356424e-05 0 2.6975252e-05 0 0)
(2.6754696e-05 1.1265863e-05 0 2.4420571e-05 0 0)
(2.2623544e-05 8.9783524e-06 0 2.1726721e-05 0 0)
(1.9127422e-05 6.8671026e-06 0 1.8878166e-05 0 0)
(1.6164045e-05 5.0628957e-06 0 1.5880064e-05 0 0)
(1.3624439e-05 3.595864e-06 0 1.2904705e-05 0 0)
(1.1446723e-05 2.4922925e-06 0 1.007772e-05 0 0)
(9.5766967e-06 1.6935079e-06 0 7.5443391e-06 0 0)
(7.9746094e-06 1.1567683e-06 0 5.384736e-06 0 0)
(6.6172696e-06 7.9795056e-07 0 3.6365806e-06 0 0)
(5.4886569e-06 5.6103252e-07 0 2.2902722e-06 0 0)
(4.5792192e-06 3.9140895e-07 0 1.3058833e-06 0 0)
(3.8826885e-06 2.5879603e-07 0 6.3214497e-07 0 0)
(3.3944577e-06 1.4526447e-07 0 2.1786778e-07 0 0)
(3.1150164e-06 4.4713447e-08 0 2.3118541e-08 0 0)
(0.00096840562 -9.299293e-05 -8.0766222e-27 7.5059907e-05 -8.0701293e-26 2.8495776e-46)
(0.00068117895 -0.00013465101 4.3751812e-26 0.00014426958 3.988086e-27 1.0311598e-46)
(0.00047659753 -0.00014416808 0 0.00019076494 0 0)
(0.00036742511 -0.00014557281 0 0.00023635004 0 0)
(0.00032493535 -0.00012575526 0 0.00027079297 0 0)
(0.00031770222 -8.5648712e-05 0 0.00028200497 0 0)
(0.00031761174 -2.0540305e-05 0 0.00027072149 0 0)
(0.00028414722 -1.9427464e-05 0 0.00023280119 0 0)
(0.00024215486 -1.869213e-07 0 0.00018502937 0 0)
(0.00019135438 1.0716998e-05 0 0.0001399874 0 0)
(0.00014394959 1.9064058e-05 0 0.00010311202 0 0)
(0.00010863263 2.0265665e-05 0 7.7811192e-05 0 0)
(8.3650094e-05 2.1059276e-05 0 5.9222115e-05 0 0)
(6.5552123e-05 2.0241157e-05 0 4.7815811e-05 0 0)
(5.2489071e-05 1.8930327e-05 0 3.9961093e-05 0 0)
(4.285867e-05 1.7028887e-05 0 3.4830914e-05 0 0)
(3.5575106e-05 1.4931492e-05 0 3.1123226e-05 0 0)
(2.9871299e-05 1.257159e-05 0 2.8184432e-05 0 0)
(2.5312381e-05 1.0156388e-05 0 2.5349595e-05 0 0)
(2.1524349e-05 7.8394963e-06 0 2.2403062e-05 0 0)
(1.8342021e-05 5.8033317e-06 0 1.9242382e-05 0 0)
(1.5610538e-05 4.1142589e-06 0 1.6014432e-05 0 0)
(1.3250462e-05 2.8220168e-06 0 1.2846096e-05 0 0)
(1.1199403e-05 1.8789507e-06 0 9.9152857e-06 0 0)
(9.4094526e-06 1.2503246e-06 0 7.3359351e-06 0 0)
(7.8585236e-06 8.4377472e-07 0 5.1821116e-06 0 0)
(6.5271347e-06 5.948607e-07 0 3.4690924e-06 0 0)
(5.4123943e-06 4.3230628e-07 0 2.1687998e-06 0 0)
(4.5114932e-06 3.1534904e-07 0 1.2300234e-06 0 0)
(3.8212647e-06 2.1685618e-07 0 5.9297993e-07 0 0)
(3.3392573e-06 1.2561321e-07 0 2.0373039e-07 0 0)
(3.0662846e-06 3.9612961e-08 0 2.156557e-08 0 0)
(0.0014618993 -9.8379088e-05 2.2334259e-26 8.6367114e-05 8.7292871e-26 2.8711929e-46)
(0.0010300591 -0.00016064182 -5.8962966e-26 0.00017707676 -4.8647224e-27 6.4972676e-46)
(0.00073495047 -0.00018399109 0 0.00023853276 0 0)
(0.00053894649 -0.00018634809 0 0.00029591444 0 0)
(0.00045033808 -0.00019363198 0 0.00035683996 0 0)
(0.0004251266 -0.00015941236 0 0.00038713035 0 0)
(0.00042180835 -9.1998678e-05 0 0.00038952756 0 0)
(0.0003998515 -2.3610371e-05 0 0.00035568887 0 0)
(0.00034096361 -2.5041713e-05 0 0.00028712663 0 0)
(0.00027537394 5.6588683e-07 0 0.00021869177 0 0)
(0.00020713647 1.1502037e-05 0 0.00016388111 0 0)
(0.00015299333 1.8194347e-05 0 0.00011805674 0 0)
(0.00011323429 1.9918504e-05 0 8.6786533e-05 0 0)
(8.451121e-05 2.0856877e-05 0 6.4909024e-05 0 0)
(6.4342094e-05 1.9686242e-05 0 5.1265464e-05 0 0)
(5.0475162e-05 1.8242206e-05 0 4.2112745e-05 0 0)
(4.0672067e-05 1.622146e-05 0 3.6393672e-05 0 0)
(3.3582068e-05 1.3930657e-05 0 3.2537862e-05 0 0)
(2.8284077e-05 1.1389821e-05 0 2.9348637e-05 0 0)
(2.4113696e-05 8.8957228e-06 0 2.6261232e-05 0 0)
(2.0685141e-05 6.6218396e-06 0 2.2958204e-05 0 0)
(1.7764704e-05 4.6905513e-06 0 1.9513356e-05 0 0)
(1.5235294e-05 3.1816764e-06 0 1.6027885e-05 0 0)
(1.3018623e-05 2.0645694e-06 0 1.2703559e-05 0 0)
(1.1056196e-05 1.3177169e-06 0 9.6836219e-06 0 0)
(9.3238127e-06 8.4510106e-07 0 7.0849138e-06 0 0)
(7.7949863e-06 5.7641786e-07 0 4.9560155e-06 0 0)
(6.474254e-06 4.2207854e-07 0 3.2900917e-06 0 0)
(5.3613231e-06 3.2839405e-07 0 2.0442492e-06 0 0)
(4.4606908e-06 2.5494941e-07 0 1.1539159e-06 0 0)
(3.7719343e-06 1.8438651e-07 0 5.5442992e-07 0 0)
(3.2929495e-06 1.1077056e-07 0 1.9002808e-07 0 0)
(3.0242952e-06 3.5903952e-08 0 2.007389e-08 0 0)
(0.0020934596 -0.00010170431 0 9.9168145e-05 0 0)
(0.0015093674 -0.00017760426 3.7273167e-27 0.0002148858 2.2705648e-26 6.5157986e-46)
(0.0010784286 -0.00021679871 0 0.00029304746 0 0)
(0.00079863703 -0.00023702178 0 0.0003746186 0 0)
(0.00062717583 -0.00024436029 0 0.00044763229 0 0)
(0.00056155698 -0.00024928444 0 0.00051354415 0 0)
(0.00054228886 -0.00018534965 0 0.0005415389 0 0)
(0.00053973069 -0.00010192991 0 0.00052363904 0 0)
(0.00049358816 -3.0617209e-05 0 0.00043998309 0 0)
(0.00039910655 -2.5667361e-05 0 0.00034516401 0 0)
(0.00030693514 -3.1843328e-07 0 0.00025807349 0 0)
(0.00022605207 9.9686573e-06 0 0.00018851438 0 0)
(0.00016365573 1.7794751e-05 0 0.00013227033 0 0)
(0.00011696141 1.9970777e-05 0 9.5501492e-05 0 0)
(8.4377248e-05 2.0290378e-05 0 6.9866422e-05 0 0)
(6.2672115e-05 1.8986299e-05 0 5.392453e-05 0 0)
(4.8245947e-05 1.7485683e-05 0 4.3881222e-05 0 0)
(3.849259e-05 1.5260699e-05 0 3.8016529e-05 0 0)
(3.1823429e-05 1.2694803e-05 0 3.3973009e-05 0 0)