# y+ ()        
# Time         	patch          	min            	max            	average        
400            	cylinder	1.70405325e-01	1.13080076e+00	6.56640782e-01
