/*--------------------------------*- C++ -*----------------------------------*\
| =========                 |                                                 |
| \\      /  F ield         | OpenFOAM: The Open Source CFD Toolbox           |
|  \\    /   O peration     | Version:  5.0                                   |
|   \\  /    A nd           | Web:      www.OpenFOAM.org                      |
|    \\/     M anipulation  |                                                 |
\*---------------------------------------------------------------------------*/
FoamFile
{
    version     2.0;
    format      ascii;
    class       volScalarField;
    location    "120";
    object      p;
}
// * * * * * * * * * * * * * * * * * * * * * * * * * * * * * * * * * * * * * //

dimensions      [0 2 -2 0 0 0 0];

internalField   nonuniform List<scalar> 
9200
(
-0.00072869225
-0.00072018534
-0.0016590904
-0.00071083926
-0.001647626
-0.0028286312
-0.00069888213
-0.0016244556
-0.00280756
-0.0038814491
-0.00068150578
-0.0015935087
-0.0027704127
-0.003856818
-0.004967724
-0.00066142496
-0.0015496826
-0.0027205135
-0.003809208
-0.0049401509
-0.0060144321
-0.00063662091
-0.0014984509
-0.0026502018
-0.0037456246
-0.0048844064
-0.0059878026
-0.0070492463
-0.00060858781
-0.0014363575
-0.00256676
-0.0036550737
-0.0048106926
-0.0059281941
-0.007026096
-0.0080560138
-0.00057690459
-0.0013661702
-0.0024656478
-0.0035467785
-0.0047037974
-0.0058507969
-0.0069663674
-0.0080400957
-0.0090389099
-0.00054229495
-0.0012874095
-0.0023504735
-0.0034148702
-0.0045748035
-0.0057351476
-0.006890944
-0.0079852492
-0.0090334615
-0.0099902054
-0.00050507674
-0.0012014639
-0.0022208605
-0.0032637048
-0.004416216
-0.0055942364
-0.0067732903
-0.0079190545
-0.0089881889
-0.0099988749
-0.010910047
-0.0004658957
-0.0011089868
-0.0020788896
-0.0030928531
-0.0042330236
-0.0054184106
-0.0066281129
-0.0078073706
-0.0089383688
-0.0099682545
-0.010935838
-0.011790693
-0.00042544581
-0.0010109804
-0.0019259132
-0.0029049526
-0.0040246836
-0.0052130451
-0.0064430845
-0.0076668322
-0.0088412876
-0.009941916
-0.010924727
-0.011836905
-0.012630716
-0.00038457842
-0.00090826519
-0.0017638856
-0.0027018049
-0.003794477
-0.004976997
-0.0062237659
-0.0074820997
-0.0087151921
-0.009868088
-0.010929594
-0.011850389
-0.012701188
-0.013424021
-0.00034440231
-0.00080167422
-0.001594706
-0.0024859309
-0.0035448152
-0.0047136268
-0.0059682883
-0.007258663
-0.008541278
-0.0097665591
-0.010888324
-0.011894057
-0.012744157
-0.013521391
-0.014166869
-0.00030573602
-0.00069218592
-0.0014203962
-0.002259788
-0.0032787851
-0.0044254586
-0.0056801907
-0.0069934983
-0.008324712
-0.009614497
-0.010822068
-0.011894475
-0.012833209
-0.013598064
-0.014293858
-0.014855277
-0.00026875018
-0.00058066993
-0.0012430046
-0.0020259621
-0.0029994247
-0.004116372
-0.0053619233
-0.0066899389
-0.0080610639
-0.0094164109
-0.010703607
-0.01187421
-0.012884351
-0.013739522
-0.014409277
-0.01501415
-0.015485911
-0.00023288298
-0.00046823854
-0.0010642037
-0.0017869892
-0.0027100948
-0.0037901494
-0.005017534
-0.0063504939
-0.0077532184
-0.009166031
-0.010536525
-0.011801306
-0.012920954
-0.013850257
-0.014610209
-0.015171897
-0.015678546
-0.016055912
-0.00019622647
-0.00035669933
-0.00088545819
-0.001545192
-0.0024140646
-0.0034507899
-0.0046513912
-0.0059794262
-0.0074031216
-0.0088655475
-0.010312384
-0.01167813
-0.012905909
-0.013954288
-0.014788363
-0.015437597
-0.015881992
-0.016283723
-0.016563055
-0.00015543972
-0.00024835631
-0.00070814168
-0.0013029446
-0.0021143604
-0.0031022115
-0.0042681586
-0.0055813101
-0.0070150375
-0.0085162345
-0.010032293
-0.011493713
-0.012840118
-0.014009242
-0.014969964
-0.015691041
-0.01621786
-0.016535547
-0.016826991
-0.01700576
-0.0001060982
-0.0001461543
-0.00053323938
-0.0010627926
-0.0018138927
-0.0027481541
-0.0038724035
-0.0051612261
-0.0065937276
-0.0081220603
-0.0096964669
-0.011247822
-0.012709751
-0.01401437
-0.015106918
-0.015959846
-0.016553638
-0.0169455
-0.017129257
-0.017306295
-0.017383131
-4.339159e-05
-5.3551533e-05
-0.00036141978
-0.00082733373
-0.0015154395
-0.0023922252
-0.0034685663
-0.0047242859
-0.0061446347
-0.0076877112
-0.0093083435
-0.010939306
-0.012512873
-0.013952697
-0.015196577
-0.016190257
-0.016918421
-0.017369422
-0.017616548
-0.017660353
-0.017720262
-0.017694939
3.6928364e-05
2.586247e-05
-0.00019309806
-0.00059927381
-0.0012215707
-0.0020378293
-0.0030609333
-0.0042755645
-0.0056733944
-0.0072188207
-0.0088723405
-0.010570758
-0.012246625
-0.013820303
-0.015218565
-0.01637769
-0.01725308
-0.017837967
-0.018133808
-0.018227066
-0.018126766
-0.018068206
-0.017941604
0.00013758821
8.892486e-05
-2.8597912e-05
-0.0003813256
-0.00093471072
-0.0016881735
-0.0026535284
-0.0038199772
-0.0051857196
-0.0067214317
-0.0083941366
-0.010146044
-0.011912462
-0.013612283
-0.01516669
-0.016498223
-0.017551028
-0.018286666
-0.018712631
-0.018841055
-0.01877404
-0.018527094
-0.018350114
-0.01812415
0.00025907465
0.00013348951
0.00013164092
-0.00017603195
-0.00065716197
-0.0013463822
-0.0022501226
-0.0033621598
-0.0046872043
-0.0062017965
-0.0078800548
-0.0096706513
-0.011513415
-0.013328607
-0.015033687
-0.016543161
-0.01778471
-0.018707001
-0.019283989
-0.01953552
-0.019487358
-0.019255026
-0.018860631
-0.0185666
-0.018244203
0.00039932924
0.00015896032
0.00028689173
1.4402186e-05
-0.00039112382
-0.001015578
-0.0018542896
-0.0029064927
-0.0041831994
-0.0056661213
-0.0073368087
-0.0091509912
-0.011054525
-0.012971134
-0.014817708
-0.016502576
-0.017942748
-0.019067804
-0.019837513
-0.020236807
-0.02030129
-0.020068824
-0.019668347
-0.01912733
-0.018718879
-0.018303925
0.00055408368
0.00016686562
0.00043602525
0.00018823887
-0.0001386947
-0.00069886539
-0.0014694557
-0.0024571759
-0.0036788062
-0.0051204318
-0.006771211
-0.0085941006
-0.010542076
-0.01254416
-0.014519104
-0.016372467
-0.018012306
-0.019354905
-0.020338503
-0.020932966
-0.021138183
-0.021004364
-0.020582487
-0.020013014
-0.019327852
-0.018808755
-0.018305599
0.00071815396
0.00016199075
0.00057718851
0.00034435355
9.8153138e-05
-0.00039918745
-0.0010989302
-0.0020183204
-0.0031789207
-0.004570531
-0.006189994
-0.0080072942
-0.0099832645
-0.012053574
-0.014141095
-0.016151316
-0.017986924
-0.019552359
-0.02076997
-0.021585999
-0.021984864
-0.021980898
-0.021640385
-0.021026008
-0.020288968
-0.019463632
-0.018838567
-0.018250925
0.00088587049
0.00015387087
0.00070621483
0.00048233679
0.00031764455
-0.00011911972
-0.00074589486
-0.0015939995
-0.0026883032
-0.0040220357
-0.0055997253
-0.0073979367
-0.0093858014
-0.011506515
-0.013688877
-0.01584091
-0.017862859
-0.019650964
-0.021112732
-0.022176143
-0.022800308
-0.022984247
-0.022758857
-0.022205406
-0.021398026
-0.020496714
-0.019536686
-0.018810757
-0.018142529
0.0010469053
0.00014963878
0.0008145721
0.00060224194
0.00051811982
0.00013934511
-0.00041332652
-0.0011881993
-0.0022116277
-0.003480458
-0.0050068165
-0.0067733162
-0.0087576267
-0.010910909
-0.013169265
-0.015445409
-0.0176401
-0.019644423
-0.021354628
-0.022680941
-0.023562123
-0.023970749
-0.023923157
-0.023466349
-0.022696564
-0.021697723
-0.020636952
-0.019548825
-0.018727328
-0.017987076
0.0012026016
0.00013534442
0.00090333528
0.00070504888
0.00069715211
0.00037480065
-0.00010382386
-0.00080465212
-0.0017534651
-0.0029512742
-0.0044175897
-0.0061406263
-0.0081067338
-0.010275135
-0.012590193
-0.014970999
-0.017321401
-0.019530545
-0.021486499
-0.023085109
-0.024244615
-0.024915603
-0.025087436
-0.024793921
-0.024098752
-0.023111682
-0.021925055
-0.020710979
-0.019502059
-0.018591671
-0.017787877
0.0013744051
0.00010218072
0.00098394517
0.00079907834
0.00085170145
0.00058572816
0.00018040684
-0.00044656548
-0.0013181688
-0.0024399145
-0.003838345
-0.0055070256
-0.0074411121
-0.0096077961
-0.01196032
-0.014425347
-0.016911969
-0.019310293
-0.021503619
-0.023376372
-0.024829298
-0.025790026
-0.026224804
-0.026140616
-0.02558993
-0.024652206
-0.023449542
-0.022080824
-0.020720981
-0.019399596
-0.018408722
-0.017547398
0.0015531383
6.0430761e-05
0.0010577224
0.00088591394
0.00099119405
0.00077182928
0.00043667708
-0.00011655655
-0.00090961695
-0.0019516198
-0.0032753599
-0.004879713
-0.0067687857
-0.008917622
-0.011288752
-0.013817172
-0.016418892
-0.018987509
-0.02140476
-0.023547135
-0.025300593
-0.026572333
-0.027303624
-0.027477844
-0.027121494
-0.02630534
-0.025123929
-0.023709775
-0.022166479
-0.020669816
-0.01924533
-0.018181898
-0.017269597
0.0017292135
1.6245774e-05
0.0011356561
0.00093808893
0.0011252792
0.00094879567
0.00066305958
0.00018240795
-0.00053112246
-0.0014911153
-0.0027347659
-0.0042659402
-0.0060978846
-0.0082134819
-0.010584887
-0.013155899
-0.01585068
-0.018568345
-0.021191994
-0.023593593
-0.025647752
-0.027243535
-0.028299122
-0.028771456
-0.028663626
-0.028021997
-0.026935458
-0.025512087
-0.0238929
-0.022184205
-0.020560689
-0.019042829
-0.017914976
-0.016957448
0.0018956872
-3.1048033e-05
0.0012161695
0.0009794795
0.001234325
0.0011236034
0.00087707759
0.00044870546
-0.00018653616
-0.0010624605
-0.0022222131
-0.003672884
-0.0054366665
-0.0075044571
-0.009858403
-0.012451464
-0.015216863
-0.018060774
-0.020870142
-0.023515633
-0.025864029
-0.027789504
-0.029188881
-0.029993797
-0.030180092
-0.029771644
-0.028835202
-0.027476625
-0.025815883
-0.024000218
-0.022136708
-0.020397118
-0.018795931
-0.017611408
-0.016614582
0.0020462461
-7.9469722e-05
0.0012928995
0.0010281783
0.0013335833
0.0012456052
0.0010857519
0.00070424943
0.00012144632
-0.00067029706
-0.0017426941
-0.0031072703
-0.004793397
-0.0067998707
-0.0091193153
-0.011714261
-0.014527743
-0.017474153
-0.020446274
-0.023316316
-0.025946717
-0.028200241
-0.02995525
-0.031119104
-0.031640665
-0.031516486
-0.03079249
-0.029555281
-0.02792636
-0.026035459
-0.024033735
-0.022027142
-0.020182795
-0.018508357
-0.017274804
-0.016244469
0.0021748059
-0.00012547224
0.0013615552
0.001073906
0.001429186
0.0013462121
0.0012433799
0.0009527112
0.00041770555
-0.00031801873
-0.0013019617
-0.0025751278
-0.0041759571
-0.0061091789
-0.0083780178
-0.010955187
-0.013794295
-0.016818914
-0.019929245
-0.023001403
-0.025896678
-0.028470048
-0.030584721
-0.032126158
-0.033016435
-0.033224128
-0.032768546
-0.031717838
-0.030177688
-0.028283292
-0.026171851
-0.023996093
-0.021859035
-0.01992154
-0.018183851
-0.016908639
-0.015850369
0.0022760423
-0.00016594078
0.0014209084
0.0011110648
0.0015218639
0.0014535714
0.0013855111
0.00113038
0.00070616808
2.3169564e-05
-0.00090463949
-0.0020833484
-0.0035915424
-0.0054415468
-0.0076451827
-0.010185689
-0.013028199
-0.016106429
-0.019329336
-0.022578864
-0.025717925
-0.028597158
-0.031068258
-0.03299776
-0.034282662
-0.03486282
-0.034729309
-0.033925185
-0.03254071
-0.03069914
-0.028547142
-0.026226908
-0.023890473
-0.021636175
-0.019617248
-0.0178261
-0.016516318
-0.01543555
0.0023457369
-0.0001983438
0.0014698568
0.0011407327
0.0016039834
0.0015561487
0.0015258028
0.0012922698
0.00091872734
0.00035533928
-0.00051790754
-0.0016377589
-0.0030483787
-0.0048054796
-0.0069313262
-0.0094176783
-0.012241884
-0.015349009
-0.018658069
-0.022058491
-0.025417127
-0.028583374
-0.031401043
-0.033721247
-0.03541838
-0.036404467
-0.036640599
-0.036142168
-0.034976651
-0.033255494
-0.031117645
-0.028718641
-0.026203232
-0.023720498
-0.021362542
-0.019273834
-0.017438717
-0.016101159
-0.015002989
0.0023812231
-0.00022100234
0.001507364
0.0011639817
0.0016740214
0.0016430698
0.0016606793
0.0014600615
0.0011192228
0.00059964222
-0.00013864139
-0.0012013041
-0.0025538722
-0.0042106586
-0.0062463678
-0.0086630833
-0.011448461
-0.014559951
-0.017928181
-0.021451657
-0.025003192
-0.02843361
-0.031582216
-0.034288371
-0.036407081
-0.037824351
-0.038471245
-0.038332689
-0.037449907
-0.035914618
-0.033858057
-0.031432442
-0.028799504
-0.026104078
-0.023490139
-0.021042247
-0.018895188
-0.017025215
-0.015666306
-0.014555557
-0.00023250393
0.0023812229
0.0015321527
0.0011812929
0.0017311986
0.0017148379
0.0017783217
0.0016231074
0.0013202228
0.00083577703
0.00014603233
-0.00077183484
-0.0020667761
-0.0036662449
-0.0056015908
-0.0079333337
-0.010661277
-0.013753492
-0.017153663
-0.020771261
-0.024486994
-0.028155461
-0.031614461
-0.034695165
-0.037236767
-0.039102009
-0.040192922
-0.040462895
-0.039923058
-0.038641131
-0.036732355
-0.034345701
-0.031643962
-0.02879233
-0.025933237
-0.023203629
-0.020679453
-0.018485137
-0.016588971
-0.015214759
-0.014095903
0.0015440677
-0.000232504
0.0023457365
0.0011922565
0.0017746674
0.0017723168
0.0018777109
0.0017638604
0.0015151836
0.0010716213
0.00042876199
-0.00044778208
-0.0015847134
-0.0031267164
-0.0050082089
-0.007241413
-0.0098933307
-0.012944364
-0.016349733
-0.020031758
-0.02388127
-0.027758891
-0.03150359
-0.034941604
-0.037899953
-0.04022144
-0.04178119
-0.04250111
-0.042360072
-0.041396968
-0.039706095
-0.037424761
-0.034717147
-0.031753791
-0.028700492
-0.025694943
-0.022865381
-0.020278332
-0.018047401
-0.016133209
-0.014749332
-0.01362649
0.0011973552
0.0015440677
-0.00022100242
0.0022760417
0.0018028156
0.001815701
0.0019583677
0.0018813114
0.001684204
0.0013013666
0.000706579
-0.00011712837
-0.0012169425
-0.0025901738
-0.0044165052
-0.0066007943
-0.0091593947
-0.012147151
-0.01553241
-0.019249143
-0.023200638
-0.027256097
-0.03125821
-0.035031228
-0.038393438
-0.041171284
-0.043215891
-0.044419023
-0.044726299
-0.044144513
-0.042741297
-0.040636813
-0.037988384
-0.034972526
-0.03176455
-0.028528023
-0.025393761
-0.022479909
-0.019843
-0.017585574
-0.015660987
-0.014272649
-0.013149595
0.0018158176
0.0011973551
0.0015321522
-0.00019834401
0.0021748051
0.0018438715
0.0020197491
0.0019765614
0.0018264575
0.0015013768
0.00097595133
0.00020650943
-0.00083040019
-0.0021754014
-0.0038245413
-0.0059575905
-0.0084754527
-0.011378445
-0.01471782
-0.018440563
-0.0224616
-0.026661503
-0.030889545
-0.034970801
-0.038717998
-0.041944732
-0.044481512
-0.046192271
-0.046989785
-0.046846636
-0.04579944
-0.043944731
-0.041427153
-0.03842139
-0.035113298
-0.031679789
-0.028279485
-0.0250345
-0.02205176
-0.019377489
-0.017103088
-0.015175167
-0.013787144
-0.012667292
0.0018572683
0.0018158173
0.0011922563
0.0015073634
-0.00016594099
0.0020462451
0.0020599636
0.0020487369
0.0019418904
0.0016693604
0.0012102859
0.0005201166
-0.00045304147
-0.00172599
-0.0033584356
-0.0053102381
-0.0077835662
-0.010656912
-0.013924376
-0.01762358
-0.021682183
-0.025991774
-0.030411403
-0.0347701
-0.038878048
-0.04253931
-0.045567248
-0.047800989
-0.04912203
-0.049468096
-0.04884152
-0.047309842
-0.044997951
-0.042072824
-0.0387236
-0.035142147
-0.031503829
-0.027959868
-0.024622119
-0.021585466
-0.018885702
-0.016603191
-0.014678414
-0.013295048
-0.012181466
0.0020791669
0.0018572682
0.0018028151
0.0011812923
0.0014698559
-0.0001254726
0.0018956861
0.002095001
0.0020292518
0.0018050878
0.0014071427
0.00079327641
-8.8397795e-05
-0.0012893197
-0.0028370456
-0.0047892086
-0.0070825004
-0.0099206362
-0.013173585
-0.016818344
-0.020881199
-0.025265494
-0.029840191
-0.034441841
-0.038881405
-0.042956571
-0.046466918
-0.049230062
-0.051098729
-0.051976447
-0.051829478
-0.050691961
-0.048662743
-0.045893691
-0.042571442
-0.038896361
-0.035062829
-0.031241646
-0.027574476
-0.024161674
-0.021085482
-0.018371357
-0.016088905
-0.014173198
-0.012798427
-0.011693818
0.0021157149
0.0020791668
0.0018438709
0.0017746666
0.001163981
0.0014209073
-7.9470108e-05
0.0017292122
0.0020858478
0.0019077683
0.0015664741
0.0010227811
0.00022928359
-0.00086828311
-0.0023325777
-0.0041870779
-0.0065028126
-0.0091691828
-0.012399674
-0.016049284
-0.020080382
-0.02450245
-0.029194641
-0.034001688
-0.038739172
-0.043201844
-0.047178714
-0.050469196
-0.052900226
-0.054342973
-0.054727252
-0.054050815
-0.05238096
-0.049847376
-0.046626776
-0.042922483
-0.038942433
-0.034880017
-0.030898745
-0.027128856
-0.023658214
-0.020556085
-0.017837933
-0.015563098
-0.013661867
-0.012299145
-0.011205969
0.0021122336
0.0021157146
0.002059963
0.0018157003
0.0017311976
0.0011407317
0.0013615538
-3.1048591e-05
0.0015531369
0.0019743541
0.0016869498
0.0012083042
0.00049600367
-0.00050097893
-0.0018477046
-0.0036074937
-0.0058100636
-0.0085279418
-0.011603404
-0.015246824
-0.019307116
-0.023725708
-0.028495132
-0.033468016
-0.038465723
-0.043284063
-0.04770494
-0.051512746
-0.054511772
-0.056543349
-0.057501867
-0.057347169
-0.056110804
-0.053893761
-0.050855266
-0.047194231
-0.043127177
-0.038865809
-0.034599193
-0.030481078
-0.02662867
-0.02311664
-0.020001311
-0.017288821
-0.01502858
-0.013146508
-0.011798782
-0.010719331
0.0020054814
0.0021122334
0.0020950006
0.0020197483
0.0017723157
0.0016740199
0.0011110638
0.001292898
1.6245167e-05
0.0013744036
0.0017651187
0.0013484963
0.00071153312
-0.00019265314
-0.0014244685
-0.0030520656
-0.0051464587
-0.0077350169
-0.010898258
-0.014413683
-0.018488069
-0.02296554
-0.027765708
-0.032861315
-0.038078487
-0.043215709
-0.048051791
-0.05235947
-0.055923455
-0.058558111
-0.060124314
-0.060544077
-0.059810459
-0.057990335
-0.055218065
-0.051680326
-0.047595166
-0.043188363
-0.038671607
-0.034226532
-0.029994867
-0.026079472
-0.022541629
-0.019425218
-0.016727454
-0.014487754
-0.012628604
-0.011298753
-0.010234587
0.0018017808
0.0020054814
0.0020858475
0.002048736
0.0019583665
0.0017148366
0.0016039817
0.0010739047
0.0012161677
6.0429983e-05
0.0012026001
0.0014395163
0.00087425193
5.6320638e-05
-0.0010692271
-0.0025668319
-0.0045125283
-0.006979082
-0.009995395
-0.013643478
-0.017628786
-0.022144826
-0.027039366
-0.032206118
-0.037597468
-0.043012606
-0.048229222
-0.053012249
-0.05712999
-0.060372713
-0.062570252
-0.063607956
-0.063439419
-0.062093391
-0.059672796
-0.056344109
-0.052318933
-0.047830671
-0.043110356
-0.038365965
-0.033768704
-0.029446308
-0.025486645
-0.021938037
-0.018832056
-0.016156604
-0.013941841
-0.01210965
-0.010801113
-0.0097524825
0.0014823379
0.0018017809
0.0019743537
0.002029251
0.0019765603
0.0018777095
0.001643068
0.0015218619
0.0010281768
0.0011356542
0.00010217986
0.0010469038
0.00097994291
0.00024413601
-0.00078254324
-0.0021594158
-0.003958325
-0.0062590404
-0.0091382247
-0.012621648
-0.016793565
-0.021273063
-0.026235132
-0.031537871
-0.037047068
-0.042693568
-0.04825072
-0.053477866
-0.058130394
-0.061977378
-0.064820214
-0.066509535
-0.066959773
-0.066159426
-0.064174669
-0.061144266
-0.057264863
-0.052769766
-0.047903726
-0.042898866
-0.037955774
-0.033232459
-0.02884151
-0.024855972
-0.021311116
-0.018225026
-0.01557714
-0.01339268
-0.011593776
-0.010307832
-0.0092543036
0.0010298217
0.0014823378
0.0017651184
0.0019077678
0.0019418895
0.0018813099
0.0017783199
0.0015561467
0.0014291838
0.00097947781
0.0010577203
0.00013534328
0.00088586894
0.00036619195
-0.00056648459
-0.0018307826
-0.0034928566
-0.0056289941
-0.0083239662
-0.01165486
-0.015644508
-0.02037459
-0.025367657
-0.030771572
-0.036464769
-0.042282102
-0.048133113
-0.053766693
-0.058927615
-0.063366748
-0.066859538
-0.069224221
-0.070337379
-0.070146577
-0.068677875
-0.066035742
-0.062393628
-0.057975944
-0.053033834
-0.047819115
-0.042560692
-0.03744818
-0.032624613
-0.028187296
-0.024193882
-0.020664558
-0.017604434
-0.014991429
-0.012848094
-0.011084232
-0.0097891181
-0.0087344461
0.00042396822
0.0010298215
0.0014395163
0.0016869495
0.001805087
0.001826456
0.0017638588
0.0016606774
0.001453569
0.0013335807
0.00093808723
0.00098394314
0.00014963746
0.00071815235
-0.00042602211
-0.0015833126
-0.0031175404
-0.0050995394
-0.0076108257
-0.010738592
-0.014559919
-0.019091547
-0.02440958
-0.029928311
-0.035761263
-0.041817167
-0.047898106
-0.053892697
-0.059528096
-0.064539298
-0.068678066
-0.071732149
-0.07354241
-0.074016017
-0.073137122
-0.070971236
-0.067660969
-0.063412813
-0.058475668
-0.053114405
-0.047583093
-0.04210309
-0.036850586
-0.031953087
-0.027491433
-0.023504605
-0.019997922
-0.016973387
-0.014411989
-0.012312604
-0.010532881
-0.0092504487
-0.0082024832
-0.0003593518
0.00042396839
0.00097994303
0.0013484961
0.0015664735
0.0016693595
0.0016842025
0.0016231055
0.0015258005
0.0013462096
0.0012343224
0.00088591194
0.00090333313
0.00015386942
0.00055408207
-0.0014223682
-0.002835141
-0.004672715
-0.0070111355
-0.0099352399
-0.013533956
-0.017881748
-0.022987632
-0.02891658
-0.03496533
-0.041204713
-0.04758541
-0.053874734
-0.059941983
-0.065496699
-0.070269216
-0.07401804
-0.076549563
-0.077732682
-0.077509203
-0.075902671
-0.073018934
-0.06903787
-0.064196744
-0.05876511
-0.053016616
-0.047202629
-0.041533841
-0.036172028
-0.031227147
-0.026758718
-0.022786802
-0.019315231
-0.016350902
-0.013844687
-0.01170484
-0.0099685406
-0.0086965617
-0.0076606302
-0.0013457923
-0.0003593518
0.00036619187
0.00087425176
0.0012083041
0.0014071423
0.0015013756
0.0015151817
0.0014600596
0.0013855087
0.0012456023
0.0011252763
0.00079907621
0.00081456988
0.00016198938
0.00039932767
-0.0026514209
-0.0043517613
-0.0065277096
-0.0092590804
-0.012633344
-0.016738947
-0.021646033
-0.027353218
-0.033908342
-0.040482411
-0.047095605
-0.053752385
-0.060184093
-0.066244255
-0.071629063
-0.076069748
-0.079338174
-0.081265769
-0.081753935
-0.080782918
-0.078417395
-0.074803543
-0.070157376
-0.064743546
-0.05884763
-0.052746611
-0.046685539
-0.040863019
-0.035423373
-0.030452124
-0.025986726
-0.022045745
-0.01864361
-0.01574395
-0.01316649
-0.011091676
-0.0093843468
-0.0081320498
-0.00710831
-0.0025638252
-0.0013457923
-0.00042602168
0.00024413629
0.00071153323
0.0010227808
0.0012102851
0.0013013654
0.0013202209
0.0012922676
0.0012433772
0.0011236005
0.00099119114
0.00070504662
0.00070621242
0.00016686423
0.00025907321
-0.0041428914
-0.0061643686
-0.0087138984
-0.011874449
-0.015734407
-0.020379864
-0.025874336
-0.032203837
-0.039390993
-0.046476442
-0.053420011
-0.060292829
-0.066791397
-0.072757078
-0.077876952
-0.081890239
-0.084588768
-0.085835291
-0.085566983
-0.083805883
-0.080658623
-0.076311368
-0.0710139
-0.065054078
-0.058727869
-0.052311762
-0.046042758
-0.040103139
-0.034610437
-0.029624244
-0.025182323
-0.021318103
-0.017991105
-0.01497449
-0.01249368
-0.010453194
-0.0087893335
-0.0075555469
-0.006546498
-0.0040431347
-0.0025638249
-0.0014223674
-0.00056648417
5.6320645e-05
0.00049600348
0.00079327626
0.00097595074
0.0010716198
0.0011192205
0.0011303778
0.0010857491
0.00094879251
0.00085169836
0.00060223975
0.00057718615
0.00015895902
0.00013758694
-0.0059278314
-0.0083042517
-0.011262286
-0.014886671
-0.019265222
-0.024479098
-0.030583572
-0.037548713
-0.045363416
-0.05293668
-0.060155241
-0.067174079
-0.073655892
-0.079432376
-0.084188135
-0.087678022
-0.089719969
-0.090213779
-0.089135035
-0.086549931
-0.082607365
-0.077532549
-0.071605042
-0.065130708
-0.058412138
-0.051723572
-0.045288422
-0.039260373
-0.033727708
-0.028752391
-0.024393344
-0.020613273
-0.01711241
-0.014222853
-0.011787313
-0.009803919
-0.0081811632
-0.006968718
-0.0059754317
-0.0058147112
-0.0040431342
-0.0026514203
-0.0015833119
-0.00078254239
-0.00019265275
0.00022928372
0.00052011627
0.00070657813
0.00083577561
0.00091872522
0.00095270886
0.00087707458
0.00077182612
0.0006971491
0.00048233464
0.00043602295
0.00013348828
3.6927313e-05
-0.0080374607
-0.010802323
-0.014202347
-0.018322786
-0.023248782
-0.029054614
-0.035784883
-0.043390076
-0.051816194
-0.059843044
-0.067270499
-0.074357666
-0.08073046
-0.086217006
-0.09050764
-0.093379318
-0.094682653
-0.094358691
-0.092424251
-0.088990513
-0.084249081
-0.078460642
-0.071930087
-0.064977917
-0.057912067
-0.050997657
-0.044428754
-0.038326981
-0.03278644
-0.027897523
-0.02363086
-0.019603248
-0.016266564
-0.013427151
-0.011071375
-0.0091410013
-0.0075622558
-0.0063717648
-0.0053957749
-0.0079097445
-0.0058147108
-0.0041428906
-0.0028351397
-0.0018307812
-0.0010692263
-0.00050097879
-8.8397942e-05
0.00020650933
0.00042876138
0.00059964067
0.00070616572
0.00070424724
0.0006630567
0.00058572493
0.00051811683
0.00034435158
0.00028688967
8.892378e-05
-4.3392423e-05
-0.010502616
-0.013688051
-0.017561257
-0.022206285
-0.027703868
-0.03411911
-0.041482962
-0.049722497
-0.058729475
-0.067166521
-0.074729801
-0.081798255
-0.087961695
-0.093054276
-0.096778805
-0.098940405
-0.099429835
-0.098230448
-0.095404359
-0.091107792
-0.085572687
-0.079091055
-0.071990819
-0.064606912
-0.057244497
-0.050139814
-0.043453054
-0.037316854
-0.031863122
-0.027072648
-0.022466681
-0.018643538
-0.015362989
-0.012623727
-0.010341462
-0.0084674925
-0.0069326107
-0.0057656828
-0.0048080343
-0.01035905
-0.0079097442
-0.0059278298
-0.0043517594
-0.0031175388
-0.0021594144
-0.0014244672
-0.00086828251
-0.00045304125
-0.00011712858
0.00014603156
0.00035533798
0.00041770345
0.00044870329
0.00043667419
0.00037479765
0.00031764184
0.00018823703
0.00013163904
2.5861496e-05
-0.00010609882
-0.013352737
-0.016988657
-0.021362859
-0.02655672
-0.032644515
-0.039679252
-0.047675591
-0.056527855
-0.066073648
-0.074874643
-0.082490019
-0.089442842
-0.095291745
-0.099885309
-0.1029441
-0.10430909
-0.10391637
-0.10179311
-0.098049789
-0.092885811
-0.086568928
-0.079421977
-0.07179736
-0.064035371
-0.056414114
-0.049135343
-0.042378317
-0.036324849
-0.030973064
-0.025728177
-0.021372822
-0.017609249
-0.014454144
-0.011806839
-0.0096008917
-0.0077832278
-0.0062935225
-0.0051511922
-0.0042128076
-0.013192068
-0.010359049
-0.0080374587
-0.0061643664
-0.0046727129
-0.0034928543
-0.0025668297
-0.0018477033
-0.0012893193
-0.00083040015
-0.00044778189
-0.00013864182
2.3168232e-05
0.00012144427
0.00018240614
0.00018040431
0.00013934225
9.8150592e-05
1.4400561e-05
-2.8599524e-05
-5.3552359e-05
-0.00015544018
-0.016615061
-0.020728169
-0.025627094
-0.03138893
-0.03807886
-0.045735177
-0.054348772
-0.063781645
-0.073819895
-0.082927786
-0.090498843
-0.097232709
-0.10266055
-0.10664938
-0.1089461
-0.10943482
-0.10810001
-0.10501551
-0.1003396
-0.094310022
-0.087231568
-0.079461734
-0.071367767
-0.063265944
-0.05540084
-0.048004805
-0.041321046
-0.035369147
-0.029419898
-0.02447703
-0.020183764
-0.016573236
-0.013532844
-0.010979842
-0.0088499253
-0.0070897067
-0.0056458627
-0.0045292467
-0.0036105853
-0.016436046
-0.013192068
-0.010502614
-0.0083042491
-0.0065277062
-0.0050995361
-0.0039583223
-0.0030520634
-0.0023325758
-0.001725989
-0.0012169419
-0.00077183469
-0.000517908
-0.00031801962
-0.00018653769
-0.00011655812
-0.0001038262
-0.00011912225
-0.00013869692
-0.00017603344
-0.0001930995
-0.00014615504
-0.00019622682
-0.020313689
-0.02492671
-0.030369231
-0.036711958
-0.044008541
-0.052276965
-0.061484897
-0.071460617
-0.081933978
-0.091275588
-0.09869568
-0.1051081
-0.11000497
-0.11328519
-0.11472892
-0.11426972
-0.11194317
-0.10787139
-0.10225376
-0.095369029
-0.087566459
-0.079228272
-0.070701429
-0.06227134
-0.054229163
-0.04689039
-0.040302836
-0.033575856
-0.027986731
-0.023105879
-0.018997829
-0.015526281
-0.012602371
-0.010143206
-0.0080898681
-0.0063879548
-0.0049908696
-0.0039001119
-0.0030021499
-0.020115123
-0.016436046
-0.013352735
-0.01080232
-0.008713894
-0.0070111313
-0.0056289905
-0.0045125249
-0.0036074906
-0.0028370437
-0.0021754005
-0.0015847129
-0.0012013034
-0.00090463936
-0.00067029774
-0.00053112373
-0.00044656659
-0.00041332843
-0.00039918977
-0.00039112589
-0.00038132691
-0.00036142101
-0.00024835696
-0.00023288327
-0.024468826
-0.029599771
-0.035598926
-0.042528474
-0.050426687
-0.059289243
-0.069062824
-0.07954365
-0.090370793
-0.0998543
-0.10702244
-0.11300459
-0.11726041
-0.11973199
-0.120239
-0.11877081
-0.11541361
-0.11033538
-0.10377496
-0.096065706
-0.087591051
-0.078716288
-0.069761456
-0.061080315
-0.053071837
-0.045817618
-0.038235142
-0.031933828
-0.026403021
-0.021744502
-0.017802706
-0.014471599
-0.01166309
-0.0092982063
-0.0073221818
-0.0056795035
-0.0043282539
-0.0032648878
-0.0023881556
-0.024249552
-0.020115122
-0.016615058
-0.013688047
-0.011262281
-0.0092590754
-0.0076108202
-0.0062590354
-0.0051464548
-0.0041870747
-0.0033584329
-0.0025901723
-0.002066775
-0.0016377581
-0.0013019614
-0.0010624606
-0.00090961764
-0.00080465302
-0.00074589661
-0.00069886743
-0.00065716377
-0.00059927504
-0.00053324052
-0.00035669996
-0.00026875047
-0.029096067
-0.034757374
-0.041319555
-0.04883371
-0.057320424
-0.066753083
-0.077061131
-0.0879763
-0.099062153
-0.10861134
-0.11541399
-0.12085557
-0.1243617
-0.12593099
-0.12542721
-0.12290106
-0.11848186
-0.11238332
-0.10490269
-0.096416905
-0.08729381
-0.077876237
-0.06858125
-0.059901993
-0.051958894
-0.043438583
-0.036355482
-0.030103656
-0.024837737
-0.020375799
-0.016601812
-0.013409326
-0.010716338
-0.0084467481
-0.0065485409
-0.0049630048
-0.0036602032
-0.0026242343
-0.0017692724
-0.028854986
-0.024249551
-0.020313686
-0.016988653
-0.014202342
-0.011874443
-0.0099352331
-0.0083239599
-0.0069790766
-0.0058100586
-0.0047892042
-0.0038245384
-0.0031267149
-0.0025538711
-0.0020833471
-0.0017426933
-0.0014911152
-0.0013181694
-0.0011881999
-0.0010989316
-0.0010155799
-0.00093471245
-0.00082733486
-0.00070814269
-0.00046823913
-0.00030573632
-0.034205619
-0.040403366
-0.047527669
-0.055616727
-0.06467234
-0.074646541
-0.085424521
-0.096701104
-0.10796406
-0.11748251
-0.12380248
-0.1285922
-0.13124514
-0.1318266
-0.13025114
-0.12662479
-0.12111766
-0.11401067
-0.10565361
-0.096403363
-0.086608915
-0.076746318
-0.067413585
-0.058771531
-0.049229412
-0.041291023
-0.034241383
-0.028302954
-0.02326745
-0.019003888
-0.015394923
-0.012340787
-0.0097644663
-0.0075902084
-0.0057663149
-0.0042416214
-0.0029874859
-0.0019792094
-0.0011461607
-0.033941714
-0.028854985
-0.024468823
-0.020728164
-0.017561251
-0.014886665
-0.012633337
-0.010738584
-0.009138217
-0.00773501
-0.006502807
-0.0053102335
-0.0044165016
-0.0036662426
-0.003048377
-0.0025751265
-0.0022222123
-0.0019516194
-0.0017534652
-0.001594
-0.0014694571
-0.0013463839
-0.0012215723
-0.0010627938
-0.00088545919
-0.00058067052
-0.00034440265
-0.039801593
-0.04653504
-0.054213552
-0.062861034
-0.07245953
-0.082926125
-0.094113763
-0.10567896
-0.11701513
-0.1264008
-0.13211553
-0.13614669
-0.13784971
-0.137369
-0.13467053
-0.12990714
-0.12331199
-0.11523554
-0.10599982
-0.095938628
-0.085579153
-0.07563232
-0.066298338
-0.055651186