/*--------------------------------*- C++ -*----------------------------------*\
| =========                 |                                                 |
| \\      /  F ield         | OpenFOAM: The Open Source CFD Toolbox           |
|  \\    /   O peration     | Version:  5.0                                   |
|   \\  /    A nd           | Web:      www.OpenFOAM.org                      |
|    \\/     M anipulation  |                                                 |
\*---------------------------------------------------------------------------*/
FoamFile
{
    version     2.0;
    format      ascii;
    class       surfaceScalarField;
    location    "120";
    object      phi;
}
// * * * * * * * * * * * * * * * * * * * * * * * * * * * * * * * * * * * * * //

dimensions      [0 3 -1 0 0 0 0];

internalField   nonuniform List<scalar> 
18180
(
0.0016275245
-1.3749626
0.0031410782
-1.2862074
0.0015972829
-1.3765599
0.0045395123
-1.2032643
0.0030771668
-1.2876873
0.0015586164
-1.3781185
0.005826235
-1.1257216
0.0044495559
-1.2046367
0.0030068864
-1.2891356
0.0015335952
-1.3796521
0.0070044078
-1.053257
0.0057147656
-1.1269869
0.0043510033
-1.2059808
0.002959665
-1.2905616
0.001506199
-1.3811583
0.0080785197
-0.98549507
0.0068771898
-1.0544195
0.0055926935
-1.1282285
0.004287403
-1.2073086
0.0029096912
-1.2919651
0.0014819275
-1.3826402
0.0090516039
-0.92211082
0.0079400693
-0.98655795
0.0067369678
-1.0555637
0.0055192947
-1.1294604
0.0042201503
-1.208619
0.0028657542
-1.2933489
0.0014548086
-1.3840951
0.0099281765
-0.86279826
0.0089067742
-0.92307753
0.007786493
-0.98760747
0.0066603499
-1.0567048
0.005441257
-1.1306815
0.0041629751
-1.2099162
0.0028167271
-1.2947109
0.0014257372
-1.3855208
0.010712734
-0.8072816
0.009781121
-0.86367261
0.0087446077
-0.92403564
0.0077131408
-0.98866027
0.0065781097
-1.0578416
0.0053787214
-1.1318973
0.0040984274
-1.2111979
0.0027643579
-1.2960495
0.0013919536
-1.3869127
0.011410594
-0.7553047
0.010567362
-0.80806784
0.0096145871
-0.86454259
0.0086805649
-0.92500306
0.0076330293
-0.98971518
0.0065181722
-1.0589811
0.0053065737
-1.1331054
0.0040300312
-1.2124636
0.0027029288
-1.2973605
0.0013534539
-1.3882662
0.012027542
-0.70663662
0.011270259
-0.7560076
0.010400331
-0.80885358
0.009565379
-0.8654274
0.0086083932
-0.92597843
0.0075835739
-0.99078059
0.0064463551
-1.0601209
0.0052310408
-1.1343064
0.0039484021
-1.2137091
0.0026326719
-1.2986397
0.0013090192
-1.3895752
0.012570077
-0.66106072
0.011894983
-0.70726134
0.011106172
-0.75671344
0.010370839
-0.80965904
0.0095062645
-0.86632527
0.0085767857
-0.92697164
0.0075197911
-0.99185402
0.006372847
-1.0612627
0.005138362
-1.1354964
0.00385435
-1.2149308
0.0025509743
-1.2998816
0.0012586969
-1.3908339
0.013045543
-0.61837669
0.012447205
-0.66161294
0.01173697
-0.70789214
0.011100562
-0.75744316
0.010329169
-0.81048195
0.0094991503
-0.86724764
0.0085281663
-0.92798002
0.0074575397
-0.99293871
0.0062783798
-1.0624027
0.0050305371
-1.1366726
0.0037436078
-1.2161234
0.0024578039
-1.3010807
0.0012025398
-1.3920365
0.013462525
-0.57839449
0.012933255
-0.61886274
0.012298156
-0.66217412
0.011758594
-0.70855017
0.011080035
-0.75819403
0.0103522
-0.811335
0.0094720505
-0.86819152
0.0084858237
-0.9290083
0.0073706042
-0.99403094
0.0061669607
-1.0635391
0.0049007493
-1.1378297
0.0036161533
-1.2172817
0.0023529017
-1.3022311
0.0011404787
-1.3931769
0.01383141
-0.54092878
0.013360725
-0.57882196
0.01279583
-0.61936042
0.012349481
-0.66276501
0.011762233
-0.70923237
0.011137605
-0.75897944
0.010352125
-0.81221507
0.009457456
-0.86916315
0.0084151822
-0.93005288
0.0072658658
-0.99512984
0.0060284391
-1.0646668
0.0047493471
-1.1389629
0.0034707921
-1.2183996
0.0022363588
-1.303327
0.001072906
-1.3942498
0.014164441
-0.50579363
0.013739421
-0.54130747
0.013237181
-0.57926331
0.012878361
-0.6198893
0.012379403
-0.66338218
0.011857678
-0.70995244
0.011169284
-0.75979659
0.010372016
-0.81312963
0.0094111121
-0.87015908
0.008326964
-0.93111398
0.0071291292
-0.99623053
0.0058639468
-1.0657814
0.0045742668
-1.1400664
0.0033080687
-1.2194713
0.0021089373
-1.304363
0.0010003376
-1.3952502
0.014475314
-0.47279508
0.014082191
-0.5061364
0.013631065
-0.54170136
0.013351368
-0.57973632
0.012936121
-0.62044601
0.012515269
-0.66403977
0.011924884
-0.71070804
0.01122915
-0.76065373
0.01035703
-0.81407555
0.0093485216
-0.87118064
0.0082021614
-0.93218701
0.0069626661
-0.99732925
0.0056698738
-1.066877
0.0043759037
-1.1411342
0.0031290486
-1.2204915
0.0019714031
-1.3053341
0.00092347955
-1.3961737
0.014777715
-0.44173142
0.014405602
-0.47311849
0.013988677
-0.50649401
0.013776277
-0.54212627
0.01343789
-0.58023809
0.013113938
-0.62104468
0.012620896
-0.66473578
0.012028889
-0.71150778
0.011251522
-0.76154822
0.010328131
-0.81505516
0.0092451965
-0.87222368
0.0080446018
-0.93326894
0.0067607723
-0.99842015
0.0054466677
-1.0679478
0.0041549623
-1.1421601
0.0029344875
-1.2214545
0.0018250814
-1.3062357
0.00084310025
-1.3970168
0.015082824
-0.41239713
0.014728848
-0.44205466
0.014323981
-0.47345379
0.014163448
-0.50688118
0.013891699
-0.54258007
0.013658076
-0.58078222
0.013259722
-0.62168351
0.012771908
-0.6654788
0.012093577
-0.71234983
0.011263191
-0.76248328
0.01025495
-0.81606491
0.0091069104
-0.87328599
0.0078459843
-0.93435415
0.0065241812
-0.99949766
0.0051947762
-1.0689876
0.0039127716
-1.1431384
0.0027263196
-1.2223558
0.0016714031
-1.307064
0.00076004733
-1.3977768
0.015396406
-0.38459635
0.015070919
-0.4127392
0.014652849
-0.44238353
0.014526524
-0.47381687
0.014306862
-0.50729635
0.014153514
-0.54307551
0.013844732
-0.58136723
0.013459583
-0.62237118
0.012882642
-0.66626787
0.012151361
-0.713238
0.011227781
-0.76345611
0.01014547
-0.81710347
0.008922336
-0.87436234
0.0076074532
-0.93543743
0.006252431
-1.0005553
0.0049152582
-1.0699901
0.0036517235
-1.1440638
0.0025064493
-1.2231908
0.0015119924
-1.3078159
0.00067520439
-1.398452
0.015716519
-0.3581591
0.01544644
-0.38497187
0.014990824
-0.41307718
0.014881943
-0.44273895
0.014695676
-0.47420568
0.014608417
-0.50775125
0.014380714
-0.54361149
0.014094194
-0.58200184
0.013618896
-0.62310744
0.012990845
-0.66710735
0.012160185
-0.71417041
0.011155581
-0.76446622
0.0099850453
-0.81816618
0.0086931309
-0.87544801
0.0073272357
-0.93651223
0.0059465951
-1.0015867
0.0046108451
-1.0709492
0.0033737866
-1.1449312
0.0022772098
-1.223956
0.0013485427
-1.3084893
0.00058945665
-1.3990415
0.016032731
-0.33295726
0.015861301
-0.35857396
0.015349677
-0.38533072
0.015246871
-0.41344211
0.015073163
-0.44311644
0.015034046
-0.47463131
0.014874686
-0.50824522
0.014679402
-0.5441967
0.014303474
-0.58268642
0.013780593
-0.62389719
0.013049101
-0.66799627
0.012132548
-0.71514737
0.011028547
-0.76550972
0.0097759072
-0.81924895
0.0084158634
-0.87653664
0.0070064222
-0.93757206
0.005609241
-1.0025851
0.0042836455
-1.0718591
0.0030821959
-1.1457362
0.0020410094
-1.2246485
0.0011827741
-1.3090826
0.00050367062
-1.3995451
0.016327217
-0.30891313
0.016309569
-0.33340553
0.015733795
-0.35895808
0.015635621
-0.38571947
0.015455378
-0.41382432
0.015444759
-0.44352715
0.015336703
-0.47509333
0.015221054
-0.50878687
0.014938891
-0.54483212
0.014520519
-0.58342635
0.013892205
-0.62474029
0.01307206
-0.66893578
0.012047076
-0.7161659
0.010849448
-0.76658326
0.0095126963
-0.82034579
0.0080915959
-0.87762181
0.0066470493
-0.93860987
0.0052425979
-1.003544
0.0039375072
-1.0727144
0.0027796979
-1.1464748
0.0018003601
-1.2252661
0.001016379
-1.3095953
0.00041866785
-1.3999638
0.016577485
-0.28599831
0.016772786
-0.30937634
0.016137709
-0.33380944
0.01605552
-0.35937798
0.01585616
-0.38612025
0.015856551
-0.41423611
0.015780073
-0.44397052
0.015728053
-0.47560033
0.015529781
-0.50937776
0.015211914
-0.54552352
0.014688154
-0.5842223
0.013970506
-0.62563873
0.013035124
-0.66992382
0.011907012
-0.71722347
0.010610844
-0.76768141
0.0091963701
-0.82145056
0.0077215128
-0.87869628
0.0062513969
-0.93961866
0.0048508364
-1.0044573
0.0035755864
-1.0735103
0.0024696813
-1.1471442
0.0015577432
-1.2258075
0.00085097974
-1.3100276
0.00033521335
-1.400299
0.016760024
-0.26422465
0.017221953
-0.28644748
0.01654568
-0.30978432
0.016503666
-0.33425759
0.016283144
-0.35980496
0.016283955
-0.38654766
0.016220198
-0.41467624
0.016212747
-0.44445522
0.016083793
-0.47615434
0.015858143
-0.51002399
0.015436973
-0.54627233
0.014825244
-0.58507703
0.013987807
-0.62659142
0.012941967
-0.67095878
0.011702762
-0.71831539
0.010313481
-0.76879852
0.008826991
-0.82255604
0.007307822
-0.8797527
0.00582361
-0.94059144
0.0044373695
-1.0053191
0.0032020619
-1.0742426
0.0021553456
-1.1477418
0.001315575
-1.2262721
0.00068809834
-1.3103805
0.00025399386
-1.400553
0.016853976
-0.24362845
0.017621663
-0.26462436
0.016933516
-0.28683531
0.016965763
-0.31024641
0.016734404
-0.33470885
0.016736006
-0.36025701
0.016671708
-0.38699917
0.016690033
-0.41515353
0.016612135
-0.44498356
0.016465555
-0.47676175
0.016140701
-0.51072772
0.01563497
-0.54708206
0.014901173
-0.5859904
0.0139482
-0.62759765
0.012780824
-0.67203684
0.011434754
-0.71943666
0.0099560878
-0.76992762
0.0084065418
-0.82365476
0.0068543582
-0.88078345
0.0053673569
-0.94152143
0.0040070799
-1.0061241
0.0028206289
-1.0749079
0.001839931
-1.1482661
0.00107615
-1.2266601
0.00052912088
-1.3106556
0.00017562208
-1.4007286
0.016843856
-0.22425219
0.017935451
-0.24394223
0.017272023
-0.26496287
0.017417474
-0.28728702
0.017196983
-0.31070899
0.017212575
-0.33518542
0.017144412
-0.36072971
0.01717468
-0.38748381
0.017128936
-0.41567033
0.017044174
-0.44556218
0.016804319
-0.47742537
0.016400349
-0.5114931
0.015772572
-0.54795346
0.014920458
-0.58696266
0.013837772
-0.6286546
0.012551713
-0.6731538
0.011100222
-0.72058079
0.0095402541
-0.77106133
0.0079382854
-0.82473868
0.0063649079
-0.881781
0.0048878819
-0.94240223
0.0035641263
-1.0068676
0.0024355066
-1.0755035
0.0015264271
-1.1487164
0.00084160825
-1.2269726
0.00037529401
-1.3108553
0.00010068349
-1.4008293
0.0167203
-0.20613054
0.018131267
-0.22444801
0.017531232
-0.24420144
0.017827791
-0.26537318
0.017647878
-0.28773792
0.017702397
-0.31119881
0.017639378
-0.33568038
0.017677301
-0.36123233
0.017648823
-0.3880037
0.017607293
-0.41623345
0.01743654
-0.4461944
0.017124934
-0.47814995
0.016601255
-0.51232178
0.015854731
-0.54888773
0.014867104
-0.58799199
0.013656071
-0.62975896
0.012250265
-0.67430384
0.010700196
-0.72174073
0.009068431
-0.77219148
0.0074259458
-0.82579972
0.0058448364
-0.88273796
0.0043898315
-0.94322793
0.0031135112
-1.0075456
0.0020503358
-1.0760274
0.0012177765
-1.1490926
0.0006139355
-1.2272112
0.00022774914
-1.3109823
2.9838278e-05
-1.4008592
0.016479614
-0.1892797
0.018186066
-0.20618534
0.017684727
-0.2246015
0.018163316
-0.24453697
0.018057154
-0.26578246
0.018183522
-0.28821904
0.018146579
-0.31170602
0.0182002
-0.33620328
0.018182955
-0.36176647
0.018169297
-0.38856571
0.018049649
-0.41684655
0.017816056
-0.44688552
0.017389289
-0.47893799
0.01674883
-0.51321588
0.015863468
-0.54988409
0.014740153
-0.58907607
0.01339706
-0.63090575
0.0118768
-0.67548045
0.010236106
-0.72290841
0.0085440804
-0.77330961
0.0068747788
-0.82682966
0.005299168
-0.88364729
0.0038788186
-0.94399324
0.0026595902
-1.0081549
0.0016689392
-1.0764786
0.00091665378
-1.1493953
0.00039482879
-1.2273783
8.7657384e-05
-1.3110402
-3.5750274e-05
-1.4008234
0.016125735
-0.17369878
0.018087263
-0.18918089
0.017713612
-0.20621422
0.018392062
-0.22483025
0.018392303
-0.24487212
0.018626046
-0.26622498
0.018645006
-0.28871747
0.018734633
-0.31224045
0.018734666
-0.33675499
0.018741753
-0.36233892
0.018657575
-0.38917363
0.018484882
-0.41751538
0.018142529
-0.44763876
0.017603298
-0.47979246
0.016823235
-0.51417565
0.015797314
-0.55094125
0.014531879
-0.59021089
0.013060223
-0.63208917
0.011431548
-0.67667589
0.0097109431
-0.72407527
0.0079721124
-0.77440694
0.0062900214
-0.82782052
0.0047339789
-0.88450245
0.0033599111
-0.94469356
0.0022070098
-1.008693
0.0012945978
-1.0768565
0.0006255137
-1.149626
0.00018572626
-1.2274764
-4.4136766e-05
-1.3110318
-9.7850366e-05
-1.4007255
0.013884513
-0.18698624
0.017827243
-0.17343876
0.017607088
-0.18907437
0.018485912
-0.20630807
0.01862283
-0.22506078
0.018996299
-0.24524237
0.019105227
-0.2666852
0.019260504
-0.28924334
0.01929635
-0.31280213
0.01932888
-0.33734212
0.019272106
-0.36295345
0.019144752
-0.3898335
0.018870886
-0.41824374
0.018422448
-0.44845791
0.017745395
-0.48071462
0.016822503
-0.51520084
0.015646866
-0.55205624
0.014240835
-0.5913915
0.012644447
-0.63330207
0.010916827
-0.67788177
0.0091290405
-0.7252322
0.0073577805
-0.7754747
0.0056780408
-0.82876458
0.004154975
-0.88529752
0.0028385404
-0.94532509
0.0017598338
-1.0091582
0.00093047936
-1.0771615
0.00034609528
-1.1497863
-1.2282254e-05
-1.2275082
-0.00016815537
-1.3109615
-0.00015685501
-1.4005687
0.01197051
-0.18320759
0.015731901
-0.1848909
0.017356614
-0.17318829
0.018424046
-0.1890125
0.018724105
-0.20640935
0.019261329
-0.2253258
0.019493592
-0.24563074
0.01974861
-0.26717331
0.019848764
-0.28979575
0.019924052
-0.31339731
0.019898208
-0.33796822
0.019807517
-0.36361622
0.019586935
-0.39054955
0.019214829
-0.41903612
0.018632655
-0.44934517
0.017813156
-0.48170527
0.016735602
-0.51628957
0.015409682
-0.55322509
0.013864458
-0.59261151
0.012151194
-0.63453644
0.010336173
-0.6790889
0.0084954498
-0.72636987
0.0067075413
-0.7765042
0.0050450591
-0.82965466
0.0035683104
-0.88602729
0.0023196015
-0.94588486
0.0013220378
-1.0095498
0.00057916783
-1.0773946
8.0186526e-05
-1.1498788
-0.00019877292
-1.2274776
-0.00028386906
-1.3108345
-0.00021059443
-1.4003581
0.010295491
-0.1792935
0.013918312
-0.181394
0.015327117
-0.1828614
0.018200852
-0.17296509
0.018679163
-0.18896756
0.019392741
-0.20654076
0.019776955
-0.22560917
0.020164715
-0.24604684
0.020363039
-0.26768759
0.020508702
-0.2903804
0.020530161
-0.31402926
0.020478725
-0.33863943
0.020302414
-0.3643317
0.019992116
-0.39132684
0.019492099
-0.41989556
0.018770339
-0.45030235
0.017793986
-0.48276365
0.016559062
-0.51743895
0.015081686
-0.55444231
0.013403199
-0.59386352
0.011583003
-0.63578327
0.009694211
-0.68028766
0.0078164972
-0.72747882
0.006027973
-0.77748712
0.0043978532
-0.83048421
0.0029797032
-0.88668739
0.0018079402
-0.94637076
0.00089702739
-1.0098676
0.00024300151
-1.0775574
-0.00017105847
-1.1499065
-0.00037287619
-1.2273886
-0.00039068515
-1.3106544
-0.00025987161
-1.4000982
0.0087744363
-0.1753748
0.012275842
-0.17765103
0.013566076
-0.17963296
0.01623347
-0.18089402
0.018478415
-0.17276434
0.019369848
-0.18894467
0.019926871
-0.20669067
0.020474289
-0.22591874
0.020804719
-0.24648852
0.02105406
-0.26823294
0.021150041
-0.29100028
0.021153374
-0.31470391
0.021023308
-0.33936032
0.020765787
-0.36510537
0.020334354
-0.39216909
0.019699587
-0.42082481
0.018821425
-0.45132979
0.017683389
-0.48388798
0.01628726
-0.51864453
0.014662186
-0.5557013
0.012858424
-0.59513894
0.010943847
-0.63703291
0.0089969046
-0.68146807
0.0070989209
-0.72854977
0.005326331
-0.77841559
0.0037429072
-0.83124741
0.0023948839
-0.88727433
0.0013078392
-0.94678157
0.00048790321
-1.0101125
-7.6154145e-05
-1.0776523
-0.00040654679
-1.1498729
-0.0005341817
-1.2272451
-0.0004886582
-1.3104256
-0.00030436591
-1.3997939
0.0073346674
-0.17160157
0.010706518
-0.17380548
0.01197121
-0.17605617
0.014508979
-0.17790847
0.016578405
-0.17899401
0.019182926
-0.17257742
0.01992241
-0.18894021
0.020646863
-0.20686325
0.021138613
-0.22625264
0.021525124
-0.24695958
0.021729195
-0.2688121
0.021813976
-0.29166088
0.021745244
-0.31542584
0.021542128
-0.34013666
0.021170484
-0.3659415
0.020610361
-0.39307986
0.019821841
-0.42182522
0.018780424
-0.45242682
0.017474196
-0.48507492
0.01591827
-0.51990061
0.014151236
-0.55699411
0.012233248
-0.59642834
0.0102391
-0.6382751
0.0082509335
-0.68262008
0.0063502772
-0.72957372
0.0046097654
-0.77928245
0.0030868124
-0.83193934
0.0018190571
-0.88778555
0.00082325664
-0.94711693
9.7249875e-05
-1.0102859
-0.00037675218
-1.0776821
-0.00062554377
-1.1497815
-0.00068240921
-1.2270514
-0.00057758663
-1.3101524
-0.00034426309
-1.3994496
0.0059194192
-0.16813191
0.0091302485
-0.1700253
0.010447984
-0.17228225
0.012919521
-0.17446671
0.014900584
-0.17623065
0.017331666
-0.17714275
0.019750854
-0.17240587
0.020659387
-0.18895273
0.021333323
-0.20705796
0.021885639
-0.22661315
0.022232152
-0.24746254
0.022431726
-0.26942985
0.022451093
-0.29236673
0.022317251
-0.31620097
0.022006938
-0.34097312
0.021513177
-0.36684431
0.020803415
-0.39406144
0.019852433
-0.42289723
0.018638644
-0.45359127
0.017163182
-0.48631983
0.015450722
-0.5212001
0.013550905
-0.55831177
0.011532235
-0.59772148
0.0094751497
-0.63949932
0.0074639471
-0.68373375
0.0055782364
-0.73054219
0.0038856567
-0.7800813
0.0024357051
-0.83255599
0.0012571131
-0.8882194
0.00035759908
-0.94737728
-0.00027275881
-1.0103899
-0.00065764757
-1.07765
-0.00082757989
-1.1496363
-0.00081746058
-1.2268115
-0.00065764356
-1.309839
-0.00037971976
-1.3990699
0.0044903758
-0.16512273
0.0074891567
-0.16649082
0.0089172065
-0.16849452
0.011366058
-0.17072879
0.013338191
-0.17290431
0.015681286
-0.17458027
0.017947049
-0.17533894
0.020498662
-0.17224514
0.021364586
-0.188984
0.022102852
-0.20727517
0.02262174
-0.22700274
0.02297038
-0.24800119
0.023111828
-0.27009058
0.02307422
-0.2931237
0.022840218
-0.31703425
0.022414534
-0.34187447
0.021775988
-0.36781689
0.020906236
-0.39511524
0.019781203
-0.42403979
0.01839154
-0.45481963
0.016747482
-0.48761659
0.014885485
-0.52253468
0.012864747
-0.55964428
0.010761245
-0.59900757
0.0086595123
-0.64069488
0.0066439536
-0.68479947
0.004790855
-0.73144739
0.0031610447
-0.78080664
0.0017954538
-0.83309433
0.00071337743
-0.88857518
-8.6200323e-05
-0.94756383
-0.00062042739
-1.0104271
-0.00091802757
-1.0775595
-0.0010124265
-1.1494414
-0.00093944912
-1.2265297
-0.00072902447
-1.3094897
-0.00041088455
-1.398659
0.0030277442
-0.16271807
0.0057510772
-0.16338465
0.0073213623
-0.16489497
0.0097664351
-0.1668949
0.011790969
-0.16918157
0.014121758
-0.17134479
0.016327126
-0.17296035
0.018731354
-0.17357164
0.021216962
-0.17209752
0.022151199
-0.18903234
0.022864053
-0.20751748
0.023391546
-0.22742391
0.023690357
-0.24857972
0.023783563
-0.27079993
0.023653493
-0.29393698
0.023311224
-0.31793094
0.022746004
-0.34284449
0.021950895
-0.36886155
0.020907263
-0.3962413
0.01960229
-0.42525054
0.018034706
-0.45610685
0.016226639
-0.48895774
0.014224926
-0.52389486
0.012097873
-0.56098091
0.0099274298
-0.60027549
0.0078003232
-0.64185125
0.0057995308
-0.68580815
0.003996
-0.73228234
0.0024427797
-0.78145396
0.0011713781
-0.83355233
0.00019166638
-0.88885305
-0.0005057568
-0.9476785
-0.00094448929
-1.0104007
-0.0011574231
-1.0774145
-0.0011801106
-1.1492007
-0.0010486164
-1.2262101
-0.00079201647
-1.3091085
-0.00043798831
-1.398221
0.0015281041
-0.16103802
0.0039095253
-0.16087652
0.0056275506
-0.16169084
0.0080618231
-0.16319036
0.010174182
-0.16527811
0.012549483
-0.16760929
0.014776685
-0.16979435
0.017127133
-0.17135613
0.019485972
-0.17184065
0.0220146
-0.17196092
0.02293228
-0.18910057
0.023659935
-0.20778587
0.024147002
-0.22788055
0.024407048
-0.24920321
0.024416716
-0.27156315
0.024186398
-0.29481215
0.023710476
-0.31889541
0.022992717
-0.34388631
0.022025018
-0.3699793
0.020799356
-0.39743837
0.019309741
-0.42652558
0.017566274
-0.45744649
0.015601689
-0.49033451
0.0134732
-0.52527018
0.011256835
-0.56231031
0.0090388201
-0.60151398
0.0069064915
-0.64295821
0.0049392518
-0.6867514
0.0032014659
-0.73304103
0.0017372192
-0.7820198
0.00056828025
-0.83392894
-0.0003048064
-0.889054
-0.00089920415
-0.94772379
-0.0012440861
-1.010314
-0.0013756752
-1.077219
-0.0013308552
-1.1489185
-0.0011453428
-1.2258568
-0.0008469912
-1.3086995
-0.00046123856
-1.3977598
-0.16016903
-1.7123854e-08
0.001981123
-0.15910961
0.0038289374
-0.1590779
0.0062214698
-0.15985049
0.0084277759
-0.16144395
0.010876566
-0.16360519
0.013188037
-0.16602064
0.015569948
-0.16823716
0.017900569
-0.16977072
0.020312893
-0.17013894
0.02280884
-0.17183748
0.023747501
-0.18918813
0.02444505
-0.20808392
0.024903409
-0.22837691
0.025090343
-0.24987684
0.025009256
-0.27238601
0.024652479
-0.29575415
0.02402889
-0.31993158
0.023140574
-0.34500187
0.021990003
-0.37116995
0.020575028
-0.39870366
0.018900217
-0.42785952
0.016985835
-0.45883063
0.014875649
-0.49173696
0.01263604
-0.52664939
0.010349323
-0.56362082
0.008104443
-0.60271194
0.0059871355
-0.6440061
0.004071771
-0.6876217
0.0024146486
-0.73371846
0.001050223
-0.78250175
-9.6726175e-06
-0.83422408
-0.00077341379
-0.88917979
-0.0012651574
-0.94770272
-0.0015187584
-1.0101709
-0.001572898
-1.0769769
-0.0014650682
-1.1485987
-0.0012301084
-1.2254736
-0.0008943472
-1.3082664
-0.00048087759
-1.3972789
-0.15818789
-1.6366423e-08
-0.16016903
-0.0015281383
0.0019418471
-0.15722252
0.0042439443
-0.15710038
0.0065217069
-0.15794442
0.0090413025
-0.15960869
0.011471711
-0.16188887
0.013949311
-0.1644
0.01634165
-0.16667824
0.018737053
-0.16819488
0.021135991
-0.16846609
0.023636056
-0.17172603
0.024555145
-0.18929823
0.025234262
-0.20841477
0.025631303
-0.22891787
0.025738657
-0.25060624
0.025540339
-0.27327387
0.025042366
-0.29676763
0.02425128
-0.32104229
0.023180097
-0.34619196
0.021836861
-0.37243178
0.02022945
-0.40003289
0.018371791
-0.42924548
0.016295117
-0.4602501
0.014053233
-0.49315415
0.011720563
-0.52802063
0.0093842508
-0.56490062
0.0071337652
-0.60385857
0.0050516404
-0.64498597
0.0032054777
-0.68841253
0.0016425031
-0.73431074
0.00038701662
-0.78289844
-0.00055894835
-0.83443854
-0.0012121191
-0.88923283
-0.0016027133
-0.94761876
-0.001768399
-1.0099754
-0.0017494501
-1.0766925
-0.001583302
-1.1482455
-0.0013034727
-1.2250645
-0.00093452942
-1.3078128
-0.00049714524
-1.3967817
-0.15624603
-1.4305835e-08
-0.15818789
-0.0019811557
-0.16103802
-0.0030277779
0.0021547239
-0.1551333
0.0044575302
-0.1550362
0.0070144512
-0.15591757
0.009564675
-0.15770165
0.012172107
-0.16011166
0.014694721
-0.16275308
0.017165439
-0.16510663
0.019570463
-0.16662936
0.021987541
-0.16681757
0.024457974
-0.17162886
0.025368863
-0.18943283
0.025999343
-0.20878281
0.02632939
-0.2295086
0.026331114
-0.25139701
0.026000481
-0.27423198
0.025339969
-0.29785632
0.024367168
-0.32222936
0.023100854
-0.34745595
0.021559277
-0.37376161
0.019759123
-0.40142022
0.017724783
-0.43067514
0.015497644
-0.46169451
0.013140761
-0.49457435
0.010735331
-0.52937171
0.0083712164
-0.56613807
0.0061367368
-0.60494366
0.0041092975
-0.64588979
0.0023484153
-0.68911845
0.00089138127
-0.7348151
-0.0002478382
-0.78320955
-0.0010766971
-0.83457396
-0.0016194157
-0.88921613
-0.0019114157
-0.94747575
-0.0019932182
-1.0097317
-0.001905892
-1.0763699
-0.0016862294
-1.1478628
-0.001366054
-1.224633
-0.00096799728
-1.3073419
-0.0005102871
-1.3962715
-0.1540913
-1.2264307e-08
-0.15624603
-0.0019418754
-0.15910962
-0.0039095575
-0.16271807
-0.0044904089
0.002266003
-0.15294178
0.0048020051
-0.15282375
0.0074378292
-0.15379072
0.010173707
-0.15570325
0.012861702
-0.15827864
0.01548098
-0.16106862
0.017988413
-0.16352458
0.020427179
-0.16506899
0.022833409
-0.16519301
0.02528713
-0.17154713
0.026162162
-0.18959565
0.026739006
-0.20919243
0.026977154
-0.23015464
0.026858248
-0.25225478
0.026372934
-0.27526495
0.025533977
-0.29902313
0.024364768
-0.32349327
0.022895071
-0.34879175
0.02115216
-0.37515464
0.019162881
-0.40285832
0.016961386
-0.43213888
0.01459874
-0.46315249
0.012146217
-0.49598523
0.0096898411
-0.53069033
0.0073205343
-0.56732187
0.005123415
-0.60595778
0.0031691853
-0.64671056
0.0015080924
-0.68973516
0.00016697574
-0.73522992
-0.00085050858
-0.78343573
-0.0015606758
-0.8346327
-0.0019943513
-0.88913319
-0.0021912069
-0.94727776
-0.0021936993
-1.0094438
-0.0020429549
-1.0760132
-0.0017746131
-1.1474542
-0.0014185107
-1.2241825
-0.00099522337
-1.306857
-0.00052054756
-1.3957509
-0.15182528
-1.0000217e-08
-0.1540913
-0.0021547485
-0.15722253
-0.0038289655
-0.16087652
-0.0057511088
-0.16512274
-0.0059194515
0.0024426903
-0.15058246
0.0051003996
-0.15048633
0.0079271309
-0.15154414
0.010776483
-0.15361804
0.013583241
-0.15638091
0.016269153
-0.15934936
0.01882931
-0.16192671
0.021278882
-0.16351447
0.02368443
-0.16359031
0.026098653
-0.17148362
0.026933452
-0.1897901
0.027433498
-0.20964877
0.02756522
-0.23086162
0.02730296
-0.25318481
0.026645764
-0.27637673
0.025611396
-0.30026976
0.024234916
-0.32483312
0.02255606
-0.35019565
0.02061279
-0.37660455
0.018441471
-0.4043384
0.016085756
-0.4336259
0.013605593
-0.46461187
0.01107876
-0.49737415
0.0085945542
-0.53196435
0.0062428577
-0.56844132
0.0041038149
-0.60689241
0.0022399547
-0.64744242
0.00069139616
-0.69025958
-0.00052577387
-0.73555465
-0.0014178896
-0.78357852
-0.0020092634
-0.83461779
-0.0023364642
-0.88898793
-0.0024423863
-0.94702907
-0.0023705588
-1.0091162
-0.0021615026
-1.0756263
-0.001849283
-1.1470234
-0.001461525
-1.2237162
-0.0010166822
-1.3063609
-0.00052816671
-1.3952227
-0.14938258
-7.9547257e-09
-0.15182528
-0.0022660232
-0.15513331
-0.0042439685
-0.15907791
-0.0056275781
-0.16338466
-0.0074891873
-0.16813191
-0.0073346988
0.0025969527
-0.14807901
0.0054445584
-0.14800375
0.0084116191
-0.14917928
0.01140381
-0.1514386
0.014308363
-0.15442011
0.017070165
-0.15759021
0.019666018
-0.16031384
0.022133019
-0.16196306
0.024518944
-0.1620106
0.026890711
-0.17144088
0.02766406
-0.19002066
0.028073523
-0.21015707
0.028076477
-0.23163513
0.027652924
-0.25419196
0.02680499
-0.27757033
0.025561802
-0.30159664
0.023969359
-0.32624642
0.022079514
-0.35166237
0.019940383
-0.37810346
0.017597736
-0.40585038
0.015104093
-0.4351244
0.012526795
-0.4660599
0.0099487646
-0.49872836
0.0074605165
-0.53318201
0.0051489958
-0.5694865
0.0030876687
-0.60774012
0.0013297074
-0.64808073
-9.5531433e-05
-0.69068982
-0.0011827182
-0.73578982
-0.0019475307
-0.78364025
-0.0024214447
-0.83453281
-0.0026457402
-0.88878458
-0.0026655628
-0.94673407
-0.0025247018
-1.008753
-0.0022625022
-1.0752131
-0.0019111126
-1.1465739
-0.0014957903
-1.2232371
-0.0010328436
-1.3058562
-0.00053337841
-1.3946894
-0.14678563
-5.7149513e-09
-0.14938259
-0.002442706
-0.15294178
-0.00445755
-0.15710038
-0.0062214938
-0.16169085
-0.0073213893
-0.16649082
-0.0091302782
-0.17160157
-0.0087744667
0.0027758173
-0.14541027
0.0057833514
-0.14537548
0.0089150462
-0.14669052
0.012034915
-0.14916516
0.015042171
-0.15239212
0.017867788
-0.15579198
0.020502455
-0.15868328
0.022971929
-0.16041604
0.025334783
-0.16045467
0.027645666
-0.17142248
0.028344716
-0.19029185
0.028642293
-0.21072289
0.028498421
-0.23248063
0.027893462
-0.25528044
0.026839127
-0.27884765
0.025375462
-0.30300274
0.023562195
-0.3277291
0.021463043
-0.35318503
0.019136348
-0.37964208
0.016636726
-0.40738302
0.014024216
-0.43662182
0.011372407
-0.46748354
0.0087674509
-0.50003529
0.0062991573
-0.53433217
0.0040496578
-0.57044848
0.0020842717
-0.60849469
0.00044584496
-0.64862211
-0.00084735562
-0.69102518
-0.0018004777
-0.73593688
-0.0024376897
-0.78362401
-0.0027967455
-0.83438181
-0.0029225666
-0.88852758
-0.0028616034
-0.94639717
-0.0026571848
-1.0083584
-0.0023469943
-1.0747772
-0.0019610014
-1.1461086
-0.0015219979
-1.2227479
-0.0010441662
-1.3053454
-0.00053640731
-1.394153
-0.14400981
-3.3231684e-09
-0.14678563
-0.0025969638
-0.15058246
-0.0048020209
-0.15503621
-0.0065217267
-0.15985049
-0.0080618463
-0.16489498
-0.0089172326
-0.17002531
-0.010706547
-0.1753748
-0.010295521
0.0029493668
-0.14257629
0.0061360432
-0.14259648
0.009421511
-0.14407711
0.012671931
-0.14679492
0.015773371
-0.1502977
0.018663074
-0.1539526
0.021324899
-0.15703625
0.02379222
-0.15887348
0.026116186
-0.15892519
0.028354363
-0.17143213
0.028959222
-0.19060878
0.029127291
-0.21135176
0.028816014
-0.23340318
0.028012304
-0.25645361
0.026737149
-0.28020934
0.025044942
-0.30448549
0.023009386
-0.32927544
0.020706516
-0.3547552
0.018204433
-0.38120978
0.015565293
-0.40892409
0.012855647
-0.43810506
0.010153592
-0.46886968
0.0075466658
-0.5012828
0.0051220158
-0.53540453
0.0029552626
-0.57131948
0.0011022955
-0.60915114
-0.00040502504
-0.64906444
-0.0015596203
-0.69126604
-0.0023763944
-0.73599817
-0.0028872764
-0.78353348
-0.0031351936
-0.83416918
-0.0031676715
-0.88822151
-0.003031589
-0.94602276
-0.0027691789
-1.0079362
-0.0024160684
-1.0743222
-0.0019998551
-1.1456308
-0.0015408249
-1.2222513
-0.0010510926
-1.3048307
-0.00053747054
-1.3936155
-0.14106044
-1.0894123e-09
-0.14400981
-0.0027758243
-0.14807902
-0.0051004111
-0.15282376
-0.0070144667
-0.15794442
-0.0084277951
-0.16319037
-0.009766458
-0.16849453
-0.01044801
-0.17380548
-0.012275869
-0.17929351
-0.011970538
0.003131106
-0.13957135
0.0064908353
-0.13966581
0.0099321276
-0.14133731
0.013306988
-0.14432853
0.016500982
-0.14813561
0.019445156
-0.15207286
0.022128787
-0.15537282
0.024580899
-0.15733819
0.026854718
-0.15742555
0.029001263
-0.17147417
0.02949516
-0.19097665
0.029513444
-0.21204919
0.029016502
-0.23440738
0.027997409
-0.25771387
0.02649024
-0.28165464
0.024564565
-0.30604067
0.022309168
-0.33087809
0.019812237
-0.356363
0.01715035
-0.38279484
0.014392223
-0.41046067
0.011609275
-0.43956074
0.0088823996
-0.47020542
0.0062986013
-0.50245939
0.0039405249
-0.53638979
0.0018757208
-0.5720929
0.00014966882
-0.60970583
-0.0012171902
-0.64940687
-0.0022286366
-0.6914138
-0.0029085936
-0.73597685
-0.0032958022
-0.78337287
-0.0034372569
-0.83389959
-0.003382075
-0.88787102
-0.0031767702
-0.94561517
-0.0028619387
-1.0074903
-0.002470835
-1.0738512
-0.0020285649
-1.145143
-0.00155293
-1.2217494
-0.0010540565
-1.3043141
-0.00053676985
-1.3930787
-0.13792933
8.5211882e-10
-0.14106044
-0.0029493695
-0.14541028
-0.0054445652
-0.15048633
-0.0074378404
-0.15591757
-0.0090413181
-0.16144396
-0.010174201
-0.16689491
-0.01136608
-0.17228226
-0.011971234
-0.17765104
-0.013918338
-0.1832076
-0.01388454
0.003313877
-0.13639439
0.0068483054
-0.13658198
0.010441107
-0.13847143
0.013937761
-0.14176531
0.017216261
-0.14590672
0.020209077
-0.15015315
0.022903005
-0.15369492
0.025329274
-0.15581275
0.027536573
-0.15596086
0.029574175
-0.17155319
0.029937704
-0.19140091
0.029787804
-0.21282049
0.029087183