/*--------------------------------*- C++ -*----------------------------------*\
| =========                 |                                                 |
| \\      /  F ield         | OpenFOAM: The Open Source CFD Toolbox           |
|  \\    /   O peration     | Version:  5.0                                   |
|   \\  /    A nd           | Web:      www.OpenFOAM.org                      |
|    \\/     M anipulation  |                                                 |
\*---------------------------------------------------------------------------*/
FoamFile
{
    version     2.0;
    format      ascii;
    class       volScalarField;
    location    "120";
    object      pMean;
}
// * * * * * * * * * * * * * * * * * * * * * * * * * * * * * * * * * * * * * //

dimensions      [0 2 -2 0 0 0 0];

internalField   nonuniform List<scalar> 
9200
(
-0.00049923726
-0.00049181605
-0.0011161545
-0.00048473323
-0.0011051472
-0.0019065351
-0.00047485323
-0.0010867721
-0.0018867384
-0.0026140327
-0.00046197795
-0.0010604893
-0.0018564563
-0.0025896186
-0.0033482971
-0.00044728136
-0.0010259884
-0.0018137831
-0.0025493357
-0.0033192902
-0.0040577839
-0.00043001497
-0.00098610911
-0.0017577483
-0.0024930697
-0.0032701016
-0.0040266101
-0.0047629166
-0.00041116894
-0.00093966269
-0.0016924789
-0.0024185409
-0.0032021031
-0.0039709637
-0.0047311199
-0.0054532682
-0.00039066612
-0.00088862312
-0.0016165041
-0.0023313171
-0.0031110801
-0.003894867
-0.0046712313
-0.0054230539
-0.0061323342
-0.00036906743
-0.00083305067
-0.001532613
-0.0022294369
-0.003004002
-0.0037913704
-0.0045903427
-0.00536162
-0.0061058892
-0.0067951315
-0.00034664221
-0.00077405812
-0.0014411915
-0.0021164392
-0.0028782341
-0.003668866
-0.0044780363
-0.0052798779
-0.0060459547
-0.0067748641
-0.0074421234
-0.00032379761
-0.00071223841
-0.0013440179
-0.0019928895
-0.0027380635
-0.0035236314
-0.0043440945
-0.0051631352
-0.005967848
-0.0067196229
-0.0074304803
-0.0080687343
-0.00030087441
-0.00064836695
-0.0012422704
-0.0018610931
-0.0025842615
-0.0033604448
-0.0041834339
-0.00502257
-0.0058517504
-0.0066498376
-0.0073834362
-0.0080682754
-0.0086739479
-0.00027817649
-0.00058308956
-0.0011373762
-0.0017226524
-0.0024196471
-0.0031799769
-0.0040012899
-0.0048513357
-0.00571012
-0.0065397821
-0.0073271093
-0.0080330301
-0.0086871645
-0.0092533803
-0.00025585334
-0.00051705646
-0.0010305847
-0.0015794927
-0.0022462472
-0.0029855611
-0.0037980928
-0.0046549307
-0.0055340048
-0.0064031264
-0.0072290623
-0.0079954238
-0.0086673559
-0.0092827402
-0.0098050615
-0.00023374891
-0.00045093676
-0.00092304891
-0.0014333315
-0.0020665155
-0.0027796468
-0.0035775001
-0.0044333954
-0.0053289942
-0.0062283802
-0.0071040311
-0.0079155925
-0.0086539028
-0.0092820786
-0.0098529474
-0.010325314
-0.0002112438
-0.00038551266
-0.00081577394
-0.0012858164
-0.0018826876
-0.0025652276
-0.0033422602
-0.0041906082
-0.00509446
-0.0060209807
-0.0069376263
-0.0078092573
-0.008598857
-0.0092982768
-0.0098750962
-0.010393943
-0.010811432
-0.00018709421
-0.00032177461
-0.00070958304
-0.0011384659
-0.0016969283
-0.0023450506
-0.0030958403
-0.0039294949
-0.0048343225
-0.0057793911
-0.0067349107
-0.0076587271
-0.0085187363
-0.0092746867
-0.0099263082
-0.010442295
-0.010902954
-0.011260629
-0.00015934968
-0.00026097205
-0.0006050822
-0.00099272231
-0.0015111929
-0.0021218118
-0.0028414843
-0.0036538982
-0.0045515553
-0.005507406
-0.0064931304
-0.0074684083
-0.0083922179
-0.0092285543
-0.0099409079
-0.010533732
-0.010980943
-0.011376831
-0.011670596
-0.00012551584
-0.0002045679
-0.00050274475
-0.00084999845
-0.0013272088
-0.0018979975
-0.0025824006
-0.0033675077
-0.0042503228
-0.0052078792
-0.0062157263
-0.0072340609
-0.0082227916
-0.0091345954
-0.0099367484
-0.010593179
-0.011117603
-0.011487521
-0.011813005
-0.012039333
-8.2884153e-05
-0.00015422265
-0.00040288114
-0.00071161863
-0.0011464864
-0.0016758446
-0.0023215589
-0.0030740553
-0.0039347292
-0.0048851784
-0.0059052544
-0.0069585359
-0.0080044062
-0.0089951412
-0.0098843029
-0.010638977
-0.0112283
-0.011673887
-0.011959089
-0.012209152
-0.012365258
-2.8992908e-05
-0.00011162767
-0.00030559427
-0.00057891817
-0.00097037108
-0.0014573142
-0.002061662
-0.0027770497
-0.0036090162
-0.0045437505
-0.0055661602
-0.0066438631
-0.0077390564
-0.0088020238
-0.0097844868
-0.010637163
-0.011331943
-0.011841894
-0.012199351
-0.012392862
-0.012563357
-0.012647227
3.7880206e-05
-7.8242785e-05
-0.00021093457
-0.00045324344
-0.00080001303
-0.0012440941
-0.0018050986
-0.0024797237
-0.003277244
-0.0041883236
-0.0052031429
-0.006294388
-0.0074279997
-0.0085560953
-0.0096267159
-0.010587035
-0.011389959
-0.012010955
-0.012430286
-0.012690516
-0.012786486
-0.012874114
-0.012884523
0.00011831717
-5.509836e-05
-0.00011904312
-0.00033580622
-0.00063640338
-0.0010377138
-0.0015539558
-0.0021849829
-0.0029432218
-0.0038235293
-0.004821363
-0.0059149267
-0.0070752793
-0.008257553
-0.0094104046
-0.010475317
-0.011399849
-0.012137842
-0.012671914
-0.012989312
-0.013144389
-0.013137954
-0.013140362
-0.013076869
0.00021150053
-4.2800763e-05
-3.0231234e-05
-0.00022761958
-0.00048040493
-0.00083958483
-0.001310057
-0.0018953778
-0.0026104133
-0.00345379
-0.0044260042
-0.005510999
-0.0066856627
-0.0079098862
-0.0091343894
-0.010299687
-0.011345404
-0.012218136
-0.012876408
-0.013310012
-0.013515341
-0.013558185
-0.013445673
-0.013361487
-0.013224435
0.00031525376
-4.1770097e-05
5.5080833e-05
-0.00012942334
-0.00033278123
-0.00065102885
-0.0010750049
-0.0016131346
-0.002281915
-0.0030831917
-0.004022122
-0.0050883094
-0.0062649104
-0.0075176038
-0.0088013284
-0.010057297
-0.011222281
-0.012232506
-0.01303737
-0.013600319
-0.013920873
-0.014004709
-0.01392957
-0.013708494
-0.013537308
-0.013327794
0.00042624816
-5.1900517e-05
0.00013674559
-4.1650329e-05
-0.00019425452
-0.00047326109
-0.00085022511
-0.0013402477
-0.0019604613
-0.0027154272
-0.0036144783
-0.0046525522
-0.0058191737
-0.007086547
-0.0084152225
-0.0097496605
-0.011025628
-0.012174329
-0.013132227
-0.013851858
-0.014304497
-0.014499898
-0.014454228
-0.014256614
-0.013925723
-0.013668084
-0.013387822
0.00054040157
-7.1704543e-05
0.00021475137
3.5555301e-05
-6.5391085e-05
-0.00030731062
-0.00063702172
-0.0010785538
-0.0016484831
-0.0023537993
-0.0032074507
-0.0042091922
-0.0053547588
-0.0066232079
-0.0079817893
-0.0093799759
-0.010755479
-0.012036431
-0.013151855
-0.014038768
-0.014655959
-0.014983455
-0.015042906
-0.014860977
-0.014537896
-0.014097139
-0.01375446
-0.013405678
0.00065361994
-9.7653778e-05
0.00028829091
0.00010222517
5.3440417e-05
-0.00015412029
-0.00043656543
-0.00082974014
-0.0013481815
-0.0020012576
-0.0028049969
-0.0037633366
-0.0048778497
-0.006134445
-0.0075077051
-0.0089535841
-0.010413904
-0.01181702
-0.013086467
-0.014149257
-0.014946142
-0.015443395
-0.015631975
-0.015545856
-0.015222551
-0.014772513
-0.014223006
-0.013797423
-0.013382865
0.00075991522
-0.00012369478
0.00035495226
0.00015839375
0.00016189283
-1.4435724e-05
-0.00024981778
-0.00059536162
-0.0010615556
-0.0016604727
-0.0024106809
-0.0033196678
-0.0043943355
-0.0056271476
-0.0070002805
-0.0084771397
-0.010005567
-0.011516678
-0.012932102
-0.014170676
-0.015160491
-0.015847472
-0.016207961
-0.01624484
-0.01600519
-0.015536968
-0.014959985
-0.014303961
-0.01379829
-0.01332125
0.00086132073
-0.00014856189
0.000412226
0.00020478048
0.00025922432
0.0001113274
-7.7543053e-05
-0.00037676959
-0.00079040196
-0.0013339312
-0.0020277449
-0.0028824449
-0.0039096998
-0.0051080064
-0.0064670597
-0.0079582553
-0.0095368426
-0.011139048
-0.012687478
-0.014096563
-0.015283301
-0.016178352
-0.016735709
-0.016943265
-0.016817223
-0.016417734
-0.015802746
-0.015100108
-0.0143409
-0.013758632
-0.013222941
0.00097147605
-0.00017569102
0.00045872645
0.00024667195
0.00034433101
0.00022284885
7.963877e-05
-0.00017506185
-0.00053635823
-0.0010239586
-0.0016591786
-0.0024555652
-0.00342899
-0.0045833604
-0.0059155331
-0.0074050345
-0.0090154415
-0.010689912
-0.012354833
-0.01392339
-0.015305314
-0.016417148
-0.017195174
-0.017603374
-0.017643152
-0.017344604
-0.01678086
-0.016018879
-0.015193144
-0.014335035
-0.013680307
-0.013090223
0.001083939
-0.00020582131
0.00049682598
0.00028673193
0.00042039257
0.00032042727
0.00022073853
8.8533539e-06
-0.00030080939
-0.00073263475
-0.0013077496
-0.0020426544
-0.0029568577
-0.0040591257
-0.0053529286
-0.0068257252
-0.0084498816
-0.010176816
-0.011939
-0.013651586
-0.015220385
-0.016551563
-0.017564252
-0.018202577
-0.018443013
-0.018301651
-0.017822995
-0.017092458
-0.016184926
-0.015239875
-0.014287874
-0.013565352
-0.012925749
0.001193419
-0.00023710948
0.00053894371
0.00031246141
0.00049038734
0.00041119944
0.0003450055
0.00017398403
-8.486344e-05
-0.00046168998
-0.00097600293
-0.0016471244
-0.0024976419
-0.0035408079
-0.0047860955
-0.0062284476
-0.0078490804
-0.0096084859
-0.011447035
-0.013284626
-0.015026716
-0.0165725
-0.017827437
-0.018715615
-0.019191932
-0.019247167
-0.018913242
-0.018248935
-0.017351032
-0.016300944
-0.015241467
-0.014201281
-0.013416138
-0.012731889
0.0012961432
-0.00026908431
0.00058248954
0.00033368458
0.00054539577
0.00049626624
0.00045998015
0.00031997218
0.0001100318
-0.00021259036
-0.00066615142
-0.0012721251
-0.0020554343
-0.0030335751
-0.0042214791
-0.0056210289
-0.0072220167
-0.0089943662
-0.010887607
-0.012828698
-0.014725985
-0.016475518
-0.017972389
-0.019123685
-0.019861659
-0.020154345
-0.020008679
-0.019472885
-0.018619608
-0.017555669
-0.016367496
-0.015199493
-0.014077459
-0.013235262
-0.012510908
0.0013886025
-0.00030044225
0.00062341598
0.00035709626
0.00059714407
0.00055642679
0.00056811306
0.00045666936
0.00028296838
1.2855107e-05
-0.00038007493
-0.00092041977
-0.0016340735
-0.0025423374
-0.0036651742
-0.0050109331
-0.0065775052
-0.0083442124
-0.010270484
-0.012292081
-0.014323084
-0.01626004
-0.017991637
-0.01941099
-0.020430112
-0.020992223
-0.021081005
-0.020720761
-0.019976179
-0.018932845
-0.017706053
-0.016385599
-0.015115831
-0.013918756
-0.01302514
-0.012265136
0.00146736
-0.00032947254
0.00065982965
0.0003789348
0.00064764717
0.00061158574
0.00064863418
0.0005853706
0.00044552657
0.00021356359
-0.00012005895
-0.00059438643
-0.0012370045
-0.0020717528
-0.0031230042
-0.0044052854
-0.0059240788
-0.0076677982
-0.009606057
-0.011684593
-0.013825507
-0.015929192
-0.017881891
-0.019566687
-0.020877911
-0.021735568
-0.022096929
-0.021963282
-0.021377204
-0.02041941
-0.01918717
-0.017802433
-0.016356683
-0.014992614
-0.013727606
-0.012788227
-0.011996897
0.0015293396
-0.0003546411
0.00069119252
0.00039709949
0.00069593013
0.00066779849
0.00072368969
0.00067854128
0.00059989129
0.00040337766
0.00011228403
-0.00029688866
-0.00086723493
-0.0016260566
-0.0026005452
-0.0038109427
-0.0052699717
-0.0069747463
-0.0089049819
-0.011017059
-0.013242781
-0.015489228
-0.017644015
-0.019584339
-0.021190574
-0.0223614
-0.023028314
-0.023165312
-0.022792986
-0.021972461
-0.020799622
-0.019381778
-0.01784559
-0.016282533
-0.014832163
-0.013506507
-0.012526957
-0.011708573
0.0015720389
-0.00037464502
0.00071699343
0.00041190484
0.00073869965
0.0007210646
0.00079693872
0.00076685658
0.00071176415
0.00058418922
0.00033299937
-3.0088736e-05
-0.00052828399
-0.0012090022
-0.0021029671
-0.0032345299
-0.0046231751
-0.0062744637
-0.0081779444
-0.010300879
-0.012585887
-0.014948974
-0.017282522
-0.019462038
-0.021358119
-0.022851419
-0.023848688
-0.02429618
-0.024187124
-0.023562504
-0.02250178
-0.021114637
-0.019516531
-0.017836786
-0.016165237
-0.014636939
-0.01325798
-0.012243753
-0.011402449
0.0015937857
-0.00038858666
0.00073674225
0.00042367842
0.00077525845
0.000767053
0.00086739913
0.00085406146
0.00081840084
0.00071330671
0.00054453198
0.0002244853
-0.00022308585
-0.00082492241
-0.0016349371
-0.0026822944
-0.0039914784
-0.0055761699
-0.0074355492
-0.009547724
-0.011866763
-0.014319217
-0.016805061
-0.019202025
-0.02137538
-0.023191774
-0.024535869
-0.025326157
-0.025526891
-0.025152516
-0.02426498
-0.022961258
-0.021363074
-0.019591919
-0.017777723
-0.01600714
-0.014409507
-0.012984552
-0.011940977
-0.011080717
-0.00039573875
0.0015937857
0.0007498145
0.00043254488
0.00080518315
0.00080566834
0.00092961354
0.00093818137
0.00092264442
0.00083816321
0.0006946514
0.00046948875
6.9268715e-05
-0.00047766391
-0.0012017407
-0.0021599405
-0.0033823309
-0.0048889348
-0.0066883069
-0.0087693791
-0.011097934
-0.013612154
-0.016221799
-0.018810238
-0.021241771
-0.02337359
-0.025071902
-0.026229241
-0.026779676
-0.026708305
-0.026052283
-0.024894432
-0.0233479
-0.021544334
-0.019609024
-0.017670485
-0.01581079
-0.014152506
-0.012688717
-0.011620908
-0.010745429
0.00075608524
-0.00039573881
0.0015720389
0.00043821629
0.00082801141
0.00083698656
0.00098269271
0.0010118834
0.0010235096
0.0009605965
0.00084172777
0.00064202501
0.00035201235
-0.00014371836
-0.00080829608
-0.0016738626
-0.002802642
-0.0042215379
-0.0059466617
-0.0079776791
-0.010292282
-0.012840949
-0.015544831
-0.018295728
-0.02096095
-0.023392912
-0.02544382
-0.026983266
-0.027915864
-0.028194875
-0.027828703
-0.026878038
-0.025445858
-0.02365964
-0.021658578
-0.019569468
-0.017517492
-0.015578895
-0.013868604
-0.012372909
-0.011285706
-0.010398526
0.00044081477
0.0007560852
-0.00038858668
0.0015293397
0.00084288068
0.00086084289
0.0010261505
0.0010742969
0.0011122624
0.0010795505
0.00098567812
0.00081398079
0.00055071686
0.0001806823
-0.00042850855
-0.0012302921
-0.0022601077
-0.0035822696
-0.0052208548
-0.0071845157
-0.0094629525
-0.012019449
-0.014787679
-0.01767005
-0.020540292
-0.023250518
-0.025643788
-0.027570874
-0.028909096
-0.029579356
-0.029557485
-0.028877034
-0.027622381
-0.025915305
-0.02389535
-0.021706691
-0.019475368
-0.017321443
-0.015314274
-0.013560446
-0.012039456
-0.010937419
-0.010041861
0.00084973863
0.00044081469
0.0007498143
-0.00037464518
0.0014673601
0.00087647817
0.0010594717
0.0011252662
0.0011878645
0.0011843113
0.0011256357
0.00098217414
0.00075254244
0.00040867366
-5.7851974e-05
-0.0008005066
-0.0017625364
-0.0029802772
-0.0045206924
-0.006401696
-0.0086233145
-0.011162027
-0.013964933
-0.016946709
-0.019990293
-0.0229515
-0.025669108
-0.027979901
-0.029737457
-0.030831376
-0.031203007
-0.030853638
-0.029843153
-0.028279029
-0.026299919
-0.02405482
-0.021690232
-0.019329269
-0.017085258
-0.015019789
-0.013230604
-0.011690573
-0.010578002
-0.0096771943
0.000883944
0.00084973853
0.00043821609
0.00073674197
-0.00035464123
0.0013886025
0.0010814678
0.0011641118
0.0012497687
0.0012733987
0.0012489541
0.001145866
0.00094927723
0.00064528996
0.00020377808
-0.00037909094
-0.0012785444
-0.0024252027
-0.0038569548
-0.0056406724
-0.007786817
-0.010283518
-0.013092048
-0.016140746
-0.019323992
-0.022504712
-0.025521945
-0.028203605
-0.030384096
-0.031924431
-0.032731222
-0.032770117
-0.032070178
-0.030718024
-0.028842927
-0.026597964
-0.02413872
-0.02161138
-0.01913409
-0.016812003
-0.014698277
-0.012881535
-0.011328373
-0.010209322
-0.0093061377
0.0010919717
0.00088394391
0.00084288044
0.00043254451
0.00071699297
-0.0003294728
0.0012961433
0.001189266
0.0012970821
0.0013461914
0.0013538747
0.0012902322
0.0011405604
0.00087495862
0.00048173417
-7.9457466e-05
-0.00080158964
-0.0018830497
-0.0032414131
-0.0049140365
-0.0069666873
-0.0093990447
-0.012185241
-0.015268469
-0.018556492
-0.021922188
-0.025208871
-0.028240574
-0.030837705
-0.032836747
-0.034111176
-0.03458926
-0.034264382
-0.033194945
-0.031493895
-0.029310315
-0.026808806
-0.024148559
-0.021472878
-0.018893033
-0.016504783
-0.014352469
-0.012515604
-0.010954909
-0.0098331447
-0.0089301766
0.0012006593
0.0010919716
0.00087647783
0.00082801096
0.00042367792
0.00069119197
-0.00030044251
0.001193419
0.0013280802
0.001401792
0.0014396905
0.0014130375
0.0013093831
0.0010979362
0.00074995013
0.00024706929
-0.00045876039
-0.0013459239
-0.0026375551
-0.0042359758
-0.0061774509
-0.0085236925
-0.011261289
-0.014347318
-0.017704644
-0.021218625
-0.024740305
-0.028094412
-0.031092666
-0.033552025
-0.035316086
-0.036275975
-0.036386055
-0.035670249
-0.034217035
-0.032164444
-0.029678758
-0.026932891
-0.024086647
-0.021277936
-0.018609435
-0.016166624
-0.013985024
-0.012135165
-0.010572166
-0.0094510876
-0.008550778
0.0013426496
0.0012006592
0.0010814675
0.00086084236
0.00080518254
0.00041190415
0.00065982891
-0.00026908473
0.001083939
0.0014381932
0.001505263
0.00151341
0.0014529294
0.0012948987
0.0010096855
0.00056009394
-7.5016617e-05
-0.00095444748
-0.0020358634
-0.0035675643
-0.0054360019
-0.0076740335
-0.010337168
-0.013395634
-0.016786862
-0.02041101
-0.024129984
-0.027773249
-0.03114891
-0.034059849
-0.036324354
-0.03779856
-0.03839647
-0.038102543
-0.036973273
-0.035127019
-0.032724873
-0.029947158
-0.02697173
-0.023955984
-0.021030032
-0.018286594
-0.015800516
-0.0135987
-0.011742574
-0.010181906
-0.0090645512
-0.0081691719
0.0014552767
0.0013426494
0.0011892656
0.0010594711
0.00083698577
0.00077525761
0.00039709864
0.00062341513
-0.00023710992
0.00097147598
0.0015482866
0.0015900763
0.0015702136
0.001462302
0.0012392575
0.00086230272
0.00029016335
-0.0005038127
-0.0015897819
-0.0028974253
-0.0047011676
-0.0068699454
-0.0094315717
-0.012432254
-0.015822873
-0.019518393
-0.023394535
-0.027289228
-0.031011557
-0.034355784
-0.037120261
-0.039129963
-0.040259286
-0.040450143
-0.039720469
-0.038160428
-0.035917129
-0.033171972
-0.030115766
-0.026927818
-0.023760025
-0.020732668
-0.017927847
-0.015409719
-0.013196343
-0.011339734
-0.0097853951
-0.0086747767
-0.007785637
0.0015686324
0.0014552766
0.0013280798
0.0011641111
0.0010261496
0.00080566734
0.00073869862
0.00037893372
0.0005824885
-0.00020582194
0.00086132065
0.0016404116
0.0016597598
0.0015989974
0.0014343125
0.0011295893
0.00064148829
-7.8200532e-05
-0.0010611972
-0.0023905001
-0.0039593795
-0.0060681595
-0.0085676069
-0.011477998
-0.014833272
-0.018561609
-0.022553205
-0.02665803
-0.030690447
-0.034441186
-0.037694347
-0.040248776
-0.041942027
-0.042672556
-0.042414836
-0.041222813
-0.039220389
-0.036581408
-0.033504181
-0.030186134
-0.026804313
-0.023502345
-0.020389502
-0.017537034
-0.014997696
-0.012779992
-0.010927585
-0.0093840419
-0.0082834428
-0.0074010964
0.0016642957
0.0015686323
0.0014381927
0.0012970814
0.0011252653
0.0009826916
0.00076705173
0.00069592884
0.00035709499
0.00053894256
-0.00017569167
0.00075991499
0.0017186213
0.0017032881
0.0015934952
0.0013566345
0.00095241241
0.00032973615
-0.00056573393
-0.0017716547
-0.0033850377
-0.0052525571
-0.0077000551
-0.010559383
-0.013840925
-0.017562816
-0.021627558
-0.025898571
-0.030199653
-0.03432283
-0.038043442
-0.04113993
-0.043417368
-0.044732122
-0.045012417
-0.044269276
-0.042594169
-0.040143776
-0.037115848
-0.033721573
-0.030160763
-0.026604641
-0.023186835
-0.020005004
-0.017118344
-0.014566599
-0.01235013
-0.010508091
-0.0089815087
-0.0078926793
-0.0070036051
0.0017467
0.0016642955
0.001548286
0.0014017913
0.0012497677
0.0010742957
0.00092961215
0.0007210631
0.00064764568
0.00033368308
0.00049682465
-0.00014856273
0.00065361973
0.0017718905
0.0017148289
0.0015417541
0.0012164527
0.00069097818
-9.2669891e-05
-0.0011958416
-0.0026623469
-0.0046042167
-0.0068099849
-0.0096293867
-0.01287587
-0.016546758
-0.020641007
-0.025032646
-0.029557126
-0.034012438
-0.038170461
-0.041794996
-0.044664156
-0.046595557
-0.047470824
-0.047253279
-0.045993575
-0.043821106
-0.040923415
-0.037518421
-0.033825485
-0.030042601
-0.026332757
-0.022818599
-0.01958419
-0.016674008
-0.014116242
-0.01190952
-0.010088467
-0.0085808723
-0.0074794422
-0.0065892196
0.0018047524
0.0017466997
0.0016404111
0.0015052621
0.0013461903
0.0011878632
0.0010118819
0.00086739749
0.00066779671
0.00059714231
0.00031245972
0.00045872503
-0.00012369564
0.00054040121
0.0017947047
0.0016826964
0.0014315082
0.0009976867
0.0003265085
-0.00064811976
-0.0019945569
-0.0037629926
-0.0060811955
-0.0086662006
-0.011889401
-0.015547012
-0.019619897
-0.024084496
-0.028784292
-0.033526288
-0.038083965
-0.042212207
-0.045668032
-0.048235307
-0.049750997
-0.050128389
-0.049370537
-0.047569704
-0.044892552
-0.041554472
-0.037788669
-0.033817915
-0.029835375
-0.025994345
-0.022403548
-0.019129299
-0.016202949
-0.013650545
-0.011470022
-0.0096724246
-0.0081424729
-0.0070498851
-0.0061638301
0.0018331494
0.0018047522
0.0017186206
0.0015900753
0.0014396892
0.0012733973
0.0011122608
0.00093817954
0.00079693679
0.00061158372
0.00054539382
0.00028673003
0.00041222443
-9.7654816e-05
0.00042624784
0.0017755327
0.0015950498
0.0012472351
0.00068233669
-0.00016246303
-0.0013615932
-0.0029905073
-0.0051056476
-0.0078509389
-0.010856835
-0.014513257
-0.018601249
-0.023081659
-0.027905656
-0.03288473
-0.037797774
-0.042396109
-0.046421744
-0.049630522
-0.05181886
-0.052850187
-0.052675473
-0.051341164
-0.048982028
-0.045800066
-0.042034003
-0.037927026
-0.033701964
-0.0295452
-0.025596231
-0.021943823
-0.018638112
-0.015710566
-0.013187639
-0.011036048
-0.0091905423
-0.0076920797
-0.0066074387
-0.005729648
0.0018203992
0.001833149
0.0017718896
0.0016597585
0.0015134086
0.0013538732
0.0011843095
0.0010235076
0.00085405934
0.00072368753
0.00055642454
0.00049038516
0.0002466699
0.00035495065
-7.1705552e-05
0.00031525336
0.0017028271
0.0014367751
0.00097154794
0.00024971968
-0.00079996911
-0.0022606482
-0.0042147337
-0.0067244402
-0.0099498152
-0.013417898
-0.017533117
-0.022064366
-0.026949378
-0.032111847
-0.037330361
-0.04235721
-0.046924932
-0.05076771
-0.053646661
-0.055378181
-0.055859265
-0.055083855
-0.053144411
-0.050217729
-0.046537434
-0.042360121
-0.037935388
-0.033483901
-0.029179774
-0.025140293
-0.021435742
-0.018117912
-0.01522288
-0.012732398
-0.010499746
-0.0087010384
-0.0072256764
-0.0061554604
-0.0052859323
0.001755131
0.0018203987
0.0017947036
0.0017032866
0.0015702118
0.0014130356
0.0012489521
0.0010795484
0.00092264216
0.00076685414
0.00064863177
0.00049626382
0.00042039026
0.00020477829
0.0002882892
-5.1901616e-05
0.0002115002
0.0015617244
0.0011909398
0.00058442217
-0.00032330685
-0.001612562
-0.003375306
-0.005700401
-0.0086552697
-0.012414866
-0.016385046
-0.020978935
-0.025958516
-0.0312357
-0.036704589
-0.042111217
-0.047183895
-0.051640695
-0.055214021
-0.057677508
-0.058875361
-0.058744855
-0.05732729
-0.054762404
-0.051266463
-0.04709966
-0.042532756
-0.037819751
-0.03317215
-0.028740454
-0.024620957
-0.020888901
-0.017604407
-0.014745149
-0.012125608
-0.0099622034
-0.008192003
-0.0067496661
-0.0056929309
-0.0048335268
0.0016225764
0.0017551306
0.0017755315
0.0017148271
0.0015989952
0.001452927
0.0012902299
0.0011256333
0.00096059401
0.00081839823
0.00067853857
0.00056811047
0.00041119681
0.00034432855
0.0001583915
0.00021474967
-4.1771149e-05
0.00011831686
0.0013355753
0.00083806833
6.3432137e-05
-0.0010622754
-0.0026292768
-0.0047377753
-0.0074825391
-0.010935114
-0.015283254
-0.019792172
-0.024877375
-0.030301608
-0.035947535
-0.04167887
-0.04721059
-0.052250668
-0.056508039
-0.059720391
-0.06168181
-0.062272163
-0.061475067
-0.059382324
-0.056179882
-0.052119214
-0.047483802
-0.042557025
-0.037589028
-0.032767179
-0.028219205
-0.02405058
-0.020350717
-0.017103256
-0.014054011
-0.011524513
-0.0094000268
-0.0076734468
-0.0062623332
-0.005221025
-0.0043725341
0.0014062129
0.001622576
0.0017028257
0.0016826944
0.0015934927
0.0014622992
0.0013093802
0.0011458632
0.00098567529
0.0008381604
0.00071176127
0.00058536764
0.00045997735
0.00032042454
0.00025922181
0.00010222286
0.00013674385
-4.2801825e-05
3.787997e-05
0.0010052869
0.0003563173
-0.0006161675
-0.0019954124
-0.0038814251
-0.0063821632
-0.0095975073
-0.013601269
-0.018590461
-0.023670214
-0.02925141
-0.035106041
-0.04108522
-0.04702263
-0.05260476
-0.057523926
-0.061486398
-0.06424309
-0.065617005
-0.065531164
-0.064020547
-0.061228125
-0.057382876
-0.052769231
-0.047693267
-0.042441919
-0.037242249
-0.032257714
-0.027631592
-0.02349069
-0.019827321
-0.016310641
-0.013376798
-0.010892281
-0.0088291098
-0.0071433791
-0.0057653231
-0.0047399018
-0.0039034725
0.0010871897
0.0014062124
0.001561723
0.0015950477
0.0015417512
0.0014343092
0.0012948951
0.0011405568
0.00098217081
0.00084172457
0.00071330353
0.00059988812
0.0004566662
0.00034500259
0.00022284601
0.00016189024
3.5553023e-05
5.5079153e-05
-5.509937e-05
-2.8993065e-05
0.00054942646
-0.00027862745
-0.001481883
-0.0031532533
-0.0054021608
-0.0083441277
-0.012082045
-0.016689933
-0.022368992
-0.028047188
-0.034118782
-0.040377713
-0.04664186
-0.052716355
-0.058262891
-0.062963868
-0.066530736
-0.06873601
-0.069440509
-0.068617045
-0.06635445
-0.062844966
-0.058359729
-0.053217258
-0.047736546
-0.042184349
-0.036763864
-0.031662937
-0.02705607
-0.022947987
-0.018915589
-0.015541197
-0.012659938
-0.010252892
-0.0082466503
-0.0066037687
-0.0052586626
-0.0042502815
-0.0034267193
0.0006443082
0.0010871891
0.0013355739
0.0014367728
0.001431505
0.0013566307
0.0012392535
0.001097932
0.0009492731
0.00081397689
0.00069464774
0.00058418576
0.00044552319
0.00031996887
0.00022073549
0.00011132453
5.3437849e-05
-4.1652589e-05
-3.0232906e-05
-7.8243754e-05
-8.2884266e-05
-5.6069731e-05
-0.0010937337
-0.0025635237
-0.0045680373
-0.0072263746
-0.010660047
-0.014972593
-0.0202358
-0.026649121
-0.032946301
-0.039490856
-0.046115255
-0.052602747
-0.058732854
-0.064147076
-0.068525094
-0.07159238
-0.073152038
-0.07311125
-0.071496765
-0.06845068
-0.064215225
-0.059107522
-0.053470503
-0.04760754
-0.041763111
-0.036177048
-0.031081639
-0.026499998
-0.021897174
-0.018037291
-0.014721744
-0.011937893
-0.0096025141
-0.0076548087
-0.0060545434
-0.0047432652
-0.0037527381
-0.0029427552
5.3558498e-05
0.00064430777
0.0010052855
0.0011909373
0.0012472317
0.0012164486
0.0011295847
0.0010096806
0.00087495358
0.00075253758
0.00064202064
0.00054452798
0.00040337388
0.00028296476
0.00017398062
7.9635669e-05
-1.4438645e-05
-6.5393676e-05
-0.00012942552
-0.00011904469
-0.00011162861
-0.00012551586
-0.00083775516
-0.0021181838
-0.0038925417
-0.0062738444
-0.0093899551
-0.013366292
-0.018305414
-0.024271829
-0.031456691
-0.038384693
-0.045371807
-0.052309215
-0.058945088
-0.065037128
-0.070212666
-0.074157399
-0.07662042
-0.077444817
-0.076590111
-0.074137538
-0.070284781
-0.065331165
-0.059631362
-0.053518693
-0.047277565
-0.041205548
-0.035604901
-0.030521972
-0.025288495
-0.020891415
-0.017096241
-0.013899921
-0.011205878
-0.0089432863
-0.007053601
-0.0054967215
-0.0042198495
-0.0032480357
-0.0024519653
-0.00071140502
5.3558136e-05
0.00054942502
0.00083806585
0.00097154459
0.00099768243
0.00095240726
0.00086229704
0.00074994436
0.00064528422
0.00055071143
0.00046948384
0.00033299494
0.00021355956
0.00011002803
8.8498206e-06
-7.7546268e-05
-0.00015412323
-0.00019425708
-0.00022762172
-0.00021093612
-0.0001542235
-0.0001593497
-0.0018243466
-0.0033826676
-0.0055022288
-0.0083059308
-0.011929072
-0.016499177
-0.022114855
-0.028827264
-0.036811838
-0.044372722
-0.051757391
-0.058941848
-0.065637682
-0.071586491
-0.076409068
-0.079807164
-0.081563723
-0.081569542
-0.079837633
-0.076507474
-0.071843141
-0.066194942
-0.059915408
-0.053323391
-0.046778094
-0.040663847
-0.035056624
-0.029126015
-0.024135335
-0.019806936
-0.016156656
-0.013069475
-0.010465844
-0.0082753406
-0.0064440398
-0.0049311787
-0.0036893845
-0.0027363008
-0.0019550178
-0.001679033
-0.00071140546
-5.6071132e-05
0.00035631498
0.00058441884
0.00068233224
0.00069097273
0.00064148217
0.00056008737
0.00048172746
0.00040866705
0.00035200622
0.00022447994
0.00011227926
1.2850744e-05
-8.4867465e-05
-0.00017506549
-0.00024982108
-0.00030731364
-0.00033278384
-0.00033580829
-0.00030559573
-0.00020456874
-0.00018709411
-0.0030462309
-0.0049198593
-0.0074272195
-0.010700037
-0.014879842
-0.020093603
-0.026431667
-0.033926595
-0.042728743
-0.050912046
-0.058634999
-0.06598663
-0.072640757
-0.078331225
-0.082680987
-0.085419787
-0.086372446
-0.085480472
-0.082814235
-0.078586296
-0.073124086
-0.066783771
-0.059908619
-0.05291988
-0.04629613
-0.040148666
-0.033450756
-0.027803785
-0.022883219
-0.018728995
-0.015209942
-0.012232231
-0.0097178344
-0.0075995171
-0.0058272168
-0.0043590877
-0.0031514156
-0.0022183851
-0.0014524223
-0.0028795691
-0.0016790334
-0.00083775634
-0.00027862961
6.342878e-05
0.0002497152
0.00032650308
0.00032972976
0.00029015611
0.00024706161
0.00020377056
0.00018067501
6.9262038e-05
-3.0094654e-05
-0.0001200642
-0.00021259504
-0.00030081364
-0.00037677343
-0.00043656892
-0.0004732642
-0.00048040754
-0.0004532455
-0.00040288255
-0.00026097275
-0.00021124375
-0.0045356181
-0.0067639156
-0.0097027003
-0.013491933
-0.018277451
-0.024181435
-0.031283412
-0.039589061
-0.049212617
-0.057996406
-0.065983041
-0.073407774
-0.079906402
-0.085215744
-0.088970842
-0.090941227
-0.090995435
-0.089130438
-0.085492538
-0.08036791
-0.074096494
-0.067030576
-0.059649369
-0.052536717
-0.045844394
-0.038306103
-0.031936401
-0.026357038
-0.021644133
-0.017645752
-0.014258017
-0.011387997
-0.0089626519
-0.006917218
-0.0052044642
-0.0037789474
-0.0026077335
-0.0016947569
-0.00094466891
-0.0043450266
-0.0028795693
-0.0018243475
-0.0010937358
-0.00061617072
-0.00032331109
-0.00016246836
-9.2676448e-05
-7.8208134e-05
-7.5024846e-05
-7.9465992e-05
-5.786038e-05
-0.00014372648
-0.00022309324
-0.00029689511
-0.00038008062
-0.00046169512
-0.00053636286
-0.00059536572
-0.0006370254
-0.00065103214
-0.00063640611
-0.00057892024
-0.0005027461
-0.00032177531
-0.00023374877
-0.0063260855
-0.0089495079
-0.012363987
-0.016716659
-0.02215469
-0.028792589
-0.036692534
-0.045826048
-0.056261433
-0.06561084
-0.073770133
-0.081160257
-0.087379834
-0.092180509
-0.095221197
-0.09631564
-0.095378619
-0.092484919
-0.087862019
-0.081811604
-0.074673489
-0.066975508
-0.059415807
-0.052189567
-0.043737761
-0.036575658
-0.030265222
-0.024931528
-0.020401879
-0.016559288
-0.013300301
-0.010537502
-0.00820199
-0.0062297668
-0.0045729405
-0.0031933547
-0.0020588822
-0.0011662137
-0.00043222404
-0.0061087535
-0.0043450267
-0.0030462318
-0.0021181856
-0.0014818859
-0.0010622794
-0.00079997438
-0.00064812628
-0.00056574147
-0.00050382125
-0.00045876971
-0.00037910048
-0.00042851775
-0.00047767272