/*--------------------------------*- C++ -*----------------------------------*\
| =========                 |                                                 |
| \\      /  F ield         | OpenFOAM: The Open Source CFD Toolbox           |
|  \\    /   O peration     | Version:  5.0                                   |
|   \\  /    A nd           | Web:      www.OpenFOAM.org                      |
|    \\/     M anipulation  |                                                 |
\*---------------------------------------------------------------------------*/
FoamFile
{
    version     2.0;
    format      ascii;
    class       volScalarField;
    location    "120";
    object      pPrime2Mean;
}
// * * * * * * * * * * * * * * * * * * * * * * * * * * * * * * * * * * * * * //

dimensions      [0 4 -4 0 0 0 0];

internalField   nonuniform List<scalar> 
9200
(
1.0106495e-08
9.9117135e-09
5.86807e-08
9.6079876e-09
5.7795036e-08
1.6828614e-07
9.2869798e-09
5.5938732e-08
1.6587267e-07
3.212609e-07
8.8225046e-09
5.381537e-08
1.6096995e-07
3.1737648e-07
5.280057e-07
8.3900456e-09
5.0850687e-08
1.5519093e-07
3.0884158e-07
5.2292544e-07
7.7939199e-07
7.9571534e-09
4.7799352e-08
1.471839e-07
2.9883405e-07
5.1049489e-07
7.7426442e-07
1.0767533e-06
7.6342775e-09
4.4473706e-08
1.3873414e-07
2.8470586e-07
4.960861e-07
7.5885695e-07
1.0731604e-06
1.4154381e-06
7.4737555e-09
4.1298896e-08
1.2954091e-07
2.6946323e-07
4.7503837e-07
7.4164857e-07
1.0563698e-06
1.415944e-06
1.7928142e-06
7.5668832e-09
3.841257e-08
1.2067701e-07
2.5250295e-07
4.5187711e-07
7.1494333e-07
1.0389782e-06
1.4007272e-06
1.8003842e-06
2.203071e-06
8.0033103e-09
3.6078862e-08
1.1264264e-07
2.3559847e-07
4.2549771e-07
6.8491947e-07
1.0090478e-06
1.3875734e-06
1.7905247e-06
2.2213858e-06
2.6413844e-06
8.8793098e-09
3.449611e-08
1.0623849e-07
2.1958689e-07
3.9853602e-07
6.4946832e-07
9.7444632e-07
1.3588526e-06
1.7874896e-06
2.2216808e-06
2.6744432e-06
3.0991041e-06
1.0287111e-08
3.3848781e-08
1.0213151e-07
2.0584627e-07
3.7225981e-07
6.119718e-07
9.3148993e-07
1.3242814e-06
1.7664192e-06
2.236166e-06
2.6906621e-06
3.1514293e-06
3.5713564e-06
1.2300289e-08
3.4298244e-08
1.0091685e-07
1.9553848e-07
3.4878969e-07
5.7389622e-07
8.8422459e-07
1.2778623e-06
1.7388545e-06
2.2313322e-06
2.7316346e-06
3.1901442e-06
3.6472038e-06
4.0468717e-06
1.4956099e-08
3.5998415e-08
1.0304238e-07
1.8972293e-07
3.299332e-07
5.3811676e-07
8.341158e-07
1.2239458e-06
1.6956318e-06
2.2204762e-06
2.7536879e-06
3.2677241e-06
3.7146133e-06
4.150376e-06
4.5178953e-06
1.8230483e-08
3.9116429e-08
1.0877528e-07
1.8924839e-07
3.1739227e-07
5.0720977e-07
7.846836e-07
1.163565e-06
1.6410514e-06
2.1903045e-06
2.7719772e-06
3.3291292e-06
3.8393007e-06
4.2532495e-06
4.6536638e-06
4.9745037e-06
2.2032864e-08
4.3849013e-08
1.1811127e-07
1.9473791e-07
3.12581e-07
4.8370754e-07
7.3921482e-07
1.1007499e-06
1.5750812e-06
2.1444961e-06
2.7681501e-06
3.3915568e-06
3.9540473e-06
4.4364217e-06
4.7992221e-06
5.1457874e-06
5.4081191e-06
2.6207341e-08
5.0448575e-08
1.307731e-07
2.0655304e-07
3.1649285e-07
4.697849e-07
7.0120126e-07
1.0393964e-06
1.5017822e-06
2.0812128e-06
2.744668e-06
3.4307831e-06
4.0780889e-06
4.6194779e-06
5.0512276e-06
5.3398063e-06
5.6175171e-06
5.8109223e-06
3.0518169e-08
5.9207138e-08
1.4627881e-07
2.2479233e-07
3.2965296e-07
4.6711247e-07
6.7380141e-07
9.8389038e-07
1.4253568e-06
2.0040269e-06
2.6969135e-06
3.4474721e-06
4.180649e-06
4.8242788e-06
5.3175076e-06
5.6705841e-06
5.8655329e-06
6.0600216e-06
6.1759347e-06
3.4604361e-08
7.0380646e-08
1.6390568e-07
2.4929581e-07
3.5212834e-07
4.7676486e-07
6.5960508e-07
9.384585e-07
1.3510374e-06
1.9168927e-06
2.6271401e-06
3.4332202e-06
4.2600938e-06
5.0133148e-06
5.6234397e-06
6.0349792e-06
6.2847263e-06
6.3654573e-06
6.465262e-06
6.4975387e-06
3.7941833e-08
8.4022155e-08
1.8279218e-07
2.7970972e-07
3.8355036e-07
4.9926222e-07
6.6046729e-07
9.0684732e-07
1.2841996e-06
1.8255008e-06
2.5382844e-06
3.3880066e-06
4.3031656e-06
5.1823809e-06
5.9245828e-06
6.4626114e-06
6.7603251e-06
6.8796222e-06
6.8303055e-06
6.8264639e-06
6.7715497e-06
3.9870193e-08
9.9776755e-08
2.021392e-07
3.1537243e-07
4.231056e-07
5.3451773e-07
6.774596e-07
8.9205336e-07
1.2299774e-06
1.7362077e-06
2.4359167e-06
3.3126642e-06
4.306471e-06
5.3124904e-06
6.2142093e-06
6.9027774e-06
7.3293062e-06
7.4779626e-06
7.4441599e-06
7.2516335e-06
7.1383267e-06
6.9952184e-06
3.9739558e-08
1.1672747e-07
2.2129207e-07
3.5525103e-07
4.6963058e-07
5.818757e-07
7.1086938e-07
8.9618678e-07
1.1928392e-06
1.6555725e-06
2.3269869e-06
3.2116949e-06
4.2674434e-06
5.3957534e-06
6.4669356e-06
7.3468073e-06
7.9356696e-06
8.2061468e-06
8.1743031e-06
7.9665402e-06
7.6223217e-06
7.3971234e-06
7.1673737e-06
3.7162569e-08
1.3344671e-07
2.3989256e-07
3.9806611e-07
5.2163272e-07
6.4014628e-07
7.6017043e-07
9.2040561e-07
1.1762949e-06
1.5897548e-06
2.2193259e-06
3.0918695e-06
4.1882626e-06
5.4247257e-06
6.6694322e-06
7.7628085e-06
8.5697893e-06
9.0046124e-06
9.0764043e-06
8.8337669e-06
8.4370296e-06
7.9368872e-06
7.6007164e-06
7.2882918e-06
3.2298554e-08
1.4842801e-07
2.5795701e-07
4.424294e-07
5.7738154e-07
7.0770931e-07
8.2408166e-07
9.6493284e-07
1.1827347e-06
1.5440671e-06
2.1208644e-06
2.9617798e-06
4.0743553e-06
5.397671e-06
6.8078846e-06
8.1313673e-06
9.1937102e-06
9.8645444e-06
1.0090229e-05
9.920735e-06
9.4433675e-06
8.8472751e-06
8.1916904e-06
7.7485932e-06
7.359459e-06
2.6021728e-08
1.6100498e-07
2.7581643e-07
4.869206e-07
6.3504702e-07
7.8255065e-07
9.0074132e-07
1.0290617e-06
1.2133708e-06
1.5226606e-06
2.0390001e-06
2.830899e-06
3.9341409e-06
5.3170668e-06
6.8748568e-06
8.4309799e-06
9.7818951e-06
1.074323e-05
1.1210009e-05
1.1169e-05
1.0721213e-05
9.9903096e-06
9.1910357e-06
8.3847939e-06
7.8417487e-06
7.3835928e-06
1.9872711e-08
1.7147881e-07
2.9319193e-07
5.3002976e-07
6.9298449e-07
8.6218523e-07
9.877699e-07
1.1111813e-06
1.2682158e-06
1.5283858e-06
1.9800841e-06
2.7087756e-06
3.7780108e-06
5.1897116e-06
6.8678807e-06
8.6466752e-06
1.0304263e-05
1.1609713e-05
1.2390399e-05
1.2578857e-05
1.2217522e-05
1.1459712e-05
1.0464475e-05
9.4639231e-06
8.5160201e-06
7.8824325e-06
7.364596e-06
1.5742172e-08
1.8025029e-07
3.0896769e-07
5.7026657e-07
7.4961561e-07
9.4372491e-07
1.0824007e-06
1.2088717e-06
1.3461149e-06
1.5627139e-06
1.9491032e-06
2.6042851e-06
3.6173858e-06
5.0257382e-06
6.7901496e-06
8.7687655e-06
1.0736695e-05
1.2425172e-05
1.3596733e-05
1.4105425e-05
1.394201e-05
1.3211105e-05
1.2120489e-05
1.085749e-05
9.6639239e-06
8.5869526e-06
7.8742063e-06
7.306286e-06
1.5394446e-08
1.8814559e-07
3.2230934e-07
6.0636993e-07
8.0337126e-07
1.0245611e-06
1.1816517e-06
1.3189853e-06
1.444857e-06
1.6256801e-06
1.9494994e-06
2.5250938e-06
3.4637287e-06
4.8376366e-06
6.6497363e-06
8.7943599e-06
1.1059958e-05
1.3155256e-05
1.4782279e-05
1.5713085e-05
1.5854119e-05
1.5267246e-05
1.4126757e-05
1.2689657e-05
1.1164003e-05
9.7911494e-06
8.6008503e-06
7.8216053e-06
7.2114224e-06
1.9958791e-08
1.9733465e-07
3.3227673e-07
6.3726166e-07
8.5285413e-07
1.1025428e-06
1.2824424e-06
1.4376516e-06
1.5612987e-06
1.7158906e-06
1.9830062e-06
2.4773116e-06
3.3277328e-06
4.6390691e-06
6.4587396e-06
8.7269924e-06
1.1262256e-05
1.3769132e-05
1.5902294e-05
1.7349314e-05
1.7921195e-05
1.7596476e-05
1.6522685e-05
1.4942991e-05
1.3156602e-05
1.1380997e-05
9.847315e-06
8.5618992e-06
7.7289425e-06
7.0857121e-06
3.0063677e-08
2.0671117e-07
3.3746172e-07
6.6223732e-07
8.9656888e-07
1.1757688e-06
1.3815906e-06
1.560455e-06
1.6914922e-06
1.8305091e-06
2.0495512e-06
2.4652207e-06
3.2187442e-06
4.44379e-06
6.2320088e-06
8.5761181e-06
1.1339492e-05
1.4243201e-05
1.6912958e-05
1.8960074e-05
2.008843e-05
2.0173995e-05
1.9290453e-05
1.7676928e-05
1.564173e-05
1.3513797e-05
1.1508107e-05
9.8354563e-06
8.4744555e-06
7.6002137e-06
6.9367738e-06
4.7112741e-08
2.099321e-07
3.397824e-07
6.8539811e-07
9.3306681e-07
1.2420109e-06
1.4756621e-06
1.6831289e-06
1.8307275e-06
1.9653277e-06
2.1472818e-06
2.4910176e-06
3.1443203e-06
4.2647678e-06
5.985837e-06
8.3559297e-06
1.1295397e-05
1.4562212e-05
1.7776315e-05
2.0488332e-05
2.2295212e-05
2.2947736e-05
2.2418879e-05
2.0892555e-05
1.8701637e-05
1.6208498e-05
1.3757309e-05
1.1547399e-05
9.7602185e-06
8.3433194e-06
7.4415547e-06
6.7705067e-06
7.0914818e-08
2.0841241e-07
3.4261284e-07
7.1419237e-07
9.650781e-07
1.299554e-06
1.5615065e-06
1.8022409e-06
1.973824e-06
2.1149934e-06
2.2726361e-06
2.5546432e-06
3.1097869e-06
4.1135278e-06
5.7367746e-06
8.0839529e-06
1.1140697e-05
1.4720336e-05
1.8462359e-05
2.188008e-05
2.4472702e-05
2.5855047e-05
2.5864973e-05
2.4598482e-05
2.2361053e-05
1.9572215e-05
1.6633368e-05
1.388662e-05
1.150333e-05
9.6277447e-06
8.1749959e-06
7.2598731e-06
6.590947e-06
1.0048747e-07
2.0600341e-07
3.5021046e-07
7.2650253e-07
9.9703198e-07
1.3556336e-06
1.6369943e-06
1.913998e-06
2.1154214e-06
2.2733604e-06
2.4204124e-06
2.6537085e-06
3.1178779e-06
3.999506e-06
5.5006822e-06
7.7796025e-06
1.0891828e-05
1.4720992e-05
1.8951338e-05
2.3087387e-05
2.6550614e-05
2.8818752e-05
2.9570475e-05
2.8768281e-05
2.6654683e-05
2.3657443e-05
2.0269421e-05
1.6911016e-05
1.3904606e-05
1.1382219e-05
9.4453188e-06
7.9765247e-06
7.0613568e-06
6.4019523e-06
1.3403065e-07
2.0307344e-07
3.6227039e-07
7.2229193e-07
1.0170857e-06
1.4149837e-06
1.7102919e-06
2.0148579e-06
2.2500597e-06
2.4342948e-06
2.5839864e-06
2.783582e-06
3.168525e-06
3.9293887e-06
5.2918763e-06
7.4629234e-06
1.056938e-05
1.4576013e-05
1.9234604e-05
2.4072125e-05
2.8461016e-05
3.1754136e-05
3.3455692e-05
3.3356246e-05
3.1580727e-05
2.8530789e-05
2.4748849e-05
2.0779858e-05
1.7040891e-05
1.3817128e-05
1.1192043e-05
9.2207959e-06
7.7546497e-06
6.8509402e-06
6.2074428e-06
1.6901801e-07
1.9994912e-07
3.7615023e-07
7.2187831e-07
1.0300507e-06
1.4476567e-06
1.7864915e-06
2.1156451e-06
2.3731392e-06
2.5914083e-06
2.7558842e-06
2.9376337e-06
3.2587611e-06
3.9066078e-06
5.1221547e-06
7.153494e-06
1.0196579e-05
1.4304215e-05
1.9314612e-05
2.4808189e-05
3.0143525e-05
3.4573073e-05
3.7425982e-05
3.8288427e-05
3.7115597e-05
3.4223304e-05
3.0175152e-05
2.5609356e-05
2.10966e-05
1.7026895e-05
1.3632586e-05
1.0941822e-05
8.962132e-06
7.5156571e-06
6.6333296e-06
6.0113559e-06
2.0239445e-07
1.9710617e-07
3.8994093e-07
7.2263668e-07
1.046638e-06
1.4621903e-06
1.8326879e-06
2.2196452e-06
2.4976578e-06
2.7384965e-06
2.9278421e-06
3.1077404e-06
3.3828496e-06
3.9310521e-06
4.9999159e-06
6.8691715e-06
9.7979401e-06
1.3929806e-05
1.9204003e-05
2.5282754e-05
3.1549106e-05
3.7190438e-05
4.137547e-05
4.3467743e-05
4.3201586e-05
4.0743856e-05
3.6619817e-05
3.1543475e-05
2.6221285e-05
2.1219116e-05
1.6876944e-05
1.3361347e-05
1.0641239e-05
8.6771699e-06
7.2654565e-06
6.4128583e-06
5.8172487e-06
2.3095743e-07
1.9482105e-07
4.0281668e-07
7.2226463e-07
1.0666269e-06
1.4824955e-06
1.8605619e-06
2.2831509e-06
2.6273232e-06
2.8904373e-06
3.0919134e-06
3.2846379e-06
3.5326221e-06
3.9990215e-06
4.9295089e-06
6.6247326e-06
9.3978015e-06
1.3480829e-05
1.8924214e-05
2.5496346e-05
3.2643013e-05
3.9529541e-05
4.5194198e-05
4.8776393e-05
4.9749783e-05
4.8063255e-05
4.413458e-05
3.8700607e-05
3.2601364e-05
2.6575756e-05
2.115299e-05
1.6602311e-05
1.3015167e-05
1.0300254e-05
8.3734455e-06
7.0094e-06
6.1934281e-06
5.6281098e-06
2.5179192e-07
1.9318162e-07
4.1407372e-07
7.2120497e-07
1.0855815e-06
1.5042961e-06
1.893715e-06
2.3256269e-06
2.7053326e-06
3.0493631e-06
3.2644327e-06
3.4588003e-06
3.69763e-06
4.1034295e-06
4.9108439e-06
6.4307247e-06
9.0184929e-06
1.2987572e-05
1.8503931e-05
2.5462091e-05
3.3406354e-05
4.1527025e-05
4.8774901e-05
5.4082891e-05
5.6640139e-05
5.6114232e-05
5.273204e-05
4.718494e-05
4.0406721e-05
3.3325707e-05
2.6672737e-05
2.0909237e-05
1.6216906e-05
1.2606701e-05
9.9287261e-06
8.0581097e-06
6.7523567e-06
5.9784101e-06
5.4463681e-06
2.6275272e-07
1.9214034e-07
4.2306947e-07
7.2002322e-07
1.1023733e-06
1.5218588e-06
1.9317201e-06
2.3738343e-06
2.7598482e-06
3.1442685e-06
3.4471257e-06
3.646761e-06
3.8668656e-06
4.2339923e-06
4.9393811e-06
6.2925762e-06
8.6785413e-06
1.2480405e-05
1.7977456e-05
2.5204525e-05
3.3836546e-05
4.3136407e-05
5.2019906e-05
5.9249497e-05
6.3727175e-05
6.4788082e-05
6.2382242e-05
5.7064123e-05
4.9801949e-05
4.1692806e-05
3.3705704e-05
2.6520618e-05
2.0503451e-05
1.5736565e-05
1.2148939e-05
9.5361543e-06
7.7376491e-06
6.4985792e-06
5.7706289e-06
5.2739275e-06
1.9166461e-07
2.6275277e-07
4.291012e-07
7.1902505e-07
1.1164749e-06
1.5356208e-06
1.9661235e-06
2.4272574e-06
2.8232597e-06
3.2154317e-06
3.5531423e-06
3.8493512e-06
4.0556144e-06
4.3789569e-06
5.0063857e-06
6.2102366e-06
8.3910877e-06
1.1987272e-05
1.738249e-05
2.4758148e-05
3.3946977e-05
4.4330357e-05
5.4846993e-05
6.4140846e-05
7.0847137e-05
7.3937841e-05
7.3005109e-05
6.8362407e-05
6.0921877e-05
5.1907533e-05
4.2529526e-05
3.374279e-05
2.6135188e-05
1.9954836e-05
1.5178244e-05
1.165474e-05
9.1313448e-06
7.4178071e-06
6.2516921e-06
5.5723619e-06
5.1124315e-06
4.3195315e-07
1.9166451e-07
2.5179195e-07
7.1809891e-07
1.1273966e-06
1.5463621e-06
1.9956253e-06
2.4739237e-06
2.8940643e-06
3.2979587e-06
3.6364029e-06
3.9643097e-06
4.2642447e-06
4.5496903e-06
5.1001147e-06
6.1786045e-06
8.1629073e-06
1.1531225e-05
1.6756989e-05
2.4165433e-05
3.3766187e-05
4.5101858e-05
5.719404e-05
6.8632139e-05
7.7827449e-05
8.3383564e-05
8.4469607e-05
8.1048311e-05
7.3861703e-05
6.4181762e-05
5.3443108e-05
4.2904569e-05
3.3450008e-05
2.5538544e-05
1.9285097e-05
1.4559293e-05
1.1136307e-05
8.7222409e-06
7.1034899e-06
6.0146386e-06
5.3855613e-06
4.9633733e-06
7.1748704e-07
4.3195316e-07
1.9214013e-07
2.3095757e-07
1.1342162e-06
1.5544421e-06
2.0198492e-06
2.5127973e-06
2.9567506e-06
3.3900944e-06
3.7366144e-06
4.0596676e-06
4.3768337e-06
4.7469286e-06
5.2251317e-06
6.1881099e-06
7.9950665e-06
1.1128429e-05
1.6135634e-05
2.3473442e-05
3.3336405e-05
4.5464622e-05
5.9022429e-05
7.2616549e-05
8.4496885e-05
9.2921443e-05
9.659569e-05
9.5028817e-05
8.8659992e-05
7.8696763e-05
6.6741952e-05
5.4372441e-05
4.2822725e-05
3.2850559e-05
2.4757525e-05
1.8517348e-05
1.3896627e-05
1.0604844e-05
8.3157428e-06
6.7988474e-06
5.7898927e-06
5.2119132e-06
4.82817e-06
1.1370125e-06
7.1748687e-07
4.291012e-07
1.9318121e-07
2.0239457e-07
1.5593243e-06
2.0385913e-06
2.5445923e-06
3.0100974e-06
3.472261e-06
3.8495633e-06
4.1769781e-06
4.4746404e-06
4.8439683e-06
5.3833257e-06
6.2326062e-06
7.8832098e-06
1.0789222e-05
1.5546644e-05
2.2729196e-05
3.2710563e-05
4.5452647e-05
6.0319403e-05
7.6011499e-05
9.0695757e-05
0.00010233493
0.00010916119
0.00011014614
0.0001052871
9.5582157e-05
8.27054e-05
6.8528138e-05
5.468321e-05
4.2304608e-05
3.1976089e-05
2.3822219e-05
1.7674856e-05
1.3206094e-05
1.0070244e-05
7.9177859e-06
6.5073347e-06
5.5795045e-06
5.0529138e-06
4.7079703e-06
1.5614511e-06
1.1370122e-06
7.1809849e-07
4.2306947e-07
1.9482055e-07
1.6901821e-07
2.0506406e-06
2.5688146e-06
3.0539229e-06
3.5420691e-06
3.9510099e-06
4.3108135e-06
4.6014884e-06
4.9317822e-06
5.4405555e-06
6.3166086e-06
7.8053807e-06
1.0518363e-05
1.5013001e-05
2.1975096e-05
3.1946836e-05
4.5118274e-05
6.1099398e-05
7.876379e-05
9.6285424e-05
0.00011140716
0.00012191226
0.00012618041
0.00012363561
0.00011489875
0.0001015729
8.5756688e-05
6.9497635e-05
5.4386577e-05
4.1384693e-05
3.0864412e-05
2.2764064e-05
1.6779978e-05
1.2501963e-05
9.5411471e-06
7.5333972e-06
6.2318801e-06
5.3852295e-06
4.9097792e-06
4.6035825e-06
2.0561794e-06
1.5614508e-06
1.1342156e-06
7.190243e-07
4.1407368e-07
1.9710549e-07
1.3403084e-07
2.5833296e-06
3.0873957e-06
3.5991469e-06
4.0377083e-06
4.4326801e-06
4.7502511e-06
5.0566215e-06
5.4922598e-06
6.3015501e-06
7.7702449e-06
1.0272416e-05
1.4553265e-05
2.124991e-05
3.1102464e-05
4.4526737e-05
6.1403785e-05
8.085354e-05
0.00010115696
0.00011993368
0.00013457688
0.00014285729
0.00014351661
0.00013662165
0.00012352188
0.00010642178
8.7759e-05
6.9640839e-05
5.3515336e-05
4.0108395e-05
2.9557053e-05
2.1614204e-05
1.5853259e-05
1.1796898e-05
9.0250327e-06
7.166842e-06
5.9748452e-06
5.2084998e-06
4.7834865e-06
4.5155114e-06
2.5885228e-06
2.0561789e-06
1.5593231e-06
1.1273955e-06
7.2002221e-07
4.0281661e-07
1.9994837e-07
1.0048772e-07
3.1083332e-06
3.6428053e-06
4.1089935e-06
4.537684e-06
4.8885292e-06
5.2105263e-06
5.5919678e-06
6.278117e-06
7.6354038e-06
1.0066864e-05
1.4096027e-05
2.0591431e-05
3.0234644e-05
4.374847e-05
6.129667e-05
8.2296477e-05
0.00010523852
0.00012773497
0.00014687994
0.00015986038
0.00016466187
0.00016062859
0.00014864393
0.00013084046
0.00010996384
8.8664909e-05
6.8980337e-05
5.2120507e-05
3.8528708e-05
2.809653e-05
2.0401963e-05
1.4913272e-05
1.1102071e-05
8.5283175e-06
6.8215248e-06
5.7381602e-06
5.0505389e-06
4.674734e-06
4.4443137e-06
3.1173382e-06
2.5885219e-06
2.0506388e-06
1.5544402e-06
1.1164734e-06
7.2120362e-07
3.8994076e-07
2.0307255e-07
7.0915059e-08
3.6702549e-06
4.1635888e-06
4.624367e-06
5.0091084e-06
5.3582913e-06
5.7312574e-06
6.3175339e-06
7.4752192e-06
9.7501009e-06
1.3667511e-05
1.9892303e-05
2.940609e-05
4.2859733e-05
6.085636e-05
8.3142178e-05
0.0001085012
0.00013466806
0.00015855958
0.00017684717
0.00018673249
0.00018669406
0.00017692404
0.00015925325
0.00013658584
0.00011208966
8.8472567e-05
6.7567459e-05
5.0266811e-05
3.6702313e-05
2.6524203e-05
1.915448e-05
1.3976745e-05
1.0427238e-05
8.0561497e-06
6.5001609e-06
5.5234927e-06
4.9122961e-06
4.584137e-06
4.390572e-06
3.682133e-06
3.1173369e-06
2.5833273e-06
2.0385885e-06
1.5463593e-06
1.1023712e-06
7.2226302e-07
3.7614998e-07
2.0600246e-07
4.7113023e-08
4.1981033e-06
4.6910406e-06
5.1094692e-06
5.489657e-06
5.8734343e-06
6.4114617e-06
7.399302e-06
9.3651932e-06
1.3088894e-05
1.9195593e-05
2.8463381e-05
4.1953241e-05
6.0175542e-05
8.3466416e-05
0.00011096081
0.00014063673
0.0001693831
0.00019346794
0.00020933289
0.00021449089
0.00020822466
0.00019179475
0.0001680423
0.00014055478
0.00011275131
8.7223194e-05
6.5476768e-05
4.8027372e-05
3.4686285e-05
2.4879114e-05
1.7896603e-05
1.305854e-05
9.7803456e-06
7.6126526e-06
6.2052412e-06
5.3323616e-06
4.7943969e-06
4.5122465e-06
4.3546026e-06
4.213342e-06
3.6821317e-06
3.10833e-06
2.5688105e-06
2.0198449e-06
1.5356172e-06
1.085579e-06
7.2263471e-07
3.6226998e-07
2.0841136e-07
3.0063912e-08
4.7335891e-06
5.1870207e-06
5.6004815e-06
6.0045068e-06
6.5240082e-06
7.3997934e-06
9.0950495e-06
1.2355545e-05
1.8257757e-05
2.747547e-05
4.0817015e-05
5.9380167e-05
8.3370873e-05
0.00011267346
0.00014559802
0.00017916236
0.00020938555
0.00023203022
0.00024359879
0.00024227712
0.00022846648
0.00020465736
0.00017467409
0.00014262216
0.00011196221
8.4995132e-05
6.2798829e-05
4.5478978e-05
3.2536124e-05
2.3198061e-05
1.6650915e-05
1.2171045e-05
9.1678452e-06
7.2017231e-06
5.9391186e-06
5.1653878e-06
4.6971809e-06
4.4596042e-06
4.3364193e-06
4.7528215e-06
4.2133401e-06
3.6702503e-06
3.0873899e-06
2.5445866e-06
1.99562e-06
1.5218543e-06
1.0666238e-06
7.2187609e-07
3.5020991e-07
2.0993103e-07
1.995903e-08
5.2367563e-06
5.6868667e-06
6.1178345e-06
6.6366841e-06
7.4444982e-06
8.9325287e-06
1.1779794e-05
1.7011044e-05
2.6065512e-05
3.9560562e-05
5.8183896e-05
8.3014512e-05
0.00011373565
0.00014956333
0.00018776571
0.00022429598
0.00025437611
0.00027352066
0.00027868029
0.00026911549
0.00024662417
0.00021499459
0.00017890508
0.00014274647
0.00010979198
8.1894811e-05
5.9633582e-05
4.2698911e-05
3.0305374e-05
2.1515012e-05
1.5436668e-05
1.13245e-05
8.5959238e-06
6.8269832e-06
5.702468e-06
5.0224383e-06
4.6216206e-06
4.4265601e-06
4.3305979e-06
5.2594413e-06
4.7528188e-06
4.1980971e-06
3.6427979e-06
3.053915e-06
2.5127898e-06
1.9661167e-06
1.5042907e-06
1.0466344e-06
7.2228936e-07
3.426121e-07
2.0671004e-07
1.5394598e-08
5.7428055e-06
6.2074421e-06
6.7389824e-06
7.5093441e-06
8.8531453e-06
1.1355806e-05
1.5980237e-05
2.4093363e-05
3.7557408e-05
5.6758052e-05
8.2015601e-05
0.00011433356
0.00015260095
0.00019512681
0.00023794591
0.0002759313
0.00030370297
0.00031690948
0.00031341928
0.00029396951
0.00026194981
0.00022239251
0.00018059947
0.00014096682
0.00010635607
7.8047498e-05
5.6085849e-05
3.9763824e-05
2.8044624e-05
1.9859776e-05
1.4270163e-05
1.052872e-05
8.0701812e-06
6.489073e-06
5.4946271e-06
4.9055081e-06
4.5685239e-06
4.4053062e-06
4.3365027e-06
5.7688266e-06
5.2594378e-06
4.7335815e-06
4.1635788e-06
3.599136e-06
3.0100866e-06
2.4739145e-06
1.9317121e-06
1.482489e-06
1.0300463e-06
7.264997e-07
3.3978154e-07
1.9733353e-07
1.5742243e-08
6.2661019e-06
6.8222696e-06
7.5784927e-06
8.8261725e-06
1.1071949e-05
1.5161695e-05
2.241265e-05
3.4598659e-05
5.4043416e-05
8.0635402e-05
0.00011396177
0.00015491036
0.00020125182
0.00025015121
0.00029628798
0.00033356185
0.00035633001
0.00036088192
0.00034652186
0.00031581119
0.00027379772
0.00022656811
0.0001797321
0.00013739294
0.0001018041
7.3590804e-05
5.2263177e-05
3.6748099e-05
2.5799626e-05
1.8258089e-05
1.3166881e-05
9.7923794e-06
7.5912523e-06
6.1865358e-06
5.3191855e-06
4.8166398e-06
4.5256077e-06
4.3973104e-06
4.3571862e-06
6.293791e-06
5.7688229e-06
5.2367467e-06
4.6910273e-06
4.1089789e-06
3.5420551e-06
2.9567375e-06
2.4272461e-06
1.8937053e-06
1.4621828e-06
1.0170809e-06
7.1418918e-07
3.3746068e-07
1.8814448e-07
1.9872668e-08
6.8779031e-06
7.6397849e-06
8.8289074e-06
1.0889777e-05
1.4563421e-05
2.1024987e-05
3.2022841e-05
4.9791556e-05
7.7112089e-05
0.00011301041
0.0001558246
0.00020632927
0.00026081011
0.00031509911
0.00036250727
0.00039622032
0.00041083396
0.00040388968
0.0003766381
0.00033369572
0.00028167059
0.00022738275
0.00017638042
0.00013219121
9.6310403e-05
6.8671495e-05
4.8273055e-05
3.3720886e-05
2.3610745e-05
1.6734321e-05
1.2140216e-05
9.1164141e-06
7.1564803e-06
5.9259091e-06
5.1796889e-06
4.7334404e-06
4.4998494e-06
4.404358e-06
4.3945534e-06
6.9048476e-06
6.2937862e-06
5.7427933e-06
5.187004e-06
4.6243485e-06
4.0376895e-06
3.4722431e-06
2.894048e-06
2.3738211e-06
1.8605507e-06
1.4476481e-06
9.9702636e-07
6.8539459e-07
3.3227547e-07
1.8024925e-07
2.6021559e-08
7.682655e-06
8.8445198e-06
1.0777721e-05
1.4138443e-05
1.9966757e-05
2.9844515e-05
4.6022891e-05
7.1229099e-05
0.00010863077
0.00015591625
0.00020948027
0.00027006269
0.00033209759
0.00038998344
0.00043579212
0.00046244613
0.00046543986
0.00044423488
0.00040245672
0.00034683145
0.00028524932
0.00022483982
0.00017071017
0.00012557264
9.0069177e-05
6.344179e-05
4.4218679e-05
3.074493e-05
2.1515966e-05
1.5308959e-05
1.1191992e-05
8.49677e-06
6.7767907e-06
5.7125546e-06
5.0394013e-06
4.6747215e-06
4.4891482e-06
4.4285653e-06
4.4498563e-06
7.7043692e-06
6.9048421e-06
6.2660882e-06
5.6868467e-06
5.1094458e-06
4.5376592e-06
3.9509859e-06
3.3900728e-06
2.8232406e-06
2.3256112e-06
1.8326749e-06
1.4149741e-06
9.6507183e-07
6.6223338e-07
3.2230771e-07
1.7147781e-07
3.2298291e-08
8.8599371e-06
1.0713012e-05
1.3844158e-05
1.9182032e-05
2.8139916e-05
4.2781925e-05
6.5921437e-05
0.00010077249
0.00015071935
0.00021153103
0.00027675201
0.00034732212
0.0004154916
0.00047424045
0.00051473534
0.0005302948
0.00051809908
0.00048018144
0.00042280291
0.00035463308
0.00028440205
0.00021907221
0.00016296083
0.00011778534
8.3289707e-05
5.8053272e-05
4.019641e-05
2.7879033e-05
1.9546546e-05
1.3985789e-05
1.0316673e-05
7.9498876e-06
6.4600012e-06
5.4877083e-06
4.9360627e-06
4.6318566e-06
4.4964389e-06
4.4710825e-06
4.524236e-06
8.8697483e-06
7.7043634e-06
6.8778874e-06
6.2074185e-06
5.6004524e-06
5.009077e-06
4.4326492e-06
3.8495344e-06
3.2979325e-06
2.7598255e-06
2.2831329e-06
1.7864768e-06
1.3556226e-06
9.3305966e-07
6.3725731e-07
3.0896566e-07
1.6100401e-07
3.7162218e-08
1.0679187e-05
1.3650923e-05
1.8614908e-05
2.6845081e-05
4.0199944e-05
6.1296701e-05
9.3542552e-05
0.00014057656
0.0002056919
0.00028204973
0.00035925126
0.00043890088
0.00051076412
0.00056662077
0.00059730768
0.00059739836
0.00056660937
0.00051007997
0.00043672134
0.00035674942
0.00027917723
0.00021032734
0.00015343565
0.00010910906
7.6190295e-05
5.2652021e-05
3.6296068e-05
2.5170555e-05
1.77098e-05
1.2758026e-05
9.5377983e-06
7.4876242e-06
6.1166252e-06
5.3195933e-06
4.8484744e-06
4.6098351e-06
4.5227258e-06
4.5335122e-06
4.6190569e-06
1.0666912e-05
8.8697419e-06
7.6826371e-06
6.8222426e-06
6.1178009e-06
5.4896189e-06
4.8884899e-06
4.3107754e-06
3.7365793e-06
3.215401e-06
2.7053064e-06
2.2196244e-06
1.7102752e-06
1.2995417e-06
8.9656079e-07
6.0636499e-07
2.9318941e-07
1.4842702e-07
3.9739163e-08
1.3537536e-05
1.8228175e-05
2.5887947e-05
3.8205847e-05
5.7561153e-05
8.7171432e-05
0.00013102525
0.00019304694
0.0002759281
0.000369519
0.00045821419
0.00054498236
0.00061693079
0.00066511922
0.00068088821
0.00066108063
0.00060876606
0.00053248702
0.00044353277
0.00035306882
0.00026979127
0.00019895466
0.00014249616
9.9849417e-05
6.8989455e-05
4.7374107e-05
3.2588985e-05
2.2633178e-05
1.5998637e-05
1.165867e-05
8.8733421e-06
6.977716e-06
5.8601236e-06
5.1660573e-06
4.7871075e-06
4.6093791e-06
4.5700263e-06
4.6174754e-06
4.7358272e-06
1.3489278e-05
1.0666905e-05
8.8599174e-06
7.6397547e-06
6.7389438e-06
6.0044616e-06
5.3582426e-06
4.7502024e-06
4.1769326e-06
3.6363618e-06
3.1442325e-06
2.6272931e-06
2.1156217e-06
1.6369756e-06
1.241997e-06
8.5284481e-07
5.7026094e-07
2.7581339e-07
1.3344565e-07
3.9869782e-08
1.799431e-05
2.5221514e-05
3.6709645e-05
5.4637206e-05
8.196625e-05
0.00012252035
0.00018079055
0.00026073655
0.00036369656
0.0004756794
0.0005742828
0.00066494788
0.00073213238
0.00076696295
0.00076236248
0.00071852223
0.00064252531
0.00054626261
0.00044286022
0.00034371306
0.0002566152
0.00018540176
0.00013055964
9.0327193e-05
6.1891234e-05
4.2325171e-05
2.9099587e-05
2.0261404e-05
1.4459327e-05
1.0714417e-05
8.1328e-06
6.5995445e-06
5.6144409e-06
5.0468085e-06
4.75171e-06
4.6329181e-06
4.6402154e-06
4.7247885e-06
4.8762072e-06
1.7891481e-05
1.3489271e-05
1.0679166e-05
8.8444863e-06
7.5784488e-06
6.6366321e-06
5.873377e-06
5.2104665e-06
4.60143e-06
4.0596134e-06
3.5530939e-06
3.049322e-06
2.4976239e-06
2.0148312e-06
1.5614853e-06
1.1757531e-06
8.033606e-07
5.3002322e-07
2.5795335e-07
1.1672628e-07
3.7941412e-08
2.4812364e-05
3.56532e-05
5.2418069e-05
7.7844644e-05
0.00011550147
0.00016977146
0.00024547027
0.00034621199
0.00047102464
0.00060172458
0.00070727321
0.00079721001
0.0008535708
0.00086867805
0.00083828485
0.00076695928
0.0006661365
0.00055062905
0.00043463785
0.00032902699
0.00024017327
0.00017022075
0.00011808555
8.0845102e-05
5.5050199e-05
3.7547323e-05
2.5828618e-05
1.8120207e-05
1.3131072e-05
9.6559782e-06
7.5891044e-06
6.2253664e-06
5.4148277e-06
4.9608886e-06
4.7448108e-06
4.6824058e-06
4.7354587e-06
4.8572835e-06
5.041778e-06
2.4629768e-05
1.7891474e-05
1.3537514e-05
1.0712976e-05
8.8288586e-06
7.5092853e-06
6.5239417e-06
5.7311859e-06
5.0565487e-06
4.4745707e-06
3.9642464e-06
3.4470705e-06
2.8903905e-06
2.3731007e-06
1.913968e-06
1.4756382e-06
1.1025249e-06
7.4960331e-07
4.8691304e-07
2.3988826e-07
9.9775373e-08
3.4603976e-08
3.4998919e-05
5.0835552e-05
7.468578e-05
0.00010988453
0.00016059084
0.00023161048
0.00032782188
0.00045193137
0.00059946168
0.0007480348
0.00085596357
0.00093908875
0.00097753411
0.00096623114
0.00090509221
0.00080386943
0.00067824644
0.00054520284
0.00041910572
0.00030958022
0.00022116758
0.0001540553
0.0001055155
7.1627692e-05
4.8537116e-05
3.3057199e-05
2.2868237e-05
1.6266533e-05
1.163733e-05
8.8889454e-06
7.0387881e-06
5.9146781e-06
5.2592085e-06
4.9110832e-06
4.7688417e-06
4.7602024e-06
4.8578117e-06
5.0165501e-06
5.2337918e-06
3.4704484e-05
2.462976e-05
1.7994288e-05
1.3650885e-05
1.0777669e-05
8.8261068e-06
7.4444222e-06
6.4113783e-06
5.5918809e-06
4.9316958e-06
4.3767524e-06
3.8492785e-06
3.2643698e-06
2.7384437e-06
2.2500165e-06
1.8022067e-06
1.3815634e-06
1.0245408e-06
6.929704e-07
4.4242062e-07
2.2128705e-07
8.4020521e-08
3.0517784e-08
4.9850082e-05
7.2415457e-05
0.00010554026
0.00015316574
0.00021995563
0.00031091023
0.00043058282
0.00058001981
0.00074980874
0.00091392814
0.0010179002
0.0010867954
0.0010994971
0.0010552446
0.00095934501
0.00082713443
0.00067797291
0.00053000342
0.00039681576
0.00028622226
0.00020047566
0.00013753786
9.3172257e-05
6.2789731e-05
4.2401329e-05
2.89869e-05
2.0298665e-05
1.4180274e-05
1.0570971e-05
8.0991116e-06
6.5774919e-06
5.6630979e-06
5.1503096e-06
4.8998417e-06
4.8260353e-06
4.8683955e-06
5.0089322e-06
5.2036202e-06
5.4529232e-06
4.9404732e-05
3.4704478e-05
2.4812342e-05
1.8228136e-05
1.3844102e-05
1.0889706e-05
8.8530599e-06
7.3996978e-06
6.3174318e-06
5.4921554e-06
4.8438663e-06
4.264151e-06
3.6466785e-06
3.0918425e-06
2.5913487e-06
2.1153725e-06
1.6830901e-06
1.2824118e-06
9.4370186e-07
6.350309e-07
3.9805601e-07
2.0213346e-07
7.0378725e-08
2.6207002e-08
7.0993334e-05
0.00010239545
0.00014736932
0.00021042343
0.00029655126
0.00041060717
0.00055626026
0.00073204924
0.00092188083
0.0010973764
0.0011893561
0.0012354756
0.0012143088
0.0011312673
0.00099794761
0.00083518578
0.00066495517
0.00050546024
0.00036872922
0.00026011133
0.00017898763
0.00012112385
8.1237256e-05
5.444128e-05
3.6833693e-05
2.5445264e-05
1.7408837e-05
1.2716014e-05
9.4585251e-06
7.4352516e-06
6.1958609e-06
5.4733764e-06
5.0904717e-06
4.9293893e-06
4.9185026e-06
5.0085826e-06
5.1898062e-06
5.4191744e-06
5.6988829e-06
7.0349608e-05
4.9404728e-05
3.4998898e-05
2.5221474e-05
1.861485e-05
1.4138367e-05
1.1071855e-05
8.9324206e-06
7.3991839e-06
6.2779938e-06
5.4404323e-06
4.7468114e-06
4.055508e-06
3.4587069e-06
2.9277621e-06
2.4342279e-06
1.9737691e-06
1.5604111e-06
1.1816169e-06
8.6215922e-07
5.7736328e-07
3.5523951e-07
1.827857e-07
5.9204925e-08
2.2032516e-08
0.00010041313
0.00014314237
0.00020290578
0.00028466451
0.00039346576
0.00053351367
0.00070695127
0.00090871373
0.001114132
0.001294973
0.0013653066
0.0013793412
0.0013164644
0.0011900511
0.0010183623
0.00082707048
0.00063935581
0.00047255854
0.0003363162
0.00023247375
0.00015733414
0.00010509195
6.9926374e-05
4.6861628e-05
3.1975794e-05
2.1469057e-05
1.5419573e-05
1.1172264e-05
8.5248707e-06
6.8797891e-06
5.8973004e-06
5.3474699e-06
5.0820322e-06
5.0017306e-06
5.0475452e-06
5.1816394e-06
5.4012176e-06
5.663052e-06
5.9704475e-06
9.951576e-05
7.0349603e-05
4.9850064e-05
3.5653163e-05
2.5887889e-05
1.9181952e-05
1.456332e-05
1.1355686e-05
9.0949152e-06
7.4750762e-06
6.301404e-06
5.3831832e-06
4.5495565e-06
3.8667452e-06
3.2845331e-06
2.7557946e-06
2.2732852e-06