/*--------------------------------*- C++ -*----------------------------------*\
| =========                 |                                                 |
| \\      /  F ield         | OpenFOAM: The Open Source CFD Toolbox           |
|  \\    /   O peration     | Version:  5.0                                   |
|   \\  /    A nd           | Web:      www.OpenFOAM.org                      |
|    \\/     M anipulation  |                                                 |
\*---------------------------------------------------------------------------*/
FoamFile
{
    version     2.0;
    format      ascii;
    class       volVectorField;
    location    "120";
    object      U;
}
// * * * * * * * * * * * * * * * * * * * * * * * * * * * * * * * * * * * * * //

dimensions      [0 1 -1 0 0 0 0];

internalField   nonuniform List<vector> 
9200
(
(1.0256068 -0.00067982295 -1.9429709e-23)
(1.0259964 -0.0020071104 -1.0960477e-20)
(1.0275069 -0.00068984304 0)
(1.0264608 -0.0032186237 5.6029532e-21)
(1.0278803 -0.0020422142 -8.463813e-21)
(1.0283934 -0.00069612328 0)
(1.0269799 -0.004353742 5.6251081e-22)
(1.0283254 -0.0032686421 -5.0405817e-22)
(1.0287616 -0.0020701266 0)
(1.0296818 -0.00070638307 0)
(1.02758 -0.0053817256 -1.0479961e-20)
(1.0288157 -0.0044281175 -5.764154e-21)
(1.0291993 -0.0033116276 -4.6880969e-21)
(1.0300414 -0.0021152721 -2.9322829e-22)
(1.0307504 -0.00071491918 1.3482995e-24)
(1.0282253 -0.0063302896 -9.6464813e-21)
(1.0293799 -0.0054761513 9.0514948e-22)
(1.0296772 -0.0044927315 -1.4937466e-20)
(1.0304719 -0.0033794783 -5.526714e-21)
(1.031105 -0.002158371 1.7290129e-22)
(1.0318994 -0.00072350895 1.2267598e-20)
(1.0288975 -0.0071871753 -8.5732139e-21)
(1.0299818 -0.0064493331 -1.0223513e-20)
(1.0302269 -0.0055596446 9.0494292e-21)
(1.030938 -0.0045950966 4.9658673e-22)
(1.0315314 -0.0034449046 -5.9310957e-21)
(1.0322515 -0.0022066853 -5.7101665e-21)
(1.0329759 -0.00072992277 -8.21887e-22)
(1.0295685 -0.0079639951 -3.2034161e-21)
(1.0306017 -0.0073299042 -6.7341342e-21)
(1.0308102 -0.00655537 -9.5396592e-21)
(1.0314733 -0.0056937411 5.1677215e-22)
(1.0319897 -0.0046947149 1.3627414e-20)
(1.0326795 -0.0035181668 5.9162388e-21)
(1.0333269 -0.0022514866 7.7450257e-21)
(1.0340641 -0.00073411916 -1.170974e-20)
(1.0302187 -0.0086602573 1.0020121e-20)
(1.0312125 -0.0081322159 -8.2365406e-21)
(1.0314079 -0.0074585145 5.7643094e-22)
(1.0320374 -0.0067273675 -4.9885601e-21)
(1.0325157 -0.0058252906 1.1102632e-21)
(1.0331388 -0.0048080474 2.1343225e-20)
(1.0337581 -0.0035858479 -5.2474318e-21)
(1.0344189 -0.0022937396 1.3012457e-20)
(1.0351076 -0.00073494972 2.4747956e-20)
(1.03083 -0.0092820131 -7.1938358e-21)
(1.0317948 -0.0088541058 4.598827e-21)
(1.0319925 -0.0082850036 1.3144574e-22)
(1.032611 -0.0076695744 -1.9710903e-21)
(1.0330664 -0.0068971003 1.5961173e-21)
(1.0336658 -0.0059773521 1.7296202e-21)
(1.0342205 -0.0049144915 -7.4717591e-21)
(1.0348612 -0.0036495283 -1.3333294e-20)
(1.035467 -0.0023282063 -7.126056e-21)
(1.036139 -0.00073195449 -1.7705689e-21)
(1.031388 -0.0098330976 3.3344195e-21)
(1.0323319 -0.0095020918 4.8773451e-22)
(1.0325453 -0.009031586 -6.6914281e-21)
(1.0331664 -0.0085383737 6.3880883e-21)
(1.0336226 -0.0078789282 -1.0720747e-20)
(1.0342146 -0.0070963926 2.2283335e-20)
(1.0347508 -0.0061216391 5.1875637e-22)
(1.0353385 -0.005017978 -2.215514e-20)
(1.0359217 -0.0037007775 1.0959259e-20)
(1.0365088 -0.0023539992 -2.2451449e-20)
(1.0371303 -0.00072453002 3.5266718e-21)
(1.0318801 -0.010318925 -2.5464023e-22)
(1.0328106 -0.010079382 1.4393827e-22)
(1.0330496 -0.0097049368 4.9759918e-21)
(1.0336851 -0.0093289243 0)
(1.0341562 -0.0087905299 -5.6060276e-23)
(1.0347654 -0.008128577 -1.5520663e-21)
(1.0353006 -0.0072874019 4.5809907e-21)
(1.0358852 -0.006265309 1.1112207e-20)
(1.0364158 -0.0051053007 -9.7394624e-22)
(1.0369847 -0.0037383956 1.3546245e-20)
(1.0375111 -0.0023678464 9.1277639e-21)
(1.0380912 -0.00071229675 -1.9246406e-21)
(1.0322924 -0.010745129 -1.5161325e-22)
(1.0332202 -0.010591089 1.2155505e-21)
(1.0334931 -0.010307915 0)
(1.0341509 -0.010047915 0)
(1.0346489 -0.009625411 3.7550905e-21)
(1.0352891 -0.0090956292 -6.3437822e-21)
(1.0358492 -0.0083697362 1.0921353e-20)
(1.0364499 -0.007482332 -1.2034403e-20)
(1.0369829 -0.0063899935 -9.4749913e-22)
(1.0375079 -0.0051759875 7.45016e-24)
(1.0380089 -0.0037571416 -1.6294444e-20)
(1.0384891 -0.0023684074 1.769276e-20)
(1.0390101 -0.0006949443 -3.196857e-20)
(1.0326041 -0.011118417 8.7180188e-22)
(1.0335501 -0.011042244 -2.1746975e-22)
(1.0338658 -0.01084563 3.3995092e-21)
(1.0345523 -0.01069741 -3.9021953e-21)
(1.035085 -0.010390078 4.203031e-21)
(1.0357674 -0.0099890973 -1.561233e-21)
(1.0363665 -0.0093921784 -3.0180019e-21)
(1.0370109 -0.0086213705 1.380486e-22)
(1.0375682 -0.0076561542 -1.0721256e-20)
(1.0381074 -0.0064965101 -9.7247354e-21)
(1.0385649 -0.0052214985 -4.323083e-21)
(1.0390182 -0.0037547054 -1.1749821e-20)
(1.0394267 -0.0023538553 -7.8299198e-21)
(1.0398857 -0.00067213115 8.5644788e-21)
(1.0327767 -0.011446123 3.5527959e-21)
(1.0337847 -0.01143883 -5.0552491e-21)
(1.0341583 -0.011323063 1.0265413e-21)
(1.0348803 -0.011282017 1.7633075e-22)
(1.0354537 -0.011085836 -1.3029804e-22)
(1.0361846 -0.010815022 1.7377356e-21)
(1.0368341 -0.010344294 -2.855193e-21)
(1.037537 -0.0097078915 3.8454191e-21)
(1.038148 -0.0088505356 -7.9950349e-22)
(1.0387265 -0.0078121073 9.156248e-22)
(1.0392035 -0.0065726683 2.6215069e-22)
(1.0396181 -0.0052391243 4.3154572e-22)
(1.0399883 -0.0037281191 1.5884837e-20)
(1.0403245 -0.0023227709 -7.8081937e-21)
(1.0407127 -0.00064380755 6.3562841e-21)
(1.0327372 -0.011738137 -2.2291962e-21)
(1.0338944 -0.011787768 4.053309e-21)
(1.0343575 -0.011746117 -2.0976054e-21)
(1.0351269 -0.011805982 3.6529886e-21)
(1.0357468 -0.011716852 -4.03625e-21)
(1.0365292 -0.011573492 9.1496909e-21)
(1.0372362 -0.011231669 -9.7384451e-21)
(1.0380088 -0.010729188 3.6593183e-22)
(1.0386895 -0.010000496 3.0397567e-21)
(1.0393392 -0.009063966 -1.945658e-21)
(1.0398644 -0.0079334474 2.8848458e-20)
(1.0403065 -0.0066157755 -9.1453457e-21)
(1.040635 -0.0052239137 -5.2602412e-21)
(1.040925 -0.003675474 -2.1184259e-21)
(1.0411763 -0.0022742962 -3.2625929e-22)
(1.0414875 -0.00060994571 -6.7884741e-21)
(1.0323576 -0.012005367 0)
(1.0338187 -0.012099336 3.7361033e-21)
(1.0344372 -0.012121535 -1.8112009e-21)
(1.0352817 -0.012274476 0)
(1.0359574 -0.012286762 0)
(1.0367935 -0.012267549 0)
(1.0375628 -0.012053549 2.8233166e-22)
(1.0384098 -0.011690283 -6.7365428e-21)
(1.0391726 -0.011091039 4.4737845e-21)
(1.0399107 -0.010281449 -8.4719529e-21)
(1.0405191 -0.0092397004 5.4017637e-22)
(1.0410217 -0.008018062 -6.0613387e-21)
(1.0413807 -0.0066186739 5.6612012e-22)
(1.0416307 -0.0051729365 5.8339353e-21)
(1.0418185 -0.0035952377 1.4119733e-21)
(1.0419784 -0.0022076028 3.5563287e-21)
(1.0422063 -0.00057065438 0)
(1.0314399 -0.012259628 -7.0263448e-22)
(1.0334449 -0.012385705 -6.621062e-21)
(1.0343432 -0.012458747 7.9579787e-21)
(1.0353238 -0.012693639 3.4084121e-21)
(1.0360774 -0.012800352 4.6765365e-21)
(1.0369729 -0.012900398 0)
(1.0378066 -0.012812408 5.5652e-21)
(1.0387291 -0.012588479 -1.2767133e-21)
(1.0395802 -0.01212658 -1.4601191e-20)
(1.0404195 -0.011447149 5.1998282e-21)
(1.0411305 -0.010522783 4.9445145e-21)
(1.0417319 -0.0093767542 4.4564813e-22)
(1.0421595 -0.0080558902 -1.2966563e-20)
(1.0424437 -0.0065774905 1.9458162e-20)
(1.042586 -0.0050838552 4.3429897e-21)
(1.0426662 -0.0034859909 2.5389844e-20)
(1.0427267 -0.0021225611 9.2728203e-21)
(1.0428664 -0.00052612662 7.6175835e-21)
(1.029715 -0.012512216 1.8585987e-22)
(1.0325889 -0.01266298 -3.0794996e-21)
(1.0339712 -0.012768526 -1.7684142e-21)
(1.0352069 -0.013072056 4.9356846e-21)
(1.0360894 -0.01326343 -5.5679936e-22)
(1.0370611 -0.013475848 3.8947465e-21)
(1.0379629 -0.013510072 -1.4787194e-21)
(1.0389604 -0.013425106 -1.1497599e-20)
(1.0399019 -0.013103145 -4.3249227e-21)
(1.0408474 -0.012564684 7.5358231e-21)
(1.0416758 -0.011762972 -1.0560755e-21)
(1.0423978 -0.010725302 1.228315e-20)
(1.0429358 -0.0094616737 -5.9796232e-21)
(1.0432974 -0.0080425046 -6.605903e-22)
(1.0434721 -0.006488741 -1.5107285e-21)
(1.0435025 -0.0049546374 -4.1917078e-21)
(1.0434629 -0.0033474956 8.1127461e-21)
(1.043418 -0.0020192434 -1.2986716e-22)
(1.0434653 -0.00047664535 6.4497723e-21)
(1.0268629 -0.012771048 1.5785176e-21)
(1.0309867 -0.012948483 3.6815049e-21)
(1.0331464 -0.01306487 -1.7410416e-20)
(1.0348383 -0.013420432 -1.827691e-21)
(1.0359535 -0.013683856 2.6724397e-21)
(1.0370448 -0.013998842 1.5914701e-21)
(1.0380268 -0.0141495 1.0003222e-21)
(1.0390999 -0.014200855 6.9297546e-21)
(1.0401306 -0.014020759 -1.7695993e-21)
(1.041183 -0.013628236 -1.4986573e-20)
(1.0421354 -0.012963239 1.4598851e-20)
(1.0429942 -0.012041696 -1.6819453e-21)
(1.0436679 -0.010871637 -5.176579e-21)
(1.0441527 -0.0094897401 4.2277491e-22)
(1.0444098 -0.0079725773 -4.8872502e-22)
(1.0444726 -0.0063491936 -1.4718773e-20)
(1.0443724 -0.0047844782 2.8556416e-21)
(1.044205 -0.0031797081 -1.3044091e-20)
(1.0440494 -0.001898108 -3.1098005e-21)
(1.0440015 -0.00042256408 -6.161327e-21)
(1.022554 -0.013038332 -7.2025698e-23)
(1.0283082 -0.013257812 5.1639832e-21)
(1.0316116 -0.013362598 -3.4654519e-23)
(1.0340555 -0.013753208 4.7097612e-21)
(1.0355862 -0.014071718 7.1980082e-22)
(1.0368904 -0.014476214 -3.5226522e-21)
(1.0379877 -0.014734806 8.2945966e-21)
(1.0391444 -0.01491767 1.5095574e-20)
(1.0402629 -0.014878745 -8.2738199e-21)
(1.0414196 -0.014636421 0)
(1.0424973 -0.014116045 -9.5126037e-21)
(1.0435 -0.013328147 3.3010646e-21)
(1.0443285 -0.012261691 1.2648999e-20)
(1.0449653 -0.010957056 -8.3324219e-21)
(1.045355 -0.0094533323 5.8249075e-21)
(1.0455043 -0.0078418228 -1.2296507e-20)
(1.0454299 -0.0061579557 -1.5240439e-21)
(1.0451919 -0.0045729007 4.273557e-21)
(1.0448888 -0.0029833451 -7.0040155e-21)
(1.0446189 -0.0017598939 -7.7303746e-22)
(1.0444739 -0.00036429689 -5.0855334e-21)
(1.0165042 -0.013309034 -4.2553411e-21)
(1.024195 -0.013600824 4.0783913e-21)
(1.029037 -0.013674971 8.3990555e-21)
(1.0326099 -0.014086722 -9.8019012e-21)
(1.0348355 -0.014440521 -6.4421651e-21)
(1.0365243 -0.014917399 1.6929761e-21)
(1.0378177 -0.015271855 0)
(1.039086 -0.015578612 5.702064e-21)
(1.0402965 -0.015677854 -1.1440715e-21)
(1.0415539 -0.015587091 -1.6386613e-20)
(1.0427538 -0.01521853 -2.9996146e-21)
(1.0439018 -0.014575237 2.6736789e-21)
(1.0448944 -0.013633454 -4.8705521e-22)
(1.045705 -0.012418466 -4.7622264e-21)
(1.0462606 -0.0109712 6.6046519e-21)
(1.0465509 -0.0093472186 -6.0796675e-21)
(1.0465636 -0.0076482452 1.5594163e-21)
(1.0463447 -0.005913231 -8.9508264e-21)
(1.0459563 -0.0043205223 -2.2514575e-21)
(1.0455118 -0.0027594852 -4.3857445e-22)
(1.0451249 -0.0016056131 -3.1042589e-21)
(1.0448821 -0.00030230422 0)
(1.0085272 -0.01357093 -2.2558963e-21)
(1.0183164 -0.013978093 -1.9561302e-21)
(1.0250547 -0.014010164 9.7763121e-23)
(1.0301703 -0.014436677 -9.6601903e-21)
(1.0334617 -0.014805911 -4.3181221e-21)
(1.0358067 -0.015335429 3.6832423e-21)
(1.0374518 -0.015769259 -4.1689696e-21)
(1.0389023 -0.01618847 1.0763617e-20)
(1.040226 -0.01641996 4.3596142e-21)
(1.0415846 -0.01647962 7.2427441e-22)
(1.0429019 -0.016266901 -1.311425e-22)
(1.0441914 -0.01577855 -5.2183023e-21)
(1.0453507 -0.01497573 1.2893406e-21)
(1.0463464 -0.013875046 -3.9712462e-21)
(1.0470934 -0.012498627 -1.1398544e-20)
(1.0475629 -0.010907922 -1.1142141e-20)
(1.0477216 -0.0091678209 1.2441394e-21)
(1.0475882 -0.0073891627 1.5976204e-20)
(1.047207 -0.005616088 4.3319926e-22)
(1.0466619 -0.0040284145 -4.3097207e-21)
(1.0460716 -0.002509696 0)
(1.0455667 -0.0014364988 5.971394e-21)
(1.0452265 -0.00023707998 1.9425262e-22)
(0.99857033 -0.013806324 1.3398199e-20)
(1.0104285 -0.014379068 -4.2620163e-21)
(1.0193131 -0.014368192 9.0336629e-21)
(1.0263538 -0.01481423 4.5190863e-21)
(1.0311359 -0.015183355 -1.1046674e-20)
(1.0345081 -0.015746111 0)
(1.0367608 -0.016239243 -8.3952307e-22)
(1.0385368 -0.016754947 5.7275619e-21)
(1.0400334 -0.01710872 6.86242e-21)
(1.0415083 -0.017314478 5.2379649e-21)
(1.0429405 -0.017258974 -8.3453336e-21)
(1.0443654 -0.016932516 -6.5702278e-21)
(1.0456881 -0.016282522 8.5198119e-21)
(1.0468728 -0.015313851 -9.8964027e-21)
(1.0478257 -0.01403636 1.5314746e-20)
(1.0485036 -0.012495135 2.2073168e-20)
(1.0488518 -0.0107616 -3.2748896e-21)
(1.0488673 -0.008911429 6.3379039e-21)
(1.0485663 -0.0070651298 -1.6943476e-20)
(1.0480145 -0.005266911 3.1383148e-21)
(1.0473055 -0.0036985067 8.0930937e-21)
(1.0465668 -0.0022358827 -5.628018e-21)
(1.0459442 -0.0012539652 2.6409989e-21)
(1.0455079 -0.00016913894 1.5377588e-22)
(0.98672652 -0.013994912 2.8264829e-21)
(1.0004205 -0.014782608 -2.3934662e-21)
(1.011538 -0.014739456 -1.0583389e-21)
(1.0207791 -0.015222179 -2.203233e-20)
(1.0274659 -0.015584337 7.17725e-21)
(1.0323028 -0.016165761 -1.3295354e-20)
(1.0355258 -0.016697258 -6.930737e-22)
(1.0378721 -0.017289493 -1.3137043e-20)
(1.0396699 -0.017750739 4.3302033e-21)
(1.0413113 -0.018094081 4.4674551e-21)
(1.0428679 -0.018193732 -6.5061467e-21)
(1.0444231 -0.018033271 9.0997544e-21)
(1.0459023 -0.017546406 -6.1926981e-21)
(1.0472735 -0.016727313 -4.2711153e-22)
(1.0484386 -0.015569887 9.6333698e-21)
(1.0493427 -0.014109448 1.9604673e-21)
(1.0499143 -0.012399972 -7.6580892e-22)
(1.0501274 -0.010527331 1.0228089e-20)
(1.0499744 -0.0085775226 0)
(1.0494951 -0.0066757611 1.8252789e-21)
(1.0487616 -0.0048679137 4.8336336e-22)
(1.0478845 -0.0033331169 -8.01302e-22)
(1.0469966 -0.0019402658 -4.725992e-22)
(1.0462577 -0.0010595725 -3.7348087e-21)
(1.0457278 -9.900915e-05 -9.7084044e-22)
(0.97322008 -0.014117016 -1.2109056e-20)
(0.98833715 -0.015159722 7.0037242e-22)
(1.0015839 -0.015105411 2.810392e-21)
(1.0131317 -0.01565263 2.4449901e-21)
(1.0220477 -0.016012417 2.1328766e-20)
(1.0287893 -0.016607347 9.7302303e-22)
(1.033426 -0.017159935 -6.3277201e-22)
(1.036701 -0.017807265 9.1709588e-22)
(1.039029 -0.018356474 1.0168091e-20)
(1.0409525 -0.018823736 -3.2725183e-21)
(1.0426741 -0.019072134 6.5376291e-21)
(1.0443643 -0.019078109 -8.522116e-22)
(1.0459929 -0.018761705 -4.3432928e-21)
(1.0475434 -0.0181061 2.4822512e-21)
(1.0489194 -0.017090163 -1.2789832e-21)
(1.0500588 -0.015734977 -1.3548e-20)
(1.0508758 -0.014083659 -1.7063369e-20)
(1.0513251 -0.012206886 -1.4786403e-20)
(1.0513744 -0.010203056 -2.0379799e-20)
(1.0510391 -0.0081649078 -3.0657932e-22)
(1.0503662 -0.0062235712 1.7741445e-20)
(1.049445 -0.0044216669 2.0816046e-21)
(1.0483973 -0.0029351049 -4.9154182e-21)
(1.0473608 -0.0016252847 3.5106771e-21)
(1.0465084 -0.00085498064 -1.843601e-21)
(1.0458881 -2.7242421e-05 1.1763279e-22)
(0.95837246 -0.014156578 5.2943936e-22)
(0.97437292 -0.015477804 -2.0497469e-23)
(0.98946234 -0.01544125 -1.0580413e-20)
(1.0032215 -0.016087046 1.2407706e-20)
(1.0145321 -0.0164606 -1.7291416e-20)
(1.0235397 -0.017076252 1.1751721e-20)
(1.0300541 -0.017641226 6.8859448e-21)
(1.034709 -0.018325257 1.0738441e-20)
(1.0379149 -0.018940485 -1.4629736e-20)
(1.0403359 -0.019512792 -6.2083188e-21)
(1.0423244 -0.019898044 1.1756908e-21)
(1.0441817 -0.02006635 -1.6310713e-20)
(1.0459602 -0.019923892 1.5447325e-20)
(1.0476814 -0.019442629 -3.960262e-21)
(1.0492618 -0.018585968 3.13862e-21)
(1.0506372 -0.017361322 6.2872938e-22)
(1.0517121 -0.015795706 -7.5245147e-21)
(1.0524243 -0.013951222 7.8415343e-21)
(1.0527197 -0.011911861 -8.1209814e-21)
(1.0525882 -0.0097865001 2.605406e-23)
(1.0520514 -0.0076755448 0)
(1.0511763 -0.0057104793 6.3695047e-21)
(1.0500613 -0.0039317211 1.533523e-21)
(1.0488427 -0.002507711 0)
(1.0476599 -0.0012935405 -3.8510012e-21)
(1.0466978 -0.00064190977 -5.4461395e-22)
(1.045991 4.5521749e-05 -2.9824469e-22)
(0.94255967 -0.014104072 4.1171885e-21)
(0.95884048 -0.015706219 -4.0814536e-24)
(0.97534364 -0.015719822 -8.6049454e-21)
(0.99101849 -0.016498716 1.0009156e-21)
(1.0046878 -0.016911035 -3.4890214e-21)
(1.0161678 -0.017567131 -1.293036e-20)
(1.0249624 -0.018147839 -6.8097938e-22)
(1.0314843 -0.018858456 -9.6463286e-21)
(1.0360208 -0.019519834 8.9526106e-22)
(1.0392784 -0.020175089 1.1116099e-20)
(1.0417335 -0.020679485 -8.6608938e-21)
(1.0438472 -0.021000241 -1.6672647e-21)
(1.0457998 -0.021030481 -5.8826955e-21)
(1.0476886 -0.02073041 3.3689215e-21)
(1.049464 -0.020047774 -3.9733693e-21)
(1.05107 -0.018975447 4.1916635e-21)
(1.0524064 -0.01752458 -1.2751383e-21)
(1.053398 -0.015742647 3.1990698e-20)
(1.0539712 -0.013705827 1.0673396e-20)
(1.0540923 -0.011511263 7.5058004e-21)
(1.0537567 -0.0092785808 1.0118004e-20)
(1.0530061 -0.0071109591 -2.248057e-21)
(1.0519194 -0.0051406554 -6.5667067e-22)
(1.0506086 -0.0034016886 0)
(1.0492204 -0.0020545637 0)
(1.0478952 -0.00094772467 3.530681e-22)
(1.0468281 -0.00042212585 1.0460811e-24)
(1.0460388 0.00011825079 1.5510966e-21)
(0.92617456 -0.013955422 0)
(0.94212072 -0.015824739 -1.5770305e-22)
(0.95953552 -0.015914039 7.3582891e-21)
(0.97665905 -0.016856708 4.746601e-21)
(0.99244544 -0.017337266 1.2659942e-20)
(1.0063983 -0.018063 1.2831737e-21)
(1.0177313 -0.01867558 -8.171174e-21)
(1.0265588 -0.019414991 -1.5354587e-20)
(1.0329323 -0.020110302 1.7127174e-20)
(1.037482 -0.020827629 -4.2616489e-21)
(1.04073 -0.021429325 8.534696e-22)
(1.0432854 -0.021886294 4.1723495e-21)
(1.0454889 -0.022081916 -1.8122191e-20)
(1.0475625 -0.021964994 6.0892054e-21)
(1.049527 -0.021467036 4.2407072e-21)
(1.0513541 -0.02056588 -3.2769402e-21)
(1.0529484 -0.019255584 4.2263688e-21)
(1.0542264 -0.017568762 -5.6210978e-21)
(1.0550987 -0.015566937 1.9003283e-20)
(1.0555095 -0.013342174 -1.5311083e-21)
(1.0554292 -0.011004509 8.4953492e-21)
(1.0548734 -0.0086801007 5.3919777e-21)
(1.0538958 -0.0064751807 -7.0152494e-22)
(1.0525927 -0.0045178899 -1.3372928e-20)
(1.0510852 -0.0028361321 -4.4817699e-21)
(1.0495305 -0.0015798678 1.2349044e-21)
(1.0480685 -0.00059076578 9.473179e-22)
(1.0469017 -0.00019761706 8.3301614e-22)
(1.0460357 0.00018783223 -4.067768e-21)
(0.90959517 -0.013702994 -1.2655775e-20)
(0.9246239 -0.015816813 0)
(0.94244564 -0.015993848 0)
(0.96042401 -0.017129197 0)
(0.97791068 -0.01770823 -3.1513052e-21)
(0.99411697 -0.018537069 1.1364439e-20)
(1.0080427 -0.019208022 -7.7026697e-22)
(1.0194783 -0.019991992 -9.7464427e-22)
(1.0281644 -0.020721295 2.3079545e-20)
(1.0345311 -0.02148688 -2.2969161e-20)
(1.039026 -0.022164234 1.1727081e-20)
(1.0423374 -0.022736199 -4.2061499e-21)
(1.0449614 -0.023082985 4.763594e-21)
(1.0472854 -0.023144847 -8.3234425e-21)
(1.0494499 -0.022837209 9.7134569e-21)
(1.0514902 -0.022121965 5.3953388e-21)
(1.0533338 -0.020975379 -2.7450623e-21)
(1.0548972 -0.019413418 -1.1252279e-20)
(1.0560796 -0.017482272 -1.1165857e-21)
(1.0568066 -0.015261335 -7.8373688e-21)
(1.0570244 -0.012857762 -9.9514243e-21)
(1.0567223 -0.010391324 2.4497099e-21)
(1.0559287 -0.0079945662 1.1476752e-20)
(1.0547157 -0.005772111 -5.7823504e-21)
(1.0531926 -0.0038474567 -1.395594e-21)
(1.0514905 -0.0022394944 -1.4312378e-21)
(1.049774 -0.0010876402 1.4591126e-21)
(1.0481814 -0.00022653527 2.1185557e-21)
(1.0469208 2.8191655e-05 -5.1169789e-21)
(1.0459875 0.00025884297 -3.2636144e-21)
(0.89179568 -0.013321863 -7.4415627e-22)
(0.90681282 -0.01565151 -6.6271985e-22)
(0.92451576 -0.015964736 0)
(0.94269718 -0.017284852 0)
(0.96134864 -0.017991323 0)
(0.97939142 -0.018956537 0)
(0.99573856 -0.019718132 0)
(1.0098797 -0.020573727 2.0095894e-22)
(1.0212305 -0.021351164 -1.0165214e-20)
(1.0299246 -0.022163428 2.5311312e-20)
(1.0362064 -0.022901143 -8.1296353e-22)
(1.0407259 -0.023566095 1.3050289e-20)
(1.044071 -0.024043947 -2.0816348e-20)
(1.0467999 -0.024272825 6.8804478e-21)
(1.0492193 -0.024154611 -5.8982996e-22)
(1.0514786 -0.02363496 7.5096909e-21)
(1.0535623 -0.022671206 -1.254828e-20)
(1.0554039 -0.02126155 8.4602707e-22)
(1.056899 -0.019434531 1.3948317e-20)
(1.0579581 -0.017255693 6.5258067e-21)
(1.0585058 -0.014821049 1.3095184e-21)
(1.0585059 -0.012250846 9.581225e-21)
(1.05796 -0.0096742528 4.3064363e-22)
(1.0569161 -0.0072256615 -4.3324259e-21)
(1.0554606 -0.0050073749 4.2053936e-21)
(1.0537172 -0.0031344928 9.1946816e-21)
(1.0518242 -0.0016168378 2.2243853e-21)
(1.0499526 -0.0005807763 -5.8088737e-22)
(1.0482365 0.00014331321 2.2376288e-22)
(1.0468892 0.00025749746 5.1223366e-21)
(1.0458905 0.00033485603 2.3123015e-21)
(0.87239463 -0.012736511 1.5080354e-20)
(0.88761826 -0.015333351 -1.48128e-22)
(0.90610259 -0.015814875 4.2442593e-21)
(0.92391963 -0.017312156 6.0813782e-21)
(0.94314399 -0.018152739 0)
(0.96246011 -0.019285442 0)
(0.98084895 -0.02017218 -1.8140675e-22)
(0.99755724 -0.021132864 1.2885453e-20)
(1.0117239 -0.021984779 -2.0910736e-20)
(1.023143 -0.022856772 2.5039997e-20)
(1.0317561 -0.023651696 1.9521036e-21)
(1.0380381 -0.024393203 -1.5217359e-20)
(1.0425514 -0.024980137 1.1458605e-21)
(1.0459719 -0.025357522 -1.2917034e-21)
(1.0487858 -0.02541996 -8.3559685e-21)
(1.0513091 -0.025098893 1.2993621e-21)
(1.0536346 -0.02433207 8.4281637e-21)
(1.0557452 -0.02309836 -7.7065989e-22)
(1.0575482 -0.021407145 -6.4518234e-22)
(1.0589458 -0.019307156 3.248326e-20)
(1.0598447 -0.016881627 5.0241877e-21)
(1.0601847 -0.014242476 -8.476056e-21)
(1.0599406 -0.011522554 1.5088333e-20)
(1.0591336 -0.0088563872 9.8730562e-21)
(1.0578282 -0.0063790475 1.0940214e-21)
(1.056127 -0.0041866615 5.4472393e-21)
(1.0541652 -0.0023849123 2.6657969e-21)
(1.0520871 -0.00097282034 -4.9395693e-22)
(1.0500678 -6.3665005e-05 2.9180198e-22)
(1.0482368 0.00051761249 -9.10782e-22)
(1.04681 0.0004888414 3.7471583e-21)
(1.0457537 0.00040733826 2.8133968e-22)
(0.85277268 -0.011945295 -5.203473e-21)
(0.86661678 -0.014798964 1.3245627e-21)
(0.88628098 -0.015489766 -6.1934819e-21)
(0.90456274 -0.017187632 -5.5866265e-21)
(0.92374412 -0.018191688 0)
(0.94369557 -0.019485948 0)
(0.96358724 -0.020532598 0)
(0.98249906 -0.021634276 -1.8447017e-21)
(0.99939142 -0.022594486 1.8233073e-20)
(1.0137345 -0.023552297 1.9341003e-20)
(1.0251244 -0.024416497 2.0062954e-21)
(1.0337459 -0.02523008 -2.9954037e-21)
(1.0399936 -0.02590882 3.046975e-20)
(1.0445473 -0.026413221 -2.050689e-20)
(1.0480273 -0.026639935 4.9789311e-21)
(1.0509401 -0.026512159 0)
(1.0535434 -0.025949599 3.1815967e-21)
(1.0559215 -0.024910597 -5.9623629e-22)
(1.0580239 -0.023383417 1.1888661e-20)
(1.0597587 -0.021397937 -2.3526158e-22)
(1.0610202 -0.019021041 -1.5406696e-20)
(1.0617271 -0.016354245 -3.2016153e-21)
(1.0618282 -0.013524875 -1.2909574e-20)
(1.0613177 -0.010674957 -1.3805456e-20)
(1.0602339 -0.0079430385 2.6082559e-21)
(1.0586598 -0.0054607293 2.1374101e-21)
(1.0567118 -0.0033166699 -1.2797559e-21)
(1.054536 -0.0016044711 -5.3152902e-23)
(1.0522804 -0.00031231729 9.4397413e-22)
(1.0501225 0.00046081883 -5.8950027e-22)
(1.0481854 0.00089330703 1.0495504e-21)
(1.0466871 0.00071892 -1.2214646e-20)
(1.0455772 0.00047889785 5.0104981e-21)
(0.83352935 -0.010943169 -4.7545141e-21)
(0.8451756 -0.014015191 7.2173201e-23)
(0.86456775 -0.01493876 -1.1633435e-20)
(0.88366836 -0.016849453 -7.7006459e-21)
(0.90359445 -0.018088559 3.3431626e-21)
(0.92355427 -0.01955792 2.9695622e-22)
(0.94431565 -0.020758298 1.8552314e-20)
(0.96488829 -0.022037729 -1.048358e-20)
(0.98417808 -0.023143972 -9.7153247e-22)
(1.0013952 -0.024221842 -4.0757666e-20)
(1.0158147 -0.025181428 1.7981947e-20)
(1.0272679 -0.026078311 2.3927719e-20)
(1.0358582 -0.026843311 -1.5183833e-21)
(1.0421219 -0.027457011 -9.911494e-21)
(1.0467021 -0.027827485 -1.1193947e-20)
(1.0502608 -0.027879282 -4.6958755e-21)
(1.0532537 -0.027519696 1.4504292e-21)
(1.0559278 -0.026687428 1.5491087e-20)
(1.0583261 -0.025347911 -9.2561821e-22)
(1.0603912 -0.023509661 -2.6967855e-21)
(1.062018 -0.02122066 -1.647389e-21)
(1.0631086 -0.018567819 -2.2187144e-20)
(1.0635882 -0.015670512 2.1755281e-21)
(1.0634235 -0.012668845 1.9148914e-22)
(1.0626256 -0.0097125739 -1.7452874e-20)
(1.0612531 -0.006940202 -5.1140571e-21)
(1.0594059 -0.0044779783 -3.782813e-21)
(1.0572133 -0.002404153 -3.0419602e-21)
(1.0548302 -0.00079926258 -1.1064612e-21)
(1.0524062 0.00036006136 -4.9165794e-22)
(1.0501195 0.00098902445 9.2999154e-22)
(1.0480857 0.0012684076 -1.73555e-22)
(1.0465234 0.00094768696 5.4454564e-21)
(1.0453661 0.00054853007 -1.0201305e-20)
(0.81531571 -0.0097260462 5.1961539e-21)
(0.82394239 -0.012957471 -1.2868281e-22)
(0.84220338 -0.014140683 1.3555994e-20)
(0.86068863 -0.016297787 3.7979757e-21)
(0.88180479 -0.017768312 -1.1347431e-20)
(0.90254237 -0.019480069 -1.6377769e-20)
(0.92349173 -0.020854913 -2.3477031e-21)
(0.94507329 -0.02229785 0)
(0.96623527 -0.023590924 -1.1692452e-20)
(0.986024 -0.024827557 -4.533994e-20)
(1.0034724 -0.025917784 7.9925198e-22)
(1.0180614 -0.026924102 -8.908541e-21)
(1.0295342 -0.027786094 0)
(1.0381466 -0.028502804 -2.3481696e-21)
(1.0444121 -0.028999262 2.0895192e-20)
(1.0490424 -0.029211607 6.7656061e-21)
(1.0526659 -0.029044503 -1.3010238e-20)
(1.0557347 -0.028422138 0)
(1.0584509 -0.027287322 -4.7794713e-21)
(1.0608421 -0.02562484 -5.7325956e-21)
(1.0628302 -0.023460726 -2.1822756e-20)
(1.0643121 -0.020864147 -3.0645654e-21)
(1.0651931 -0.017941769 0)
(1.0654135 -0.014829087 -1.6573014e-20)
(1.0649565 -0.011677631 3.0449565e-21)
(1.0638544 -0.0086409879 -9.2862899e-23)
(1.0621842 -0.0058554269 -7.0180664e-21)
(1.0600629 -0.0034383735 3.914427e-21)
(1.0576306 -0.0014563271 4.037577e-22)
(1.0550488 2.4815498e-05 4.1690583e-22)
(1.0524669 0.0010397062 -2.9850414e-21)
(1.0500621 0.001517672 -1.7026492e-21)
(1.0479413 0.0016406261 0)
(1.0463225 0.0011730046 -2.1285864e-22)
(1.0451236 0.00061614361 -3.3059723e-21)
(0.7988039 -0.0082996785 3.7260102e-21)
(0.80366371 -0.011613017 1.2445e-21)
(0.81990646 -0.013068013 1.2277862e-20)
(0.83689902 -0.015464205 1.4968487e-21)
(0.85786232 -0.017190381 -2.8846231e-21)
(0.87973323 -0.019124041 -1.5013714e-21)
(0.9016188 -0.020787858 -1.4692048e-20)
(0.92351718 -0.022425062 1.9183117e-22)
(0.94589439 -0.023885874 0)
(0.96773741 -0.025324456 1.4311178e-20)
(0.9879484 -0.026586138 -1.5318989e-20)
(1.0057183 -0.027737916 2.7850043e-21)
(1.0204327 -0.028723643 -9.4355461e-21)
(1.0319811 -0.029553871 1.3091165e-20)
(1.0406002 -0.030169593 3.7593741e-21)
(1.0468943 -0.030525101 1.944945e-20)
(1.0515642 -0.030533481 -2.4165947e-20)
(1.0552533 -0.03011428 -2.0322231e-21)
(1.0583742 -0.029192233 1.7656783e-20)
(1.0611081 -0.027727758 -1.4715822e-20)
(1.0634536 -0.025721917 1.8117266e-20)
(1.0653267 -0.023222465 -3.9715548e-21)
(1.0666221 -0.02031967 0)
(1.067257 -0.017139173 -4.436302e-21)
(1.0671866 -0.013831449 6.9155802e-22)
(1.0664149 -0.010555945 7.1506811e-21)
(1.0649943 -0.0074676466 4.2060517e-21)
(1.0630216 -0.0046968734 2.1688107e-21)
(1.0606282 -0.0023501642 2.1052629e-21)
(1.0579637 -0.00048035978 0)
(1.0551936 0.00086187102 2.4350667e-22)
(1.0524656 0.0017222839 -3.2915443e-21)
(1.0499538 0.0020437777 1.1914083e-20)
(1.0477558 0.0020080102 -4.5076532e-21)
(1.0460879 0.0013941804 2.9402065e-22)
(1.0448527 0.00068173267 1.190103e-20)
(0.78464853 -0.0066814181 -3.5764953e-21)
(0.78513265 -0.0099823502 -5.1517813e-23)
(0.79849581 -0.011709873 -3.8157925e-21)
(0.81303381 -0.01432452 -6.0912278e-23)
(0.8328497 -0.016340379 1.3394434e-20)
(0.85455561 -0.018543697 1.1846187e-20)
(0.87783918 -0.02044142 -2.1440413e-23)
(0.90075733 -0.022373763 -1.1611958e-20)
(0.92361619 -0.024043379 2.5072304e-22)
(0.94684848 -0.025658266 -1.2085237e-20)
(0.96932227 -0.02713886 -3.0840297e-22)
(0.99003834 -0.028478325 7.9500252e-21)
(1.0080909 -0.029625472 -3.3159285e-22)
(1.0229896 -0.030596805 1.3208479e-20)
(1.0345977 -0.031342432 -4.6964784e-20)
(1.0432526 -0.031834324 5.6688435e-21)
(1.0495665 -0.032001642 6.0762199e-21)
(1.054281 -0.031771177 1.1751248e-20)
(1.0580167 -0.031059439 -9.4252568e-21)
(1.0611694 -0.029806267 -2.8579422e-21)
(1.0638851 -0.02798624 1.2319176e-20)
(1.066147 -0.025621911 -1.5070609e-20)
(1.0678613 -0.022782893 9.6556098e-21)
(1.0689299 -0.019580737 0)
(1.069282 -0.016159253 1.7137037e-20)
(1.0688925 -0.012680933 1.6511786e-20)
(1.0677863 -0.0093106829 -4.2738088e-21)
(1.0660376 -0.006200968 1.0411132e-20)
(1.0637607 -0.0034736401 5.2935067e-22)
(1.0611006 -0.0012217321 -2.1180266e-21)
(1.0582135 0.00051652919 1.0898604e-21)
(1.0552673 0.0017062948 -6.059785e-21)
(1.0524054 0.0024036552 -3.1173732e-22)
(1.0497981 0.0025644816 1.2616681e-20)
(1.0475326 0.0023689187 -1.2239129e-21)
(1.0458228 0.0016103333 -4.4123042e-22)
(1.0445572 0.00074506693 4.4504328e-21)
(0.77344296 -0.00489971 4.3182299e-22)
(0.76913848 -0.0080842161 -1.0936282e-21)
(0.77884123 -0.01006547 -4.9897151e-21)
(0.7899763 -0.012866155 -1.047514e-21)
(0.80757158 -0.015160828 1.2465751e-22)
(0.82813531 -0.017649383 -2.8306343e-23)
(0.85156667 -0.019825721 -7.4822837e-21)
(0.87592999 -0.022004037 3.8535722e-21)
(0.8999468 -0.02400886 0)
(0.92381798 -0.025848556 2.4669742e-21)
(0.94788595 -0.027516593 0)
(0.97106165 -0.029094566 0)
(0.99225539 -0.030447948 8.5460194e-21)
(1.0106517 -0.031599884 -1.019886e-21)
(1.0257212 -0.032504404 -7.5965429e-21)
(1.0374212 -0.033143814 -1.1725059e-20)
(1.0461038 -0.033463594 2.6097173e-20)
(1.0524454 -0.033406629 -3.4155831e-21)
(1.0571891 -0.032893878 6.4337674e-21)
(1.0609558 -0.031854286 3.1553489e-21)
(1.0641079 -0.030238862 -1.7830478e-20)
(1.0667689 -0.028042433 -9.3980333e-22)
(1.0689026 -0.025309416 4.5387368e-21)
(1.070415 -0.022132402 7.4403454e-21)
(1.0712154 -0.01864385 1.6543963e-21)
(1.0712506 -0.01500345 2.6905677e-21)
(1.0705163 -0.011383379 -4.1505634e-21)
(1.0690601 -0.0079501128 -6.6597502e-21)
(1.0669771 -0.0048506268 -7.7010712e-22)
(1.0643983 -0.0021952 -7.3142482e-21)
(1.0614796 -6.1649453e-05 -4.7856614e-21)
(1.0583818 0.0015273726 -2.3420886e-21)
(1.0552727 0.0025527123 -1.6206394e-21)
(1.0522901 0.0030800377 9.2850087e-21)
(1.0495987 0.0030773371 -2.4737155e-20)
(1.0472754 0.0027218849 -4.0657731e-21)
(1.0455308 0.0018207058 -4.2287083e-21)
(1.0442398 0.00080613807 0)
(0.76567757 -0.0029926999 3.1649307e-21)
(0.75640821 -0.0059552651 -5.7875808e-23)
(0.76181426 -0.0081525277 -1.3235495e-21)
(0.76869055 -0.011083635 -8.0745352e-22)
(0.78299786 -0.013639186 -6.6625136e-21)
(0.80128591 -0.016399108 -5.1155851e-21)
(0.82377214 -0.018897666 -1.6957748e-22)
(0.84841725 -0.021362509 2.236911e-20)