/*--------------------------------*- C++ -*----------------------------------*\
| =========                 |                                                 |
| \\      /  F ield         | OpenFOAM: The Open Source CFD Toolbox           |
|  \\    /   O peration     | Version:  5.0                                   |
|   \\  /    A nd           | Web:      www.OpenFOAM.org                      |
|    \\/     M anipulation  |                                                 |
\*---------------------------------------------------------------------------*/
FoamFile
{
    version     2.0;
    format      ascii;
    class       volVectorField;
    location    "120";
    object      UMean;
}
// * * * * * * * * * * * * * * * * * * * * * * * * * * * * * * * * * * * * * //

dimensions      [0 1 -1 0 0 0 0];

internalField   nonuniform List<vector> 
9200
(
(1.0191821 -0.00049550444 -1.7044489e-23)
(1.0195051 -0.0014450511 -7.4663629e-21)
(1.0205536 -0.00050326262 0)
(1.0197172 -0.0023213616 3.8118779e-21)
(1.0208613 -0.0014674906 -5.7016177e-21)
(1.0211912 -0.00050882341 0)
(1.0198607 -0.0031349199 3.8277385e-22)
(1.0210583 -0.0023537979 -3.6675876e-22)
(1.0214935 -0.0014875605 0)
(1.0221214 -0.00051814316 0)
(1.0199823 -0.0038763049 -7.0886414e-21)
(1.0211809 -0.0031817128 -3.7505302e-21)
(1.0216839 -0.0023853913 -3.1575961e-21)
(1.0224148 -0.0015215459 -1.9818472e-22)
(1.0228925 -0.0005267709 1.4276524e-24)
(1.0200722 -0.004560769 -6.5110951e-21)
(1.0212796 -0.0039346758 6.3785465e-22)
(1.0217967 -0.0032279062 -1.0008671e-20)
(1.0225974 -0.0024371414 -3.6456675e-21)
(1.0231798 -0.0015560758 1.5692332e-22)
(1.0237267 -0.00053647814 8.3880976e-21)
(1.0201213 -0.0051833091 -5.7559192e-21)
(1.0213434 -0.0046328518 -6.8124939e-21)
(1.0218851 -0.0039932843 6.0641498e-21)
(1.0226998 -0.0033035912 3.1883905e-22)
(1.0233568 -0.0024902304 -4.0161866e-21)
(1.0240087 -0.001597209 -3.8407055e-21)
(1.0245097 -0.00054525946 -5.2566321e-22)
(1.0201101 -0.0057520006 -2.1551663e-21)
(1.0213627 -0.0052678702 -4.4072545e-21)
(1.0219365 -0.0047055658 -6.318098e-21)
(1.0227772 -0.0040902631 4.2330556e-22)
(1.023451 -0.0033815887 9.060505e-21)
(1.0241832 -0.0025533653 3.915659e-21)
(1.0247876 -0.0016379932 5.3838791e-21)
(1.025309 -0.00055354561 -8.1295368e-21)
(1.0200223 -0.0062678533 6.7169641e-21)
(1.0213191 -0.0058495238 -5.4483162e-21)
(1.021942 -0.005354016 4.2924642e-22)
(1.0228152 -0.0048267231 -3.3134131e-21)
(1.02352 -0.0041906838 9.3903514e-22)
(1.024274 -0.0034752053 1.4264766e-20)
(1.0249606 -0.0026158512 -3.9821159e-21)
(1.0255852 -0.0016804321 9.0831429e-21)
(1.0260788 -0.00056011736 1.7265654e-20)
(1.0198408 -0.006735808 -4.8422509e-21)
(1.0211968 -0.0063777737 3.0805384e-21)
(1.0218829 -0.0059494996 7.4563898e-23)
(1.0228051 -0.0054988724 -1.5076912e-21)
(1.0235473 -0.0049524713 1.0211712e-21)
(1.0243399 -0.0043126028 1.5347e-21)
(1.0250492 -0.0035685572 -4.9795985e-21)
(1.0257609 -0.0026809483 -9.0612966e-21)
(1.0263545 -0.0017198847 -4.7920952e-21)
(1.0268496 -0.00056494824 -1.1807407e-21)
(1.019549 -0.0071593175 2.2342426e-21)
(1.0209799 -0.0068579326 3.7383855e-22)
(1.0217442 -0.0064912587 -4.4118643e-21)
(1.0227284 -0.0061189734 4.128961e-21)
(1.0235246 -0.0056495649 -7.3249747e-21)
(1.0243621 -0.0051068491 1.4953041e-20)
(1.0251131 -0.0044348177 4.8963654e-22)
(1.0258533 -0.003667354 -1.5228603e-20)
(1.0265347 -0.0027412873 7.6360663e-21)
(1.0271276 -0.0017566977 -1.5522287e-20)
(1.027596 -0.0005672573 2.5581383e-21)
(1.0191298 -0.0075427119 -1.47932e-22)
(1.0206529 -0.0072932064 2.8404896e-23)
(1.0215103 -0.0069847708 3.2065661e-21)
(1.0225705 -0.0066851686 0)
(1.0234335 -0.006295442 -2.200727e-23)
(1.0243324 -0.0058367362 -1.3659443e-21)
(1.0251316 -0.0052623553 3.0806296e-21)
(1.0259222 -0.004566036 7.5684737e-21)
(1.0266335 -0.0037605434 -1.2883473e-21)
(1.0273165 -0.0027975411 9.4281426e-21)
(1.027878 -0.0017876114 6.4496039e-21)
(1.028332 -0.00056680966 -1.3333166e-21)
(1.0185633 -0.0078901713 -9.5792464e-23)
(1.0202002 -0.0076879865 7.9009283e-22)
(1.0211666 -0.0074330613 0)
(1.0223166 -0.0072030105 0)
(1.0232598 -0.0068871395 2.4945665e-21)
(1.0242317 -0.006517005 -4.6156691e-21)
(1.0250961 -0.006026084 7.6074185e-21)
(1.0259442 -0.0054318249 -7.9659852e-21)
(1.0267103 -0.0046913545 -5.8781773e-22)
(1.0274279 -0.0038498146 1.3284111e-23)
(1.0280783 -0.0028445484 -1.1713349e-20)
(1.0286209 -0.001812009 1.3179944e-20)
(1.0290434 -0.00056314596 -2.337476e-20)
(1.0178247 -0.0082061138 4.9119253e-22)
(1.0196037 -0.0080464768 -1.3783988e-22)
(1.020698 -0.0078405372 2.1833893e-21)
(1.0219528 -0.0076750953 -2.5504238e-21)
(1.0229892 -0.0074302006 2.7939721e-21)
(1.0240461 -0.0071431918 -1.1572191e-21)
(1.0249874 -0.0067420156 -1.9284831e-21)
(1.0259103 -0.0062354285 1.2534919e-22)
(1.026739 -0.0055957584 -6.672372e-21)
(1.0275194 -0.0048138766 -5.9567995e-21)
(1.0282063 -0.0039274512 -3.0046804e-21)
(1.0288369 -0.002881384 -8.1685858e-21)
(1.0293413 -0.0018277471 -5.5139441e-21)
(1.0297343 -0.00055601142 6.3279735e-21)
(1.0168787 -0.0084950544 2.5669788e-21)
(1.018841 -0.0083733177 -3.1258137e-21)
(1.0200876 -0.008211354 6.5439466e-22)
(1.0214648 -0.0081056678 1.2145981e-22)
(1.0226085 -0.0079267584 -1.0082993e-22)
(1.0237617 -0.0077207727 1.2938973e-21)
(1.0247923 -0.007404437 -1.7931412e-21)
(1.0258004 -0.0069940813 2.4251719e-21)
(1.02671 -0.0064402233 -7.865884e-22)
(1.0275625 -0.0057593612 4.9764121e-22)
(1.0283171 -0.0049232963 1.795584e-22)
(1.0289876 -0.0039925292 -1.4986895e-22)
(1.0295759 -0.0029046664 1.1489216e-20)
(1.030044 -0.0018338638 -5.8530877e-21)
(1.0303976 -0.000545159 4.8408695e-21)
(1.0156745 -0.0087617063 -1.4520775e-21)
(1.0178803 -0.0086735958 2.4788163e-21)
(1.0193141 -0.0085500045 -1.2961412e-21)
(1.0208369 -0.0084986495 2.3183272e-21)
(1.0221045 -0.0083809084 -2.6112347e-21)
(1.0233661 -0.0082511919 5.7881636e-21)
(1.0244969 -0.0080185608 -6.6238114e-21)
(1.025601 -0.0077002458 3.0159637e-22)
(1.0266025 -0.007243191 1.983521e-21)
(1.027546 -0.0066483483 -2.1395109e-21)
(1.0283797 -0.0059093669 1.9426894e-20)
(1.0291249 -0.0050189262 -7.1088195e-21)
(1.0297542 -0.0040399814 -3.7968857e-21)
(1.0303018 -0.0029128412 -1.3325257e-21)
(1.0307212 -0.0018290229 3.8924289e-23)
(1.0310322 -0.00053042575 -5.2206938e-21)
(1.0141396 -0.0090105434 0)
(1.0166746 -0.0089532254 2.1815172e-21)
(1.0183479 -0.0088612558 -1.1508017e-21)
(1.0200495 -0.0088584675 0)
(1.0214623 -0.0087964334 0)
(1.022847 -0.008738191 0)
(1.0240895 -0.0085850997 2.5762052e-22)
(1.0252986 -0.0083587161 -4.1742943e-21)
(1.0264029 -0.00799547 3.9095423e-21)
(1.0274481 -0.0075004621 -5.4410582e-21)
(1.0283812 -0.0068434079 7.02694e-22)
(1.029215 -0.0060456557 -4.025853e-21)
(1.0299237 -0.0050940048 5.833889e-22)
(1.0305139 -0.0040676581 4.173496e-21)
(1.0310052 -0.0029037809 8.0209108e-22)
(1.0313724 -0.0018123479 2.7191808e-21)
(1.0316342 -0.00051171111 0)
(1.012179 -0.0092454347 -4.8512345e-22)
(1.0151547 -0.0092188308 -3.8117523e-21)
(1.0171444 -0.0091504026 4.7443946e-21)
(1.0190752 -0.0091899453 2.1218549e-21)
(1.020664 -0.0091775805 3.0034378e-21)
(1.0221906 -0.0091851095 0)
(1.0235582 -0.0091073272 3.9666949e-21)
(1.024882 -0.0089692304 -1.1156621e-21)
(1.0260977 -0.0087013757 -1.0022501e-20)
(1.0272546 -0.0083045402 4.8941763e-21)
(1.0282986 -0.0077462189 3.1456105e-21)
(1.0292429 -0.0070261899 7.7657366e-22)
(1.0300477 -0.0061595566 -9.4276785e-21)
(1.0307228 -0.0051459046 1.3467089e-20)
(1.031256 -0.0040723195 2.4172118e-21)
(1.0316863 -0.002876058 1.9361082e-20)
(1.031993 -0.001783103 7.0124394e-21)
(1.0322014 -0.00048896852 6.0873543e-21)
(1.0096802 -0.0094686319 1.513017e-22)
(1.0132254 -0.0094773853 -1.6628572e-21)
(1.0156373 -0.0094231459 -1.0752346e-21)
(1.0178727 -0.009498472 2.9777339e-21)
(1.019684 -0.0095289727 -3.5438162e-22)
(1.0213803 -0.0095959017 2.2428608e-21)
(1.0228903 -0.0095881167 -1.8988292e-21)
(1.02434 -0.0095344641 -8.4978019e-21)
(1.0256759 -0.0093595877 -3.3581204e-21)
(1.0269518 -0.0090642472 4.3824222e-21)
(1.0281172 -0.0086047237 -1.0974801e-21)
(1.0291839 -0.0079825177 8.0742053e-21)
(1.0301091 -0.0071860121 -4.9794498e-21)
(1.0308893 -0.0062480632 -1.1250396e-22)
(1.0315105 -0.005170218 -5.5393326e-22)
(1.031982 -0.0040517709 -3.1586024e-21)
(1.03234 -0.0028284564 6.3196708e-21)
(1.0325808 -0.0017407294 -2.4673419e-22)
(1.0327312 -0.00046224 5.3705855e-21)
(1.0065286 -0.0096797558 1.3662339e-21)
(1.0107683 -0.0097350519 1.9173815e-21)
(1.0137337 -0.0096852032 -1.018429e-20)
(1.0163791 -0.0097901555 -1.0774443e-21)
(1.0184837 -0.0098558535 1.5983173e-21)
(1.0203928 -0.0099749717 8.9660831e-22)
(1.0220704 -0.010031125 7.1107855e-22)
(1.023661 -0.010056669 4.2033097e-21)
(1.025127 -0.009972037 -1.3645411e-21)
(1.026529 -0.0097770081 -1.0876769e-20)
(1.0278227 -0.0094218868 8.9978566e-21)
(1.0290223 -0.0088995031 -6.1332793e-22)
(1.0300815 -0.0081965535 -3.0790262e-21)
(1.0309932 -0.0073197043 2.3524177e-22)
(1.0317267 -0.0063054314 1.773705e-22)
(1.0322892 -0.0051639491 -1.1049629e-20)
(1.0326853 -0.004004057 2.87374e-21)
(1.0329639 -0.0027600742 -1.0066132e-20)
(1.033133 -0.0016849543 -2.4228113e-21)
(1.0332216 -0.00043162596 -5.2464295e-21)
(1.0026273 -0.0098750976 -7.1155127e-23)
(1.0076544 -0.0099954168 2.4865747e-21)
(1.0113153 -0.009941716 -1.1001082e-22)
(1.0145041 -0.010071827 2.7195882e-21)
(1.0170037 -0.010164181 3.719412e-22)
(1.0191925 -0.010327439 -2.2153975e-21)
(1.0210771 -0.010440463 5.7058e-21)
(1.022831 -0.010539044 1.1211194e-20)
(1.0244402 -0.010540244 -4.4731256e-21)
(1.0259762 -0.010443818 0)
(1.0274045 -0.010193764 -5.7076927e-21)
(1.0287432 -0.0097792815 3.5493896e-21)
(1.0299476 -0.0091740594 8.8983116e-21)
(1.0310063 -0.0083852433 -7.1790632e-21)
(1.0318816 -0.0074200059 3.6905208e-21)
(1.0325638 -0.0063278091 -8.8956606e-21)
(1.0330511 -0.0051243124 -2.9834631e-22)
(1.0333639 -0.0039276585 3.6814976e-21)
(1.0335547 -0.0026704223 -5.8496532e-21)
(1.0336471 -0.0016157332 -5.0072037e-22)
(1.0336707 -0.00039728755 -4.5254856e-21)
(0.9979188 -0.010047593 -3.6732252e-21)
(1.0037642 -0.010257899 1.8175123e-21)
(1.0082487 -0.010195542 4.8221457e-21)
(1.0121277 -0.010349617 -5.5503725e-21)
(1.0151558 -0.010460373 -3.836484e-21)
(1.0177235 -0.010659328 9.4649396e-22)
(1.0198774 -0.010820989 0)
(1.0218304 -0.010985341 2.9476076e-21)
(1.0236026 -0.011066844 -1.6843705e-21)
(1.0252835 -0.011065291 -1.0866819e-20)
(1.0268529 -0.010920285 -1.2213081e-21)
(1.0283358 -0.01061636 2.3685392e-21)
(1.0296917 -0.010119826 -6.1162999e-22)
(1.0309094 -0.009425566 -2.9444718e-21)
(1.0319444 -0.0085396633 5.1418323e-21)
(1.032779 -0.0074823548 -4.8638708e-21)
(1.0333915 -0.0063113741 1.1219379e-21)
(1.033795 -0.0050489417 -6.8744101e-21)
(1.0340135 -0.0038216375 -1.1751265e-21)
(1.0341098 -0.0025593144 -2.3089596e-22)
(1.0341213 -0.0015332592 -2.7337301e-21)
(1.0340773 -0.00035943793 0)
(0.99240023 -0.01018765 -1.893395e-21)
(0.99901225 -0.010516651 -7.7611404e-22)
(1.0044053 -0.010445963 6.7910097e-23)
(1.0091097 -0.010628038 -5.3252063e-21)
(1.0128211 -0.010750817 -2.5623578e-21)
(1.0159014 -0.01097749 2.225844e-21)
(1.0184189 -0.011178552 -2.1564111e-21)
(1.0206292 -0.011400199 7.145573e-21)
(1.0225965 -0.01155511 2.7055571e-21)
(1.0244393 -0.011643316 6.2921775e-22)
(1.0261586 -0.011600995 -1.5052763e-22)
(1.0277904 -0.011409436 -4.9848897e-21)
(1.0293025 -0.011026729 7.8838484e-22)
(1.0306858 -0.010441076 2.7542348e-22)
(1.0318943 -0.0096434692 -6.8562148e-21)
(1.0329018 -0.0086546526 -7.6489558e-21)
(1.0336758 -0.0075016058 4.2469327e-22)
(1.0342092 -0.006252774 1.2053342e-20)
(1.0345152 -0.0049363712 5.1899518e-22)
(1.0346312 -0.0036854302 -3.551729e-21)
(1.0346265 -0.0024269687 0)
(1.0345537 -0.0014379289 5.5213588e-21)
(1.0344405 -0.00031833585 1.2247609e-22)
(0.98612796 -0.010284553 1.0563168e-20)
(0.99336682 -0.01076074 -1.5050547e-21)
(0.99968615 -0.010687599 5.111222e-21)
(1.0053071 -0.010907913 2.4571661e-21)
(1.0098555 -0.011040215 -6.3249095e-21)
(1.0136081 -0.011288716 0)
(1.0166207 -0.011519946 -4.1921132e-22)
(1.0191788 -0.011789346 3.3539526e-21)
(1.0213945 -0.012009281 4.9589525e-21)
(1.0234275 -0.012180562 5.4468538e-21)
(1.0253111 -0.012236879 -5.1772591e-21)
(1.0270986 -0.012156771 -4.880597e-21)
(1.0287703 -0.011892107 6.3544802e-21)
(1.0303232 -0.011422919 -6.3441472e-21)
(1.0317128 -0.010730981 1.0523895e-20)
(1.0329091 -0.0098221043 1.3940426e-20)
(1.0338688 -0.0087235656 -4.4470097e-21)
(1.0345721 -0.007473461 4.6889644e-21)
(1.0350102 -0.0061497052 -1.3994796e-20)
(1.0352087 -0.0047853559 3.6659325e-21)
(1.0352136 -0.0035190519 7.1687518e-21)
(1.0351029 -0.0022739232 -5.5183269e-21)
(1.0349433 -0.001330333 2.9307154e-21)
(1.0347599 -0.00027427489 9.9591073e-23)
(0.97921116 -0.010327927 2.2033984e-21)
(0.98685935 -0.010975338 -4.6006033e-22)
(0.99404356 -0.010910454 -5.4298758e-22)
(1.0005999 -0.011185068 -1.1625315e-20)
(1.0061066 -0.011330058 4.032518e-21)
(1.010696 -0.011598767 -7.7106628e-21)
(1.0143668 -0.011852403 -3.3250928e-22)
(1.0174024 -0.012159705 -8.357277e-21)
(1.0199516 -0.012434797 2.3748135e-21)
(1.0222235 -0.012680816 3.1561376e-21)
(1.024296 -0.012829829 -3.43742e-21)
(1.0262507 -0.012858252 7.6661118e-21)
(1.028087 -0.012712773 -3.7514293e-21)
(1.0298119 -0.012366929 -4.987242e-22)
(1.0313865 -0.011791602 4.844551e-21)
(1.0327805 -0.01098347 1.5510585e-21)
(1.0339445 -0.0099532713 -9.1116689e-22)
(1.0348457 -0.0087411108 7.4090845e-21)
(1.0354601 -0.0073944322 0)
(1.0357915 -0.0060000442 1.268506e-21)
(1.0358711 -0.0045956411 3.5860631e-22)
(1.035758 -0.0033229444 -6.3533318e-22)
(1.0355371 -0.0021010425 -1.3833918e-22)
(1.0352893 -0.0012112292 -4.0301225e-21)
(1.0350355 -0.00022757721 -1.3747892e-21)
(0.97179373 -0.010309594 -8.8579972e-21)
(0.97958288 -0.01114331 -2.1739419e-22)
(0.98749356 -0.011101238 1.5495353e-21)
(0.99491631 -0.011449852 1.2606471e-21)
(1.0014394 -0.011616944 1.1924079e-20)
(1.0070022 -0.011910184 6.3756973e-22)
(1.0115076 -0.012182212 -2.8978723e-22)
(1.0151867 -0.01251888 5.6151493e-22)
(1.0181951 -0.01283845 6.6848e-21)
(1.0207861 -0.013149185 -1.3970419e-21)
(1.0230913 -0.013382988 4.4289971e-21)
(1.0252342 -0.013514811 -8.3508809e-22)
(1.0272439 -0.01348733 -3.9300476e-21)
(1.0291437 -0.013268287 1.2397885e-21)
(1.0309052 -0.012819588 -1.8058876e-21)
(1.0325014 -0.012126428 -6.6167026e-21)
(1.0338804 -0.011188825 -6.247492e-21)
(1.0350013 -0.010030666 -1.0471386e-20)
(1.0358246 -0.0087023798 -1.5130144e-20)
(1.036337 -0.0072614176 -1.1911663e-22)
(1.0365474 -0.0058029222 1.4120873e-20)
(1.0364992 -0.0043672786 2.4823293e-21)
(1.036262 -0.0030980271 -5.1313351e-21)
(1.035928 -0.0019094621 3.9912194e-21)
(1.0355912 -0.0010815161 -2.3639923e-21)
(1.0352675 -0.00017859178 1.288237e-22)
(0.96403215 -0.010224989 3.7573046e-22)
(0.97167981 -0.011248191 -6.9090404e-22)
(0.98011475 -0.011245935 -5.8744163e-21)
(0.98825085 -0.011688044 6.2792948e-21)
(0.99576242 -0.011892103 -9.5015044e-21)
(1.002374 -0.01222083 6.6838032e-21)
(1.0078727 -0.012512954 4.3443945e-21)
(1.0123809 -0.01287389 6.287529e-21)
(1.0160152 -0.013228067 -9.5540736e-21)
(1.0190472 -0.013592329 -4.2215586e-21)
(1.0216592 -0.013900959 4.170395e-22)
(1.0240292 -0.014128806 -1.1380384e-20)
(1.0262297 -0.014215551 1.0779136e-20)
(1.0283108 -0.014124109 -3.9161205e-21)
(1.0302607 -0.013808355 1.7460966e-21)
(1.0320604 -0.013243592 1.2193658e-21)
(1.0336602 -0.012416286 -6.0653179e-21)
(1.0350141 -0.011339744 6.7209654e-21)
(1.0360717 -0.010047807 -6.4431237e-21)
(1.0368024 -0.0086031096 6.3690603e-22)
(1.037196 -0.0070725474 0)
(1.0372742 -0.0055577408 5.3930133e-21)
(1.0370893 -0.0041011741 8.7140542e-22)
(1.0367235 -0.0028456201 0)
(1.0362746 -0.0017005534 -4.5014753e-21)
(1.0358492 -0.0009422089 -3.6345199e-22)
(1.0354568 -0.00012770175 4.1813349e-22)
(0.95607486 -0.01007343 2.8256586e-21)
(0.96331757 -0.011276248 -9.4077837e-23)
(0.97203698 -0.01133091 -4.864901e-21)
(0.98066807 -0.011882862 5.0174739e-22)
(0.9890486 -0.012142055 -1.9405149e-21)
(0.99669743 -0.012522702 -7.2570769e-21)
(1.0032949 -0.012843472 -4.0025723e-22)
(1.0088073 -0.01322924 -5.8092593e-21)
(1.0132611 -0.013611289 8.0324345e-22)
(1.0169007 -0.014018218 7.0647003e-21)
(1.0199363 -0.014390069 -6.9179709e-21)
(1.0226017 -0.01470421 -2.4444292e-21)
(1.0250269 -0.014898796 -4.991889e-21)
(1.0273032 -0.014932794 1.8359595e-21)
(1.0294454 -0.014753352 -4.4055531e-21)
(1.031449 -0.014326494 2.421572e-21)
(1.0332713 -0.013626646 -5.1288891e-21)
(1.0348656 -0.012652945 2.135943e-20)
(1.0361741 -0.011428099 6.9996622e-21)
(1.0371526 -0.009999122 2.1024193e-21)
(1.0377718 -0.0084401254 7.94171e-21)
(1.0380328 -0.0068263758 -1.0768171e-21)
(1.0379671 -0.005265046 -4.9719862e-22)
(1.0376387 -0.0037985708 0)
(1.0371408 -0.0025674341 0)
(1.0365764 -0.001475872 3.6876226e-22)
(1.0360636 -0.00079441458 -1.3030215e-21)
(1.0356044 -7.5397966e-05 -5.0816229e-23)
(0.9480484 -0.0098595164 0)
(0.95466351 -0.011218502 -6.8047693e-22)
(0.96342507 -0.011344504 4.37575e-21)
(0.972293 -0.012017693 2.2668313e-21)
(0.98134275 -0.012350215 6.9352092e-21)
(0.98992246 -0.012802136 7.7516238e-22)
(0.99764029 -0.013166716 -4.6771081e-21)
(1.0042836 -0.013584913 -9.1782657e-21)
(1.0097495 -0.013993601 1.0234503e-20)
(1.0141972 -0.014435055 -2.3084875e-21)
(1.0178211 -0.014858278 6.1095756e-22)
(1.0208931 -0.015246926 2.1919511e-21)
(1.0236052 -0.015540206 -1.4377428e-20)
(1.0261055 -0.015694501 3.1959745e-21)
(1.0284506 -0.015651392 2.5229277e-21)
(1.03066 -0.015368743 -4.2484915e-21)
(1.0327044 -0.014809495 2.6237486e-21)
(1.0345415 -0.013959702 -5.2700058e-21)
(1.0361108 -0.012826644 1.485172e-20)
(1.0373576 -0.011446904 -3.5433174e-21)
(1.0382364 -0.0098798781 6.5227407e-21)
(1.0387278 -0.0082108528 4.2477898e-21)
(1.0388414 -0.0065227024 -3.6015328e-22)
(1.0386224 -0.0049257672 -1.2314583e-20)
(1.0381446 -0.0034613961 -3.5449499e-21)
(1.0375129 -0.0022655314 8.0099045e-22)
(1.0368337 -0.0012371266 2.3646578e-21)
(1.0362353 -0.00063934412 -2.3072544e-22)
(1.0357117 -2.2128447e-05 -1.3053442e-21)
(0.94004247 -0.0095836143 -8.3007716e-21)
(0.94586062 -0.011075151 0)
(0.95445604 -0.011278127 0)
(0.96329119 -0.012077831 0)
(0.97275632 -0.012499465 -1.7227831e-21)
(0.98207543 -0.013041936 6.1538606e-21)
(0.99083508 -0.013469662 -3.4517457e-22)
(0.99865445 -0.013934658 -3.4755266e-22)
(1.0052855 -0.014376099 1.3885672e-20)
(1.0107483 -0.014849272 -1.4552951e-20)
(1.015166 -0.015314218 6.7651899e-21)
(1.0188068 -0.015764776 -2.5385697e-21)
(1.0219103 -0.016145053 4.451351e-21)
(1.0246908 -0.016411347 -4.1971827e-21)
(1.0272629 -0.016501201 9.3540496e-21)
(1.0296854 -0.016365358 3.2573211e-21)
(1.0319521 -0.015956478 -4.4982905e-21)
(1.0340316 -0.015247659 -7.1661855e-21)
(1.0358657 -0.014231471 2.0489202e-21)
(1.0373937 -0.012928943 -3.8946995e-21)
(1.0385571 -0.01138967 -7.4672041e-21)
(1.0393176 -0.0096861067 9.3388106e-22)
(1.0396634 -0.0079139948 9.6911174e-21)
(1.0396171 -0.0061618706 -5.6640071e-21)
(1.039236 -0.0045417563 -6.3123749e-22)
(1.038605 -0.003091884 -1.6440214e-21)
(1.0378389 -0.0019423661 2.8368674e-21)
(1.0370466 -0.0009862378 1.4624095e-21)
(1.0363654 -0.00047830878 -6.3892978e-22)
(1.0357805 3.1657806e-05 -1.4802169e-21)
(0.93148663 -0.0092219899 -4.802086e-22)
(0.93703285 -0.010838525 -7.1951576e-22)
(0.94529735 -0.011130797 0)
(0.95384355 -0.012051157 0)
(0.96344988 -0.012574103 0)
(0.97325619 -0.013223587 0)
(0.98288258 -0.01373483 0)
(0.99182194 -0.014265912 6.4537415e-23)
(0.99969362 -0.014753693 -5.7532215e-21)
(1.0063467 -0.015263041 1.5746216e-20)
(1.0117793 -0.01576519 -3.2438584e-22)
(1.0161979 -0.016266706 7.4954317e-21)
(1.0198512 -0.01672084 -1.4387115e-20)
(1.0230096 -0.017087797 7.0536297e-21)
(1.0258583 -0.017303634 -7.0552316e-22)
(1.0285135 -0.017313402 5.6639192e-21)
(1.031007 -0.017060637 -8.5930544e-21)
(1.033328 -0.016506408 2.1028782e-21)
(1.035427 -0.015628352 7.6916168e-21)
(1.0372425 -0.01443209 3.9786242e-21)
(1.0387071 -0.012951482 9.5925987e-22)
(1.0397667 -0.0112508 5.7467403e-21)
(1.0403884 -0.0094150751 1.8544687e-22)
(1.0405728 -0.0075489745 -3.7003246e-21)
(1.0403546 -0.0057453141 2.5672093e-21)
(1.039805 -0.0041152804 9.1786536e-21)
(1.0390183 -0.0026927709 2.1943847e-21)
(1.0381185 -0.0016003948 -1.1697766e-21)
(1.037216 -0.00072526164 1.5763078e-22)
(1.0364552 -0.0003124711 1.6521749e-21)
(1.0358126 8.6167269e-05 1.1569773e-21)
(0.92224947 -0.0087269363 9.5371284e-21)
(0.92758509 -0.010496458 -2.2688627e-22)
(0.93607581 -0.010903785 2.3304752e-21)
(0.94412125 -0.011938232 2.7667522e-21)
(0.9536086 -0.012560232 0)
(0.96362085 -0.013329209 0)
(0.97386436 -0.013942709 -3.8452566e-23)
(0.9837666 -0.014560813 7.3054023e-21)
(0.99285119 -0.015114315 -1.2055663e-20)
(1.0007971 -0.01567223 1.4857681e-20)
(1.007443 -0.016214561 7.2939857e-22)
(1.0128728 -0.016760827 -1.0337258e-20)
(1.0172867 -0.017276641 1.6252209e-21)
(1.0209764 -0.017730853 -1.1224755e-21)
(1.0241924 -0.018062112 -7.285867e-21)
(1.0271233 -0.018212229 6.8453721e-22)
(1.0298589 -0.018117145 1.0556126e-20)
(1.0324235 -0.017726853 -6.8960131e-22)
(1.0347858 -0.017004808 -5.5520317e-21)
(1.0368903 -0.01594039 2.2249295e-20)
(1.0386655 -0.014551297 -3.6315115e-22)
(1.0400453 -0.012886859 -6.1588332e-21)
(1.0409781 -0.011025814 1.3167747e-20)
(1.0414419 -0.0090649351 6.6615481e-21)
(1.0414493 -0.0071164468 -7.7267432e-22)
(1.0410496 -0.0052750577 5.4054785e-21)
(1.0403263 -0.003649282 2.6262441e-21)
(1.0393832 -0.0022670117 3.1306658e-22)
(1.038352 -0.0012420397 -8.0997773e-22)
(1.0373429 -0.0004559261 -6.1432523e-22)
(1.0365066 -0.000142767 1.8271065e-21)
(1.0358098 0.00014109774 1.549456e-22)
(0.91299112 -0.0081086411 -3.2345661e-21)
(0.91736184 -0.010014372 1.0153208e-21)
(0.92623477 -0.010574651 -3.2717804e-21)
(0.93427986 -0.011733096 -2.6648857e-21)
(0.94341722 -0.012458311 0)
(0.95335753 -0.013342353 0)
(0.96392779 -0.01407345 0)
(0.97455258 -0.014798837 -9.4649105e-22)
(0.98471304 -0.015440048 1.1043611e-20)
(0.9939515 -0.016065457 1.1700038e-20)
(1.0019426 -0.016659335 6.9561489e-22)
(1.0086032 -0.01725161 -1.9221695e-21)
(1.0140221 -0.01782124 2.1194299e-20)
(1.0184545 -0.018349545 -1.3104809e-20)
(1.022185 -0.018782902 2.3498394e-21)
(1.0254749 -0.019063971 0)
(1.0284895 -0.019123598 3.3327699e-21)
(1.0313087 -0.018902074 -2.1691222e-21)
(1.0339347 -0.018349505 5.5041624e-21)
(1.0363268 -0.017439343 7.4381218e-22)
(1.0384163 -0.016171677 -1.0134847e-20)
(1.0401295 -0.014579781 -3.1997218e-22)
(1.0413996 -0.01272859 -9.3338139e-21)
(1.0421836 -0.010711242 -1.1102439e-20)
(1.0424704 -0.0086351728 3.2841667e-21)
(1.0422873 -0.0066178584 1.215133e-21)
(1.0416976 -0.0047539931 -7.8845933e-22)
(1.0407977 -0.0031470433 2.9751799e-23)
(1.0396991 -0.0018177834 -9.341176e-22)
(1.0385398 -0.00086995428 -1.1770948e-21)
(1.0374288 -0.00018006516 7.6397861e-22)
(1.0365212 2.9673057e-05 -6.6591512e-21)
(1.0357745 0.00019616333 3.0641208e-21)
(0.90397333 -0.0073659918 -2.9145449e-21)
(0.90701764 -0.0093840221 1.2618564e-22)
(0.91555849 -0.010095331 -6.2763952e-21)
(0.92373991 -0.011390434 -3.8455049e-21)
(0.93303732 -0.012265381 1.6959143e-21)
(0.94265972 -0.013266467 1.8836798e-22)
(0.9532619 -0.014108066 1.0129159e-20)
(0.9643167 -0.014958853 -5.817076e-21)
(0.97532186 -0.015709477 -8.296799e-22)
(0.98573872 -0.016424764 -2.3981741e-20)
(0.99510488 -0.017088804 1.0718977e-20)
(1.0031562 -0.017737137 1.5543133e-20)
(1.0098206 -0.0183602 -5.8309355e-22)
(1.0152494 -0.018953185 -8.2674054e-21)
(1.0197047 -0.019474765 -9.0308605e-21)
(1.0234943 -0.019873921 -2.275074e-21)
(1.0268631 -0.020080566 1.5102487e-21)
(1.029968 -0.020027658 8.6340572e-21)
(1.0328653 -0.019653248 -1.1271838e-21)
(1.035544 -0.018915336 -1.4351488e-21)
(1.0379473 -0.017796241 1.5308864e-21)
(1.0400005 -0.016310975 -1.5944876e-20)
(1.0416259 -0.014508872 4.6320668e-22)
(1.0427619 -0.012471269 3.022065e-21)
(1.0433743 -0.010305003 -1.4329369e-20)
(1.0434664 -0.00812627 -4.6097109e-21)
(1.0430809 -0.0060557251 -3.8283123e-21)
(1.0422951 -0.0041855397 -1.9363147e-21)
(1.0412175 -0.0026122645 -1.7101995e-21)
(1.0399657 -0.0013483692 -1.8402192e-22)
(1.0386829 -0.00048670668 2.0608506e-22)
(1.0374752 0.00010081041 -1.651516e-22)
(1.0365013 0.00020412834 3.1735283e-21)
(1.0357083 0.00025183431 -6.5104354e-21)
(0.89548125 -0.0064983352 3.1714617e-21)
(0.89684467 -0.008593292 -1.8852543e-22)
(0.90465708 -0.009465115 7.2451135e-21)
(0.91228382 -0.010906165 1.8760967e-21)
(0.92194557 -0.011937899 -5.7789747e-21)
(0.93171162 -0.013088127 -7.9783621e-21)
(0.9420693 -0.014050068 -1.2477909e-21)
(0.95324632 -0.015019078 0)
(0.96480131 -0.015899342 -6.7173387e-21)
(0.97617884 -0.016727888 -2.6673791e-20)
(0.98683096 -0.017485029 -4.505167e-22)
(0.99633318 -0.018207464 -5.6792673e-21)
(1.0044316 -0.018892776 0)
(1.0111167 -0.019548348 -3.5011475e-22)
(1.0165584 -0.020147347 1.6390525e-20)
(1.0210555 -0.020650333 3.1306633e-21)
(1.0249117 -0.020992082 -1.2942092e-20)
(1.0283698 -0.021102334 0)
(1.0315636 -0.020909385 3.1160853e-22)
(1.0345337 -0.020356769 1.3329001e-21)
(1.0372496 -0.019409133 -1.4033525e-20)
(1.0396443 -0.01806241 1.0745369e-21)
(1.0416353 -0.016347338 0)
(1.0431464 -0.014330969 -1.3097184e-20)
(1.0441222 -0.012110861 4.2496298e-21)
(1.0445415 -0.0098061877 -2.4345374e-22)
(1.0444227 -0.0075399742 -5.8001534e-21)
(1.0438248 -0.0054333122 4.1274796e-21)
(1.0428391 -0.0035737307 2.6470608e-22)
(1.0415844 -0.0020488709 -2.6858942e-21)
(1.0401835 -0.0008621426 1.0440808e-21)
(1.0387827 -9.4871112e-05 -5.5613989e-23)
(1.0374841 0.00038493151 0)
(1.036449 0.00037952981 -1.2708926e-22)
(1.0356137 0.00030670184 -2.1943753e-21)
(0.88781136 -0.0055104663 2.2473317e-21)
(0.88717907 -0.0076370962 6.7971298e-22)
(0.89386173 -0.0086725228 6.4630368e-21)
(0.90052529 -0.010253846 7.0576928e-22)
(0.90988543 -0.011447153 -1.4608509e-21)
(0.91996328 -0.012755876 -8.6633972e-22)
(0.93054704 -0.013885447 -7.6642473e-21)
(0.94155112 -0.014984963 5.8103842e-24)
(0.95333501 -0.01598518 0)
(0.96538005 -0.016950096 8.2777237e-21)
(0.97711579 -0.017825023 -8.9663118e-21)
(0.98800662 -0.018644753 1.2018465e-21)
(0.99763102 -0.019409788 -6.2315662e-21)
(1.005789 -0.020135425 9.1968275e-21)
(1.0124954 -0.020808123 4.833302e-21)
(1.0179677 -0.021402971 1.3528982e-20)
(1.0225156 -0.02186562 -2.5845687e-20)
(1.0264518 -0.022128582 -7.3603445e-21)
(1.0300018 -0.022114522 1.2232284e-20)
(1.0332834 -0.021754544 -1.5832922e-20)
(1.0363144 -0.020996283 1.3926894e-20)
(1.0390499 -0.019816113 -8.3762433e-21)
(1.041411 -0.018224639 0)
(1.0433125 -0.01627079 -3.4194704e-21)
(1.0446807 -0.014039742 9.8012954e-22)
(1.0454709 -0.01164464 6.3551231e-21)
(1.0456762 -0.0092153331 2.4090824e-21)
(1.0453323 -0.0068790265 1.2829815e-21)
(1.0445145 -0.004754724 2.651341e-21)
(1.043327 -0.0029229879 0)
(1.0418979 -0.0014609933 2.4952939e-21)
(1.0403531 -0.00036247157 9.9819702e-22)
(1.0388406 0.00030306054 6.0033081e-21)
(1.0374575 0.00067069322 -2.8239006e-21)
(1.0363665 0.00055477979 1.5428573e-22)
(1.0354929 0.0003607815 8.0448092e-21)
(0.88125367 -0.0044133487 -2.1572383e-21)
(0.87838044 -0.0065180627 -6.5641104e-23)
(0.88354638 -0.007712605 -2.001481e-21)
(0.88880741 -0.0094201983 -2.6179281e-23)
(0.89738904 -0.010787516 6.9744888e-21)
(0.90714339 -0.012260019 6.3583869e-21)
(0.91818287 -0.013556374 2.7512454e-23)
(0.92944513 -0.014835232 -5.9830939e-21)
(0.94113797 -0.015973595 1.9713646e-23)
(0.95351974 -0.017063943 -6.8529265e-21)
(0.96604955 -0.018082306 -6.818471e-23)
(0.97814484 -0.019025337 4.9054531e-21)
(0.98926181 -0.01989352 3.1470778e-22)
(0.99901672 -0.020706054 7.9355893e-21)
(1.0072325 -0.021458609 -3.4596309e-20)
(1.0139755 -0.022140058 1.6841618e-21)
(1.0194872 -0.022710803 8.03969e-21)
(1.0241009 -0.02311279 1.1813358e-20)
(1.0281236 -0.023269268 -1.1577472e-20)
(1.0317688 -0.023102884 -3.6634197e-21)
(1.0351305 -0.022545995 7.5942388e-21)
(1.0382081 -0.02155556 -1.4460846e-20)
(1.04094 -0.020120913 1.1064342e-20)
(1.0432401 -0.018270496 0)
(1.0450215 -0.016072444 1.0313018e-20)
(1.046218 -0.013630243 1.3514493e-20)
(1.0467972 -0.011071459 -4.906121e-21)
(1.0467697 -0.0085342144 1.0329793e-20)
(1.0461888 -0.0061472545 3.2559889e-22)
(1.045146 -0.0040246697 -2.8477931e-21)
(1.0437572 -0.0022380988 -1.9955967e-21)
(1.042158 -0.00085283965 -2.6144248e-21)
(1.0404757 0.00014730235 -2.8799866e-22)
(1.0388586 0.00070465834 6.7592518e-21)
(1.0373977 0.00095646723 -9.9548034e-22)
(1.036256 0.00072898704 -3.0737801e-22)
(1.0353482 0.0004137872 3.0808483e-21)
(0.87607206 -0.0032238246 2.6798937e-22)
(0.87080762 -0.0052483322 -6.6563551e-22)
(0.87411132 -0.0065869775 -2.6134008e-21)
(0.87754073 -0.0083990466 -4.9751066e-22)
(0.8848409 -0.0099322307 8.0485823e-23)
(0.89379192 -0.011577297 -4.476434e-23)
(0.90467196 -0.013046645 -3.8948474e-21)
(0.9164173 -0.014505305 1.8897885e-21)
(0.92843747 -0.015840891 0)
(0.94081661 -0.017078022 1.3755172e-21)
(0.95380118 -0.018226257 0)
(0.96681774 -0.019321069 0)
(0.97926366 -0.020319608 5.4471781e-21)
(0.9906124 -0.021242641 -7.8093678e-22)
(1.0004946 -0.022091285 -5.3557571e-21)
(1.0087805 -0.022864181 -9.8419738e-21)
(1.0155674 -0.023536401 2.0671935e-20)
(1.0211338 -0.024064167 4.4982876e-21)
(1.0258225 -0.024378591 9.1573047e-21)
(1.0299389 -0.024400205 4.1780633e-21)
(1.0336763 -0.024049871 -1.2884121e-20)
(1.0371078 -0.023266366 5.5901847e-21)
(1.0402116 -0.022017295 2.4926136e-21)
(1.0429136 -0.020308672 -5.9038188e-22)
(1.0451214 -0.018188364 3.235735e-22)
(1.0467512 -0.015744771 2.6099678e-21)
(1.0477465 -0.013099168 -2.0503481e-21)
(1.0480909 -0.010391635 -6.3910989e-21)
(1.0478137 -0.007765953 -6.2032762e-22)
(1.0469864 -0.0053493502 -8.8673364e-21)
(1.0457161 -0.003248431 -3.2315456e-21)
(1.0441285 -0.0015240536 -1.462514e-21)
(1.0423651 -0.00022864319 -3.2126719e-21)
(1.0405529 0.00066393523 4.5463721e-21)
(1.0388387 0.001107618 -1.3596965e-20)
(1.0373069 0.001240817 -2.3705868e-21)
(1.03612 0.00090130828 -2.8234667e-21)
(1.035182 0.00046562519 0)
(0.87248539 -0.0019638642 1.9026107e-21)
(0.86479193 -0.0038494357 -6.2296412e-23)
(0.86595882 -0.0053072808 -6.9289537e-22)
(0.86717704 -0.0071899949 -3.9037497e-22)