/*--------------------------------*- C++ -*----------------------------------*\
| =========                 |                                                 |
| \\      /  F ield         | OpenFOAM: The Open Source CFD Toolbox           |
|  \\    /   O peration     | Version:  5.0                                   |
|   \\  /    A nd           | Web:      www.OpenFOAM.org                      |
|    \\/     M anipulation  |                                                 |
\*---------------------------------------------------------------------------*/
FoamFile
{
    version     2.0;
    format      ascii;
    class       volSymmTensorField;
    location    "120";
    object      UPrime2Mean;
}
// * * * * * * * * * * * * * * * * * * * * * * * * * * * * * * * * * * * * * //

dimensions      [0 2 -2 0 0 0 0];

internalField   nonuniform List<symmTensor> 
9200
(
(3.0036076e-05 -1.3798809e-07 -3.1174816e-27 8.9701491e-09 1.2531945e-28 2.9504788e-47)
(2.9672394e-05 -4.6867573e-07 -5.3695272e-24 7.8609473e-08 3.6858501e-25 2.3453233e-42)
(3.0967624e-05 -1.5369852e-07 0 9.4221357e-09 0 0)
(3.1555745e-05 -7.4480436e-07 2.8289479e-24 2.0001059e-07 -3.016372e-25 6.0952105e-43)
(3.0622488e-05 -5.3429888e-07 -4.9009862e-24 8.2751244e-08 2.850492e-25 1.5370838e-42)
(3.1375824e-05 -1.6093328e-07 0 9.6066544e-09 0 0)
(3.4917385e-05 -1.0494919e-06 2.9904408e-25 3.6415465e-07 -4.0943852e-26 6.226177e-45)
(3.2523937e-05 -8.4071195e-07 -2.8423074e-25 2.1003263e-07 2.2018088e-26 9.4613692e-45)
(3.1042846e-05 -5.7236165e-07 0 8.486286e-08 0 0)
(3.2091304e-05 -1.723275e-07 0 9.9868577e-09 0 0)
(3.9540712e-05 -1.3031092e-06 -5.8215638e-24 5.5490609e-07 9.5568367e-25 2.128156e-42)
(3.5870357e-05 -1.1872116e-06 -3.6524103e-24 3.8328432e-07 4.5267003e-25 7.3825184e-43)
(3.2956355e-05 -8.9809678e-07 -2.8399652e-24 2.1531635e-07 2.5946632e-25 4.5902451e-43)
(3.1777068e-05 -6.3181501e-07 -1.8270164e-25 8.8924831e-08 1.0470315e-26 1.8489e-45)
(3.2699872e-05 -1.8152305e-07 1.25402e-28 1.0313347e-08 -1.0674881e-29 4.9125415e-49)
(4.5289575e-05 -1.5449176e-06 -5.6720051e-24 7.6562629e-07 1.0392152e-24 1.8183524e-42)
(4.0431267e-05 -1.4707345e-06 6.0819836e-25 5.8470459e-07 -7.0799007e-26 2.5941372e-44)
(3.6290739e-05 -1.2735795e-06 -9.4744299e-24 3.9385092e-07 1.1341512e-24 4.6620424e-42)
(3.371431e-05 -9.8783756e-07 -3.6090432e-24 2.2563625e-07 3.2130337e-25 6.608752e-43)
(3.240582e-05 -6.8638076e-07 7.4954182e-26 9.2735058e-08 -4.5585341e-27 4.2345396e-45)
(3.3407997e-05 -1.9039769e-07 8.2245195e-24 1.0705919e-08 -1.4243314e-25 3.3148013e-42)
(5.2205342e-05 -1.7326576e-06 -5.0518465e-24 9.8613975e-07 1.0835455e-24 1.4773527e-42)
(4.6075572e-05 -1.7458792e-06 -7.1937226e-24 8.0822251e-07 1.096298e-24 2.2597364e-42)
(4.0820317e-05 -1.5820173e-06 6.0421686e-24 6.0159516e-07 -8.4677409e-25 1.7246772e-42)
(3.7047003e-05 -1.4100103e-06 3.4119139e-25 4.1444292e-07 -4.060788e-26 5.7351435e-45)
(3.436559e-05 -1.071034e-06 -3.9680344e-24 2.3533821e-07 3.4446272e-25 7.6700593e-43)
(3.3144933e-05 -7.4676895e-07 -3.92825e-24 9.7480745e-08 2.1654853e-25 7.2060239e-43)
(3.4107246e-05 -1.9691517e-07 -6.3757423e-25 1.1078619e-08 9.5827523e-27 1.6835358e-44)
(6.0337887e-05 -1.8709984e-06 -1.5315032e-24 1.2112817e-06 4.9758765e-25 4.1848033e-43)
(5.2829848e-05 -1.9602881e-06 -4.9231553e-24 1.0424904e-06 8.609535e-25 9.7948402e-43)
(4.6407215e-05 -1.887947e-06 -6.6865402e-24 8.330943e-07 1.0726875e-24 1.9110129e-42)
(4.1552024e-05 -1.7611466e-06 3.6665452e-25 6.3494089e-07 -3.7788917e-26 3.2040145e-44)
(3.7698379e-05 -1.5387945e-06 9.6419893e-24 4.3412629e-07 -1.1026962e-24 4.0587996e-42)
(3.5142701e-05 -1.1638768e-06 4.2514018e-24 2.4760915e-07 -3.5749435e-25 7.8378185e-43)
(3.3876713e-05 -8.0318562e-07 5.3774413e-24 1.0225531e-07 -2.9862501e-25 1.3757852e-42)
(3.4849041e-05 -2.0083708e-07 -8.4340013e-24 1.145273e-08 1.3694936e-25 3.1386996e-42)
(6.9787937e-05 -1.9381311e-06 6.1719661e-24 1.4363423e-06 -1.5984384e-24 2.1875407e-42)
(6.0742533e-05 -2.1233092e-06 -6.6058584e-24 1.2821252e-06 1.1107726e-24 1.5206527e-42)
(5.3074887e-05 -2.1336752e-06 5.3272395e-25 1.0762319e-06 -5.2908324e-26 3.3995955e-44)
(4.7084395e-05 -2.1199904e-06 -3.7467626e-24 8.8264289e-07 5.7821315e-25 5.4890847e-43)
(4.2184681e-05 -1.9336457e-06 7.8155766e-25 6.672302e-07 -9.4498509e-26 1.554098e-43)
(3.8498979e-05 -1.6864592e-06 1.5877651e-23 4.5937147e-07 -1.7875142e-24 1.0286521e-41)
(3.5914118e-05 -1.2504707e-06 -3.3838758e-24 2.5996729e-07 3.1984553e-25 9.128845e-43)
(3.4666001e-05 -8.5749497e-07 9.4093281e-24 1.073178e-07 -5.1778699e-25 3.9544717e-42)
(3.5585226e-05 -2.0082579e-07 1.8488982e-23 1.1784935e-08 -2.8802258e-25 1.4296601e-41)
(8.0678304e-05 -1.9269165e-06 -4.2111427e-24 1.6591666e-06 1.3034871e-24 1.3480122e-42)
(6.9907095e-05 -2.208686e-06 4.3030015e-24 1.5215874e-06 -6.0235512e-25 6.5027883e-43)
(6.0864808e-05 -2.3315351e-06 5.5630743e-26 1.325551e-06 -2.6245225e-26 2.7595173e-45)
(5.3662722e-05 -2.4217122e-06 -1.85003e-24 1.144382e-06 2.0773752e-25 3.9057799e-43)
(4.7671837e-05 -2.3475461e-06 1.2466245e-24 9.3128501e-07 -1.9599068e-25 5.9338554e-44)
(4.2995957e-05 -2.1371586e-06 1.1707594e-24 7.0936567e-07 -1.6716437e-25 4.0843447e-43)
(3.9298409e-05 -1.8267077e-06 -5.8555139e-24 4.8499594e-07 6.4711417e-25 1.298779e-42)
(3.6762796e-05 -1.3346099e-06 -1.029254e-23 2.7322328e-07 8.4674754e-25 4.1801909e-42)
(3.5451943e-05 -9.0255931e-07 -5.6543023e-24 1.1201523e-07 2.9095064e-25 1.2203431e-42)
(3.6338967e-05 -1.9634724e-07 -1.4904768e-24 1.2079415e-08 1.9858462e-26 7.9029097e-44)
(9.3163848e-05 -1.826201e-06 1.9930199e-24 1.8793393e-06 -6.574914e-25 2.7936646e-43)
(8.0448693e-05 -2.2080142e-06 1.0728492e-24 1.7580482e-06 3.8231305e-26 1.6875142e-43)
(6.9864812e-05 -2.4537472e-06 -5.7234814e-24 1.5749354e-06 1.0236164e-24 1.0295121e-42)
(6.1320875e-05 -2.6827544e-06 5.2270006e-24 1.4146232e-06 -9.7822255e-25 9.1658084e-43)
(5.4173806e-05 -2.709262e-06 -9.1768788e-24 1.2121087e-06 1.4538265e-24 3.1476529e-42)
(4.8473423e-05 -2.6237999e-06 1.8523188e-23 9.9591401e-07 -2.8184497e-24 1.1962161e-41)
(4.381293e-05 -2.3331892e-06 3.2266456e-25 7.5243955e-07 -5.5666405e-26 4.159031e-44)
(4.0205082e-05 -1.9687156e-06 -1.7731863e-23 5.1301635e-07 1.9921127e-24 1.1955226e-41)
(3.7611919e-05 -1.4038262e-06 8.5862555e-24 2.8561253e-07 -7.1396898e-25 2.9133404e-42)
(3.627189e-05 -9.3837705e-07 -1.7945357e-23 1.1637409e-07 9.3230355e-25 1.2244126e-41)
(3.7067252e-05 -1.8634378e-07 2.6645502e-24 1.2317928e-08 -4.0151871e-26 2.9873064e-43)
(0.00010741743 -1.6303749e-06 -2.3784339e-25 2.0982394e-06 2.8813734e-26 1.0521588e-44)
(9.2532035e-05 -2.1051443e-06 -1.2768258e-24 1.9902817e-06 -2.6653553e-25 4.7306036e-43)
(8.0194606e-05 -2.4929236e-06 3.9165527e-24 1.8210964e-06 -9.0282779e-25 5.846161e-43)
(7.0140645e-05 -2.8728604e-06 0 1.6863614e-06 0 0)
(6.1716398e-05 -3.0387625e-06 -2.3375827e-26 1.5041309e-06 1.1457554e-26 1.2291064e-45)
(5.4938956e-05 -3.068552e-06 -1.5111485e-24 1.3038823e-06 2.0987436e-25 4.4022552e-43)
(4.9290032e-05 -2.893385e-06 3.9994781e-24 1.0624839e-06 -6.0932326e-25 5.244926e-43)
(4.4774327e-05 -2.5386693e-06 9.5092751e-24 8.0056067e-07 -1.2738112e-24 3.1031582e-42)
(4.1122719e-05 -2.0912105e-06 3.4085088e-26 5.395094e-07 9.9286311e-26 3.8438555e-43)
(3.8516241e-05 -1.4591172e-06 1.1118318e-23 2.9730442e-07 -8.9894876e-25 4.549074e-42)
(3.7069964e-05 -9.5873084e-07 7.3643146e-24 1.1989599e-07 -3.8298464e-25 2.0559287e-42)
(3.7782785e-05 -1.7034829e-07 -1.6623515e-24 1.2510002e-08 2.0316202e-26 9.4929013e-44)
(0.00012359703 -1.3377794e-06 -7.6163208e-26 2.3190793e-06 2.9796679e-26 7.6959501e-46)
(0.00010635733 -1.8877265e-06 1.8811696e-24 2.218928e-06 -1.2018136e-25 1.1561761e-43)
(9.2015596e-05 -2.4334305e-06 0 2.0621512e-06 0 0)
(8.0236665e-05 -2.984709e-06 0 1.9555619e-06 0 0)
(7.0374974e-05 -3.3036505e-06 3.6977669e-24 1.7994415e-06 -6.3793175e-25 3.9662279e-43)
(6.2408202e-05 -3.4957718e-06 -6.4791406e-24 1.6279199e-06 1.0302823e-24 2.0638994e-42)
(5.5730776e-05 -3.4231308e-06 1.0210814e-23 1.399163e-06 -1.699776e-24 3.6301616e-42)
(5.0297055e-05 -3.185907e-06 -1.1164237e-23 1.1386017e-06 1.6895932e-24 3.7063496e-42)
(4.5764067e-05 -2.7217283e-06 -9.195337e-25 8.4667815e-07 1.117632e-25 2.5164062e-44)
(4.2126222e-05 -2.1983706e-06 -6.1938745e-27 5.6511487e-07 -8.7452001e-28 5.1613813e-47)
(3.9404748e-05 -1.4893283e-06 -1.3313014e-23 3.0696765e-07 1.0989212e-24 6.7468676e-42)
(3.7871975e-05 -9.6281457e-07 1.3530173e-23 1.225645e-07 -7.4859296e-25 7.8745872e-42)
(3.8453271e-05 -1.4776181e-07 -2.5818258e-23 1.2664456e-08 3.3417117e-25 2.5469068e-41)
(0.00014176118 -9.5473041e-07 -2.0143222e-26 2.5465067e-06 -1.0233865e-25 1.527518e-43)
(0.00012213983 -1.543916e-06 -3.3092993e-25 2.446649e-06 2.767912e-26 2.4369362e-45)
(0.00010552892 -2.2648983e-06 3.8162612e-24 2.2979463e-06 -5.8725709e-25 3.7621305e-43)
(9.1768847e-05 -3.0007142e-06 -4.4477986e-24 2.2193255e-06 6.9441122e-25 5.2778905e-43)
(8.0257441e-05 -3.4969452e-06 4.6050401e-24 2.0932803e-06 -7.6442747e-25 5.9712822e-43)
(7.0944754e-05 -3.8703721e-06 -1.8491913e-24 1.9591129e-06 2.7633013e-25 1.820098e-43)
(6.3141092e-05 -3.9510371e-06 -2.9952718e-24 1.7574965e-06 5.4104101e-25 2.3370361e-43)
(5.6766638e-05 -3.820344e-06 1.2340451e-25 1.5107e-06 -2.3500292e-26 2.4028345e-45)
(5.1355568e-05 -3.4547279e-06 -1.0918337e-23 1.212528e-06 1.5672596e-24 3.2235596e-42)
(4.6877837e-05 -2.8910724e-06 -1.0119931e-23 8.9237097e-07 1.1830149e-24 2.8426468e-42)
(4.3130824e-05 -2.2712659e-06 -3.9273059e-24 5.8666956e-07 4.2048318e-25 4.9339909e-43)
(4.0318052e-05 -1.4937741e-06 -1.0553289e-23 3.1459014e-07 7.8517128e-25 3.6219987e-42)
(3.8632281e-05 -9.4618343e-07 -6.8963465e-24 1.2415054e-07 3.2414037e-25 1.5999469e-42)
(3.9073067e-05 -1.1838285e-07 7.0438228e-24 1.2807732e-08 -8.395192e-26 1.8583293e-42)
(0.00016169597 -4.988415e-07 7.5007835e-25 2.7863087e-06 -1.4442447e-24 1.6233955e-42)
(0.00014004779 -1.0667724e-06 -9.800188e-24 2.6780642e-06 4.4333054e-25 1.9305939e-42)
(0.00012095955 -1.9788869e-06 4.7949524e-25 2.5300844e-06 -2.9244834e-25 6.2994657e-44)
(0.00010494443 -2.9084618e-06 3.5133504e-25 2.47643e-06 -1.7520179e-26 6.3224089e-45)
(9.1519124e-05 -3.6002783e-06 -2.6136316e-25 2.3817506e-06 1.6297663e-26 5.3491492e-45)
(8.0648621e-05 -4.1859317e-06 2.400946e-24 2.2917527e-06 -3.2668287e-25 2.9766987e-43)
(7.1579711e-05 -4.4411138e-06 -2.9869646e-24 2.1277988e-06 5.7775527e-25 2.1511381e-43)
(6.4177645e-05 -4.4759452e-06 4.0792171e-24 1.9127982e-06 -7.3891463e-25 4.0278635e-43)
(5.7882097e-05 -4.1946806e-06 -6.5061822e-25 1.6205261e-06 1.4662082e-25 9.4348238e-44)
(5.2586815e-05 -3.7161113e-06 1.0821899e-24 1.2876826e-06 -1.3771444e-25 3.3478216e-44)
(4.8017711e-05 -3.0186408e-06 2.5829382e-25 9.3178207e-07 -3.3189042e-26 1.8987516e-45)
(4.4189048e-05 -2.3101891e-06 1.2715746e-24 6.0421579e-07 -2.9490089e-26 1.2285326e-43)
(4.1193105e-05 -1.4640948e-06 1.3945759e-23 3.1956437e-07 -1.0601515e-24 6.6289311e-42)
(3.9354838e-05 -9.0794209e-07 -6.3678155e-24 1.2476674e-07 3.2175048e-25 1.5671917e-42)
(3.9627382e-05 -8.2128213e-08 5.0707222e-24 1.2969207e-08 -5.9529436e-26 1.0314107e-42)
(0.0001826251 -6.7328641e-09 3.5636876e-24 3.0450858e-06 6.5113779e-25 4.4344883e-43)
(0.0001600577 -4.5868531e-07 6.3583682e-24 2.9197485e-06 -6.761164e-25 5.8388832e-43)
(0.00013850486 -1.5732308e-06 -3.3900383e-24 2.7619379e-06 2.6926432e-25 3.3731477e-43)
(0.00012000966 -2.6969509e-06 4.9409153e-24 2.7275032e-06 -6.9633841e-25 5.3362653e-43)
(0.00010436563 -3.6009565e-06 -5.2027158e-24 2.6624865e-06 8.264941e-25 6.2356804e-43)
(9.1668815e-05 -4.4227942e-06 1.0370339e-23 2.6205765e-06 -2.0616873e-24 2.346584e-42)
(8.1136173e-05 -4.8874408e-06 -1.1858167e-23 2.5037343e-06 2.1458335e-24 3.6970378e-42)
(7.2574825e-05 -5.1142672e-06 4.4950278e-25 2.3344695e-06 -7.9764392e-26 1.3051019e-44)
(6.5327741e-05 -4.9811602e-06 3.4164607e-24 2.0679245e-06 -6.2373639e-25 2.7032758e-43)
(5.9229042e-05 -4.5734827e-06 -1.2833572e-24 1.7350771e-06 3.8191441e-25 7.2022836e-43)
(5.3877966e-05 -3.9302187e-06 3.0956726e-23 1.3540376e-06 -4.5936312e-24 2.4167303e-41)
(4.9248736e-05 -3.1062313e-06 -7.9371911e-24 9.6513107e-07 1.2008314e-24 2.6103578e-42)
(4.5225107e-05 -2.3005589e-06 -4.9449341e-24 6.160383e-07 5.1762578e-25 7.5984585e-43)
(4.2050617e-05 -1.3991206e-06 -2.395486e-24 3.2214094e-07 1.2907319e-25 1.5241296e-43)
(4.0015706e-05 -8.4609244e-07 -9.5393007e-25 1.2449478e-07 4.6134311e-27 4.2825597e-44)
(4.010152e-05 -3.9085387e-08 -5.4955863e-24 1.318528e-08 5.76097e-26 1.1978299e-42)
(0.000202829 4.6530159e-07 0 3.3279564e-06 0 0)
(0.00018168498 2.5590237e-07 9.2294583e-24 3.1793861e-06 -2.2513164e-25 1.0504807e-42)
(0.000158204 -1.0551921e-06 -7.3188165e-25 2.9984283e-06 6.1138943e-25 1.8577048e-43)
(0.0001372045 -2.3576044e-06 0 2.9746875e-06 0 0)
(0.00011904899 -3.4872967e-06 0 2.9347771e-06 0 0)
(0.00010420954 -4.5677612e-06 0 2.9418734e-06 0 0)
(9.1950909e-05 -5.2695103e-06 5.7331804e-25 2.8788669e-06 -5.7332999e-26 2.7069996e-44)
(8.2036569e-05 -5.7297811e-06 -8.0469496e-24 2.7686552e-06 1.6517092e-24 1.3298987e-42)
(7.3728609e-05 -5.7751943e-06 5.4076092e-24 2.5442081e-06 -1.0574993e-24 2.098561e-42)
(6.6776627e-05 -5.5095143e-06 -1.0161544e-23 2.2338372e-06 1.8476248e-24 2.1961636e-42)
(6.0678147e-05 -4.9024452e-06 1.852685e-25 1.8387028e-06 -1.1142195e-25 8.5228493e-44)
(5.5310029e-05 -4.1013151e-06 -6.9474652e-24 1.4123118e-06 9.8721207e-25 1.1184708e-42)
(5.0484993e-05 -3.1318986e-06 2.2482054e-25 9.8890708e-07 -7.9693712e-26 2.4228159e-44)
(4.6272437e-05 -2.2406215e-06 5.8106545e-24 6.2237667e-07 -5.6226491e-25 9.6154912e-43)
(4.2847473e-05 -1.2944908e-06 1.8722924e-24 3.2254694e-07 -7.5407087e-26 8.997659e-44)
(4.0602948e-05 -7.5981882e-07 3.0024997e-24 1.2356475e-07 -1.3593859e-25 3.3528391e-43)
(4.0487171e-05 1.03516e-08 0 1.3500616e-08 0 0)
(0.00021933517 8.4386889e-07 7.4114972e-24 3.6384917e-06 -3.4830395e-26 1.0409899e-42)
(0.00020358498 1.0179368e-06 -1.4602785e-23 3.4637977e-06 8.0171293e-25 2.1266245e-42)
(0.00017969091 -4.4977655e-07 1.4440692e-23 3.2451983e-06 -9.6271338e-25 4.6834252e-42)
(0.00015666679 -1.8906181e-06 8.5218056e-24 3.2217737e-06 -2.8398492e-25 1.6447385e-42)
(0.00013584046 -3.2533226e-06 8.5526783e-24 3.1998332e-06 -8.7403372e-25 1.6034766e-42)
(0.0001185304 -4.6080769e-06 0 3.2533787e-06 0 0)
(0.00010422149 -5.5732521e-06 9.2310641e-24 3.2478377e-06 -1.3528317e-24 2.432068e-42)
(9.2693964e-05 -6.3008691e-06 -2.2284482e-24 3.2074352e-06 3.2002627e-25 2.9365698e-43)
(8.3150392e-05 -6.5722828e-06 -1.922106e-23 3.0421686e-06 3.8586608e-24 8.2551187e-42)
(7.5251128e-05 -6.4839887e-06 6.0124233e-24 2.7736698e-06 -1.3181726e-24 3.1728499e-42)
(6.8379702e-05 -5.9892934e-06 6.3240082e-24 2.3876986e-06 -1.135483e-24 7.9002248e-43)
(6.2330771e-05 -5.1899463e-06 -1.9284852e-25 1.9330679e-06 -9.6584203e-26 1.2657132e-43)
(5.6786562e-05 -4.1983825e-06 -1.4095339e-23 1.4558375e-06 2.1571733e-24 5.1746631e-42)
(5.1766096e-05 -3.0929616e-06 2.1855706e-23 1.0032663e-06 -2.4785041e-24 1.1508964e-41)
(4.7267459e-05 -2.121485e-06 6.1572817e-24 6.2331636e-07 -3.6298663e-25 8.8925973e-43)
(4.3580297e-05 -1.1493658e-06 2.2755882e-23 3.2145756e-07 -1.5477392e-24 1.7619063e-41)
(4.1104501e-05 -6.4929895e-07 8.3290793e-24 1.22334e-07 -3.2580543e-25 2.3475052e-42)
(4.0773196e-05 6.5596938e-08 6.0158965e-24 1.3961251e-08 -5.2952517e-26 1.5797445e-42)
(0.00022796651 1.0675306e-06 -1.2935597e-24 3.9779111e-06 -8.436549e-26 1.4484554e-44)
(0.00022313409 1.7224777e-06 -9.8606231e-24 3.7776583e-06 2.1986323e-26 8.2062719e-43)
(0.00020181537 1.9029754e-07 -1.8838994e-24 3.5072147e-06 4.639443e-25 9.1103355e-44)
(0.00017821268 -1.3148096e-06 1.040761e-23 3.4741537e-06 -7.3367076e-25 1.6812406e-42)
(0.00015494301 -2.9016036e-06 -1.2319677e-24 3.4604837e-06 8.9887536e-26 3.041778e-44)
(0.0001349273 -4.5358877e-06 3.8875136e-24 3.5545054e-06 -1.1882408e-24 4.8061577e-43)
(0.0001182082 -5.7850973e-06 -7.4702159e-24 3.6066352e-06 3.7809343e-26 4.4771709e-42)
(0.00010473722 -6.8128137e-06 -1.9562664e-23 3.6438066e-06 3.1851309e-24 1.0521399e-41)
(9.3711493e-05 -7.3498639e-06 -6.6462461e-24 3.5527782e-06 1.2399908e-24 1.4003113e-42)
(8.4704427e-05 -7.4936374e-06 1.0390291e-23 3.3476632e-06 -2.1699425e-24 1.9442003e-42)
(7.6992753e-05 -7.1511233e-06 -1.1039715e-24 2.9919765e-06 2.8003194e-25 1.5728644e-43)
(7.0261513e-05 -6.4353262e-06 1.6331268e-23 2.532638e-06 -2.9461521e-24 5.0706328e-42)
(6.4079009e-05 -5.3940181e-06 -5.9630638e-24 2.0069988e-06 1.2322035e-24 1.4576725e-42)
(5.8354249e-05 -4.2170694e-06 -1.5226372e-24 1.4846987e-06 9.7918419e-26 7.2912609e-44)
(5.3017989e-05 -2.9749122e-06 -2.9181627e-24 1.0076732e-06 1.5884935e-25 2.1567426e-43)
(4.8221659e-05 -1.9416062e-06 -4.1499233e-24 6.1995147e-07 3.8040153e-25 5.0248012e-43)
(4.4227549e-05 -9.6320967e-07 7.2216298e-24 3.1976824e-07 -4.6955143e-25 1.8212689e-42)
(4.1508007e-05 -5.1520756e-07 2.7118193e-25 1.2122936e-07 1.433589e-26 1.0555735e-44)
(4.0953532e-05 1.2583139e-07 4.6878616e-24 1.4611041e-08 -4.5238556e-26 1.1993196e-42)
(0.00022410719 1.1423811e-06 -1.0407025e-23 4.3461616e-06 -7.7543439e-25 8.7251381e-43)
(0.00023626031 2.2349754e-06 1.1907726e-23 4.1216355e-06 -7.2888179e-26 1.0859026e-42)
(0.00022219572 7.7131562e-07 -3.1859024e-23 3.7885625e-06 2.6158281e-24 1.6529277e-41)
(0.00020096327 -6.8320025e-07 -5.9929589e-24 3.7378226e-06 3.5819311e-26 5.181089e-43)
(0.00017629826 -2.449927e-06 3.870457e-24 3.7207228e-06 -7.019157e-25 2.3541592e-43)
(0.00015366533 -4.3512552e-06 1.4695072e-24 3.8463856e-06 -5.3488356e-25 8.8510542e-44)
(0.00013422238 -5.8965465e-06 2.2191761e-24 3.9527192e-06 -2.4232489e-25 1.0966544e-43)
(0.00011842426 -7.2508382e-06 1.0098248e-23 4.071654e-06 -2.2109227e-24 1.6467045e-42)
(0.00010559129 -8.0922874e-06 -3.0674666e-24 4.0673845e-06 5.4403827e-25 2.5520593e-43)
(9.5242121e-05 -8.5152493e-06 -2.2695609e-23 3.9460454e-06 4.7461952e-24 1.1195079e-41)
(8.6554417e-05 -8.3869675e-06 2.1495547e-23 3.6458749e-06 -4.4963e-24 7.5748825e-42)
(7.9097484e-05 -7.7988135e-06 -2.9603666e-24 3.2040012e-06 4.8441873e-25 2.2237409e-43)
(7.2303738e-05 -6.7924033e-06 -7.7984023e-24 2.651562e-06 1.2821031e-24 1.0296628e-42)
(6.5980441e-05 -5.5086094e-06 6.6802252e-25 2.0602029e-06 -8.6252372e-26 7.9412008e-45)
(5.9930714e-05 -4.1360702e-06 -1.790058e-24 1.4965319e-06 5.7149292e-26 1.2617119e-43)
(5.4257301e-05 -2.7740914e-06 -1.5977718e-23 1.0034828e-06 1.7894849e-24 6.5207088e-42)
(4.909251e-05 -1.6981794e-06 1.0717485e-24 6.1392261e-07 -3.1494275e-25 4.0069484e-43)
(4.4776412e-05 -7.3689598e-07 -1.2318102e-23 3.1857161e-07 6.7192587e-25 4.817071e-42)
(4.1804933e-05 -3.5934695e-07 -2.8094033e-24 1.2075681e-07 9.1009659e-26 2.7283656e-43)
(4.1023574e-05 1.9007843e-07 -4.3546215e-24 1.5488002e-08 4.0050524e-26 1.1648766e-42)
(0.0002043666 1.2146347e-06 3.0205261e-25 4.7432068e-06 2.2083425e-25 2.4741472e-44)
(0.00023792232 2.4474736e-06 2.0623022e-23 4.4942855e-06 3.5488972e-25 3.1104063e-42)
(0.00023695507 1.1747214e-06 4.6052606e-24 4.0899883e-06 7.7260171e-25 5.6163772e-43)
(0.00022285943 -8.9141904e-08 1.1894302e-23 4.0169135e-06 -6.3711093e-25 1.5279809e-42)
(0.00019923843 -1.9430436e-06 -1.6465959e-24 3.985067e-06 -5.148492e-25 2.0223674e-43)
(0.00017481382 -4.0681995e-06 -7.9293968e-24 4.1316373e-06 8.0177054e-25 8.6204616e-43)
(0.00015257519 -5.9067608e-06 1.9856427e-23 4.2853244e-06 -2.0341355e-24 6.8573208e-42)
(0.00013407725 -7.6055734e-06 3.3959037e-23 4.4860912e-06 -4.3504816e-24 2.4283428e-41)
(0.00011904177 -8.78389e-06 -1.1669152e-23 4.5776776e-06 3.0146597e-24 2.4922393e-42)
(0.00010703117 -9.5323213e-06 0 4.5588417e-06 0 0)
(9.7154721e-05 -9.6733264e-06 -1.4971636e-23 4.3396289e-06 3.3221757e-24 3.3695346e-42)
(8.8860319e-05 -9.2827098e-06 3.8635567e-24 3.9437529e-06 -1.0087279e-24 1.5128844e-42)
(8.1443852e-05 -8.3580958e-06 1.8272487e-23 3.3857524e-06 -3.688636e-24 5.9608698e-42)
(7.4578291e-05 -7.0536559e-06 -9.1997857e-24 2.7432463e-06 2.0726257e-24 3.0931951e-42)
(6.7942979e-05 -5.503662e-06 8.7625104e-24 2.0874809e-06 -1.1809846e-24 1.2957075e-42)
(6.1531981e-05 -3.9476159e-06 -1.5437235e-23 1.4930185e-06 1.9331985e-24 4.9200088e-42)
(5.5424313e-05 -2.4841003e-06 -3.9027221e-24 9.9300713e-07 8.8901422e-26 3.9417975e-43)
(4.9871893e-05 -1.3918064e-06 3.3548925e-24 6.0730542e-07 -3.8599943e-25 5.5953137e-43)
(4.5214581e-05 -4.7303146e-07 -5.6634524e-24 3.1917285e-07 3.7574319e-25 1.4301914e-42)
(4.1988491e-05 -1.8415855e-07 -9.9626392e-25 1.2142096e-07 8.1966011e-27 2.4223475e-44)
(4.0981687e-05 2.5724149e-07 -3.2268714e-24 1.6621612e-08 3.6653515e-26 9.0877938e-43)
(0.00016885071 1.6252014e-06 1.4131895e-23 5.1692762e-06 2.6466427e-24 2.5222084e-42)
(0.00022356785 2.3790061e-06 1.7151836e-23 4.8958242e-06 4.0148609e-25 2.2937255e-42)
(0.00024104958 1.3027739e-06 1.7024409e-23 4.4111359e-06 -1.3663897e-24 3.4840946e-42)
(0.00024028212 3.3525662e-07 -2.3554098e-23 4.3137822e-06 1.6856787e-24 5.3684222e-42)
(0.00022199757 -1.4672779e-06 -1.7256464e-23 4.2577686e-06 1.0097558e-24 3.135381e-42)
(0.00019792713 -3.7268513e-06 1.9059274e-24 4.4140875e-06 -6.1443807e-25 9.7079833e-44)
(0.00017343781 -5.8288388e-06 0 4.6054614e-06 0 0)
(0.00015204578 -7.8748507e-06 6.9175688e-24 4.883822e-06 -2.2711627e-24 1.2754103e-42)
(0.00013438892 -9.414493e-06 -5.1914413e-24 5.0761648e-06 1.6138296e-25 1.6209353e-42)
(0.00012031423 -1.0528014e-05 -2.8982584e-23 5.1755789e-06 6.2462067e-24 1.234446e-41)
(0.00010894562 -1.0993063e-05 -4.8664047e-24 5.0624702e-06 1.2293024e-24 5.5150338e-43)
(9.9623862e-05 -1.086385e-05 4.0705682e-24 4.7431248e-06 -9.3910456e-25 5.4652519e-43)
(9.1505164e-05 -1.0098379e-05 -4.3556137e-25 4.2096583e-06 1.46961e-25 4.60311e-44)
(8.411753e-05 -8.8215195e-06 -7.9257926e-24 3.5344077e-06 1.4429887e-24 9.0819489e-43)
(7.698411e-05 -7.1777189e-06 8.6722532e-24 2.7984277e-06 -1.6521991e-24 1.5941724e-42)
(6.9985224e-05 -5.3663004e-06 -7.2355551e-24 2.0900231e-06 1.2254891e-24 1.2602708e-42)
(6.3089767e-05 -3.64049e-06 2.0608237e-24 1.4762423e-06 -2.3055674e-25 8.1549059e-44)
(5.6518036e-05 -2.1037285e-06 -1.013671e-23 9.793561e-07 9.484792e-25 2.4567986e-42)
(5.0536441e-05 -1.0248007e-06 -3.9260592e-24 6.0265989e-07 6.4002763e-26 3.2742155e-43)
(4.5531727e-05 -1.7528245e-07 -7.3707217e-25 3.2289754e-07 -2.6890314e-27 1.2848089e-44)
(4.2054994e-05 7.2780251e-09 -2.1602524e-24 1.2370147e-07 9.868977e-26 3.1786667e-43)
(4.0828331e-05 3.2615537e-07 0 1.8030513e-08 0 0)
(0.00012322199 2.9016421e-06 5.2245698e-24 5.6225936e-06 1.6346385e-24 6.4482236e-43)
(0.00019147824 2.2877447e-06 -8.6714549e-24 5.3324522e-06 -2.8062877e-25 6.9073605e-43)
(0.00022954231 1.1667901e-06 -6.5614208e-25 4.7534149e-06 -1.5046026e-25 9.311552e-45)
(0.00024816265 4.5833849e-07 -2.9622661e-23 4.6288409e-06 1.0856847e-24 7.0212006e-42)
(0.00024124585 -1.1484251e-06 -1.5187501e-23 4.5411125e-06 3.3251176e-25 2.0619695e-42)
(0.00022155281 -3.4061087e-06 9.7683576e-24 4.6979524e-06 -8.1963309e-25 9.0129429e-43)
(0.00019655019 -5.698206e-06 -3.9193545e-24 4.9156594e-06 1.7812897e-24 7.3062653e-43)
(0.0001725924 -8.0694445e-06 2.5939805e-23 5.2634046e-06 -3.4511221e-24 8.1260404e-42)
(0.00015200857 -9.9810507e-06 8.3986064e-24 5.5566906e-06 -1.7034019e-24 8.5896074e-43)
(0.00013541629 -1.1490997e-05 1.7258886e-24 5.7859896e-06 -2.6084051e-25 6.9034216e-44)
(0.00012215738 -1.2328278e-05 -2.8962213e-25 5.802108e-06 4.4985987e-26 4.5116617e-45)
(0.00011152339 -1.2525017e-05 -8.9404162e-24 5.5915626e-06 1.9699626e-24 2.8715303e-42)
(0.0001025437 -1.199166e-05 2.3118315e-24 5.1168733e-06 -5.1122412e-25 6.899939e-44)
(9.4588398e-05 -1.0826292e-05 -1.1257115e-23 4.4385485e-06 1.6496406e-24 3.9068576e-42)
(8.7013646e-05 -9.1350303e-06 -2.0477712e-23 3.6352581e-06 3.5086249e-24 5.6314116e-42)
(7.9545047e-05 -7.1460388e-06 -1.7622909e-23 2.8166594e-06 2.7560958e-24 4.6940825e-42)
(7.2028186e-05 -5.0779842e-06 2.9783091e-24 2.0692386e-06 -2.1242894e-25 1.5593236e-43)
(6.4596996e-05 -3.2092438e-06 2.0519868e-23 1.4507363e-06 -2.2225181e-24 8.339594e-42)
(5.7493736e-05 -1.6344157e-06 5.591089e-28 9.6683727e-07 -7.1493491e-26 1.6240593e-44)
(5.1072641e-05 -6.0151457e-07 -4.1340228e-24 6.0269271e-07 2.9166202e-25 5.5059569e-43)
(4.5720784e-05 1.513331e-07 0 3.3103327e-07 0 0)
(4.2003284e-05 2.1142774e-07 3.6737346e-24 1.280148e-07 -2.0257697e-25 1.3823171e-42)
(4.0566827e-05 3.9564675e-07 2.6889414e-25 1.9721395e-08 3.0508732e-27 1.8165726e-45)
(7.9493697e-05 5.6608705e-06 -1.5524098e-23 6.0946947e-06 -7.4210261e-24 1.0170142e-41)
(0.00014531405 2.7339325e-06 -1.395985e-23 5.8161738e-06 -1.633226e-25 3.2997527e-42)
(0.00019986866 9.8955461e-07 1.8206503e-23 5.1224499e-06 -1.8986848e-24 3.4472155e-42)
(0.00024103029 2.4139543e-07 1.0424378e-23 4.964277e-06 -1.0086795e-24 1.0128658e-42)
(0.00025202286 -1.1199666e-06 -2.987867e-23 4.836796e-06 2.1414714e-24 6.9639108e-42)
(0.00024269265 -3.2293277e-06 0 4.9877049e-06 0 0)
(0.00022074411 -5.5850117e-06 -6.2395884e-25 5.2196434e-06 3.9752906e-25 3.3876741e-44)
(0.00019563458 -8.2213626e-06 1.1611393e-23 5.6256685e-06 -2.1872875e-24 1.4120513e-42)
(0.00017223507 -1.0493042e-05 1.8395371e-23 6.0150767e-06 -2.410176e-24 4.2019278e-42)
(0.00015273186 -1.2417211e-05 1.6935742e-23 6.3805745e-06 -1.6212696e-24 7.5529909e-42)
(0.00013710876 -1.3666451e-05 -1.630647e-23 6.545572e-06 3.8456826e-24 3.1029095e-42)
(0.00012477375 -1.4247133e-05 -1.275237e-23 6.475669e-06 2.9076215e-24 2.3978127e-42)
(0.00011467596 -1.4021506e-05 1.5514383e-23 6.0983558e-06 -3.6568481e-24 3.5971871e-42)
(0.00010602875 -1.3049606e-05 -1.8514749e-23 5.4532335e-06 4.0789628e-24 4.1877386e-42)
(9.8007378e-05 -1.1399092e-05 2.6992529e-23 4.6088639e-06 -5.5079201e-24 9.6151791e-42)
(9.0162324e-05 -9.2734886e-06 4.0519108e-23 3.6848943e-06 -6.7314521e-24 2.0949403e-41)
(8.2171607e-05 -6.9296565e-06 -7.4032006e-27 2.7975802e-06 7.9956247e-25 1.4706842e-42)
(7.4060185e-05 -4.6273842e-06 9.2100699e-24 2.0303227e-06 -1.1282973e-24 1.4088995e-42)
(6.5998766e-05 -2.6526004e-06 -1.929408e-23 1.4222298e-06 2.2812689e-24 9.0645582e-42)
(5.8340857e-05 -1.0797137e-06 3.4297725e-25 9.5986507e-07 -5.0455724e-25 7.3858684e-43)
(5.1467181e-05 -1.284448e-07 6.6865659e-24 6.1016064e-07 -5.7029275e-25 2.0741375e-42)
(4.5777671e-05 5.0098081e-07 -2.9466724e-24 3.4469769e-07 3.6113055e-25 1.4129671e-42)
(4.1834694e-05 4.2446892e-07 4.8617457e-25 1.3468524e-07 -1.5939635e-25 6.011913e-43)
(4.0202172e-05 4.6454289e-07 2.0664486e-25 2.168679e-08 2.7477739e-27 1.0801827e-45)
(5.4868821e-05 1.0442648e-05 -6.5195313e-24 6.564771e-06 -2.5198544e-24 1.206013e-42)
(9.5702775e-05 4.5242686e-06 -1.0550363e-23 6.3575757e-06 -5.5129297e-25 2.323745e-42)
(0.00015453175 1.2692401e-06 -6.3989384e-24 5.5267775e-06 -4.2279569e-25 3.6717411e-43)
(0.00021519641 -1.3977882e-07 -6.5679047e-23 5.3285202e-06 3.45152e-24 3.2986694e-41)
(0.00024855663 -1.4364905e-06 1.8244985e-23 5.1483293e-06 -1.6696842e-24 2.5445732e-42)
(0.00025656458 -3.327556e-06 -3.8903312e-23 5.2864924e-06 3.1496763e-24 1.0625273e-41)
(0.00024335746 -5.5983535e-06 -3.1225354e-25 5.5218556e-06 3.6661197e-25 2.7182816e-44)
(0.00022028807 -8.3926609e-06 -3.7513575e-23 5.9735571e-06 4.283186e-24 1.1685387e-41)
(0.00019513531 -1.0978871e-05 8.2637889e-24 6.4497173e-06 -1.9871219e-24 7.6846342e-43)
(0.00017265502 -1.3314953e-05 1.1339945e-23 6.9515218e-06 -1.9022595e-24 1.4087707e-42)
(0.00015420371 -1.5002499e-05 -1.266437e-23 7.2798736e-06 3.3795395e-24 1.8656554e-42)
(0.00013968319 -1.6016347e-05 1.998325e-23 7.3802215e-06 -4.1476743e-24 6.7918022e-42)
(0.0001280987 -1.6168186e-05 -1.2686155e-23 7.1407788e-06 3.1127648e-24 1.7427819e-42)
(0.00011853498 -1.5477145e-05 -6.0953441e-25 6.5726845e-06 1.6150253e-25 2.5234027e-44)
(0.00010998481 -1.3957181e-05 2.1301075e-23 5.722555e-06 -4.3008166e-24 5.1272086e-42)
(0.00010180043 -1.1784329e-05 3.2136438e-24 4.7126987e-06 -6.8893677e-25 1.6048117e-43)
(9.3466804e-05 -9.1949582e-06 -4.524061e-25 3.6795775e-06 2.0927299e-25 5.0781527e-44)
(8.4848526e-05 -6.5093953e-06 1.6739655e-23 2.7460679e-06 -2.306793e-24 3.9519818e-42)
(7.6013282e-05 -4.0077053e-06 0 1.9805974e-06 0 0)
(6.7275656e-05 -1.971796e-06 2.8341234e-24 1.3977697e-06 -1.7225962e-25 1.2807274e-43)
(5.9030097e-05 -4.4762627e-07 6.4448049e-25 9.6340745e-07 -2.6348389e-26 7.9245927e-45)
(5.1711084e-05 3.8646701e-07 -8.929721e-25 6.2758694e-07 2.7171524e-26 1.9762992e-44)
(4.5701421e-05 8.6717206e-07 -1.1086167e-24 3.6476086e-07 -5.8054992e-26 3.8392188e-44)
(4.1553341e-05 6.4244884e-07 -1.1796039e-24 1.4391792e-07 1.9681452e-25 1.0850949e-42)
(3.9741328e-05 5.3173124e-07 4.2740214e-25 2.3904719e-08 4.1309143e-26 2.9266893e-43)
(6.8760455e-05 1.7546557e-05 2.3050408e-23 7.0009887e-06 7.7845076e-24 9.354229e-42)
(5.9830462e-05 8.521556e-06 5.8441912e-24 6.951223e-06 6.0524033e-25 7.6268941e-43)
(0.00010309531 2.7465884e-06 5.4389096e-24 5.9740226e-06 -6.0342249e-25 4.0422151e-43)
(0.00017159703 -2.0233236e-07 6.9928868e-24 5.7368152e-06 -4.3206009e-25 4.151308e-43)
(0.00022627469 -1.9533992e-06 6.2059825e-23 5.4858445e-06 -4.3964006e-24 2.6285145e-41)
(0.00025717589 -3.7699909e-06 6.4545917e-24 5.6001075e-06 1.2803207e-25 2.603847e-43)
(0.00025985036 -5.8654159e-06 -2.4592457e-26 5.8278778e-06 3.76394e-25 2.7530096e-44)
(0.00024425409 -8.6809135e-06 2.6914051e-24 6.3122546e-06 -3.1500613e-25 5.1140426e-44)
(0.00022008048 -1.1493334e-05 3.0141135e-23 6.8621514e-06 -3.8899399e-24 7.1898469e-42)
(0.00019538669 -1.4210273e-05 -5.0295007e-24 7.4938585e-06 1.8963511e-24 5.6849251e-43)
(0.00017388063 -1.6343709e-05 1.6058347e-23 7.9931681e-06 -3.262243e-24 2.5068403e-42)
(0.00015665814 -1.7826312e-05 -2.2266041e-24 8.288782e-06 3.7621886e-25 9.8983223e-44)
(0.00014310532 -1.8416615e-05 -9.4899825e-24 8.2275455e-06 2.0812789e-24 1.6400351e-42)
(0.00013228321 -1.8089287e-05 5.6416673e-24 7.7853368e-06 -1.3923974e-24 3.3004393e-43)
(0.00012302115 -1.6799212e-05 -1.2705525e-24 6.975861e-06 4.3028597e-25 3.3964536e-43)
(0.00011446156 -1.4674426e-05 -3.2479589e-23 5.9108755e-06 6.2201202e-24 1.108695e-41)