/*--------------------------------*- C++ -*----------------------------------*\
| =========                 |                                                 |
| \\      /  F ield         | OpenFOAM: The Open Source CFD Toolbox           |
|  \\    /   O peration     | Version:  5.0                                   |
|   \\  /    A nd           | Web:      www.OpenFOAM.org                      |
|    \\/     M anipulation  |                                                 |
\*---------------------------------------------------------------------------*/
FoamFile
{
    version     2.0;
    format      ascii;
    class       volScalarField;
    location    "60";
    object      p;
}
// * * * * * * * * * * * * * * * * * * * * * * * * * * * * * * * * * * * * * //

dimensions      [0 2 -2 0 0 0 0];

internalField   nonuniform List<scalar> 
9200
(
-0.00078898635
-0.00076515922
-0.0020114126
-0.00073473144
-0.0019532505
-0.0034153911
-0.00069245304
-0.0018715214
-0.0033237611
-0.0047740252
-0.00063236073
-0.0017597947
-0.0031858154
-0.0046552062
-0.0061980697
-0.00057153915
-0.0016078827
-0.0029986633
-0.0044669598
-0.0060552416
-0.0076456813
-0.0004964456
-0.0014456788
-0.0027482883
-0.0042138531
-0.0058189881
-0.0074852892
-0.0091353409
-0.00042051599
-0.001253943
-0.0024741339
-0.0038757877
-0.0055035563
-0.007208648
-0.0089628628
-0.010663055
-0.00033771944
-0.0010540937
-0.0021554552
-0.0035003961
-0.0050809963
-0.0068422352
-0.0086525391
-0.010486307
-0.012225377
-0.00025437556
-0.00083969456
-0.0018189526
-0.0030655094
-0.0046070512
-0.0063472858
-0.0082446867
-0.010151994
-0.01205156
-0.013817703
-0.00016958323
-0.0006211412
-0.0014598687
-0.0026019232
-0.0040573178
-0.0057871311
-0.0076875772
-0.0097166577
-0.011703716
-0.01365516
-0.015431618
-8.5737804e-05
-0.00039948463
-0.001091593
-0.002106365
-0.0034663514
-0.005133469
-0.0070513316
-0.0091130025
-0.011255541
-0.013306312
-0.015288897
-0.017057529
-3.2664826e-06
-0.00017951792
-0.00071735802
-0.0015945475
-0.0028323036
-0.0044231008
-0.0063033577
-0.0084174268
-0.010622279
-0.012863322
-0.014952009
-0.016943977
-0.018684818
7.6950253e-05
3.6495406e-05
-0.00034444267
-0.0010718289
-0.0021731426
-0.0036554191
-0.005483215
-0.0075916395
-0.0098854456
-0.012221393
-0.014532585
-0.016632868
-0.018608988
-0.020297707
0.00015419963
0.00024606214
2.2276124e-05
-0.00054784433
-0.0014973049
-0.0028518675
-0.0045905033
-0.0066758364
-0.0089995669
-0.011466056
-0.013904271
-0.016257598
-0.018337295
-0.020269015
-0.021886975
0.000227833
0.00044737943
0.00037877434
-2.9616137e-05
-0.00081737331
-0.0020232695
-0.0036477399
-0.0056684428
-0.0080042507
-0.010543235
-0.013155717
-0.015668315
-0.018026536
-0.020052245
-0.021913468
-0.023434201
0.00029741898
0.0006386555
0.00072187285
0.00047531533
-0.00014286217
-0.0011838905
-0.0026669044
-0.0045919411
-0.0068959891
-0.0094910873
-0.012223601
-0.014955629
-0.017502383
-0.01982727
-0.021764615
-0.023523355
-0.024934716
0.00036276532
0.00081847371
0.0010482626
0.00096137031
0.0005176149
-0.00034521537
-0.001664193
-0.0034600227
-0.0056973677
-0.0083032865
-0.011142733
-0.014045691
-0.016856395
-0.019395546
-0.021644817
-0.023455664
-0.025091668
-0.026369763
0.00042379815
0.000986197
0.0013559081
0.0014252506
0.0011570852
0.00048188671
-0.00065387985
-0.0022914821
-0.0044231388
-0.0070007425
-0.0099022358
-0.012968747
-0.016003888
-0.018849174
-0.021331936
-0.02346173
-0.025114813
-0.0265988
-0.02773191
0.00048071429
0.001141713
0.0016436892
0.0018646499
0.0017701895
0.0012881363
0.00035022675
-0.0011034409
-0.0030930522
-0.0055974273
-0.0085197739
-0.011708107
-0.014969065
-0.018092283
-0.020918348
-0.023294247
-0.025262622
-0.026721509
-0.028037879
-0.029009314
0.00053384303
0.0012851816
0.0019115423
0.0022776401
0.002352657
0.0020657059
0.001335965
8.7594031e-05
-0.0017261369
-0.0041136373
-0.0070076882
-0.010276968
-0.013728327
-0.017142248
-0.020296963
-0.023046386
-0.025263494
-0.027025822
-0.028269485
-0.029394038
-0.030194543
0.00058336498
0.0014169557
0.0021596698
0.0026626959
0.0029014845
0.0028083252
0.0022928266
0.0012664354
-0.00034174377
-0.0025702659
-0.0053856369
-0.0086844945
-0.012288932
-0.015967487
-0.019477734
-0.022601143
-0.025212048
-0.027217905
-0.02874
-0.029738697
-0.030658676
-0.031281149
0.00062943312
0.0015375818
0.0023883702
0.0030193168
0.0034148348
0.0035113737
0.0032122307
0.0024197108
0.0010418386
-0.000988978
-0.0036750511
-0.0069483225
-0.010654967
-0.014567701
-0.018420236
-0.021960729
-0.024982039
-0.027391511
-0.029138764
-0.03038254
-0.031119308
-0.031823979
-0.032264666
0.00067229359
0.0016477064
0.0025982589
0.0033478472
0.0038918625
0.004171725
0.0040875709
0.0035361029
0.002407903
0.00060895691
-0.0018992344
-0.0050891431
-0.008839942
-0.012940078
-0.017115433
-0.021075698
-0.024568382
-0.027413767
-0.029560482
-0.031001027
-0.031943985
-0.032400934
-0.032884377
-0.033142658
0.00071221404
0.0017480273
0.0027901851
0.0036490664
0.0043325933
0.0047876337
0.0049140527
0.0046064442
0.0037417636
0.0022033603
-8.2275679e-05
-0.0031310041
-0.006862163
-0.011092532
-0.015552431
-0.019927852
-0.023913116
-0.027273679
-0.029867441
-0.031692109
-0.032790831
-0.033406221
-0.033575868
-0.033836228
-0.033914777
0.00074954447
0.0018392881
0.0029651656
0.0039240774
0.0047377365
0.0053585058
0.0056885504
0.0056236867
0.0050309489
0.0037757043
0.0017520089
-0.0010999664
-0.0047448507
-0.0090392764
-0.013731693
-0.018497047
-0.02298858
-0.026905453
-0.030043358
-0.032311379
-0.033763286
-0.034484349
-0.034759755
-0.034638341
-0.034677877
-0.034581582
0.00078453812
0.001922258
0.0031243243
0.0041742645
0.0051085055
0.0058847238
0.0064094017
0.0065827943
0.0062653679
0.0053096982
0.0035810508
0.00097719681
-0.0025147705
-0.0068007861
-0.011660897
-0.01677436
-0.021764452
-0.026272323
-0.030016141
-0.032840733
-0.034715005
-0.035746243
-0.036071221
-0.03599527
-0.035584717
-0.035409112
-0.03514291
0.00081695757
0.0019976801
0.003268866
0.0044011687
0.0054465224
0.006367426
0.0070762282
0.0074805629
0.0074373161
0.0067915603
0.0053842189
0.0030740998
-0.00020075147
-0.0044025629
-0.0093551533
-0.014758737
-0.020221161
-0.025334089
-0.029741352
-0.033204094
-0.035627626
-0.037045479
-0.037623969
-0.037533594
-0.037106428
-0.036413242
-0.036030684
-0.035599179
0.00084623272
0.0020664159
0.0033999674
0.0046064592
0.0057536074
0.0068083494
0.0076896742
0.0083154257
0.0085413304
0.0082101635
0.0071433843
0.0051657262
0.0021675351
-0.0018738488
-0.0068364397
-0.012457757
-0.018347438
-0.024060368
-0.029169922
-0.033351011
-0.036422957
-0.038363352
-0.039275449
-0.039372123
-0.038862919
-0.03808909
-0.037124041
-0.036544884
-0.03595774
0.00087312396
0.0021292403
0.0035187833
0.0047918034
0.0060317743
0.0072095964
0.0082512499
0.009087154
0.0095740424
0.0095569996
0.0088432105
0.0072291657
0.0045607167
0.00075361809
-0.0041324118
-0.0098874631
-0.016141201
-0.022428653
-0.028260867
-0.033225081
-0.037046841
-0.039623102
-0.041010804
-0.041375858
-0.040979849
-0.040050899
-0.038941544
-0.037719093
-0.036957071
-0.036235533
0.00089773324
0.0021869588
0.0036262166
0.0049589203
0.0062830751
0.0075735949
0.0087630869
0.0097967328
0.010533862
0.010826086
0.010471271
0.0092441866
0.0069508331
0.0034469908
-0.0012751132
-0.0070712951
-0.013609838
-0.020425293
-0.026979942
-0.032775971
-0.037438069
-0.040769777
-0.042756347
-0.043532315
-0.043326728
-0.042430666
-0.041093699
-0.039664265
-0.038201896
-0.037274878
-0.036441098
0.00092606751
0.0022364016
0.0037236163
0.0051092328
0.006509755
0.0079027377
0.0092279515
0.010445919
0.011420808
0.012013661
0.012018085
0.011193568
0.0093121569
0.0061736608
0.0017005063
-0.0040389736
-0.010769473
-0.018046435
-0.025300826
-0.031958651
-0.037539345
-0.041740306
-0.044458853
-0.045773698
-0.045897526
-0.045105921
-0.043719512
-0.041989408
-0.040259582
-0.038576802
-0.037502569
-0.03654441
0.00095969245
0.0022818351
0.0038046332
0.0052448496
0.006713684
0.0081997306
0.0096486835
0.01103733
0.012236073
0.013118089
0.013476856
0.013063319
0.011621835
0.0089023854
0.004758169
-0.00082513001
-0.0076443319
-0.015297852
-0.023206772
-0.030734517
-0.037296903
-0.042473373
-0.046056593
-0.048051514
-0.048632917
-0.048077314
-0.046702884
-0.044838679
-0.042738875
-0.040731284
-0.038848813
-0.037637438
-0.036539059
0.0010024494
0.0023258749
0.0038747435
0.0053562243
0.0068976802
0.0084667239
0.010028654
0.011573805
0.01298212
0.014139267
0.014843454
0.014842548
0.013860353
0.011604239
0.007861598
0.0025322943
-0.0042656784
-0.012194906
-0.020690872
-0.029073477
-0.03666129
-0.042909369
-0.04748774
-0.050308631
-0.051490961
-0.051294062
-0.050051938
-0.048104541
-0.045788231
-0.043344987
-0.04108436
-0.039023974
-0.037681869
-0.036464249
0.0010623796
0.002368125
0.0039401445
0.0054506112
0.0070470244
0.0087073532
0.010370367
0.012059181
0.013661661
0.015078891
0.016115765
0.016523591
0.016011575
0.014253382
0.010975821
0.0059934877
-0.00067031814
-0.0087618777
-0.017756594
-0.026954522
-0.035589799
-0.042990711
-0.048690617
-0.05248636
-0.054421903
-0.054723159
-0.053726948
-0.051803553
-0.049309128
-0.046568499
-0.04381262
-0.041324824
-0.039108926
-0.037649307
-0.036347415
0.0011439487
0.0024007297
0.0039994048
0.0055399329
0.0071709097
0.0089002943
0.010678605
0.012495985
0.014278925
0.015939129
0.017294114
0.018101281
0.018063107
0.016827373
0.014068251
0.00951836
0.003100787
-0.0050307641
-0.014417578
-0.02436684
-0.03404724
-0.042664469
-0.04960337
-0.054525039
-0.057373585
-0.05832468
-0.057704658
-0.055905666
-0.053324202
-0.050313004
-0.047184587
-0.044148434
-0.041459775
-0.039109538
-0.037554328
-0.036194414
0.0012332776
0.0024102872
0.0040511353
0.0056236738
0.0072885746
0.0090568315
0.010922908
0.012890691
0.014836086
0.016724514
0.018379427
0.019573683
0.020005532
0.019307822
0.017109318
0.01306791
0.0070043271
-0.0010401599
-0.010696946
-0.021310177
-0.032007577
-0.041883103
-0.050166641
-0.056362978
-0.060292371
-0.062055869
-0.061956486
-0.060398137
-0.057814765
-0.0546076
-0.051121266
-0.047642087
-0.044360398
-0.041497924
-0.039031412
-0.037401025
-0.036000681
0.0013189121
0.0024062605
0.0040982854
0.005699672
0.0073999077
0.0092046912
0.011117495
0.013200568
0.015341908
0.017436321
0.019376181
0.020939631
0.021833554
0.021679668
0.020073514
0.016605228
0.010996176
0.0031666022
-0.0066266618
-0.017794794
-0.029454748
-0.0406064
-0.050324056
-0.0579391
-0.063121317
-0.06587263
-0.066451143
-0.065264843
-0.06277855
-0.05944345
-0.055656157
-0.051737975
-0.047949861
-0.044456509
-0.041448864
-0.038883684
-0.03718725
-0.035758271
0.0013959707
0.0023965063
0.0041440219
0.0057655033
0.0075038386
0.0093434222
0.01130185
0.013443524
0.015737402
0.018086774
0.020283899
0.022203082
0.023542763
0.023932896
0.022938769
0.020096974
0.015032753
0.0075429197
-0.0022458056
-0.013841457
-0.026383295
-0.038802543
-0.050024245
-0.059193058
-0.065802766
-0.069726925
-0.071156732
-0.070487205
-0.068211838
-0.064828043
-0.060790284
-0.056473333
-0.052173246
-0.048116564
-0.044445598
-0.04131995
-0.038678379
-0.036924478
-0.035478308
0.001450448
0.0023768214
0.0041875946
0.0058203665
0.0075998052
0.0094718347
0.011476429
0.013672772
0.016046244
0.018595488
0.021119465
0.023360537
0.025135924
0.026058365
0.025688891
0.02351294
0.019072937
0.012040589
0.0024005125
-0.0094800207
-0.022798933
-0.036449325
-0.049221963
-0.060067151
-0.068278014
-0.073569376
-0.076037408
-0.076047142
-0.074109111
-0.070769735
-0.066540179
-0.061857576
-0.057069154
-0.052436123
-0.048152287
-0.044338393
-0.041114996
-0.038419861
-0.036619265
-0.035163339
0.0023548843
0.0014702986
0.0042270691
0.0058660214
0.0076878067
0.0095900819
0.011640144
0.013889367
0.016337699
0.018994503
0.021775571
0.024435232
0.026604984
0.028056699
0.028308319
0.026829391
0.023077847
0.016612016
0.0072630558
-0.0047490758
-0.018717606
-0.033535128
-0.047879736
-0.060507308
-0.070489037
-0.077348476
-0.081056066
-0.081923123
-0.080466685
-0.077275578
-0.072925094
-0.067914712
-0.062654694
-0.057454093
-0.052539329
-0.048066359
-0.044137416
-0.040844224
-0.038113563
-0.036278523
-0.034818776
0.0042607595
0.0023389762
0.0014501809
0.0059050905
0.0077687069
0.0096996725
0.011792505
0.014091808
0.01661379
0.019370215
0.022296958
0.025286815
0.027981532
0.029913065
0.0307944
0.030022572
0.027015258
0.021210252
0.012290692
0.00030616408
-0.014166167
-0.030058599
-0.045968943
-0.060464911
-0.07237919
-0.081012131
-0.086173114
-0.088093025
-0.087278157
-0.08435595
-0.079963431
-0.074673601
-0.068960176
-0.06319348
-0.057642609
-0.052494798
-0.047878758
-0.04385934
-0.040516069
-0.037765426
-0.035906923
-0.034448882
0.0059395349
0.0042860967
0.0023305636
0.001384768
0.0078447728
0.0098032144
0.011934324
0.014279938
0.016871518
0.01972605
0.022787592
0.025977755
0.029086389
0.031669848
0.033122836
0.033085287
0.030851678
0.025794513
0.017430684
0.0056356158
-0.0091799647
-0.026030398
-0.043470239
-0.05989768
-0.073894933
-0.084508046
-0.091347893
-0.094532484
-0.094537596
-0.092019315
-0.087678297
-0.082162453
-0.076022225
-0.069689302
-0.063490437
-0.057649205
-0.052318799
-0.04759281
-0.043512456
-0.040138123
-0.03738108
-0.035509647
-0.034057557
0.0079176258
0.0059669
0.0042970557
0.0023279756
0.0013074792
0.0099037197
0.012068336
0.014455152
0.017109117
0.020056335
0.023253922
0.02662651
0.030007602
0.033104191
0.035349596
0.03598043
0.034574224
0.030320682
0.022635147
0.011184942
-0.003802357
-0.021470355
-0.04037593
-0.058770953
-0.074986288
-0.087785203
-0.096538811
-0.10121624
-0.1022375
-0.10027566
-0.096091817
-0.090415218
-0.083876837
-0.076984469
-0.070120917
-0.063563086
-0.057491411
-0.052022673
-0.047220579
-0.043105014
-0.039717232
-0.03696596
-0.035090609
-0.033649114
0.0099986038
0.007980072
0.0059933337
0.0042877009
0.0023313895
0.0012242846
0.012198963
0.014619837
0.017326644
0.02035645
0.023686998
0.027243804
0.030871392
0.03433908
0.037206008
0.038780844
0.038129322
0.034769435
0.027849932
0.016902479
0.0019165852
-0.016409294
-0.036686755
-0.057059868
-0.075608873
-0.090793806
-0.10170455
-0.10811808
-0.11037004
-0.10913427
-0.10522866
-0.099465357
-0.092566801
-0.085120513
-0.077581631
-0.070276176
-0.06343169
-0.057184726
-0.051620301
-0.046772607
-0.042645081
-0.039259846
-0.036525131
-0.03465407
-0.033226419
0.012323499
0.010077532
0.0080168906
0.0059939412
0.0042610118
0.002336639
0.0011455011
0.014777007
0.017524924
0.02062431
0.024076561
0.027816446
0.031694634
0.035495258
0.038863357
0.041174942
0.04161045
0.039066935
0.033049546
0.022726725
0.0079264735
-0.010886075
-0.032416748
-0.054746497
-0.075724927
-0.093487856
-0.10680369
-0.11521179
-0.11892687
-0.11860493
-0.11511339
-0.10935003
-0.10213441
-0.09414645
-0.085917806
-0.077839065
-0.070179248
-0.063115572
-0.056745864
-0.051124134
-0.046259276
-0.042140277
-0.038771998
-0.036063316
-0.034203373
-0.032793355
0.014919474
0.01242427
0.010129573
0.008018633
0.0059805374
0.0042204114
0.0023391631
0.0010774631
0.017705793
0.020858214
0.02441394
0.028326237
0.032459884
0.036597219
0.040414121
0.043400251
0.04467499
0.043331354
0.038136998
0.028627643
0.014163539
-0.0049437659
-0.027586945
-0.051827364
-0.075302045
-0.095824081
-0.11179769
-0.12247067
-0.12789964
-0.12869735
-0.12577182
-0.12010676
-0.11262591
-0.10411104
-0.095182049
-0.086298824
-0.077786051
-0.069853714
-0.062635354
-0.056190473
-0.050546805
-0.045690025
-0.041598042
-0.038259299
-0.035584541
-0.033741645
-0.032351976
0.017859681
0.015030069
0.012488076
0.010147414
0.0079824102
0.0059498133
0.0041701505
0.0023348352
0.0010219102
0.021059746
0.024690587
0.028755244
0.033137991
0.037623081
0.041891563
0.045483882
0.047651389
0.04721521
0.0432595
0.034484241
0.020596081
0.0013588579
-0.022227677
-0.048302519
-0.074321406
-0.09776339
-0.11664758
-0.12987073
-0.13727973
-0.13942144
-0.13723014
-0.13177478
-0.1240886
-0.11506656
-0.10542622
-0.095710045
-0.086299095
-0.077451323
-0.069324985
-0.062010419
-0.055534013
-0.049899867
-0.045074346
-0.041025153
-0.037726274
-0.035092095
-0.033271706
-0.031905882
0.021211959
0.01797191
0.015098155
0.012492661
0.010118082
0.0079165591
0.0058992504
0.004114113
0.0023221068
0.00097744893
0.024905622
0.029085556
0.03369673
0.038528845
0.043270621
0.047467436
0.05044513
0.051169698
0.048113699
0.040476738
0.027082134
0.0079920794
-0.016383542
-0.044188185
-0.072763648
-0.099275854
-0.12131957
-0.1373855
-0.14706099
-0.15078702
-0.14951488
-0.14439365
-0.13657197
-0.12706663
-0.11670618
-0.10612491
-0.095773193
-0.085954116
-0.076866024
-0.068617459
-0.061259762
-0.054791154
-0.049195189
-0.044420492
-0.040426912
-0.037176358
-0.034589396
-0.032797106
-0.031456741
0.025039042
0.021310066
0.018032831
0.015095317
0.012430714
0.010038619
0.0078312779
0.0058322863
0.0040549088
0.0023015318
0.00094150805
0.029311206
0.034102446
0.039266388
0.04448662
0.04932491
0.05310397
0.054896119
0.053315225
0.046429104
0.033836711
0.014802291
-0.010078527
-0.039505768
-0.070634168
-0.10032757
-0.12578286
-0.14499714
-0.15723349
-0.16280542
-0.16265238
-0.15800341
-0.15012505
-0.14016677
-0.12907882
-0.11759954
-0.10625943
-0.095415061
-0.085302031
-0.076060629
-0.067754268
-0.060402183
-0.053976333
-0.048442967
-0.043734821
-0.039807105
-0.036613881
-0.034081696
-0.032321357
-0.031006442
0.029414757
0.025103011
0.021349056
0.01800623
0.015016621
0.012320097
0.0099229081
0.0077336332
0.0057550815
0.0039932609
0.002274137
0.00091272097
0.034340638
0.039785484
0.045470159
0.050963216
0.055606548
0.058441218
0.058244881
0.05317673
0.040939241
0.022034345
-0.0034611263
-0.034273964
-0.067926111
-0.10091346
-0.13000484
-0.15268386
-0.1677992
-0.1754836
-0.17666904
-0.17264376
-0.16479772
-0.15442159
-0.142602
-0.13018968
-0.11781084
-0.10588253
-0.094682682
-0.084380363
-0.075064023
-0.066758937
-0.059455319
-0.053102422
-0.047650551
-0.043021589
-0.039171487
-0.036046763
-0.033573888
-0.031844254
-0.030532424
0.03439819
0.029428674
0.025100378
0.021289932
0.017891167
0.014878179
0.01217787
0.0097875273
0.0076262408
0.0056713361
0.003928602
0.0022373963
0.00088370688
0.040052194
0.046149323
0.052284455
0.057823602
0.06179529
0.062933329
0.059624994
0.049505699
0.030205802
0.0037225182
-0.028612279
-0.064662696
-0.10099166
-0.13397785
-0.16043525
-0.17874721
-0.1888409
-0.19158665
-0.18835311
-0.1806389
-0.16988678
-0.15733364
-0.14395328
-0.13047852
-0.11740565
-0.10505221
-0.093622517
-0.083225329
-0.073905083
-0.065653744
-0.058435025
-0.052177925
-0.046823006
-0.042288572
-0.038531542
-0.035481844
-0.033062689
-0.031333701
-0.030028172
0.040049724
0.03433928
0.029364868
0.024989462
0.021131171
0.017704904
0.01469492
0.012011081
0.009639228
0.0075108327
0.0055813301
0.0038527595
0.0021891139
0.00085321015
0.046459372
0.053194194
0.059615169
0.064786077
0.067388021
0.065764954
0.057775532
0.040759561
0.012676335
-0.022289547
-0.060890725
-0.10059238
-0.13763598
-0.16825639
-0.19010057
-0.20287539
-0.20743563
-0.20516484
-0.19769548
-0.18661544
-0.17332675
-0.15894642
-0.14431651
-0.13002973
-0.11645413
-0.10382613
-0.092279605
-0.081872647
-0.072611649
-0.064457915
-0.057351582
-0.051209445
-0.045971206
-0.041551841
-0.037896184
-0.034910376
-0.032500525
-0.030793175
-0.029506699
0.046442004
0.039909494
0.034187377
0.029181387
0.024764605
0.020884583
0.017465317
0.014478022
0.011826273
0.0094819735
0.007386896
0.0054728039
0.0037596119
0.0021337566
0.00082055594
0.053598654
0.06085418
0.067218384
0.071386203
0.071623269
0.065675891
0.051061728
0.025201418
-0.013067335
-0.056413658
-0.099632521
-0.14100917
-0.17609788
-0.20187014
-0.21764587
-0.22422415
-0.22311562
-0.21600881
-0.20465829
-0.19063553
-0.1752147
-0.15937491
-0.1437987
-0.12892614
-0.11502797
-0.10226024
-0.090698137
-0.080356678
-0.071207358
-0.063184234
-0.056213597
-0.0502114
-0.045116561
-0.040821914
-0.037249597
-0.03425802
-0.031911748
-0.030233607
-0.028969256
0.053572442
0.046200542
0.03965015
0.033902884
0.02886712
0.024435408
0.020570618
0.017187019
0.014238045
0.011628816
0.009314847
0.0072366463
0.0053379053
0.0036562159
0.0020709136
0.00078619534
0.061420817
0.068924025
0.074660957
0.076916597
0.073259789
0.06095312
0.037647365
0.0011790748
-0.047680992
-0.098102374
-0.14381678
-0.18400213
-0.2140342
-0.23313359
-0.24203524
-0.24222666
-0.2356219
-0.22406131
-0.20930749
-0.19281114
-0.17568994
-0.15874954
-0.14250126
-0.12725719
-0.11319687
-0.10040909
-0.088920363
-0.078706419
-0.069708097
-0.06184365
-0.055039984
-0.049211223
-0.044270859
-0.040074699
-0.036483296
-0.033581138
-0.03130053
-0.029657297
-0.028416069
0.061400395
0.053236766
0.045800382
0.039237548
0.033465357
0.028428376
0.024024607
0.020209197
0.016882153
0.013982381
0.0114177
0.0091137039
0.0070481941
0.0051882504
0.0035410044
0.0019998996
0.00075008592
0.069760074
0.076991574
0.081280085
0.080184639
0.070499946
0.049702769
0.015613618
-0.032537582
-0.090769309
-0.14620495
-0.19154029
-0.22661546
-0.24933805
-0.26079234
-0.26257571
-0.2565676
-0.24487146
-0.22938828
-0.21177358
-0.19330719
-0.1749143
-0.1572045
-0.14053589
-0.1251099
-0.11102812
-0.09832448
-0.086981723
-0.076941592
-0.06812794
-0.060460435
-0.053864804
-0.048221795
-0.043399949
-0.03916031
-0.035695045
-0.032878071
-0.030673598
-0.029064221
-0.027848191
0.069783481
0.060974182
0.05267559
0.04522095
0.038638503
0.032879435
0.027888663
0.023556932
0.019816523
0.016559008
0.01370963
0.011161183
0.0088615805
0.0068396642
0.0050211218
0.003413026
0.0019201541
0.00071151189
0.078210816
0.084410569
0.085964446
0.079296549
0.061331548
0.029742536
-0.016847953
-0.075831933
-0.1410919
-0.19918634
-0.23906271
-0.26623717
-0.28052897
-0.28406199
-0.27890333
-0.26712344
-0.25092758
-0.23214444
-0.21225302
-0.19231925
-0.17305501
-0.15487667
-0.13801065
-0.1225672
-0.10858498
-0.096049593
-0.084906608
-0.075080271
-0.066497409
-0.059076182
-0.052702132
-0.047197431
-0.042303928
-0.03822754
-0.034875554
-0.032161971
-0.030029217
-0.028456006
-0.027266137
0.07835368
0.069292569
0.060242495
0.051888699
0.044407074
0.037858489
0.03217115
0.027278405
0.023053225
0.019402448
0.016214929
0.013379347
0.010835768
0.0085846639
0.0066073553
0.0048351073
0.0032710165
0.0018311718
0.00066986238
0.086108663
0.090172367
0.086731222
0.072066266
0.043429169
-0.0011464749
-0.060167512
-0.1279382
-0.19811126
-0.25191751
-0.28301779
-0.301147
-0.30672651
-0.30255787
-0.29087792
-0.27395697
-0.2539729
-0.23256294
-0.21098571
-0.19006373
-0.17028336
-0.15189907
-0.13502754
-0.11970619
-0.10591997
-0.093614497
-0.082718019
-0.073160384
-0.064866507
-0.05770565
-0.051492403
-0.045881326
-0.041193786
-0.037256548
-0.034046893
-0.031428503
-0.029369756
-0.027832995
-0.026670932
0.086461178
0.077853255
0.068402197
0.059200353
0.050799204
0.043367373
0.036926039
0.031376937
0.026625178
0.022524243
0.018962861
0.01579809
0.012960297
0.01047882
0.0082775085
0.0063497797
0.0046283433
0.0031137853
0.001732359
0.00062472572
0.092617257
0.092316563
0.081221194
0.05613247
0.014327022
-0.043947982
-0.11373622
-0.18764689
-0.25440594
-0.29983903
-0.32137942
-0.3303232
-0.32750717
-0.31612853
-0.29854551
-0.27728454
-0.25428022
-0.23093551
-0.20823675
-0.18675056
-0.16676389
-0.14839719
-0.13168035
-0.11659053
-0.1030701
-0.091048126
-0.080462577
-0.071241154
-0.063249911
-0.056273606
-0.049913381
-0.044557699
-0.040037139
-0.036281708
-0.033201858
-0.030681335
-0.028695663
-0.027196772
-0.0260633
0.093542385
0.086002424
0.076824781
0.067044366
0.057759033
0.049419262
0.042136354
0.035885231
0.030531332
0.025941655
0.021963591
0.018433135
0.015267658
0.012503077
0.010083083
0.0079383619
0.0060647723
0.0043991425
0.0029401322
0.0016231234
0.00057574726
0.096103754
0.088267421
0.067102934
0.028923619
-0.0273989
-0.098010447
-0.17495
-0.24788179
-0.30520718
-0.34109014
-0.35317745
-0.35325727
-0.34267101
-0.32471312
-0.30213534
-0.27742353
-0.25219057
-0.22757824
-0.20426546
-0.18258235
-0.16265072
-0.1444851
-0.1280461
-0.11326566
-0.10007135
-0.088407001
-0.078209571
-0.069336084
-0.061554623
-0.054385056
-0.048335552
-0.043176898
-0.038884035
-0.035292831
-0.032345161
-0.029920543
-0.02800871
-0.026547995
-0.025444186
0.098228768
0.093194119
0.084892804
0.075099928
0.065152503
0.055930982
0.047791748
0.040769199
0.034780711
0.029648123
0.025218937
0.021292112
0.017761096
0.01469084
0.011998078
0.0096467404
0.0075644377
0.0057504066
0.0041458376
0.0027489706
0.0015028832
0.00052265399
0.092994063
0.075741197
0.041849969
-0.011339551
-0.081343306
-0.16074119
-0.23888692
-0.30247428
-0.34883811
-0.37494427
-0.378151
-0.36987886
-0.35218971
-0.32851004
-0.30204962
-0.27476494
-0.24808896
-0.22281114
-0.19932188
-0.1777488
-0.15808264
-0.14025584
-0.12418021
-0.10977577
-0.096990871
-0.085771207
-0.075970019
-0.067332215
-0.059304851
-0.05250988
-0.046687978
-0.041809367
-0.037720354
-0.034295282
-0.031477206
-0.029147987
-0.027309854
-0.025888137
-0.024814312
0.095506888
0.098397561
0.091800598
0.082816365
0.072640916
0.062739754
0.053775889
0.045987779
0.039322974
0.033628256
0.028714885
0.024363311
0.020444634
0.017033742
0.01405526
0.011443628
0.0091665176
0.0071533348
0.0054047501
0.00386691
0.0025393978
0.0013710841
0.0004653237
0.081676397
0.052421093
0.0033795321
-0.064640136
-0.14525028
-0.22730315
-0.2968336
-0.34924241
-0.38475111
-0.40134808
-0.39625088
-0.38032862
-0.35616356
-0.32817903
-0.29872269
-0.26976577
-0.24236403
-0.21694267
-0.19363967
-0.1724191
-0.15317211
-0.13577674
-0.12013635
-0.10619941
-0.093919433
-0.083148025
-0.07360845
-0.06466589
-0.057084403
-0.050549545
-0.045066486
-0.04043562
-0.036552433
-0.033289268
-0.030599828
-0.028364977
-0.026600656
-0.025217534
-0.024174836
0.084870392
0.096195284
0.096070155
0.089319403
0.079678991
0.069481338
0.05988892
0.051390921
0.04408287
0.037814112
0.032411438
0.027625266
0.023294274
0.019531497
0.016235344
0.013359573
0.010835981
0.0086398294
0.0067026519
0.0050260865
0.0035609582
0.0023105403
0.0012271893
0.00040365103
0.060165427
0.015955828
-0.048658396
-0.12886944
-0.21369712
-0.28804559
-0.34625917
-0.38787657
-0.41299904
-0.42036563
-0.40755269
-0.38473844
-0.35567015
-0.32415115
-0.29266632
-0.26290319
-0.23539513
-0.2102608
-0.1874257
-0.16672947
-0.14800069
-0.13111223
-0.11600533
-0.10263781
-0.090859968
-0.08037704
-0.070466282
-0.062049745
-0.054760762
-0.048631529
-0.043444631
-0.039063387
-0.035380056
-0.032276771
-0.029714491
-0.02757282
-0.025881097
-0.024537968
-0.023526653
0.064983761
0.086165525
0.09457986
0.092839829
0.085341754
0.07558514
0.065732531
0.056735644
0.048877208
0.042094333
0.036220993
0.031017598
0.026280599
0.022148962
0.018533105
0.015365323
0.012599587
0.010172449
0.0080641928
0.0062103555
0.0046129213
0.0032270468
0.002061325
0.0010708242
0.00033743908
0.025663101
-0.034221881
-0.11215695
-0.19827277
-0.27666828
-0.33964102
-0.38698695
-0.41850085
-0.43366242
-0.43211431
-0.4121995
-0.3837559
-0.35097678
-0.31681827
-0.28445749
-0.25463783
-0.22753724
-0.20301944
-0.18084553
-0.16077865
-0.14264501
-0.12636611
-0.11189862
-0.099088325
-0.087627746
-0.076697324
-0.067400766
-0.059308969
-0.052499881
-0.04672041
-0.041831883
-0.037691806
-0.034205304
-0.031259321
-0.028821884
-0.026770962
-0.025153636
-0.023850475
-0.022870754
0.032273722
0.067384933
0.08554546
0.091031276
0.087888598
0.080058525
0.070695207
0.06158377
0.05341662
0.046251451
0.039995455
0.034437663
0.029326052
0.024848505
0.020903078
0.017450269
0.014419213
0.011772745
0.0094504697
0.0074377114
0.0056748048
0.0041641694
0.0028650854
0.0017910473
0.00090184793
0.00026664576
-0.022287275
-0.096070092
-0.18145724
-0.26281783
-0.32997347
-0.38221266
-0.41949369
-0.44146166
-0.44689953
-0.43696795
-0.41081874
-0.37796364
-0.34219107
-0.30698793
-0.27465103
-0.2454035
-0.21910251
-0.19542093
-0.17401885
-0.15465715
-0.13722233
-0.12165965
-0.10780614
-0.095341758
-0.08334875
-0.073126974
-0.064185585
-0.056656148
-0.050255022
-0.044827963
-0.040226425
-0.036322995
-0.033029627
-0.030237236
-0.027920419
-0.025962621
-0.024419561
-0.023156656
-0.022208057
-0.013585812
0.036031528
0.066939264
0.081787252
0.085142614
0.081241248
0.073732628
0.065273526
0.05721988
0.049947519
0.043482416
0.037711598
0.032316201
0.027537477
0.023299028
0.019559689
0.016278603
0.013394963
0.010876718
0.0086683168
0.0067590436
0.0050949838
0.0036792519
0.0024753566
0.0014998342
0.00072048491
0.00019163385
-0.08196724
-0.16433146
-0.24695594
-0.31768066
-0.37427331
-0.41660179
-0.4444375
-0.45707388
-0.45303257
-0.43546723
-0.40413096
-0.36783869
-0.33059068
-0.29535588
-0.26378369
-0.23558394
-0.21033937
-0.18761065
-0.167052
-0.14849594
-0.13186287
-0.1169734
-0.103493
-0.090402728
-0.079216295
-0.069377934
-0.061089004
-0.054030375
-0.048040788
-0.042951053
-0.038630269
-0.034958211
-0.031852861
-0.029207637
-0.027015
-0.025149482
-0.023680638
-0.022457561
-0.021539477
-0.070960985
-0.0082646781
0.036355745
0.062870382
0.075011961
0.077107932
0.073264919
0.06672986
0.059572614
0.052656196
0.046296428
0.040567936
0.03505945
0.030091216
0.02561507
0.02163878
0.018114859
0.015017132
0.012290876
0.0099103767
0.0078250294
0.0060276821
0.0044706461
0.003158284
0.0020582681
0.0011884397
0.00052728728
0.0001128172
-0.1482772
-0.23007266
-0.30336542
-0.36363621
-0.41042697
-0.44361627
-0.46225565
-0.4657399
-0.45241382
-0.42780958
-0.39260182
-0.35437769
-0.3169402
-0.28258428
-0.25233681
-0.22548585
-0.2014249
-0.17971284
-0.16008986
-0.14243275
-0.12653569
-0.1120454
-0.097836134
-0.0856523
-0.074872741
-0.065783981
-0.058032655
-0.051449821
-0.045852254
-0.041091454
-0.037044282
-0.033596737
-0.030670528
-0.028177031
-0.026106824
-0.024333565
-0.022938024
-0.021754584
-0.020865916
-0.13521748
-0.063878664
-0.0074314088
0.03199171
0.055166145
0.065600132
0.067411888
0.064449459
0.059384192
0.053613678
0.04786891
0.042598893
0.037276515
0.03230435
0.02771754
0.023570777
0.019864987
0.016569377
0.013665391
0.011106934
0.0088736784
0.0069207773
0.005244082
0.0038025235
0.0026021906
0.0016147987
0.00085805481
0.00032358994
3.0705923e-05
-0.21359665
-0.28788945
-0.35099748
-0.40147901
-0.43929969