/*--------------------------------*- C++ -*----------------------------------*\
| =========                 |                                                 |
| \\      /  F ield         | OpenFOAM: The Open Source CFD Toolbox           |
|  \\    /   O peration     | Version:  5.0                                   |
|   \\  /    A nd           | Web:      www.OpenFOAM.org                      |
|    \\/     M anipulation  |                                                 |
\*---------------------------------------------------------------------------*/
FoamFile
{
    version     2.0;
    format      ascii;
    class       surfaceScalarField;
    location    "60";
    object      phi;
}
// * * * * * * * * * * * * * * * * * * * * * * * * * * * * * * * * * * * * * //

dimensions      [0 3 -1 0 0 0 0];

internalField   nonuniform List<scalar> 
18180
(
0.0019218875
-1.3441962
0.0036736297
-1.2571913
0.0019673476
-1.3461636
0.005258467
-1.1759496
0.0037686689
-1.2589926
0.0019808157
-1.3481444
0.0066695919
-1.0999721
0.0053973651
-1.1775783
0.0037991187
-1.2608109
0.0020478636
-1.3501923
0.0078937959
-1.0289916
0.006847764
-1.1014225
0.0054441917
-1.1792233
0.0039330669
-1.2626961
0.0021018604
-1.3522941
0.0089492021
-0.96262227
0.0081139649
-1.0302578
0.0069120956
-1.1028904
0.0056444965
-1.1809348
0.0040423703
-1.2646366
0.0021800379
-1.3544742
0.0098314841
-0.90055794
0.0092040026
-0.9637123
0.008199156
-1.0315449
0.0071808121
-1.1044267
0.0058094145
-1.1827018
0.004201204
-1.2666578
0.0022460198
-1.3567202
0.010558294
-0.84250324
0.010122446
-0.90147638
0.0093099546
-0.9648231
0.0085364532
-1.0329005
0.0074032286
-1.1060205
0.0060513725
-1.184552
0.0043364831
-1.2687483
0.0023212178
-1.3590414
0.011137945
-0.78819146
0.010881027
-0.84326182
0.010250901
-0.90241733
0.0097159885
-0.96600264
0.0088173516
-1.0343146
0.0077341779
-1.1077033
0.0062588335
-1.1864743
0.0044926379
-1.2709197
0.0023790276
-1.3614204
0.011586737
-0.7373735
0.011491807
-0.78880224
0.011031067
-0.84404199
0.010722549
-0.90342389
0.010054564
-0.96723985
0.0092415709
-1.035822
0.0080192286
-1.1094637
0.0065023376
-1.188484
0.0046148554
-1.2731555
0.0024352553
-1.3638557
0.011917984
-0.6898218
0.011968232
-0.73784993
0.011661714
-0.78943289
0.011563217
-0.84488266
0.011116129
-0.90448545
0.010575382
-0.96857366
0.0096088512
-1.0374116
0.0083610414
-1.1113224
0.00669666
-1.1905658
0.0047365045
-1.2754568
0.002470213
-1.3663259
0.012145818
-0.64532277
0.012323743
-0.69017731
0.012154311
-0.73834253
0.012246553
-0.79011623
0.012008051
-0.84577458
0.011734147
-0.90564422
0.011028421
-0.96999323
0.010059312
-1.0391099
0.0086389265
-1.1132647
0.006894613
-1.192724
0.0048159263
-1.2778025
0.0024950653
-1.368821
0.01228291
-0.60367876
0.012571344
-0.64557037
0.01252139
-0.69054439
0.012782876
-0.73887885
0.012737386
-0.79084556
0.012720591
-0.84676103
0.012274871
-0.90689067
0.011597294
-0.97153121
0.010432468
-1.0409035
0.0089295457
-1.1152996
0.0070311595
-1.1949392
0.0048767592
-1.2801842
0.002496985
-1.3713179
0.01234193
-0.56470578
0.012723797
-0.60383121
0.012776245
-0.64582523
0.013184677
-0.69094619
0.013314001
-0.73945546
0.013539139
-0.79166411
0.013349851
-0.84783601
0.012968814
-0.90826219
0.012076525
-0.97317527
0.0108324
-1.0428063
0.0091406417
-1.1174091
0.0071435589
-1.197206
0.0048914458
-1.2825786
0.0024831827
-1.3738011
0.012334748
-0.52823154
0.012794517
-0.5647765
0.012933465
-0.60398843
0.013466253
-0.64610681
0.013750588
-0.69138278
0.014198252
-0.74011458
0.01425653
-0.79257079
0.014171211
-0.8490384
0.013562023
-0.90974769
0.012601664
-0.97494453
0.011137299
-1.044803
0.0093259177
-1.1195915
0.0071880055
-1.1995025
0.0048759822
-1.2849714
0.0024470125
-1.3762481
0.012272458
-0.49409798
0.012796616
-0.52823364
0.013007153
-0.56485019
0.013642778
-0.60416496
0.01406138
-0.6464176
0.014708292
-0.69189282
0.014999633
-0.74085768
0.015201066
-0.79360064
0.014882855
-0.85035923
0.014226184
-0.91137221
0.013020595
-0.97682783
0.011418987
-1.046896
0.0094219321
-1.1218254
0.0071888696
-1.2018154
0.0048149309
-1.2873393
0.0023923293
-1.3786405
0.012164727
-0.46215565
0.012741835
-0.4940432
0.013011274
-0.52823776
0.013729171
-0.56493658
0.0142607
-0.60436428
0.015080283
-0.64678959
0.015584708
-0.69247789
0.01605747
-0.74171408
0.016032772
-0.79475056
0.015697396
-0.85183045
0.014778491
-0.9131301
0.013422626
-0.97883147
0.011591838
-1.0490659
0.0094634638
-1.1241
0.0071212301
-1.2041217
0.004717723
-1.2896647
0.0023177628
-1.3809582
0.012020496
-0.43226504
0.0126408
-0.46205461
0.012958185
-0.49399011
0.013739729
-0.52824832
0.014362393
-0.56503828
0.015325786
-0.60460978
0.016019041
-0.64722392
0.016742587
-0.69316301
0.017009001
-0.74269031
0.01700555
-0.79605871
0.016399659
-0.85345161
0.015323677
-0.91503115
0.013699783
-0.98093941
0.011702117
-1.0513046
0.0094132064
-1.126392
0.00700062
-1.2064046
0.0045800838
-1.2919271
0.0022257705
-1.383184
0.011847652
-0.40429528
0.012503217
-0.43212746
0.012859094
-0.46195552
0.013687241
-0.49393762
0.014379752
-0.52826568
0.015457418
-0.56516991
0.016312671
-0.60490341
0.0172628
-0.64774413
0.017811378
-0.69396539
0.018142526
-0.74382729
0.017870006
-0.79752906
0.017108527
-0.85523646
0.015733523
-0.91706489
0.01390903
-0.98314633
0.011697405
-1.0535888
0.0092928442
-1.1286842
0.0068177229
-1.2086423
0.0044076467
-1.2941089
0.0021179885
-1.385302
0.011652884
-0.37812392
0.012337534
-0.4041296
0.01272374
-0.4319921
0.013583387
-0.46185167
0.014325847
-0.49388372
0.015488657
-0.52829692
0.016477884
-0.56533512
0.017627294
-0.60526791
0.01844188
-0.64837464
0.019101684
-0.69492455
0.019176586
-0.74513387
0.018760055
-0.79918059
0.017678649
-0.85718159
0.016073076
-0.91922894
0.01398149
-0.98543041
0.01160602
-1.055902
0.0090863828
-1.1309529
0.006581631
-1.2108163
0.0042034339
-1.2961944
0.0019963641
-1.3872983
0.011441726
-0.35363598
0.012151045
-0.37793744
0.012560449
-0.40396631
0.01343877
-0.43184748
0.014213265
-0.46173908
0.015433594
-0.49382865
0.016528461
-0.52834749
0.017847306
-0.56555513
0.018904988
-0.60573102
0.019879901
-0.64915285
0.020308645
-0.6960566
0.020261695
-0.74663551
0.019516103
-0.80101804
0.018180067
-0.85928858
0.01625737
-0.92150482
0.013951681
-0.98777607
0.011403184
-1.0582188
0.0088074981
-1.1331787
0.0062945783
-1.2129074
0.0039714571
-1.2981695
0.001863571
-1.3891619
0.011218917
-0.33072417
0.011949941
-0.35343487
0.012376359
-0.37775335
0.013262999
-0.40379054
0.014053665
-0.43168788
0.015305981
-0.46161147
0.016478735
-0.49377893
0.017935611
-0.5284358
0.01920815
-0.56585829
0.020477927
-0.60632904
0.021258578
-0.65010279
0.021597901
-0.69739281
0.021225837
-0.74834524
0.020209545
-0.80304752
0.018512303
-0.86154351
0.016324816
-0.92387795
0.013783732
-0.99015662
0.011106373
-1.0605177
0.0084560709
-1.1353402
0.0059636025
-1.2148995
0.0037165194
-1.3000224
0.0017224178
-1.3908843
0.01098847
-0.30928848
0.011739284
-0.33051351
0.01217758
-0.3532361
0.013064424
-0.37755477
0.013857551
-0.40359442
0.015119028
-0.43150093
0.016342974
-0.46147571
0.017905871
-0.49374919
0.019361219
-0.52858887
0.020899747
-0.56628011
0.022021635
-0.6070921
0.022755066
-0.65125995
0.022787163
-0.69895414
0.022138567
-0.75027426
0.020725854
-0.80526107
0.018715227
-0.86393393
0.01622754
-0.92632176
0.013499098
-0.99254934
0.01071208
-1.0627737
0.00804118
-1.1374178
0.0055964002
-1.2167794
0.0034437238
-1.3017437
0.0015758174
-1.3924602
0.010753694
-0.28923578
0.011523126
-0.30907233
0.011969234
-0.33030517
0.01285011
-0.35302178
0.013634261
-0.37733148
0.014885028
-0.40336042
0.016135042
-0.431293
0.017772356
-0.4613422
0.019376129
-0.4937641
0.021152336
-0.52884146
0.022596598
-0.56685508
0.023722757
-0.60805979
0.024180922
-0.65265371
0.023942877
-0.70075845
0.022874335
-0.75242275
0.021104301
-0.80765014
0.018728563
-0.86643495
0.015989646
-0.92881231
0.013088415
-0.99492568
0.010232159
-1.0649646
0.0075724662
-1.1393939
0.0051992936
-1.218535
0.0031582589
-1.3033262
0.001426419
-1.3938866
0.010517362
-0.27047995
0.011304693
-0.28901735
0.011755561
-0.30885865
0.012625924
-0.33008098
0.013391902
-0.35277942
0.014615146
-0.3770616
0.015868118
-0.4030935
0.017549501
-0.43107014
0.019266403
-0.46123247
0.021245497
-0.49385726
0.022986241
-0.5292311
0.024494771
-0.56762709
0.025391036
-0.6092699
0.025599253
-0.65431009
0.024931543
-0.70281566
0.023468989
-0.75478743
0.021271256
-0.81019284
0.018576485
-0.86902179
0.015593729
-0.93131762
0.012565861
-0.99725938
0.0096769255
-1.0670691
0.0070581774
-1.1412528
0.0047802305
-1.220157
0.0028650756
-1.3047648
0.0012764114
-1.395163
0.010282008
-0.25294038
0.011086581
-0.27026184
0.011540073
-0.28880186
0.012396659
-0.30862939
0.013137345
-0.32982642
0.014319312
-0.35248359
0.015554477
-0.37674796
0.017251511
-0.40279551
0.019046634
-0.43085038
0.021191397
-0.46117837
0.023197081
-0.4940681
0.025069184
-0.52980551
0.026405223
-0.56864128
0.027086454
-0.6107571
0.026870396
-0.65624894
0.025781873
-0.70512854
0.023834442
-0.75735062
0.021248242
-0.81286459
0.018232208
-0.87166027
0.015056787
-0.93380855
0.011941577
-0.99952403
0.0090555757
-1.0690665
0.0065105152
-1.142983
0.0043467865
-1.2216387
0.0025688594
-1.3060573
0.0011275941
-1.3962906
0.010050416
-0.23653799
0.010871173
-0.25272497
0.011325748
-0.27004752
0.012166198
-0.2885714
0.012876284
-0.30836833
0.014006157
-0.32951327
0.015205352
-0.35213446
0.016892009
-0.37638846
0.018731897
-0.40248077
0.021003891
-0.43066287
0.023238766
-0.46122005
0.02544808
-0.494447
0.027215281
-0.53061557
0.028386007
-0.56994083
0.028664033
-0.61255074
0.02801312
-0.65848019
0.02639142
-0.70768552
0.023987498
-0.76008988
0.020998008
-0.81563039
0.017714148
-0.87431763
0.014385669
-0.93625264
0.01122634
-1.0016948
0.0083850987
-1.0709411
0.0059383753
-1.1445746
0.0039062578
-1.2229761
0.0022738699
-1.3072035
0.00098160709
-1.3972722
0.0098263213
-0.2211919
0.010661219
-0.23632803
0.011115179
-0.2525144
0.011937825
-0.26981914
0.012613364
-0.28830848
0.013683032
-0.3080452
0.014830814
-0.32913873
0.01648375
-0.3517262
0.018337222
-0.37599378
0.02069795
-0.40217483
0.023123495
-0.4305476
0.02563727
-0.46140924
0.02781736
-0.49504907
0.029483084
-0.53171265
0.030287455
-0.57156425
0.030132168
-0.61466979
0.02891206
-0.66100083
0.02677054
-0.71046856
0.023878917
-0.76297079
0.020537971
-0.81845422
0.017023888
-0.87695585
0.013593938
-0.93862024
0.010441178
-1.0037509
0.0076749536
-1.0726777
0.0053522826
-1.1460206
0.0034653003
-1.2241675
0.001983868
-1.3082058
0.00083990033
-1.3981121
0.0096143872
-0.20681238
0.010460348
-0.22099103
0.010910907
-0.23612376
0.011714404
-0.25229098
0.012352375
-0.26955815
0.013356133
-0.28798158
0.014439756
-0.30765414
0.016038409
-0.32869339
0.017877152
-0.35126613
0.020289088
-0.37558492
0.022865384
-0.40191672
0.025645885
-0.43055621
0.028212054
-0.46180394
0.030367321
-0.49593331
0.031719032
-0.53314423
0.032109503
-0.57354159
0.031364132
-0.61712186
0.029568955
-0.66379924
0.026855643
-0.71344529
0.023522019
-0.76595483
0.019862642
-0.82129297
0.016177943
-0.87953985
0.012704409
-0.94088347
0.0095957387
-1.0056717
0.0069420579
-1.0742674
0.0047615744
-1.1473169
0.0030298815
-1.2252135
0.0017019673
-1.3090679
0.00070354996
-1.3988156
0.0094178736
-0.19329998
0.01027301
-0.20662504
0.010715855
-0.22079598
0.011498638
-0.235908
0.012096578
-0.25203518
0.013030575
-0.2692326
0.01403997
-0.2875818
0.015566486
-0.30718222
0.017365359
-0.3281816
0.019792856
-0.3507699
0.022479843
-0.37519938
0.025485893
-0.40175673
0.028404247
-0.43074841
0.0310332
-0.46246982
0.032941498
-0.49715578
0.03391789
-0.53495261
0.03371465
-0.57589211
0.032350506
-0.61990341
0.029903121
-0.66684672
0.026652794
-0.71657606
0.022902432
-0.76899462
0.018990369
-0.8241054
0.015198596
-0.88203404
0.011729041
-0.94301677
0.0087143955
-1.007444
0.0061961422
-1.075702
0.0041749234
-1.148462
0.0026051266
-1.2261167
0.0014307631
-1.3097951
0.00057343426
-1.3993891
0.0073628048
-0.21222881
0.010103745
-0.19313071
0.010533387
-0.20644257
0.011293387
-0.22059073
0.011848899
-0.23566032
0.01271071
-0.25171532
0.013638278
-0.2688309
0.015077315
-0.28709263
0.016814422
-0.30663128
0.019224396
-0.32761313
0.021982961
-0.35027302
0.025171465
-0.37488495
0.028402644
-0.40175512
0.031480017
-0.43119522
0.033942407
-0.46347072
0.03553331
-0.4987712
0.035931131
-0.53716909
0.035080453
-0.57862205
0.032991231
-0.62299152
0.029910645
-0.67010457
0.026136703
-0.71981033
0.022038364
-0.77204262
0.017941437
-0.82684824
0.014102194
-0.88440719
0.010698147
-0.94500052
0.0078062165
-1.0090541
0.0054509643
-1.076978
0.003599876
-1.1494567
0.0021954292
-1.2268813
0.0011726454
-1.3103943
0.00045106011
-1.3998401
0.0058805023
-0.21216824
0.0081521247
-0.21027719
0.010366175
-0.1929635
0.011101636
-0.20625082
0.01161222
-0.22035405
0.012400287
-0.23534989
0.013240548
-0.25131759
0.014579286
-0.26833287
0.016235767
-0.28651397
0.018598128
-0.30600502
0.021390929
-0.3270211
0.024718322
-0.34981988
0.028219155
-0.37470146
0.031711611
-0.40198672
0.034714392
-0.43196721
0.036935819
-0.46487323
0.037982992
-0.50082306
0.037723021
-0.53981166
0.036086028
-0.58171685
0.033270095
-0.62635097
0.029552664
-0.67352053
0.025322601
-0.72309457
0.020946376
-0.77504756
0.016736578
-0.82948262
0.012922243
-0.88663129
0.0096221152
-0.94681642
0.0068935169
-1.0104966
0.0047158991
-1.0780941
0.0030429069
-1.1503042
0.0018044599
-1.2275132
0.00092982136
-1.3108731
0.00034391731
-1.400184
0.0049190678
-0.21145391
0.0067690713
-0.21078519
0.0084630434
-0.20837406
0.010925509
-0.19278737
0.011389277
-0.20602788
0.012102749
-0.22005651
0.012851766
-0.23496111
0.014080015
-0.25081831
0.015639649
-0.26773676
0.017927567
-0.28584341
0.020719634
-0.30533372
0.024143067
-0.32644585
0.027868192
-0.34946891
0.031735896
-0.37472575
0.035255166
-0.40252749
0.038110268
-0.43314166
0.03984284
-0.46673308
0.040242886
-0.50334292
0.039150973
-0.54287661
0.036700662
-0.58514742
0.033131223
-0.62992953
0.028837869
-0.6770358
0.024221221
-0.72636941
0.019650871
-0.77796185
0.015411809
-0.83197219
0.011674214
-0.88868339
0.0085316212
-0.94845453
0.0059846661
-1.0117654
0.0040004147
-1.0790516
0.0025093301
-1.1510091
0.0014350012
-1.2280183
0.00070337918
-1.3112325
0.00024911168
-1.4004332
0.0044046709
-0.20973865
0.0059090315
-0.21059387
0.0070922594
-0.2094144
0.0090670696
-0.20651562
0.011181688
-0.19257978
0.011821104
-0.20574623
0.012476292
-0.21968104
0.013586228
-0.23446732
0.015035351
-0.25021402
0.01722532
-0.26703451
0.019984369
-0.28510814
0.023462654
-0.30465331
0.027365928
-0.32594358
0.031564261
-0.34929728
0.035567293
-0.37503787
0.03904673
-0.40346395
0.041487561
-0.43478638
0.042606528
-0.46909673
0.042148222
-0.50634017
0.040167705
-0.54634365
0.036847472
-0.58886367
0.032572761
-0.63366442
0.027768604
-0.68058318
0.022859254
-0.7295778
0.018189788
-0.78073983
0.013988895
-0.83428687
0.01039432
-0.89054608
0.0074349625
-0.94990482
0.0050968906
-1.0128619
0.0033119339
-1.0798542
0.0020032904
-1.1515774
0.001088735
-1.2284037
0.00049313267
-1.3114765
0.00015720257
-1.4005904
0.0042230949
-0.20664277
0.0055035341
-0.20933315
0.0062032131
-0.20970483
0.007716894
-0.20806423
0.0093405548
-0.20467448
0.011557003
-0.19231568
0.012117737
-0.20538768
0.013103816
-0.21919863
0.014431176
-0.23386315
0.016503088
-0.24949178
0.019199687
-0.26624983
0.022693967
-0.28433946
0.026729702
-0.30401708
0.031210859
-0.32559018
0.035657731
-0.34938772
0.039740597
-0.37573174
0.042899021
-0.40487541
0.044783472
-0.43696332
0.045039948
-0.47198845
0.043633479
-0.50980595
0.040671196
-0.55016737
0.036509849
-0.59280075
0.03158546
-0.63748128
0.02637167
-0.6840956
0.021275591
-0.7326636
0.016591644
-0.78334258
0.012509301
-0.83640185
0.0090954816
-0.8922066
0.0063582772
-0.95116621
0.0042366663
-1.0137866
0.0026566379
-1.0805075
0.0015278896
-1.1520165
0.00076661856
-1.2286772
0.00029896779
-1.3116183
6.6840122e-05
-1.4006572
0.0042020536
-0.20190862
0.0054385719
-0.20657781
0.0057257393
-0.20885568
0.0068203481
-0.20880828
0.0079821747
-0.20670585
0.0097062953
-0.20282378
0.011778331
-0.19197627
0.012637706
-0.20492157
0.013834436
-0.21860189
0.015771517
-0.23313158
0.018379398
-0.2486715
0.021853566
-0.26540943
0.025977468
-0.28358722
0.030691998
-0.30349822
0.035537205
-0.32546966
0.040192391
-0.34983951
0.044064487
-0.37689721
0.046747266
-0.40683921
0.047789695
-0.43971307
0.047058379
-0.47541335
0.044567668
-0.51370242
0.04062582
-0.55428334
0.035662953
-0.59687825
0.030193178
-0.64130279
0.024685445
-0.68750545
0.019505572
-0.73557753
0.014903639
-0.78573692
0.010992867
-0.83829924
0.0078102563
-0.89365858
0.0053072627
-0.95223681
0.0034160196
-1.014546
0.002039034
-1.0810187
0.0010852324
-1.1523351
0.0004694932
-1.2288477
0.00012201197
-1.3116735
-1.804727e-05
-1.4006392
0.0041228952
-0.19566142
0.0055273369
-0.20199738
0.0055480641
-0.20640014
0.0063000593
-0.20833539
0.0070468099
-0.20787291
0.0083164019
-0.20531595
0.0098954221
-0.20094087
0.012191433
-0.19153
0.013251403
-0.20433854
0.015040101
-0.21787047
0.017536357
-0.23228854
0.020957495
-0.24777542
0.02512744
-0.2645594
0.030025532
-0.28292076
0.035219675
-0.30318069
0.040407355
-0.32568462
0.044976712
-0.35075174
0.048476281
-0.37862622
0.0503636
-0.40941311
0.050402275
-0.44305697
0.048498665
-0.47934435
0.044891903
-0.5179685
0.039986307
-0.5586067
0.034323713
-0.60100878
0.028431658
-0.645049
0.022751654
-0.69075154
0.017602624
-0.73827651
0.01315388
-0.78789793
0.0094782978
-0.83996728
0.0065476743
-0.89489899
0.004301634
-0.95312242
0.0026386546
-1.0151456
0.0014624731
-1.0813959
0.00067644051
-1.1525421
0.0001979626
-1.2289237
-3.6953819e-05
-1.3116546
-8.6097233e-05
-1.4005531
0.0037716837
-0.1886547
0.0054997694
-0.19563385
0.0054926628
-0.20194198
0.006034944
-0.20613502
0.0064512624
-0.20773984
0.0073233165
-0.20687983
0.0084529518
-0.20387348
0.010233276
-0.19898271
0.012687402
-0.190966
0.014317157
-0.20361559
0.016682309
-0.21701643
0.020020962
-0.231352
0.024197757
-0.24684574
0.029230431
-0.2637643
0.034721699
-0.28242278
0.040395094
-0.30316843
0.045633837
-0.32634174
0.049954188
-0.35222964
0.052731511
-0.38099414
0.053625795
-0.41263663
0.052423585
-0.44698189
0.049274528
-0.48372698
0.044534905
-0.5225171
0.038757747
-0.56304073
0.032522303
-0.60509943
0.026347957
-0.6486453
0.020630242
-0.69377915
0.01560439
-0.74072702
0.011388227
-0.78980786
0.007980802
-0.8414004
0.0053333399
-0.8959307
0.0033438648
-0.95382763
0.0019121881
-1.0155953
0.00092889261
-1.0816484
0.00030209623
-1.1526462
-4.8638025e-05
-1.228912
-0.00018771754
-1.311553
-0.00015308347
-1.4004
0.0030266346
-0.18231744
0.0050711266
-0.18822606
0.0053162472
-0.19545743
0.0058401079
-0.20174715
0.0060679727
-0.20575173
0.0066341999
-0.20705072
0.0073844377
-0.20581132
0.0086950395
-0.20233525
0.010631436
-0.19692675
0.013610531
-0.19025938
0.015827637
-0.20276092
0.019058122
-0.21605359
0.02320601
-0.23036026
0.028326283
-0.24594159
0.034061988
-0.26310459
0.040169029
-0.28219672
0.04603932
-0.30357391
0.051170273
-0.32755783
0.054867782
-0.35436591
0.056691613
-0.38405995
0.056300597
-0.41651365
0.053736106
-0.45144346
0.049282589
-0.48847466
0.043484139
-0.52724349
0.036960806
-0.56747924
0.030309301
-0.60906077
0.024008492
-0.65202355
0.018369575
-0.69654434
0.013565239
-0.74290403
0.0096298756
-0.79145693
0.0065314733
-0.84259854
0.0041718389
-0.89675867
0.0024473161
-0.95436276
0.0012373472
-1.0159038
0.00043970404
-1.081786
-3.5425131e-05
-1.1526594
-0.00027038389
-1.2288293
-0.00031951717
-1.3113865
-0.00021058992
-1.4001894
-0.17835434
0.0019428649
0.0040828809
-0.1813292
0.0047677359
-0.18767754
0.0054703428
-0.19508767
0.0057056799
-0.20138485
0.0061065114
-0.20522404
0.0065910891
-0.20625737
0.0075089886
-0.20462526
0.0089780266
-0.20068184
0.011408837
-0.19472505
0.014982977
-0.18941472
0.018081462
-0.20178426
0.022168835
-0.21501641
0.027332651
-0.22936662
0.033260739
-0.24514035
0.039746017
-0.26268157
0.046201581
-0.28235898
0.052119785
-0.30452343
0.056752033
-0.32944208
0.059565447
-0.35723975
0.060087888
-0.38784724
0.058235922
-0.42101346
0.054198075
-0.45635895
0.048486088
-0.49347661
0.041745645
-0.53202833
0.034646823
-0.57181676
0.027757087
-0.61280937
0.021473352
-0.65512733
0.016034141
-0.69901324
0.011518121
-0.74479228
0.0079166033
-0.79284206
0.0051394865
-0.84356619
0.0030809459
-0.8973923
0.0016112834
-0.9547367
0.00061832171
-1.0160824
-2.1786046e-06
-1.0818192
-0.00034601344
-1.1525838
-0.00046950738
-1.2286793
-0.00043532645
-1.3111618
-0.00026338044
-1.399926
-0.17690037
0.00262891
-0.17797061
0.00073769777
0.0037095849
-0.18027105
0.0046803969
-0.1868876
0.0051160399
-0.19449803
0.0055333253
-0.20081167
0.0059213155
-0.20455427
0.0065740569
-0.20532244
0.0076615005
-0.20330874
0.0095932561
-0.19886626
0.012613016
-0.19235509
0.017104156
-0.18843741
0.021100805
-0.20071623
0.026268374
-0.21395213
0.032338791
-0.22844467
0.039145515
-0.24453984
0.046133821
-0.26261381
0.052803915
-0.28304311
0.058369937
-0.30614133
0.06221727
-0.3320939
0.063744741
-0.3608966
0.062731194
-0.39234252
0.059245541
-0.42606093
0.05374119
-0.46161405
0.046870066
-0.49860103
0.03936762
-0.53674913
0.031892972
-0.57595264
0.02493818
-0.6162742
0.018818909
-0.6579121
0.013668635
-0.70116375
0.0095091186
-0.74638479
0.006263818
-0.7939664
0.0038267356
-0.84431198
0.0020610604
-0.89784208
0.00084377459
-0.95496215
5.5021716e-05
-1.0161396
-0.00040744343
-1.0817578
-0.00062116853
-1.1524321
-0.00064638319
-1.2284683
-0.00053734545
-1.3108878
-0.00030813005
-1.3996179
-0.17543951
0.0022487295
-0.17636814
0.0010264393
-0.18127511
-0.00033182187
0.0033568456
-0.17894749
0.0040644467
-0.18583601
0.0046585332
-0.19362323
0.0051552556
-0.20004561
0.0057329613
-0.20371317
0.0065824859
-0.20424343
0.008103307
-0.20181879
0.010613022
-0.19686626
0.014534761
-0.1897857
0.020017305
-0.18735391
0.025149961
-0.19959782
0.031316488
-0.21292983
0.038388506
-0.22768767
0.045853043
-0.24425907
0.053229967
-0.26303987
0.059713675
-0.28438685
0.064622543
-0.3085466
0.067233118
-0.33558228
0.067178078
-0.36534349
0.064385348
-0.39748232
0.059221709
-0.43154145
0.052321849
-0.46706583
0.044474357
-0.50370777
0.036429954
-0.54128611
0.028784545
-0.57979901
0.021942619
-0.61939791
0.016103898
-0.66034736
0.011329357
-0.70298399
0.0075617422
-0.74768272
0.0046983602
-0.79483802
0.0025965825
-0.8448475
0.0011227368
-0.89812104
0.00014256533
-0.95504969
-0.00045672665
-1.0160903
-0.00076749781
-1.0816115
-0.00086513786
-1.1522134
-0.00080209817
-1.2282035
-0.00062595965
-1.31057
-0.00034766226
-1.3992702
-0.17373494
0.0016522676
-0.17482647
0.00070706109
-0.17989224
-0.00035643829
-0.18727156
-0.0011080082
0.002475206
-0.17735825
0.0032613312
-0.1844388
0.0040237977
-0.19249178
0.0047552828
-0.19906793
0.0055829685
-0.20271366
0.0068472793
-0.2029874
0.0089297748
-0.20013554
0.012316957
-0.19464846
0.017232635
-0.18700103
0.023994613
-0.18619856
0.03021153
-0.19849286
0.037495709
-0.21203704
0.045378738
-0.22721336
0.053410303
-0.2444394
0.060782563
-0.26410875
0.066763275
-0.28652758
0.070519223
-0.31183271
0.071533489
-0.33993769
0.069574835
-0.37053297
0.0648949
-0.40315551
0.058083309
-0.43730291
0.049964883
-0.47255636
0.041378327
-0.50865614
0.033030546
-0.54553211
0.025426981
-0.58328337
0.018845699
-0.62213971
0.013397195
-0.6624152
0.0090499885
-0.70447224
0.005709159
-0.74869352
0.0032276804
-0.79546912
0.0014620786
-0.84518684
0.00026377937
-0.89824226
-0.00049196367
-0.95501446
-0.00091445676
-1.0159433
-0.001087012
-1.0813896
-0.0010797306
-1.1519357
-0.00093785148
-1.2278916
-0.0007026581
-1.310215
-0.00038080255
-1.3988894
-0.17181792
0.00055819388
-0.17311961
-5.4588557e-05
-0.17863454
-0.00055063783
-0.18633075
-0.0012972418
-0.19429536
-0.0016071264
0.0013187729
-0.1754157
0.0023092783
-0.18272428
0.0033583981
-0.19109489
0.0044271982
-0.19791216
0.0056740922
-0.20154047
0.0074831373
-0.20154076
0.010405543
-0.19822413
0.014779935
-0.19219576
0.02097734
-0.18398375
0.029042132
-0.18502916
0.036484811
-0.19748196
0.044730103
-0.2113884
0.053360747
-0.2271638
0.061582002
-0.24523884
0.068629166
-0.26597465
0.07357527
-0.28958362
0.075756832
-0.31605605
0.074770181
-0.34513304
0.070723581
-0.37636165
0.064131205
-0.40920341
0.055832014
-0.44317004
0.046744464
-0.4779225
0.037691592
-0.51331718
0.029291904
-0.54939704
0.021914808
-0.58635248
0.015731753
-0.62447427
0.010744953
-0.66411016
0.0068718952
-0.70563497
0.0039640991
-0.74942994
0.0018680375
-0.79587508
0.00042210467
-0.84534516
-0.0005131683
-0.89822105
-0.0010616331
-0.95486728
-0.0013200892
-1.0157103
-0.0013682733
-1.081101
-0.0012668682
-1.1516067
-0.0010551479
-1.2275391
-0.00076801635
-1.3098278
-0.00040913124
-1.3984803
-0.16962197
-0.00087718186
-0.17131864
-0.0012427778
-0.17732481
-0.0013643141
-0.18553588
-0.001345516
-0.19377887
-0.001813729
-0.2008104
-0.0019776618
3.0313318e-05
-0.17313673
0.001318633
-0.18068452
0.0028182844
-0.18948598
0.0043483596
-0.19658643
0.0061367263
-0.20019406
0.0087351577
-0.19987038
0.012619958
-0.19606415
0.018266813
-0.18948523
0.025792939
-0.18073456
0.035374158
-0.18391851
0.043922524
-0.19667438
0.05309637
-0.21112402
0.062121469
-0.22770327
0.070216542
-0.24682622
0.076381039
-0.26878042
0.079812593
-0.29363939
0.079928069
-0.32121394
0.076667855
-0.35107731
0.070437163
-0.38266761
0.062063146
-0.41543454
0.052530447
-0.44895602
0.042780009
-0.48301091
0.033555189
-0.51758047
0.025330663
-0.55281289
0.018351139
-0.58897186
0.012662223
-0.62639154
0.0081988631
-0.66543713
0.0048147532
-0.70648563
0.0023467243
-0.74990862
0.0006203413
-0.79607331
-0.00051904893
-0.84533928
-0.0012114802
-0.89807121
-0.0015662138
-0.95462115
-0.0016775125
-1.015401
-0.0016134183
-1.0807545
-0.001428403
-1.1512335
-0.0011552224
-1.2271519
-0.00082319986
-1.3094137
-0.00043236388
-1.3980479
-0.16715871
-0.0024329452
-0.16937876
-0.0028170565
-0.17605338
-0.0025142078
-0.18478549
-0.0021147043
-0.19337832
-0.0017460666
-0.20051236
-0.0021117679
-0.20589765
-0.0024187187
-0.0013177546
-0.17050034
0.00051574089
-0.17838198
0.0025580633
-0.18769568
0.0046654539
-0.19511515
0.0071904081
-0.19864931
0.010701411
-0.19795183
0.015827062
-0.1936244
0.022820657
-0.18651295
0.031899877
-0.17726028
0.042972799
-0.18296879
0.052626973
-0.19620498
0.062408293
-0.21141085
0.071525614
-0.22901234
0.078922646
-0.24936782
0.083671997
-0.27263982
0.085009249
-0.29872057
0.08268667
-0.32723275
0.076968993
-0.35760914
0.068640602
-0.38924507
0.058733595
-0.42163769
0.048304593
-0.4544806
0.038232175
-0.4876879
0.029110979
-0.52136079
0.02127243
-0.55573418
0.014816135
-0.59112578
0.0097015771
-0.62789425
0.0057876612
-0.66641004
0.0029035413
-0.70704244
0.00086103217
-0.75014931
-0.00050941365
-0.79608295
-0.0013655541
-0.84518521
-0.0018301753
-0.89780724
-0.0020110934
-0.95428757
-0.0019886085
-1.0150258
-0.001825005
-1.0803579
-0.0015662781
-1.1508224
-0.0012396165
-1.2267355
-0.00086894666
-1.3089771
-0.00045147955
-1.3975964
-0.16440131
-0.004075152
-0.16730021
-0.0045115015
-0.17478442
-0.0040860151
-0.18416549
-0.0031342021
-0.19306301
-0.002430011
-0.20027091
-0.0019875178
-0.20555791
-0.0024515063
-0.20931543
-0.0031134356
-0.0024270125
-0.16755759
2.8043338e-05
-0.17585196
0.0027472255
-0.18577745
0.0055655363
-0.19349028
0.0089329459
-0.19688084
0.013617437
-0.19574221
0.020087976
-0.19089172
0.028664147
-0.18327722
0.039304878
-0.17359236
0.051965487
-0.1823073
0.062441842
-0.19623853
0.072551348
-0.21243658
0.081188186
-0.23127788
0.087311266
-0.25300709
0.08997953
-0.2776101
0.088742548
-0.30477644
0.083692538
-0.3339563
0.075542374
-0.36451091
0.065346786
-0.39585826
0.054270142
-0.42760324
0.043335246
-0.45958367
0.033271382
-0.4918483
0.024511229
-0.52459959
0.017220043
-0.55813809
0.011390172
-0.59281437
0.0068898579
-0.62899645
0.0035427161
-0.66704921
0.0011460361
-0.70732745
-0.00048455192
-0.75017417
-0.0015261979
-0.79592231
-0.0021155716
-0.84489981
-0.0023754879
-0.89744285
-0.0023978633
-0.95387832
-0.0022572689
-1.0145936
-0.0020054332
-1.0799187
-0.0016823972
-1.1503796
-0.0013095774
-1.2262949
-0.00090623572
-1.3085224
-0.00046655634
-1.3971299
-0.16136667
-0.005461658
-0.16504993
-0.0063254281
-0.17351443
-0.0057814945
-0.18363753
-0.0046139783
-0.19288293
-0.0033142828
-0.20010326
-0.0025976612
-0.20521767
-0.0023277554
-0.20871321
-0.0030537249
-0.21126689
-0.004199555
-0.0032107694
-0.16431878
5.9094662e-05
-0.17316382
0.0035351825
-0.1837471
0.0071372159
-0.19169455
0.011568985
-0.19483239
0.017556333
-0.19321056
0.025624319
-0.18785189
0.035828075
-0.17980042
0.048159537
-0.16978641
0.06222729
-0.18209275
0.073276245
-0.19696343
0.083154371
-0.21440277
0.090703888
-0.23467051
0.094807128
-0.25783469
0.09480049
-0.28366804
0.090577355
-0.31166126
0.082744823
-0.34115875
0.072358897
-0.37152302
0.060677617
-0.40226573
0.048873399
-0.43314139
0.037824915
-0.46413721
0.028081271
-0.49541834
0.019885926
-0.52726547
0.013273611
-0.56002153
0.0081271904
-0.5940517
0.0042668934
-0.62972062
0.0014763011
-0.66737948
-0.00044582066
-0.70736618
-0.0016961772
-0.7500042
-0.0024270536
-0.79561082
-0.0027761506
-0.84449915
-0.0028493867
-0.89699133
-0.0027318951
-0.95340369
-0.0024859402
-1.0141131
-0.0021573062
-1.0794438
-0.0017786675
-1.1499105
-0.0013665586
-1.2258345
-0.00093580319
-1.3080531
-0.00047819443
-1.3966517
-0.15800147
-0.0065759642
-0.16259526
-0.0079163302
-0.17220091
-0.0076389469
-0.18318203
-0.0062369969
-0.19279358
-0.0047033259
-0.20002278
-0.0033947546
-0.20491686
-0.0028984743
-0.20807745
-0.0029635188
-0.21025267
-0.0040679409
-0.21212768
-0.0057727427
-0.0034294885
-0.16083019
0.00071557713
-0.17034422
0.004996997
-0.18160688
0.0095381085
-0.18966368
0.015170888
-0.19244695
0.022734475
-0.19032072
0.032487758
-0.18451157
0.044483073
-0.17612395
0.058378227
-0.16593734
0.07369158
-0.18250808
0.08477855
-0.19858761
0.093801032
-0.21749991
0.0994482
-0.23931158
0.10082425
-0.26385845
0.097592005
-0.29068269
0.090227988
-0.31914443
0.079759104
-0.34855895
0.067524746
-0.37837015
0.054852087
-0.40824442
0.042781661
-0.43809814
0.031993939