/*--------------------------------*- C++ -*----------------------------------*\
| =========                 |                                                 |
| \\      /  F ield         | OpenFOAM: The Open Source CFD Toolbox           |
|  \\    /   O peration     | Version:  5.0                                   |
|   \\  /    A nd           | Web:      www.OpenFOAM.org                      |
|    \\/     M anipulation  |                                                 |
\*---------------------------------------------------------------------------*/
FoamFile
{
    version     2.0;
    format      ascii;
    class       surfaceScalarField;
    location    "60";
    object      phi_0;
}
// * * * * * * * * * * * * * * * * * * * * * * * * * * * * * * * * * * * * * //

dimensions      [0 3 -1 0 0 0 0];

internalField   nonuniform List<scalar> 
18180
(
0.0019191173
-1.3441924
0.0036683938
-1.2571872
0.0019646818
-1.346157
0.0052510402
-1.1759452
0.0037636397
-1.2589862
0.0019782082
-1.3481352
0.0066602415
-1.0999673
0.0053902166
-1.1775718
0.0037941825
-1.2608022
0.0020452784
-1.3501805
0.0078828105
-1.0289864
0.0068387483
-1.1014159
0.005437171
-1.1792148
0.0039281526
-1.262685
0.002099276
-1.3522798
0.0089368233
-0.96261652
0.008103333
-1.0302509
0.0069032487
-1.1028819
0.0056375036
-1.1809241
0.0040374309
-1.2646232
0.0021774277
-1.3544572
0.0098179142
-0.9005517
0.0091919852
-0.96370518
0.0081887425
-1.0315364
0.0071720088
-1.1044164
0.0058023713
-1.1826891
0.0041961736
-1.2666419
0.0022433854
-1.3567006
0.010543675
-0.84249649
0.010109243
-0.90146896
0.0092982347
-0.96481467
0.0085261316
-1.0328906
0.0073943468
-1.1060084
0.0060441681
-1.1845371
0.004331357
-1.2687299
0.0023185491
-1.3590192
0.011122381
-0.78818421
0.010866827
-0.84325408
0.010238157
-0.90240888
0.0097044687
-0.965993
0.0088069341
-1.0343032
0.007725045
-1.1076893
0.0062514523
-1.1864572
0.004487392
-1.2708988
0.0023763332
-1.3613955
0.011570325
-0.73736576
0.011476809
-0.78879419
0.011017618
-0.84403354
0.010710193
-0.9034146
0.010042945
-0.96722902
0.0092307934
-1.0358089
0.0080098112
-1.1094476
0.0064947288
-1.1884645
0.0046095236
-1.273132
0.0024325358
-1.363828
0.01190084
-0.68981365
0.011952662
-0.73784161
0.011647906
-0.78942448
0.011550393
-0.84487374
0.011103649
-0.90447531
0.010563261
-0.96856148
0.0095976501
-1.0373967
0.0083512479
-1.1113042
0.0066888715
-1.1905439
0.0047311078
-1.2754305
0.0024674874
-1.3662955
0.012128087
-0.64531432
0.012307849
-0.69016883
0.012140507
-0.73833422
0.012233607
-0.79010769
0.01199503
-0.84576512
0.011720987
-0.90563303
0.011015695
-0.96997953
0.010047539
-1.039093
0.0086288222
-1.1132441
0.0068866699
-1.1926994
0.0048105297
-1.2777736
0.0024923554
-1.3687879
0.012264747
-0.60367015
0.012555359
-0.64556183
0.012507907
-0.69053623
0.012770109
-0.73887072
0.012724152
-0.79083681
0.012706718
-0.84675085
0.012260895
-0.90687823
0.011583759
-0.97151575
0.010420219
-1.0408844
0.0089191463
-1.1152766
0.0070231632
-1.1949121
0.0048714176
-1.2801526
0.0024943252
-1.3712822
0.012323462
-0.56469713
0.012707878
-0.60382267
0.012763272
-0.6458172
0.013172294
-0.69093842
0.013300811
-0.73944738
0.013524839
-0.79165493
0.013334908
-0.84782487
0.012953796
-0.90824827
0.012062342
-0.97315787
0.010819647
-1.0427849
0.0091300818
-1.1173835
0.0071355923
-1.1971762
0.004886235
-1.2825445
0.0024806185
-1.3737628
0.012316056
-0.52822292
0.012778719
-0.56476797
0.01292103
-0.60398043
0.013454379
-0.64609928
0.01373763
-0.69137524
0.014183769
-0.74010631
0.014240948
-0.79256097
0.014155071
-0.84902614
0.01354617
-0.9097321
0.012586659
-0.97492488
0.011124202
-1.044779
0.0093153036
-1.1195632
0.0071802006
-1.1994702
0.0048709832
-1.2849349
0.0024445898
-1.3762074
0.012253584
-0.49408943
0.012780912
-0.52822511
0.012995225
-0.56484216
0.013631534
-0.60415759
0.01404884
-0.64641049
0.01469393
-0.6918854
0.014983871
-0.74084923
0.015184259
-0.79359016
0.014865631
-0.8503456
0.014209048
-0.91135449
0.01300499
-0.97680567
0.011405674
-1.0468694
0.0094114542
-1.1217945
0.0071813493
-1.2017806
0.0048102207
-1.2873005
0.0023901025
-1.3785975
0.012145681
-0.46214721
0.012726155
-0.49403467
0.012999796
-0.52822968
0.013718655
-0.56492928
0.014248806
-0.60435755
0.015066446
-0.64678301
0.015569317
-0.69247084
0.016040478
-0.74170545
0.016014472
-0.794739
0.015678274
-0.85181483
0.014760439
-0.91310994
0.013406558
-0.97880656
0.011578564
-1.0490365
0.0094532851
-1.1240664
0.0071141165
-1.2040845
0.0047133873
-1.2896238
0.0023157798
-1.3809133
0.012001267
-0.43225674
0.012625042
-0.46204609
0.012947086
-0.49398196
0.01372999
-0.52824102
0.014351401
-0.56503188
0.015312909
-0.60460402
0.016004552
-0.64721824
0.016725855
-0.69315622
0.016989929
-0.7426809
0.016984643
-0.79604537
0.016379268
-0.85343366
0.015304809
-0.91500819
0.013683566
-0.98091156
0.011689087
-1.0512723
0.0094035116
-1.1263558
0.0069940396
-1.2063651
0.004576184
-1.2918842
0.0022240715
-1.3831374
0.011828211
-0.40428714
0.012487274
-0.43211897
0.012848269
-0.46194728
0.013678319
-0.49393029
0.014369942
-0.52825956
0.015445914
-0.56516488
0.01629955
-0.60489901
0.017246747
-0.64773914
0.017791887
-0.69395818
0.018120134
-0.7438164
0.017847456
-0.79751356
0.017086843
-0.85521569
0.015714213
-0.91703883
0.013892921
-0.98311539
0.011684881
-1.0535537
0.0092838065
-1.1286456
0.006811766
-1.2086007
0.0044042356
-1.2940644
0.0021165977
-1.385254
0.011633188
-0.37811597
0.012321302
-0.40412117
0.012713063
-0.43198376
0.013575328
-0.46184429
0.014317457
-0.49387781
0.01547889
-0.52829253
0.016466525
-0.56533186
0.017612346
-0.60526461
0.018422395
-0.64836964
0.019078189
-0.69491623
0.019152107
-0.74512105
0.018735567
-0.79916228
0.0176561
-0.85715758
0.016053633
-0.91919955
0.013965837
-0.98539635
0.011594238
-1.0558641
0.0090781411
-1.130912
0.0065763873
-1.2107728
0.0042005364
-1.2961483
0.0019952872
-1.3872492
0.011421724
-0.35362824
0.012134424
-0.3779291
0.012549785
-0.40395789
0.01343161
-0.43184004
0.014206476
-0.46173331
0.015425864
-0.49382478
0.016519208
-0.52834521
0.017833905
-0.56555342
0.018885987
-0.6057282
0.019855738
-0.64914719
0.020282501
-0.69604663
0.020234452
-0.74661993
0.019490189
-0.80099637
0.018157025
-0.85926097
0.016238248
-0.92147196
0.013936805
-0.98773892
0.011392355
-1.0581783
0.0088001909
-1.1331358
0.0062900924
-1.2128624
0.0039690877
-1.2981221
0.0018627846
-1.389112
0.011198552
-0.33071666
0.011932836
-0.35342665
0.012365582
-0.37774489
0.013256733
-0.40378302
0.014048592
-0.43168216
0.01530054
-0.46160798
0.016471896
-0.49377747
0.017924218
-0.52843553
0.019190156
-0.56585759
0.020453586
-0.60632605
0.021231102
-0.65009579
0.021568034
-0.69738021
0.021196494
-0.74832624
0.020182662
-0.80302201
0.018489347
-0.86151207
0.016306438
-0.92384159
0.01376993
-0.99011649
0.011096694
-1.0604748
0.0084497761
-1.1352954
0.005959904
-1.2148532
0.0037146738
-1.299974
0.001721871
-1.3908339
0.01096768
-0.30928122
0.011721608
-0.33050543
0.012166569
-0.35322764
0.013058998
-0.37754716
0.013854265
-0.40358869
0.015116085
-0.43149771
0.016338829
-0.46147491
0.017896955
-0.49375021
0.019344794
-0.52859017
0.02087578
-0.56627978
0.021993245
-0.6070882
0.022722808
-0.65125057
0.022754403
-0.69893812
0.022107628
-0.7502512
0.02069868
-0.80523134
0.018692882
-0.86389851
0.016210306
-0.92628196
0.013486652
-0.99250645
0.01070368
-1.0627288
0.0080359617
-1.1373715
0.0055934964
-1.216732
0.0034423809
-1.3016945
0.0015754523
-1.3924094
0.010732413
-0.28922878
0.011504797
-0.30906441
0.011957876
-0.33029674
0.012845438
-0.35301408
0.01363279
-0.37732568
0.014884751
-0.40335736
0.016133845
-0.43129272
0.017766374
-0.46134433
0.019361846
-0.49376726
0.021129329
-0.52884371
0.022567767
-0.5668543
0.023688414
-0.6080538
0.024144802
-0.65264097
0.023907684
-0.70073818
0.022842541
-0.75239506
0.021077477
-0.80761594
0.018707366
-0.86639557
0.015973955
-0.92876927
0.013077524
-0.99488029
0.010225148
-1.0649179
0.0075683385
-1.1393463
0.0051971689
-1.2184868
0.0031573907
-1.3032765
0.0014262036
-1.3938356
0.010495522
-0.27047322
0.011285637
-0.28900962
0.011743752
-0.30885028
0.012621897
-0.33007319
0.013392229
-0.35277352
0.014617663
-0.37705859
0.01587009
-0.4030936
0.017546877
-0.43107322
0.019254824
-0.46123731
0.021224046
-0.49386197
0.022957477
-0.52923342
0.024458705
-0.5676246
0.025351663
-0.60926066
0.025559642
-0.65429293
0.024894739
-0.70279037
0.023437156
-0.75475474
0.021245509
-0.81015408
0.018556988
-0.86897861
0.015579875
-0.93127162
0.012556704
-0.99721185
0.0096713432
-1.0670209
0.0070551343
-1.1412043
0.0047788511
-1.2201083
0.0028646499
-1.3047149
0.0012763524
-1.3951119
0.010259542
-0.25293394
0.011066721
-0.27025431
0.011527712
-0.28879358
0.012393155
-0.30862154
0.013139416
-0.32982038
0.01432471
-0.35248056
0.015559811
-0.37674831
0.017252624
-0.40279935
0.019038302
-0.4308567
0.021172104
-0.46118537
0.023168925
-0.49407342
0.025031823
-0.52980654
0.026362782
-0.56863571
0.027042338
-0.61074336
0.026828248
-0.65622644
0.025744511
-0.70509773
0.023803514
-0.75731275
0.021224293
-0.81282138
0.018214821
-0.87161355
0.015045036
-0.93375995
0.011934227
-0.99947473
0.0090514381
-1.0690172
0.0065085265
-1.142934
0.0043461072
-1.2215897
0.0025688429
-1.3060074
0.0011277122
-1.3962396
0.010027265
-0.23653185
0.010850442
-0.25271766
0.011312741
-0.27003934
0.012163093
-0.28856352
0.012880015
-0.30836214
0.01401448
-0.32951015
0.015214204
-0.35213496
0.016897184
-0.37639287
0.018727321
-0.40248837
0.020987352
-0.43067195
0.023211788
-0.46122823
0.025409927
-0.49445153
0.027170053
-0.53061381
0.028337408
-0.56993078
0.028616289
-0.6125314
0.027969728
-0.65845165
0.026354635
-0.70764885
0.023958369
-0.76004682
0.020976419
-0.81558298
0.017699259
-0.87426778
0.014376156
-0.93620188
0.011220847
-1.0016441
0.0083823653
-1.0708911
0.0059373824
-1.1445253
0.0039062261
-1.2229271
0.0022742271
-1.3071539
0.00098190285
-1.3972215
0.0098024364
-0.2211861
0.010639566
-0.23632098
0.01110143
-0.25250635
0.011934999
-0.26981124
0.012618641
-0.28830214
0.013694282
-0.30804194
0.014843307
-0.32913926
0.016493255
-0.35173103
0.018336868
-0.37600242
0.020684746
-0.40218576
0.023098288
-0.43055845
0.025598891
-0.4614172
0.02776972
-0.49505119
0.029430124
-0.53170653
0.030233931
-0.57154843
0.030082259
-0.61464393
0.028868704
-0.66096572
0.026735431
-0.71042591
0.023852363
-0.76292277
0.020519301
-0.81840302
0.017011726
-0.87690334
0.013586765
-0.9385678
0.010437504
-1.0036993
0.0076735597
-1.0726273
0.005352213
-1.1459712
0.0034658582
-1.2241188
0.0019845594
-1.3081566
0.00084035047
-1.3980619
0.0095897457
-0.20680695
0.010437749
-0.22098429
0.010896325
-0.23611587
0.011711743
-0.25228309
0.012359068
-0.26955167
0.013370266
-0.28797813
0.014455979
-0.30765461
0.016052457
-0.32869846
0.017881439
-0.3512756
0.020279778
-0.37559745
0.022842552
-0.40193002
0.025607895
-0.43056745
0.028162455
-0.46180993
0.030310212
-0.49593128
0.031659612
-0.53313221
0.032052616
-0.57351878
0.03131348
-0.61708871
0.029527014
-0.6637573
0.026823273
-0.71339682
0.023498816
-0.76590228
0.019847241
-0.82123854
0.016168675
-0.87948526
0.012699547
-0.94082984
0.0095938225
-1.0056195
0.0069419156
-1.074217
0.0047623437
-1.1472677
0.0030309659
-1.2251652
0.0017029507
-1.3090192
0.00070412716
-1.398766
0.0093924773
-0.19329499
0.010249492
-0.20661869
0.010700369
-0.22078833
0.011496032
-0.23590016
0.012104547
-0.25202857
0.013047502
-0.26922891
0.014059979
-0.28758213
0.015585239
-0.3071874
0.017374654
-0.32819167
0.019787971
-0.35078379
0.022459986
-0.37521489
0.025448935
-0.40177106
0.02835321
-0.43075821
0.030972236
-0.46247196
0.032876147
-0.49714782
0.033853625
-0.53493322
0.033656003
-0.57586131
0.032300855
-0.61986255
0.029864006
-0.66679804
0.026624194
-0.7165222
0.022883085
-0.76893813
0.018978502
-0.82404837
0.01519223
-0.88197794
0.011726442
-0.94296246
0.0087141182
-1.0073917
0.0061971291
-1.0756517
0.0041764394
-1.1484132
0.0026066707
-1.2260689
0.0014319971
-1.309747
0.00057411837
-1.3993401
0.0073367356
-0.21222373
0.010079394
-0.19312489
0.010516972
-0.2064353
0.011290742
-0.22058304
0.011858
-0.23565362
0.012730303
-0.25171137
0.013662088
-0.26883102
0.015100888
-0.28709778
0.016829034
-0.30664178
0.019224426
-0.32762813
0.021966667
-0.35029047
0.025136196
-0.37490215
0.028350742
-0.4017686
0.031415571
-0.43120154
0.033871182
-0.46346699
0.035461356
-0.49875555
0.035863844
-0.53714106
0.035022209
-0.57858266
0.03294437
-0.62294291
0.029875673
-0.67004952
0.026112585
-0.7197517
0.022023284
-0.77198291
0.017933173
-0.82678931
0.014098695
-0.88435019
0.010697656
-0.944946
0.0078074361
-1.0090021
0.0054529632
-1.0769283
0.0036020412
-1.1494086
0.0021973651
-1.2268343
0.0011740886
-1.310347
0.00045183302
-1.399792
0.005853758
-0.21216369
0.0081271664
-0.2102715
0.010348881
-0.1929568
0.011098894
-0.20624345
0.011622318
-0.22034736
0.012422396
-0.23534571
0.013268126
-0.25131741
0.014607756
-0.26833788
0.016255948
-0.28652469
0.018603521
-0.30602087
0.02137876
-0.32704022
0.024685396
-0.34983967
0.028167
-0.37471841
0.031644131
-0.40199716
0.034637455
-0.43196782
0.036855975
-0.46486161
0.037906498
-0.5007982
0.037655311
-0.53977416
0.036030363
-0.58166865
0.033227671
-0.62629491
0.029522826
-0.67345976
0.025303577
-0.72303199
0.020935725
-0.77498546
0.016731905
-0.82942252
0.012921434
-0.88657397
0.0096235689
-0.94676213
0.0068960721
-1.0104452
0.0047187797
-1.078045
0.0030456235
-1.1502568
0.0018067228
-1.2274669
0.00093143338
-1.3108266
0.00034472351
-1.4001367
0.0048917133
-0.21145033
0.0067438339
-0.21078036
0.0084448939
-0.20836752
0.010922678
-0.19278059
0.011400257
-0.20602139
0.012127212
-0.22005217
0.012883033
-0.23496062
0.01411342
-0.25082307
0.015665595
-0.26774753
0.017938719
-0.28585989
0.02071212
-0.30535423
0.024113117
-0.32646794
0.027816422
-0.34948909
0.031665894
-0.37474017
0.035172778
-0.40253248
0.038022446
-0.43313429
0.039756659
-0.46671177
0.040164862
-0.50330775
0.039085404
-0.54282921
0.036649611
-0.58509059
0.033094593
-0.62986668
0.028814043
-0.67697022
0.024207585
-0.72630385
0.019644683
-0.77789824
0.015410542
-0.83191163
0.011675905
-0.88862631
0.0085348043
-0.94840086
0.0059883761
-1.0117148
0.0040040484
-1.0790034
0.0025125045
-1.1509626
0.0014375327
-1.227973
0.00070512944
-1.311187
0.00024999142
-1.4003867
0.0043768373
-0.20973666
0.0058841
-0.21059059
0.0070736308
-0.2094091
0.0090640164
-0.20650885
0.01119349
-0.19257382
0.011847763
-0.20574194
0.012511134
-0.21968028
0.013624563
-0.23447176
0.015067203
-0.25022468
0.017242576
-0.26705139
0.019982
-0.28512977
0.023436287
-0.3046774
0.027315195
-0.32596672
0.031492303
-0.3493155
0.03547981
-0.3750472
0.038950956
-0.40346099
0.041391315
-0.43476894
0.042517397
-0.46906431
0.042071644
-0.50629399
0.04010678
-0.54628638
0.036802855
-0.58879885
0.032543138
-0.63359577
0.027751263
-0.6805139
0.022851118
-0.72951029
0.018187877
-0.78067557
0.013990808
-0.83422653
0.010398227
-0.89048973
0.0074396535
-0.94985214
0.0051015874
-1.0128123
0.0033161936
-1.0798071
0.0020068334
-1.1515319
0.0010914806
-1.2283593
0.00049500089
-1.311432
0.00015819349
-1.4005449
0.0041950376
-0.20664327
0.0054797469
-0.2093323
0.0061849017
-0.20970186
0.0077140115
-0.20805909
0.0093528055
-0.20466817
0.011585732
-0.19231179
0.012156015
-0.20538682
0.013147035
-0.21920275
0.014469024
-0.23387358
0.016526735
-0.24950884
0.019202908
-0.2662723
0.022671752
-0.28436523
0.026680656
-0.30404286
0.031137549
-0.32561196
0.035565594
-0.34940129
0.039637015
-0.37573326
0.042792444
-0.40486212
0.044682519
-0.43693407
0.044951276
-0.47194394
0.043561388
-0.5097486
0.040617287
-0.55010081
0.036473292
-0.59272901
0.031563562
-0.63740807
0.026361053
-0.68402384
0.02127279
-0.7325952
0.016593747
-0.78327851
0.012514045
-0.83634235
0.0091013328
-0.89215141
0.0063642408
-0.95111479
0.0042421694
-1.0137383
0.0026614056
-1.0804617
0.0015317157
-1.1519721
0.00076952058
-1.2286339
0.00030092066
-1.3115748
6.7913311e-05
-1.4006128
0.004174107
-0.20191285
0.0054168678
-0.20658039
0.0057090751
-0.20885648
0.0068184998
-0.20880635
0.007995194
-0.20670148
0.0097365799
-0.20281902
0.011819914
-0.19197569
0.012685717
-0.2049255
0.013878318
-0.21861204
0.01580178
-0.23314862
0.018388611
-0.24869454
0.021836026
-0.26543657
0.025930746
-0.28361532
0.030617967
-0.30352328
0.035440926
-0.3254873
0.040081252
-0.34984552
0.043947436
-0.37688825
0.046633879
-0.40681348
0.047687895
-0.43967068
0.046973805
-0.47535636
0.044503067
-0.51363438
0.04058105
-0.55420857
0.035635501
-0.59680095
0.030179427
-0.64122644
0.024681436
-0.68743248
0.019507808
-0.73550926
0.014909335
-0.7856738
0.011000091
-0.83824111
0.0078177332
-0.8936049
0.0053142681
-0.95218689
0.0034221738
-1.014499
0.0020442031
-1.0809742
0.0010892711
-1.1522919
0.00047249587
-1.2288054
0.00012397915
-1.3116308
-1.7181994e-05
-1.4005956
0.0040952649
-0.19567116
0.0055086609
-0.20200465
0.0055349915
-0.20640631
0.0063008222
-0.2083388
0.0070613786
-0.20787254
0.0083485264
-0.20531343
0.0099397559
-0.20093886
0.012244111
-0.19153408
0.013301289
-0.20434847
0.015077134
-0.21788739
0.017551908
-0.23231192
0.020945105
-0.24780362
0.025083654
-0.26458948
0.029951423
-0.28294878
0.035119823
-0.30320218
0.040289009
-0.32569505
0.04484917
-0.35074726
0.048349972
-0.37860435
0.050247717
-0.4093733
0.050303902
-0.44300078
0.048421895
-0.47927519
0.044837504
-0.51789084
0.03995215
-0.55852522
0.034306048
-0.60092757
0.028426028
-0.64497104
0.022753928
-0.6906786
0.017609392
-0.73820932
0.013162725
-0.78783643
0.0094875906
-0.83991096
0.0065564904
-0.89484712
0.0043094613
-0.95307418
0.0026453017
-1.0151001
0.0014679473
-1.0813529
0.00068063585
-1.1525
0.00020103704
-1.2288825
-3.4755095e-05
-1.3116132
-8.5062065e-05
-1.4005105
0.0037444649
-0.18867234
0.0054849119
-0.19564741
0.0054855788
-0.20195523
0.0060407622
-0.20614625
0.0064689744
-0.20774639
0.0073579978
-0.20688201
0.0085003215
-0.20387399
0.01029018
-0.19898493
0.012743185
-0.19097598
0.014361023
-0.20363236
0.016704476
-0.21703996
0.020014144
-0.23138096
0.024157485
-0.24687745
0.029156887
-0.26379494
0.034618884
-0.28244784
0.040269977
-0.30318315
0.045495908
-0.32634179
0.0498146
-0.35221189
0.052600699
-0.38095733
0.053512348
-0.41258175
0.052333116
-0.446912
0.049208962
-0.48364664
0.044492732
-0.52243142
0.038735239
-0.56295441
0.032514539
-0.60501608
0.026350121
-0.64856723
0.020638204
-0.69370742
0.015615135
-0.74066173
0.011399698
-0.78974854
0.0079917877
-0.84134626
0.0053431917
-0.89588085
0.0033523124
-0.95378119
0.0019191936
-1.0155514
0.00093458058
-1.0816068
0.00030636259
-1.1526054
-4.5563444e-05
-1.2288717
-0.00018565512
-1.3115127
-0.00015207099
-1.4003585
0.0029999433
-0.18234501
0.0050603221
-0.18824776
0.0053172385
-0.19547907
0.0058540442
-0.20176851
0.0060915906
-0.20576887
0.0066729484
-0.20706134
0.0074355038
-0.20581719
0.0087563526
-0.20234017
0.010693057
-0.1969348
0.013661169
-0.19027612
0.015856604
-0.20278449
0.019057225
-0.21608304
0.023169784
-0.23039326
0.028253935
-0.2459745
0.033956844
-0.2631329
0.040037646
-0.28221551
0.045891223
-0.30357846
0.051017193
-0.32754438
0.054721321
-0.35433251
0.056561883
-0.38400686
0.056194881
-0.41644351
0.053657729
-0.45136077
0.049230929
-0.48838484
0.043455696
-0.52715187
0.036950271
-0.56739014
0.03031114
-0.6089771
0.024017765
-0.65194679
0.018382534
-0.69647481
0.013579303
-0.74284134
0.0096434727
-0.79140023
0.0065437642
-0.84254683
0.0041824632
-0.896711
0.0024562045
-0.9543182
0.0012445802
-1.0158614
0.0004455527
-1.081746
-3.0901781e-05
-1.15262
-0.00026723584
-1.2287901
-0.00031748267
-1.3113472
-0.00020956057
-1.4001489
-0.17839202
0.0019167727
0.0040755814
-0.18136027
0.004777536
-0.18770805
0.0054953216
-0.19512034
0.0057390189
-0.20141594
0.0061519889
-0.20524791
0.0066471637
-0.206273
0.0075750594
-0.2046359
0.0090455337
-0.20069264
0.011466815
-0.19474045
0.01501878
-0.1894383
0.018086745
-0.20181401
0.022137124
-0.21505038
0.027262102
-0.22940143
0.033153911
-0.24517157
0.039608928
-0.26270418
0.046043636
-0.28236792
0.051953136
-0.30451441
0.056589349
-0.32941241
0.05941833
-0.35718895
0.059965395
-0.38777738
0.058143015
-0.4209288
0.054135311
-0.45626515
0.048450442
-0.49337959
0.04173156
-0.53193316
0.034648036
-0.57172704
0.027767762
-0.6127271
0.021488882
-0.65505314
0.016051275
-0.69894679
0.011534857
-0.74473272
0.007931825
-0.79278829
0.0051527368
-0.84351711
0.0030920942
-0.89734689
0.0016204514
-0.95469407
0.0006256701
-1.0160415
2.662091e-06
-1.0817796
-0.00034169986
-1.1525456
-0.00046637271
-1.2286412
-0.00043331164
-1.3111235
-0.00026237214
-1.3998865
-0.17694027
0.0026238343
-0.17801598
0.00071225163
0.0037268817
-0.18030961
0.0047177642
-0.1869305
0.0051629612
-0.19454429
0.0055893511
-0.20085331
0.0059846302
-0.20458537
0.0066456037
-0.20534355
0.0077348458
-0.20332521
0.0096584859
-0.19888431
0.012657145
-0.19237881
0.017115721
-0.18846728
0.021073982
-0.20075087
0.026200187
-0.21398847
0.032230919
-0.22847843
0.039003312
-0.24456595
0.045966431
-0.26262698
0.052623755
-0.28303854
0.058190612
-0.30611567
0.062051794
-0.33204587
0.063603998
-0.36082756
0.06262199
-0.39225635
0.05916992
-0.42596341
0.0536969
-0.46151161
0.04685149
-0.49849952
0.039367808
-0.53665294
0.0319051
-0.57586437
0.02495666
-0.61619487
0.018839662
-0.65784153
0.013689119
-0.70110105
0.0095278673
-0.74632876
0.0062802188
-0.79391577
0.0038406125
-0.84426563
0.0020725354
-0.89779898
0.00085307467
-0.95492148
6.2256379e-05
-1.0161011
-0.00040153114
-1.0817197
-0.00061686124
-1.1523951
-0.00064328021
-1.2284312
-0.00053535944
-1.3108505
-0.00030714106
-1.3995794
-0.17548379
0.0022704022
-0.17641405
0.0010219043
-0.18132382
-0.00035663537
0.0034048121
-0.17899666
0.0041269094
-0.18589444
0.0047292207
-0.19368416
0.0052290364
-0.20009771
0.0058113534
-0.20375112
0.0066615886
-0.20427029
0.0081753007
-0.20184203
0.010665336
-0.1968925
0.014555207
-0.1898183
0.01999559
-0.18738888
0.025084623
-0.19963531
0.031208202
-0.21296575
0.038241808
-0.22771693
0.04567668
-0.2442762
0.053036468
-0.26303969
0.059517446
-0.28436538
0.06443789
-0.30850176
0.067072741
-0.33551462
0.067050798
-0.36525637
0.064295002
-0.39738144
0.059167159
-0.43143367
0.052297666
-0.46695779
0.044472997
-0.50360471
0.036443543
-0.54119138
0.028806368
-0.57971408
0.021967618
-0.61932283
0.016128825
-0.66028123
0.011352342
-0.70292552
0.007581917
-0.74763046
0.0047155172
-0.79479067
0.0026108142
-0.8448039
0.0011343562
-0.89808026
0.00015182613
-0.95501105
-0.000449351
-1.0160533
-0.00076169483
-1.0815749
-0.00086087417
-1.1521775
-0.00079905018
-1.2281676
-0.00062401273
-1.3105336
-0.00034669582
-1.3992327
-0.1737851
0.0017061153
-0.17487265
0.00072900907
-0.1799394
-0.00036251747
-0.18731748
-0.0011324399
0.002551113
-0.17742086
0.0033489169
-0.18451414
0.0041116123
-0.19256673
0.0048427208
-0.19912908
0.0056679211
-0.20275746
0.0069250444
-0.20302004
0.0089894722
-0.20016616
0.012346083
-0.19468338
0.017219968
-0.18704267
0.023932474
-0.18623674
0.030103418
-0.19853052
0.037345164
-0.21206911
0.045193929
-0.22723418
0.053203742
-0.24444348
0.060569318
-0.26409156
0.066558786
-0.28648627
0.070337948
-0.31176697
0.071386376
-0.33985019
0.069467808
-0.37042917
0.064828308
-0.40304258
0.058052215
-0.43718822
0.049961307
-0.4724461
0.041393318
-0.50855448
0.033056116
-0.54544113
0.025456923
-0.58320339
0.018875878
-0.62206988
0.013425222
-0.66235411
0.0090746917
-0.7044183
0.0057302293
-0.74864517
0.0032452239
-0.79542508
0.0014764395
-0.84514599
0.00027535601
-0.89820379
-0.00048269213
-0.95497771
-0.00090716683
-1.0159078
-0.0010813326
-1.0813544
-0.0010755378
-1.151901
-0.00093486565
-1.2278567
-0.00070075236
-1.3101796
-0.00037986454
-1.3988528
-0.17187542
0.00064143861
-0.17316528
-1.2594463e-06
-0.17867769
-0.00053270294
-0.18637403
-0.001305962
-0.19433397
-0.0016312223
0.0014209106
-0.17549286
0.0024130841
-0.18281561
0.0034575385
-0.19118155
0.004518579
-0.19797974
0.0057562075
-0.20158862
0.0075484303
-0.20157899
0.010442319
-0.1982624
0.014776162
-0.19223958
0.020923751
-0.18403395
0.028934685
-0.185068
0.036331085
-0.19751644
0.044537454
-0.21141263
0.053141494
-0.22717193
0.061351761
-0.24522592
0.068404351
-0.26593713
0.073371961
-0.28952028
0.075588186
-0.31596878
0.074644454
-0.34502684
0.07064301
-0.37624387
0.064091707
-0.40908208
0.055825384
-0.44305229
0.046760709
-0.47781349
0.037721309
-0.51321968
0.029327546
-0.54931175
0.021951175
-0.58627868
0.015765749
-0.62441041
0.010775067
-0.66405449
0.0068976255
-0.70558569
0.0039855998
-0.74938555
0.0018856541
-0.7958343
0.00043639315
-0.84530702
-0.00050167289
-0.89818481
-0.0010525111
-0.95483236
-0.001312933
-1.0156762
-0.0013627333
-1.0810672
-0.0012627672
-1.1515731
-0.0010522384
-1.2275052
-0.00076616259
-1.3097933
-0.00040822051
-1.3984446
-0.1696866
-0.00076790817
-0.17136317
-0.001160671
-0.17736193
-0.0013170208
-0.18557285
-0.0013338872
-0.19381468
-0.0018252533
-0.20083958
-0.0020012214
0.00014798934
-0.17322776
0.0014310177
-0.18078909
0.0029172441
-0.18958021
0.0044333613
-0.19665689
0.0062047086
-0.2002449
0.0087771837
-0.19991386
0.012624034
-0.19611027
0.018221726
-0.18953755
0.025692988
-0.18079225
0.035217879
-0.1839548
0.043722743
-0.19670173
0.052864927
-0.21113606
0.061874393
-0.22769456
0.069971073
-0.24679264
0.076154715
-0.26871988
0.079620775
-0.29355287
0.079781594
-0.32110592
0.076571227
-0.35095506
0.070387571
-0.38253974
0.062052444
-0.41530913
0.052547684
-0.44883927
0.042814257
-0.48290643
0.033597345
-0.51748947
0.025374263
-0.55273484
0.01839219
-0.58890513
0.01269875
-0.62633409
0.0082301476
-0.66538701
0.0048409341
-0.70644103
0.0023682295
-0.74986812
0.00063780031
-0.79603571
-0.0005049278
-0.84530377
-0.0012002276
-0.89803709
-0.0015572996
-0.95458799
-0.0016705305
-1.0153684
-0.0016080352
-1.080722
-0.0014244108
-1.1512009
-0.0011523949
-1.227119
-0.00082139844
-1.3093801
-0.0004314841
-1.3980131
-0.16722895
-0.0023096638
-0.16942091
-0.0027101655
-0.17608219
-0.0024404027
-0.18481306
-0.0020768101
-0.19340774
-0.0017408212
-0.20053945
-0.0021253807
-0.20591769
-0.0024413377
-0.0011938438
-0.1706029
0.00062318721
-0.17849503
0.0026450916
-0.18779194
0.0047324927
-0.19518467
0.0072334979
-0.19870121
0.010710699
-0.19800052
0.015789594
-0.19367814
0.022728293
-0.18657286
0.031749347
-0.17732372
0.042766637
-0.18299869
0.052384034
-0.19622084
0.062144738
-0.21140641
0.071259356
-0.22898285
0.078672489
-0.24931041
0.083455469
-0.27255458
0.084839944
-0.29861122
0.082571786
-0.32710648
0.076907429
-0.35747491
0.068624602
-0.38911189
0.058751425
-0.42151287
0.048343716
-0.45436873
0.038281706
-0.4875908
0.02916296
-0.52127817
0.021321775
-0.55566442
0.01486023
-0.59106661
0.0097394545
-0.6278434
0.0058193641
-0.66636544
0.0029296514
-0.70700245
0.00088221422
-0.75011254
-0.00049221278
-0.79604842
-0.001351826
-0.84515217
-0.0018192194
-0.89777517
-0.0020024368
-0.95425609
-0.0019818305
-1.0149946
-0.001819791
-1.0803266
-0.0015624063
-1.1507909
-0.0012368777
-1.2267035
-0.00086720305
-1.3089444
-0.00045062868
-1.3975625
-0.1644751
-0.0039476929
-0.1673391
-0.004391479
-0.17480311
-0.0039892442
-0.18418099
-0.0030724722
-0.1930829
-0.0024016541
-0.20029312
-0.0019871489
-0.20557707
-0.0024660013
-0.20932809
-0.0031346401
-0.0023122639
-0.16766745
0.00011715927
-0.1759671
0.0028101756
-0.18586963
0.0056040052
-0.19355518
0.0089424948
-0.19693301
0.013585149
-0.19579608
0.020002586
-0.19095243
0.028519651
-0.18334316
0.0391019
-0.17365898
0.051711894
-0.18232655
0.06216246
-0.19623856
0.072264463
-0.21241152
0.080913643
-0.231224
0.087068627
-0.25292357
0.089785345
-0.27749998
0.088607054
-0.30464649
0.083616918
-0.33381597
0.075519643
-0.36436995
0.065364647
-0.39572512
0.054314426
-0.42748358
0.043393057
-0.45948008
0.033332994
-0.49176083
0.024570257
-0.52452665
0.017273035
-0.55807723
0.011435807
-0.59276296
0.0069280882
-0.62895212
0.0035742167
-0.66701001
0.0011716126
-0.70729185
-0.00046377291
-0.75014098
-0.0015095867
-0.79589066
-0.0021022694
-0.84486912
-0.0023649036
-0.89741271
-0.0023894903
-0.95384843
-0.0022507197
-1.0145637
-0.002000397
-1.0798886
-0.001678654
-1.1503491
-0.0013069307
-1.2262638
-0.00090455069
-1.3084905
-0.00046573722
-1.3970968
-0.1614426
-0.0053447652
-0.1650851
-0.0062016874
-0.17352295
-0.0056716413
-0.18363964
-0.0045305929
-0.19289125
-0.003264119
-0.2001182
-0.0025765712
-0.20523413
-0.0023300893
-0.20872626
-0.00306783
-0.21127431
-0.0042189268
-0.0031195026
-0.16443079
0.00011704872
-0.17327397
0.0035635492
-0.18382917
0.0071397233
-0.19175241
0.011536933
-0.19488479
0.017475978
-0.19326947
0.025485608
-0.18791839
0.035628845
-0.17987011
0.047905586
-0.16985268
0.06193299
-0.18209708
0.072969326
-0.19694342
0.082855338
-0.21435321
0.090434086
-0.23458946
0.094586084
-0.25772431
0.094641995
-0.28353492
0.090485355
-0.31151493
0.082713653
-0.34100998
0.072376047
-0.37138135
0.060727278
-0.40213797
0.048940422
-0.43303095
0.037897518
-0.4640446
0.02815151
-0.49534208
0.019949335
-0.52720295
0.013328339
-0.55996976
0.0081730659
-0.59400794
0.0043046909
-0.6296826
0.0015070264
-0.66734542
-0.00042087843
-0.70733474
-0.0016762267
-0.74997434
-0.0024110585
-0.79558187
-0.0027633593
-0.84447067
-0.0028391987
-0.896963
-0.0027238343
-0.95337531
-0.0024796308
-1.0140845
-0.0021524558
-1.0794148
-0.0017750575
-1.149881
-0.0013640065
-1.2258043
-0.00093417864
-1.308022
-0.00047740446
-1.3966194
-0.15807893
-0.0064831763
-0.16262807
-0.0078018002
-0.17220068
-0.0075239597
-0.18317193
-0.0061393549
-0.19279006
-0.0046317793
-0.20002911
-0.0033532098
-0.20492912
-0.0028815829
-0.20808982
-0.0029665224
-0.21026151
-0.0040806351
-0.21213176
-0.0057899953
-0.0033745346
-0.16093921
0.00073183999
-0.17044227
0.0049846776
-0.18167413
0.0094983499
-0.18971383
0.015091307
-0.19250012
0.022600329
-0.19038419
0.032292518
-0.18458206
0.044229626
-0.17619414
0.058079429
-0.16599911
0.073365632
-0.18249339
0.084455537
-0.19854362
0.093503704
-0.21742283
0.099198808
-0.23920219
0.10064035
-0.26372266
0.097481224
-0.29053079
0.090186407
-0.31898768
0.079774505
-0.34840844
0.067579883
-0.37823396
0.054929276
-0.40812682
0.042866717