/*--------------------------------*- C++ -*----------------------------------*\
| =========                 |                                                 |
| \\      /  F ield         | OpenFOAM: The Open Source CFD Toolbox           |
|  \\    /   O peration     | Version:  5.0                                   |
|   \\  /    A nd           | Web:      www.OpenFOAM.org                      |
|    \\/     M anipulation  |                                                 |
\*---------------------------------------------------------------------------*/
FoamFile
{
    version     2.0;
    format      ascii;
    class       volScalarField;
    location    "60";
    object      pMean;
}
// * * * * * * * * * * * * * * * * * * * * * * * * * * * * * * * * * * * * * //

dimensions      [0 2 -2 0 0 0 0];

internalField   nonuniform List<scalar> 
9200
(
-0.00035498739
-0.00034235618
-0.0009008801
-0.00032719009
-0.00086995838
-0.0015325735
-0.00030500039
-0.00082829277
-0.0014836816
-0.0021480072
-0.00027533325
-0.00076978581
-0.0014129838
-0.0020838927
-0.0027966401
-0.00024481527
-0.00069337633
-0.0013152262
-0.0019864138
-0.0027185078
-0.00346263
-0.00020839928
-0.0006116351
-0.001188593
-0.0018533303
-0.0025947947
-0.003373096
-0.004153587
-0.00017182778
-0.00051742011
-0.0010503538
-0.0016806807
-0.0024274084
-0.0032258537
-0.0040549972
-0.0048689486
-0.0001326526
-0.00042042087
-0.00089290707
-0.001490154
-0.0022094109
-0.0030283117
-0.0038867218
-0.0047646204
-0.0056082308
-9.3586029e-05
-0.00031813637
-0.00072878422
-0.0012734962
-0.001966942
-0.0027689861
-0.0036627313
-0.0045791718
-0.0055014568
-0.0063698124
-5.4292562e-05
-0.00021516728
-0.00055647012
-0.0010455671
-0.0016909705
-0.0024784127
-0.0033658868
-0.0043342842
-0.0053030326
-0.0062645668
-0.0071507396
-1.5887726e-05
-0.00011186855
-0.00038226682
-0.00080573687
-0.0013987068
-0.0021460504
-0.0030308992
-0.0040055823
-0.0050432425
-0.0060584601
-0.0070510339
-0.0079466258
2.1400371e-05
-1.0271307e-05
-0.00020774946
-0.00056187951
-0.0010902333
-0.0017912201
-0.0026453167
-0.0036317537
-0.004689289
-0.005791328
-0.0068429996
-0.0078570638
-0.0087528914
5.7239979e-05
8.8535654e-05
-3.6234404e-05
-0.00031670077
-0.00077488307
-0.0014146019
-0.002230183
-0.0031977567
-0.0042833758
-0.0054204584
-0.0065766919
-0.0076536802
-0.0086779567
-0.0095627502
9.1331474e-05
0.00018295586
0.00013041247
-7.4626116e-05
-0.00045663099
-0.0010268944
-0.0017865756
-0.0027259992
-0.0038072659
-0.0049911705
-0.0061983251
-0.0073976707
-0.0084860423
-0.0095074122
-0.010370983
0.00012348056
0.00027233839
0.00029042852
0.00016135141
-0.00014105899
-0.00063330234
-0.00132643
-0.0022175617
-0.0032841731
-0.0044812434
-0.0057557745
-0.0070228828
-0.0082502472
-0.0093345023
-0.01033988
-0.011169495
0.00015369984
0.00035625115
0.00044260435
0.00038853361
0.00016787036
-0.00024072887
-0.00085608628
-0.0016853564
-0.0027148004
-0.0039141149
-0.0052221894
-0.0065792525
-0.0078910535
-0.0091297279
-0.010193244
-0.011167365
-0.011953391
0.00018199344
0.00043410479
0.00058597083
0.00060497888
0.00046659358
0.0001456214
-0.00038367631
-0.0011367774
-0.0021126962
-0.0032895721
-0.0046205315
-0.0060345703
-0.007459862
-0.008799382
-0.010030219
-0.011054587
-0.011984276
-0.012714043
0.00020818719
0.00050589964
0.00072009997
0.00080925008
0.00075238758
0.00052106013
8.4336171e-05
-0.00058125039
-0.0014861203
-0.0026213917
-0.0039491103
-0.0054105529
-0.0069185336
-0.0083959028
-0.0097424117
-0.01094453
-0.011912247
-0.012781836
-0.013447669
0.00023229115
0.00057217201
0.00084468845
0.0010003946
0.0010232334
0.00088191636
0.00054206034
-2.6660653e-05
-0.00084567059
-0.0019184116
-0.003221358
-0.0047033448
-0.0062867775
-0.0078747009
-0.0093828063
-0.010713555
-0.011865546
-0.012757351
-0.013555711
-0.014146308
0.00025452362
0.00063328381
0.00095960159
0.0011780005
0.0012777827
0.0012253433
0.00098465437
0.00051965623
-0.0002006373
-0.0011922446
-0.0024462329
-0.0039253762
-0.0055578785
-0.007252701
-0.0088999992
-0.010415016
-0.011705295
-0.012784291
-0.013584396
-0.014297176
-0.014805993
0.00027506221
0.0006892309
0.0010649549
0.0013420887
0.001515212
0.001549278
0.0014082304
0.0010514742
0.00044013105
-0.00045357421
-0.0016360443
-0.0030851715
-0.004742498
-0.0065195625
-0.0083074711
-0.0099905449
-0.011485084
-0.012708623
-0.013693454
-0.014383948
-0.015001927
-0.015421433
0.0002940629
0.00074022598
0.0011611575
0.0014929149
0.0017351478
0.0018524331
0.0018098799
0.0015636416
0.0010688309
0.00028712451
-0.00080267375
-0.0021953004
-0.0038480039
-0.0056833552
-0.0075905718
-0.0094496066
-0.011139532
-0.012584
-0.013714719
-0.014583061
-0.015151198
-0.015663666
-0.015989178
0.00031175631
0.00078660833
0.0012486595
0.0016308349
0.0019376368
0.0021341847
0.0021875865
0.0020521258
0.0016787881
0.0010203135
4.1861523e-05
-0.0012685268
-0.0028865919
-0.0047494833
-0.0067539356
-0.0087726268
-0.010673707
-0.012338469
-0.013701939
-0.014712953
-0.015446857
-0.015878159
-0.016278501
-0.016506133
0.00032841449
0.00082861847
0.0013279489
0.001756401
0.0021230943
0.0023944407
0.0025401313
0.0025139762
0.0022645591
0.0017375602
0.00088619953
-0.0003182734
-0.001871402
-0.0037289837
-0.0058000954
-0.0079599835
-0.010062692
-0.011972556
-0.013576983
-0.014827403
-0.015694532
-0.01627494
-0.016560309
-0.01684257
-0.016970311
0.00034433019
0.00086646527
0.0013996346
0.0018702917
0.0022921621
0.0026334944
0.0028670003
0.0029472165
0.002821927
0.0024317186
0.0017199434
0.00064229006
-0.00081688849
-0.0026346951
-0.0047380105
-0.0070104346
-0.0093019197
-0.011455764
-0.013335862
-0.014842723
-0.015949257
-0.016648238
-0.017061723
-0.017192279
-0.017353288
-0.017380621
0.0003598036
0.00090037884
0.0014643538
0.0019731972
0.0024456343
0.0028519894
0.0031682659
0.003350758
0.0033478505
0.0030970088
0.0025339563
0.0016006877
0.00026215951
-0.0014815688
-0.0035793454
-0.0059298489
-0.0083855033
-0.010778036
-0.01294252
-0.014750922
-0.01612269
-0.017054822
-0.017566527
-0.017799505
-0.017770525
-0.017808891
-0.017736692
0.0003749901
0.00093064694
0.0015227377
0.0020658235
0.0025844434
0.0030508121
0.0034444707
0.0037242462
0.0038403735
0.003728998
0.0033205285
0.0025455624
0.0013512081
-0.00028563029
-0.0023387564
-0.0047276842
-0.007315182
-0.0099281065
-0.012381141
-0.014510715
-0.016203222
-0.017402177
-0.018133195
-0.018439001
-0.018483652
-0.018292113
-0.018208451
-0.01803832
0.00038990744
0.00095759432
0.0015753516
0.0021489483
0.0027095971
0.0032310343
0.0036965029
0.0040679681
0.0042984815
0.0043245548
0.0040734496
0.003466965
0.002436545
0.0009367353
-0.0010328663
-0.0034173137
-0.0060970744
-0.0089026109
-0.011634572
-0.014100518
-0.0161449
-0.017676002
-0.01866714
-0.019171905
-0.01925946
-0.019109206
-0.018755153
-0.018551693
-0.018285567
0.00040481724
0.00098154007
0.0016227394
0.0022233554
0.0028221672
0.0033938066
0.0039255404
0.0043826836
0.0047219928
0.0048817039
0.0047880084
0.0043565257
0.0035057056
0.0021694882
0.00032054351
-0.002015075
-0.0047420988
-0.0077031872
-0.010693547
-0.013497071
-0.015920704
-0.017826644
-0.019152186
-0.019902414
-0.020161682
-0.020020013
-0.019672982
-0.019158622
-0.018839055
-0.018480352
0.00041993126
0.0010028086
0.0016653236
0.0022898539
0.0029231589
0.0035403884
0.004132882
0.0046695505
0.0051113678
0.0053995284
0.0054608808
0.0052075402
0.0045477861
0.0033975091
0.0017033573
-0.00053942009
-0.0032651767
-0.0063370314
-0.0095541733
-0.012684651
-0.01550139
-0.017822295
-0.019535943
-0.020613232
-0.021094779
-0.021091736
-0.020716093
-0.020172593
-0.019502405
-0.019072003
-0.018627695
0.00043899934
0.0010194002
0.0017037928
0.0023490837
0.0030136166
0.0036720179
0.004320003
0.0049299542
0.0054676444
0.0058779337
0.0060900556
0.0060149072
0.0055536376
0.0046070731
0.003097844
0.00098999143
-0.0016844015
-0.0048163297
-0.0082186511
-0.011652987
-0.014864588
-0.01762822
-0.019782744
-0.021250652
-0.022041795
-0.022230496
-0.021955293
-0.021342985
-0.020606829
-0.019787216
-0.019252947
-0.018731798
0.00046329126
0.0010325598
0.0017348469
0.0024021401
0.0030943332
0.0037900598
0.0044883332
0.0051655683
0.0057921825
0.0063176001
0.0066745939
0.0067751083
0.0065158929
0.0057861817
0.0044873122
0.00255313
-2.0114763e-05
-0.0031575223
-0.0066950096
-0.010398146
-0.01399314
-0.017215609
-0.019853216
-0.021776362
-0.022948929
-0.023420113
-0.023298813
-0.022744444
-0.021898199
-0.020975414
-0.020014421
-0.01938408
-0.018791058
0.00049400275
0.0010431647
0.0017611201
0.0024437199
0.0031667681
0.0038955004
0.004639533
0.0053780067
0.0060867301
0.0067196761
0.0072145885
0.0074859489
0.0074290218
0.0069247112
0.0058565961
0.0041304289
0.0017060024
-0.0013804411
-0.0049965383
-0.0089226219
-0.01287612
-0.016560311
-0.019712746
-0.022147534
-0.023776517
-0.02460815
-0.02473287
-0.024288885
-0.023455136
-0.022379911
-0.021278948
-0.020185838
-0.019466254
-0.018799325
0.00053097949
0.0010508111
0.0017858695
0.0024771939
0.0032228245
0.003990394
0.0047747175
0.0055692867
0.0063529575
0.0070859386
0.0077107732
0.0081465716
0.0082890886
0.0080145821
0.0071923661
0.0057034288
0.0034719175
0.00049260093
-0.0031410757
-0.0072349892
-0.0115093
-0.015643939
-0.019330565
-0.022324785
-0.024479702
-0.025755106
-0.026207725
-0.025965284
-0.025193435
-0.024082926
-0.022787796
-0.021518758
-0.020303671
-0.019499989
-0.01875785
0.00057387666
0.001055874
0.0018093033
0.0025081114
0.0032671786
0.0040632168
0.0048965531
0.0057406154
0.0065932106
0.0074181068
0.008164773
0.0087569811
0.0090938335
0.0090495509
0.0084834423
0.0072552787
0.0052560289
0.0024379047
-0.0011501772
-0.0053494265
-0.0098950642
-0.014454711
-0.018680862
-0.02227157
-0.025015703
-0.026815681
-0.027685379
-0.027727685
-0.027105799
-0.026005375
-0.024626469
-0.023122371
-0.021696854
-0.020370531
-0.019488036
-0.018678551
0.00062276643
0.0010587079
0.001831824
0.0025363287
0.0033083147
0.0041203005
0.0049888132
0.0058955252
0.0068086953
0.0077188955
0.0085781308
0.0093183699
0.0098420877
0.010025406
0.00972066
0.0087712243
0.0070378804
0.004431259
0.00095201512
-0.0032850471
-0.0080422315
-0.012987626
-0.017743967
-0.021955231
-0.025343493
-0.027745328
-0.029121719
-0.029541037
-0.029151323
-0.028144027
-0.026721192
-0.02508461
-0.023385257
-0.021815906
-0.020389332
-0.01943542
-0.018572249
0.00067706881
0.0010593723
0.0018534565
0.0025609847
0.0033466559
0.0041739924
0.0050598084
0.0060118642
0.0070040209
0.0079893437
0.0089538405
0.0098318605
0.010534314
0.010939291
0.010897229
0.010238584
0.0087988338
0.0064488693
0.0031396616
-0.0010648207
-0.0059656275
-0.011244623
-0.016506756
-0.02134845
-0.025424663
-0.028500158
-0.030472183
-0.031364025
-0.031298997
-0.030463594
-0.029073027
-0.0273377
-0.025458451
-0.023578781
-0.021879193
-0.0203633
-0.019346214
-0.018444313
0.0007307467
0.0010586918
0.0018733662
0.0025815078
0.0033823504
0.0042247976
0.0051263199
0.0061004173
0.0071494014
0.0082355041
0.0092925271
0.010300722
0.011170933
0.011790481
0.012007953
0.011647324
0.010522197
0.0084682001
0.0053863517
0.001285232
-0.0036851524
-0.0092344477
-0.014963161
-0.020429842
-0.025225103
-0.029037567
-0.031691885
-0.033153849
-0.033511747
-0.032938188
-0.031653278
-0.02988729
-0.027854839
-0.025749459
-0.023705971
-0.021890382
-0.02029642
-0.019224099
-0.018296815
0.00076821606
0.0010574317
0.0018902064
0.0025978812
0.0034151617
0.0042715324
0.0051889581
0.006183666
0.0072587671
0.0084180046
0.0096021139
0.010724854
0.011755327
0.012578191
0.013050347
0.012989179
0.012194063
0.010468289
0.0076660593
0.0037373265
-0.0012251617
-0.0069719512
-0.01311435
-0.019184788
-0.024715693
-0.029318051
-0.032735904
-0.034866573
-0.035750211
-0.035536252
-0.034441832
-0.032711324
-0.03058448
-0.028272924
-0.025960716
-0.023770294
-0.021853057
-0.02019257
-0.019072936
-0.018127745
0.0010559982
0.00076766738
0.0019021965
0.0026102392
0.0034438547
0.0043126557
0.0052469826
0.0062626212
0.0073615581
0.0085546387
0.0098312689
0.011114644
0.012286138
0.013305683
0.014021815
0.014259235
0.01380235
0.012430882
0.0099536693
0.0062628772
0.0013869248
-0.004477746
-0.010968312
-0.017605906
-0.023873419
-0.029305941
-0.033561195
-0.036457022
-0.037973305
-0.038223354
-0.037413634
-0.035796045
-0.033632427
-0.03116364
-0.028594687
-0.026095583
-0.023775874
-0.021770979
-0.020055236
-0.018896395
-0.017936589
0.0019082218
0.0010543986
0.00072901657
0.0026183725
0.0034669106
0.004347178
0.0052995319
0.0063359194
0.0074592225
0.0086830583
0.010002752
0.011404034
0.012776878
0.013969685
0.014925192
0.015452315
0.015338972
0.014339409
0.012226414
0.0088332624
0.0041214432
-0.0017767781
-0.0085398569
-0.015692969
-0.022682099
-0.028970713
-0.034127269
-0.037880742
-0.040137696
-0.040963007
-0.040540404
-0.039123631
-0.036991454
-0.034413445
-0.031626376
-0.028823168
-0.026158577
-0.023727042
-0.021648075
-0.019887662
-0.018697169
-0.017726362
0.0026223809
0.0019072011
0.0010527992
0.00067476569
0.0034828666
0.0043746863
0.00534513
0.0064017391
0.0075501576
0.0088053876
0.010163858
0.011622018
0.013143626
0.014587782
0.015754436
0.016570409
0.016795269
0.016181888
0.014462797
0.011421502
0.0069475249
0.001102168
-0.005849221
-0.013453259
-0.021132615
-0.028287923
-0.034397652
-0.039094552
-0.042199754
-0.043715685
-0.043791738
-0.042672885
-0.040651388
-0.038021728
-0.035054416
-0.031975427
-0.028963169
-0.026154164
-0.023628252
-0.021488286
-0.019693161
-0.018477357
-0.017499851
0.0034914655
0.002621335
0.0018992566
0.0010517083
0.00062039747
0.0043941859
0.0053820523
0.0064581038
0.0076324166
0.008919392
0.010317737
0.011826545
0.013423415
0.015054748
0.016532258
0.017603496
0.018171883
0.017945192
0.016646364
0.014001156
0.0098348721
0.0041278479
-0.0029220743
-0.010900277
-0.019223614
-0.027239723
-0.03434094
-0.040058084
-0.044115942
-0.046440764
-0.047133652
-0.046420648
-0.044598712
-0.041986124
-0.038884557
-0.035557218
-0.032215445
-0.029019594
-0.026087534
-0.023483907
-0.021295471
-0.019475224
-0.018239994
-0.01725953
0.0044053647
0.0034915253
0.0026152674
0.0018857795
0.0010510359
0.000571718
0.0054084848
0.0065035208
0.007703512
0.0090223091
0.010461501
0.012022224
0.013685534
0.015417928
0.017128581
0.018580749
0.019453335
0.019628073
0.018758588
0.016551048
0.012752685
0.0072681624
0.00021229997
-0.0080543831
-0.016960382
-0.025815848
-0.033931555
-0.040734901
-0.045844362
-0.049096684
-0.050530493
-0.050339887
-0.048818325
-0.046301082
-0.043122133
-0.039580316
-0.035926195
-0.032351822
-0.028998352
-0.025963716
-0.023298441
-0.021073386
-0.019236775
-0.017987852
-0.01700752
0.0054242148
0.0044062427
0.0034828985
0.0026054273
0.0018680518
0.0010498765
0.0005287345
0.0065362965
0.0077610383
0.0091109711
0.010591495
0.012205229
0.013936739
0.015757494
0.017604183
0.019343965
0.020676881
0.021207763
0.020795823
0.019046557
0.015675323
0.010489247
0.0035220228
-0.0049404126
-0.014356182
-0.024012715
-0.03315096
-0.041093418
-0.04734587
-0.051642469
-0.053944852
-0.054401563
-0.053291164
-0.050960004
-0.047769538
-0.04405745
-0.040112604
-0.036166978
-0.032391065
-0.028905215
-0.025788009
-0.023076343
-0.020825714
-0.018980616
-0.017723277
-0.01674585
0.006556318
0.0054268193
0.0043964798
0.0034667129
0.0025922642
0.0018475639
0.00104812
0.00049131392
0.0078026588
0.0091824779
0.010703451
0.012370507
0.014172171
0.01608315
0.018047989
0.019971547
0.021653844
0.022731603
0.022725927
0.021481314
0.018571867
0.01376189
0.0069721804
-0.0015877938
-0.011429178
-0.021835394
-0.031987006
-0.041108287
-0.048585098
-0.054038762
-0.057339012
-0.058574288
-0.057996055
-0.055952431
-0.052828787
-0.048998677
-0.044794339
-0.040487049
-0.036286716
-0.032339927
-0.02874644
-0.025565708
-0.022822204
-0.020556077
-0.018709179
-0.017448235
-0.016476393
0.0078283296
0.0065604846
0.0054155431
0.0043780363
0.0034436897
0.0025760618
0.0018254891
0.0010450354
0.00046048739
0.009234112
0.010793283
0.012512433
0.014384791
0.016388754
0.018473779
0.020556128
0.022485986
0.023980006
0.024608738
0.023811593
0.021433238
0.017049387
0.010531519
0.0019700714
-0.0082043305
-0.019293822
-0.030436404
-0.040760011
-0.049531957
-0.056248886
-0.060675852
-0.062825672
-0.062909102
-0.061265864
-0.058298263
-0.054414429
-0.049988591
-0.045338001
-0.040711345
-0.036293124
-0.032205697
-0.028528442
-0.025302582
-0.022540192
-0.020267205
-0.018424465
-0.017164723
-0.016201022
0.0092658505
0.0078344391
0.006547855
0.0053922033
0.0043516079
0.0034152493
0.0025565028
0.0018028593
0.0010387462
0.00043627123
0.010857469
0.01262552
0.014566767
0.016664421
0.018874192
0.021116715
0.023260248
0.025085963
0.026196925
0.026112613
0.024202115
0.020340413
0.014158964
0.0057018358
-0.0047107775
-0.016407025
-0.028500316
-0.040037729
-0.050161479
-0.0582404
-0.063919877
-0.067123045
-0.068004916
-0.06688491
-0.06417453
-0.060311815
-0.055713768
-0.050743509
-0.045696471
-0.040794198
-0.036194721
-0.031996152
-0.028258265
-0.025003697
-0.022233337
-0.019961131
-0.018128955
-0.016875367
-0.015921359
0.010896249
0.009273541
0.0078196761
0.0065204478
0.0053571839
0.0043180821
0.0033828791
0.0025331279
0.0017797038
0.0010292302
0.00041722734
0.012705116
0.014710354
0.016899526
0.019235297
0.021644833
0.02400219
0.026114764
0.027665458
0.028118415
0.026972361
0.023562703
0.017841861
0.0095643857
-0.00097807836
-0.013197274
-0.026191229
-0.038934452
-0.050456751
-0.059985103
-0.067038766
-0.071434419
-0.073257132
-0.072792391
-0.07045125
-0.066696472
-0.06198529
-0.056729292
-0.051271478
-0.0458794
-0.040745469
-0.036000875
-0.031719863
-0.027942085
-0.024672543
-0.021903746
-0.019641141
-0.017826728
-0.016582744
-0.015638393
0.012751788
0.010905276
0.0092557238
0.0077856949
0.0064782304
0.005312787
0.0042777854
0.0033478225
0.0025061507
0.0017554111
0.0010171296
0.00040214712
0.014809344
0.017083417
0.01954225
0.022120829
0.02470284
0.02709956
0.029032871
0.030060645
0.029477897
0.026832111
0.021492954
0.013544897
0.002951631
-0.0096910308
-0.023522545
-0.037456527
-0.050404174
-0.061461967
-0.070003407
-0.075729949
-0.078639281
-0.078969647
-0.07712016
-0.073571214
-0.068817513
-0.06331843
-0.057468582
-0.051582982
-0.045898113
-0.04057639
-0.035722024
-0.031384585
-0.027583914
-0.024311343
-0.021555869
-0.019313736
-0.017521456
-0.016286429
-0.015338352
0.014865072
0.012761279
0.010882964
0.0092138776
0.0077324174
0.0064233874
0.0052611928
0.0042318579
0.0033102451
0.0024763217
0.0017297958
0.0010013434
0.00038734838
0.017207437
0.019780191
0.022524198
0.025334597
0.02803189
0.030340304
0.031873562
0.032026682
0.029914328
0.025252713
0.01754307
0.0070662512
-0.0059259796
-0.020517426
-0.035607712
-0.050004985
-0.062652806
-0.072790787
-0.079981864
-0.084126089
-0.085397319
-0.084171201
-0.080936912
-0.076222086
-0.070533315
-0.064317688
-0.057942728
-0.051690876
-0.045765928
-0.04029963
-0.035367689
-0.030994875
-0.027186187
-0.023926111
-0.021199365
-0.018984223
-0.017210214
-0.015964094
-0.015016667
0.017273886
0.014874111
0.012732031
0.010830323
0.0091475355
0.0076633826
0.0063582183
0.0052039532
0.0041819442
0.0032699653
0.0024438138
0.0016994529
0.00098071699
0.00037260247
0.01993671
0.022834667
0.025868567
0.028873278
0.031581576
0.03360519
0.034415763
0.033218322
0.028968487
0.021724586
0.011257226
-0.0019131988
-0.017205264
-0.033409623
-0.049253823
-0.06355486
-0.075380227
-0.084167333
-0.089693219
-0.092056407
-0.091593197
-0.088792444
-0.084208804
-0.078393835
-0.071848382
-0.064994439
-0.058166134
-0.051610798
-0.045498099
-0.039926751
-0.034943173
-0.030553552
-0.026757085
-0.023530604
-0.020841465
-0.01864503
-0.01685818
-0.015619657
-0.01468157
0.020016017
0.017281159
0.014835096
0.01266453
0.010746383
0.0090608485
0.0075819262
0.0062852854
0.0051419262
0.0041291341
0.0032265176
0.0024029592
0.0016617454
0.00095730054
0.00035764567
0.023034407
0.026276883
0.029583015
0.032703898
0.035253677
0.036696926
0.036333502
0.033178447
0.026091354
0.015713471
0.002238972
-0.013596415
-0.030879822
-0.048174085
-0.064155247
-0.077765978
-0.088265169
-0.095320171
-0.098927851
-0.099374624
-0.097135315
-0.092785293
-0.086918081
-0.080087917
-0.072773907
-0.065364588
-0.058157001
-0.051360999
-0.045108593
-0.039464018
-0.034451934
-0.030071433
-0.026315393
-0.023134201
-0.020468577
-0.01823909
-0.016485075
-0.015260437
-0.014333597
0.023131481
0.02001998
0.017228066
0.014747683
0.012557203
0.010636393
0.0089581125
0.0074910543
0.0062066056
0.0050759354
0.004072825
0.0031711926
0.0023505107
0.0016199491
0.00093081587
0.00034243105
0.026534449
0.030123281
0.033649677
0.036747592
0.038874959
0.039310081
0.037177811
0.031340692
0.020690303
0.0067348916
-0.0097867215
-0.028030162
-0.046767549
-0.064482117
-0.079929973
-0.092267669
-0.1009871
-0.10599551
-0.10750317
-0.10596213
-0.10195776
-0.096121943
-0.089061784
-0.081314729
-0.073327188
-0.065449124
-0.057937012
-0.050958258
-0.044605019
-0.038915728
-0.033908002
-0.029573461
-0.025872973
-0.022715738
-0.019994747
-0.017811203
-0.016094844
-0.014887748
-0.01397295
0.026654271
0.023130352
0.019947788
0.017113215
0.014609087
0.012416637
0.010506077
0.008843429
0.0073930539
0.0061235859
0.0050053515
0.004000522
0.0030994178
0.0022918063
0.0015733653
0.00090094968
0.00032679593
0.030459139
0.034367298
0.038005944
0.040854931
0.042161708
0.041007176
0.036376152
0.027063225
0.012203583
-0.0055694593
-0.024930369
-0.045053156
-0.064515339
-0.08190553
-0.096154169
-0.10668562
-0.1132426
-0.11596868
-0.11526831
-0.11173099
-0.10601965
-0.098793207
-0.090648706
-0.082092735
-0.0735322
-0.065273617
-0.057526218
-0.050411752
-0.043992613
-0.038299946
-0.033343695
-0.029074373
-0.025399155
-0.022151733
-0.019497751
-0.017363449
-0.015691352
-0.014501562
-0.013600162
0.030609389
0.02664621
0.023031812
0.019796171
0.016932362
0.014427568
0.012250126
0.010360843
0.0087200577
0.0072897427
0.0060350748
0.0049133252
0.0039059626
0.0030193114
0.0022258027
0.0015215386
0.00086740801
0.00031042745
0.034808504
0.038958653
0.042523456
0.044764748
0.044688312
0.04121576
0.03324699
0.019695891
0.00019591121
-0.021388605
-0.043063325
-0.064290113
-0.083645013
-0.099961744
-0.11239504
-0.12066166
-0.12475884
-0.12505073
-0.12210854
-0.1166239
-0.10930357
-0.10080523
-0.091698191
-0.082449126
-0.073418896
-0.064861896
-0.0569356
-0.049728008
-0.043294378
-0.037657707
-0.032777206
-0.028531882
-0.024723243
-0.021562812
-0.018977127
-0.01690373
-0.015273694
-0.014102765
-0.013215569
0.034999542
0.030593114
0.026512897
0.022830259
0.019558475
0.016696176
0.014212687
0.012064653
0.010205019
0.0085904508
0.0071795736
0.0059186693
0.0047914759
0.0038007963
0.0029294004
0.002151865
0.0014638824
0.00082988497
0.00029303452
0.039539686
0.04378454
0.046962602
0.048063953
0.045881053
0.039226814
0.02705695
0.008691994
-0.015614936
-0.040638595
-0.063787009
-0.085209142
-0.10361238
-0.11815422
-0.12823499
-0.1338695
-0.13530267
-0.13309469
-0.12794595
-0.12061244
-0.11181161
-0.10217784
-0.092240831
-0.082418798
-0.07301545
-0.064227057
-0.056173355
-0.048935967
-0.042561763
-0.037011095
-0.032152021
-0.027717424
-0.024020057
-0.020945192
-0.01844646
-0.016429619
-0.014843119
-0.013691625
-0.012819785
0.039786089
0.034973759
0.030414191
0.026244766
0.022515881
0.019248539
0.016416942
0.013973743
0.011866096
0.010041756
0.0084522873
0.0070335136
0.0057633075
0.004656257
0.0036829616
0.0028288741
0.0020691895
0.0013998128
0.00078812402
0.00027433911
0.044550405
0.048625517
0.05092488
0.05017603
0.045012754
0.034242028
0.017139079
-0.006344922
-0.035210944
-0.062875085
-0.086505092
-0.10719705
-0.12385699
-0.13600123
-0.143289
-0.14602602
-0.14468923
-0.13999726
-0.13273801
-0.123693
-0.11356348
-0.1029452
-0.092317068
-0.082034914
-0.072337451
-0.063379364
-0.055275571
-0.048099403
-0.041821207
-0.036286613
-0.031168629
-0.026873382
-0.023281869
-0.020320428
-0.017901546
-0.015943014
-0.01439996
-0.013269047
-0.012413253
0.04487675
0.039749983
0.034736348
0.030057063
0.025827435
0.022106971
0.018882532
0.016106755
0.013718708
0.0116585
0.0098676887
0.0082686918
0.0068370439
0.0055915289
0.0045049413
0.0035514814
0.0027166704
0.0019770026
0.0013287048
0.00074193335
0.00025409967
0.049643232
0.053100825
0.053832907
0.050365125
0.041242083
0.025489065
0.002998951
-0.02550331
-0.05812355
-0.087419628
-0.11052019
-0.12962336
-0.14383245
-0.15305393
-0.15721628
-0.15690187
-0.15278501
-0.1456981
-0.13647314
-0.12588442
-0.11459713
-0.10315403
-0.091965859
-0.081316002
-0.07139764
-0.062363419
-0.054320548
-0.047249547
-0.040978811
-0.035099188
-0.030153202
-0.02598617
-0.02254071
-0.01968233
-0.017344903
-0.015444111
-0.013945316
-0.012835517
-0.011996543
0.050096526
0.044828413
0.039438364
0.034261562
0.029501886
0.02528515
0.021624564
0.018476664
0.015776455
0.013452562
0.011436996
0.0096368333
0.0080208865
0.0066205167
0.0053996851
0.0043364202
0.0034049982
0.0025917743
0.0018745061
0.0012499372
0.00069109505
0.00023213638
0.054443082
0.056631518
0.054949435
0.047766798
0.033717915
0.012371023
-0.01553732
-0.048366268
-0.083641444
-0.11347719
-0.13513281
-0.15186785
-0.16302712
-0.16890678
-0.16973435
-0.16632656
-0.15950673
-0.15017473
-0.13916817
-0.12722851
-0.11496638
-0.10285003
-0.091209265
-0.080277799
-0.070250719
-0.061274581
-0.05334477
-0.04626816
-0.039546604
-0.033877755
-0.029084566
-0.025101839
-0.02178768
-0.019033784
-0.01677682
-0.014934086
-0.013479834
-0.012391962
-0.011570063
0.055063922
0.050037549
0.044417931
0.038810727
0.033522636
0.028781
0.024645801
0.021090296
0.018045703
0.015432107
0.01316831
0.011145546
0.0093249747
0.0077489864
0.0063791307
0.0051866026
0.0041490246
0.0032422753
0.0024531347
0.0017609351
0.0011629136
0.00063528173
0.00020825573
0.058366873
0.058483229
0.053408658
0.041471759
0.02174348
-0.005375349
-0.038129222
-0.074210717
-0.11090259
-0.14029581
-0.15964973
-0.17335192
-0.18096917
-0.18321847
-0.18062881
-0.1741888
-0.16481778
-0.15344055
-0.14086864
-0.127787
-0.1147248
-0.10205952
-0.090066562
-0.078986776
-0.069011995
-0.060155096
-0.052200933
-0.044544619
-0.038079164
-0.032590494
-0.028026857
-0.024207707
-0.021026257
-0.018375009
-0.016198501
-0.01441381
-0.013004459
-0.011938618
-0.01113479
0.05919713
0.054991845
0.049482607
0.043595161
0.037830015
0.032563347
0.02793125
0.02393895
0.020524378
0.017596656
0.015063838
0.012799239
0.010753209
0.0089843361
0.0074466546
0.0061117319
0.004950274
0.0039413182
0.0030620311
0.002299777
0.0016355715
0.0010671371
0.00057426165
0.00018224669
0.060694024
0.057810105
0.048264948
0.030700227
0.0049526269
-0.027473383
-0.064019583
-0.1021902
-0.13916755
-0.16712281
-0.18343313
-0.19353731
-0.19725502
-0.19572859
-0.18975635
-0.18043285
-0.16872579
-0.15554474
-0.14164536
-0.12762284
-0.11390403
-0.10080604
-0.088617858
-0.077581405
-0.067730051
-0.058823044
-0.050132797
-0.042786134
-0.036530386
-0.031324902
-0.026962321
-0.023308077
-0.02025642
-0.017707358
-0.015610977
-0.013884097
-0.012518986
-0.011476474
-0.010691235
0.061766648
0.059118089
0.054260082
0.048402896
0.042299755
0.036556766
0.031432831
0.026993346
0.023192243
0.019934577
0.017115727
0.014594679
0.012305887
0.010326986
0.0086066202
0.0071129264
0.0058159779
0.0046890937
0.0037118355
0.0028630907
0.0021307721
0.0014977637
0.00096214075
0.0005080149
0.00015409281
0.060612341
0.053652252
0.038683202
0.014998751
-0.016434025
-0.053132137
-0.092365103
-0.13148989
-0.16765368
-0.1932761
-0.20587854
-0.21195532
-0.21156895
-0.20625893
-0.19703668
-0.18505741
-0.17128273
-0.15656805
-0.14157231
-0.12677426
-0.11253267
-0.099185451
-0.087028526
-0.076117468
-0.066181996
-0.056350237
-0.04803229
-0.040927072
-0.035017481
-0.030056465
-0.025896336
-0.022402507
-0.019479675
-0.017031955
-0.015014793
-0.013344084
-0.012025352
-0.011006387
-0.010240091
0.061999169
0.061720513
0.058184073
0.052852741
0.046699809
0.040616323
0.035056129
0.03018771
0.026005118
0.022413574
0.019302093
0.016517699
0.013974463
0.011773053
0.0098560277
0.0081913034
0.0067450932
0.0054902033
0.0044013946
0.0034592924
0.0026443842
0.0019453106
0.0013469944
0.00084751239
0.00043624416
0.00012397274
0.057163604
0.045152211
0.024149484
-0.0054704112
-0.041625195
-0.081466763
-0.12226936
-0.16131121
-0.1956624
-0.21810547
-0.22645369
-0.22821573
-0.22367161
-0.21469209
-0.20245454
-0.18811562
-0.17257997
-0.15659736
-0.14069603
-0.12527617
-0.11072467
-0.097394098
-0.085362611
-0.074324012
-0.063237263
-0.053850934
-0.045807573
-0.039122348
-0.033507063
-0.028791992
-0.024827808
-0.021492608
-0.018697164
-0.016348882
-0.014408224
-0.012796416
-0.011524508
-0.010529432
-0.0097819563
0.058946402
0.061987874
0.060562916
0.056380759
0.050636663
0.044487498
0.03863269
0.033406712
0.028879295
0.024973667
0.021577874
0.018538211
0.015738765
0.013309036
0.011186709
0.0093405536
0.0077354001
0.0063414477
0.0051326705
0.0040857975
0.0031825192
0.0024050384
0.0017427456
0.0011829182
0.00072311193
0.00035841278
9.1905081e-05
0.04949116
0.031756331
0.0047599746
-0.029925989
-0.069704768
-0.1116166
-0.15295492
-0.19096652
-0.22252237
-0.24104861
-0.24471735
-0.2420056
-0.23338885
-0.22098743
-0.206063
-0.18971051
-0.17271958
-0.15568967
-0.13905925
-0.12326308
-0.10871195
-0.095505762
-0.083293007
-0.070833073
-0.060276329
-0.051198417
-0.04366093
-0.037327007
-0.032007756
-0.027529445
-0.023758365
-0.020579469
-0.017908527
-0.015655154
-0.013794961
-0.012242344
-0.011017681
-0.010046392
-0.0093174987
0.0517587
0.058985886
0.060568329
0.058288093
0.053548681
0.047764161
0.041885324
0.036457945
0.031677726
0.027512305
0.023866624
0.020601854
0.017561595
0.014909165
0.012580295
0.010548339
0.0087773023
0.0072373825
0.005900228
0.0047420336
0.0037411546
0.002880635
0.0021444215
0.0015226723
0.0010052923
0.00058908216
0.00027447255
5.786495e-05
0.037036823
0.013496504
-0.01874575
-0.057449898
-0.09981524
-0.14280812
-0.18372717
-0.21980622
-0.24760767
-0.26156607
-0.26030094
-0.25314583
-0.24066262
-0.22519988
-0.2079784
-0.18996219
-0.17177154
-0.15389762
-0.13681998
-0.12100777
-0.10658022
-0.093128413
-0.079174716
-0.067341849
-0.057126837
-0.048654117
-0.041532468
-0.035552012
-0.030516183
-0.02627037
-0.022688919