/*--------------------------------*- C++ -*----------------------------------*\
| =========                 |                                                 |
| \\      /  F ield         | OpenFOAM: The Open Source CFD Toolbox           |
|  \\    /   O peration     | Version:  5.0                                   |
|   \\  /    A nd           | Web:      www.OpenFOAM.org                      |
|    \\/     M anipulation  |                                                 |
\*---------------------------------------------------------------------------*/
FoamFile
{
    version     2.0;
    format      ascii;
    class       volScalarField;
    location    "60";
    object      pPrime2Mean;
}
// * * * * * * * * * * * * * * * * * * * * * * * * * * * * * * * * * * * * * //

dimensions      [0 4 -4 0 0 0 0];

internalField   nonuniform List<scalar> 
9200
(
1.6410165e-07
1.5192559e-07
1.3434887e-06
1.3373741e-07
1.2437316e-06
3.7859134e-06
1.1080111e-07
1.086381e-06
3.5113749e-06
7.5339256e-06
8.5975508e-08
8.9194064e-07
3.0698432e-06
6.9976694e-06
1.2848135e-05
6.3150993e-08
6.8494224e-07
2.5262451e-06
6.122041e-06
1.195114e-05
1.9968169e-05
4.245414e-08
4.926505e-07
1.9475769e-06
5.0472214e-06
1.0469434e-05
1.8602481e-05
2.9248019e-05
2.6138708e-08
3.2321162e-07
1.4061332e-06
3.9023923e-06
8.6529391e-06
1.6323474e-05
2.7289711e-05
4.108786e-05
1.3974342e-08
1.8989104e-07
9.2950516e-07
2.8265859e-06
6.71482e-06
1.3531593e-05
2.3992286e-05
3.8399488e-05
5.5943943e-05
6.421503e-09
9.4031936e-08
5.5147598e-07
1.8792037e-06
4.8863475e-06
1.0546062e-05
1.9953348e-05
3.3833923e-05
5.2369544e-05
7.4331261e-05
3.0793349e-09
3.7092698e-08
2.7861834e-07
1.1237052e-06
3.2728324e-06
7.7183263e-06
1.5623775e-05
2.8239973e-05
4.6252752e-05
6.969897e-05
9.6803019e-05
3.5681533e-09
1.6119491e-08
1.1427295e-07
5.7616036e-07
1.9791179e-06
5.2146564e-06
1.1507219e-05
2.2227093e-05
3.8753137e-05
6.1716227e-05
9.0922772e-05
0.00012395445
7.2999112e-09
2.7216809e-08
5.1013805e-08
2.4294799e-07
1.0357015e-06
3.1947857e-06
7.8491566e-06
1.6487089e-05
3.0670034e-05
5.1919787e-05
8.0726126e-05
0.00011662284
0.0001564078
1.3674305e-08
6.5392707e-08
7.788025e-08
1.1065661e-07
4.5389851e-07
1.7106397e-06
4.8793834e-06
1.1365111e-05
2.2923157e-05
4.1331531e-05
6.8197914e-05
0.0001038345
0.00014740499
0.00019479499
2.2100003e-08
1.2527785e-07
1.8086147e-07
1.5824103e-07
2.13295e-07
7.8168381e-07
2.6792954e-06
7.1794665e-06
1.5980879e-05
3.1143001e-05
5.4619841e-05
8.8100894e-05
0.00013161784
0.00018389341
0.00023977112
3.2022714e-08
2.0155256e-07
3.45169e-07
3.5865631e-07
2.7942196e-07
3.8022598e-07
1.2807531e-06
4.0509263e-06
1.027005e-05
2.197211e-05
4.1503192e-05
7.1002364e-05
0.00011216571
0.00016468193
0.0002267319
0.00029196001
4.2958286e-08
2.8934727e-07
5.5631521e-07
6.8282218e-07
6.0765476e-07
4.5611987e-07
6.489838e-07
2.0291657e-06
5.9623729e-06
1.4377853e-05
2.964579e-05
5.4421511e-05
9.0970494e-05
0.00014096781
0.00020364817
0.00027654175
0.00035200625
5.4496058e-08
3.8423939e-07
8.0084081e-07
1.1019358e-06
1.1497218e-06
9.4299361e-07
7.1548228e-07
1.0738512e-06
3.1321826e-06
8.5965587e-06
1.9764404e-05
3.9370009e-05
7.0340664e-05
0.00011506084
0.00017509692
0.00024913211
0.00033396212
0.0004204747
6.6264192e-08
4.8259803e-07
1.0669361e-06
1.589137e-06
1.8574868e-06
1.7679201e-06
1.3880769e-06
1.0971013e-06
1.7359068e-06
4.7354754e-06
1.2175409e-05
2.6751318e-05
5.1540741e-05
8.9754233e-05
0.00014382581
0.00021515578
0.0003017645
0.0003995649
0.00049794171
7.7973527e-08
5.817394e-07
1.3444778e-06
2.1204743e-06
2.6857725e-06
2.8574691e-06
2.5642928e-06
1.9774447e-06
1.6650302e-06
2.7508123e-06
7.0277407e-06
1.6979643e-05
3.5693562e-05
6.6609468e-05
0.00011317275
0.00017784234
0.00026175545
0.00036212794
0.0004739421
0.00058487406
8.9438075e-08
6.7956612e-07
1.6250494e-06
2.6755578e-06
3.5941098e-06
4.1420983e-06
4.139846e-06
3.5775415e-06
2.7655553e-06
2.5132419e-06
4.2804494e-06
1.0255611e-05
2.3331607e-05
4.7005796e-05
8.5045887e-05
0.00014113904
0.0002176946
0.00031548413
0.00043082872
0.00055757132
0.00068170143
1.0052177e-07
7.7428488e-07
1.9019752e-06
3.2377346e-06
4.5475252e-06
5.5588208e-06
6.0148568e-06
5.7558766e-06
4.8608279e-06
3.8336637e-06
3.7827236e-06
6.5443033e-06
1.4717948e-05
3.1618098e-05
6.112456e-05
0.00010735839
0.0001742035
0.0002639667
0.00037694357
0.00050836988
0.00065091116
0.00078876675
1.1112933e-07
8.6464877e-07
2.170321e-06
3.7938006e-06
5.516786e-06
7.0528206e-06
8.0979252e-06
8.3753792e-06
7.7667848e-06
6.4918206e-06
5.3075905e-06
5.6724374e-06
9.8258517e-06
2.0784781e-05
4.2256173e-05
7.8530499e-05
0.00013406051
0.00021292606
0.00031724495
0.00044666673
0.00059526329
0.00075433177
0.00090633041
1.2122571e-07
9.4989445e-07
2.4264819e-06
4.33352e-06
6.4783401e-06
8.5780825e-06
1.0308464e-05
1.1309147e-05
1.1303113e-05
1.0255685e-05
8.5874283e-06
7.3715638e-06
8.4560648e-06
1.4489191e-05
2.8870707e-05
5.5713628e-05
9.9706614e-05
0.0001656801
0.00025786781
0.00037808225
0.00052521459
0.00069191943
0.00086813174
0.0010345611
1.3082948e-07
1.0295075e-06
2.6679765e-06
4.8494599e-06
7.4140264e-06
1.0097266e-05
1.2577748e-05
1.4443992e-05
1.530088e-05
1.4895674e-05
1.3338262e-05
1.1322342e-05
1.0292455e-05
1.2500159e-05
2.0963582e-05
3.945207e-05
7.246139e-05
0.00012515183
0.00020274133
0.00030957727
0.0004470468
0.00061303355
0.00079870485
0.0009925227
0.0011735338
1.4000907e-07
1.1031583e-06
2.8933935e-06
5.3365537e-06
8.310353e-06
1.1581029e-05
1.4849076e-05
1.7682241e-05
1.9607326e-05
2.0194309e-05
1.9276958e-05
1.7184525e-05
1.4957414e-05
1.4443636e-05
1.8262395e-05
2.9758751e-05
5.3017215e-05
9.2986796e-05
0.00015534996
0.00024576031
0.00036860516
0.00052463041
0.00071057484
0.00091590363
0.0011276263
0.0013232272
1.4887122e-07
1.1707024e-06
3.1021324e-06
5.7914755e-06
9.1577997e-06
1.3007348e-05
1.7077317e-05
2.0942227e-05
2.4088526e-05
2.5952423e-05
2.6132804e-05
2.4617673e-05
2.2049431e-05
1.9872661e-05
2.0318619e-05
2.6309061e-05
4.1417087e-05
7.0074586e-05
0.00011774714
0.00019077154
0.00029525048
0.0004354679
0.0006113577
0.00081819654
0.0010437206
0.0012734696
0.0014835143
1.5746442e-07
1.2322067e-06
3.2941801e-06
6.2123153e-06
9.9503826e-06
1.4360554e-05
1.9227919e-05
2.4157747e-05
2.863047e-05
3.1992822e-05
3.3654896e-05
3.3294553e-05
3.1167851e-05
2.8315274e-05
2.6596739e-05
2.8556734e-05
3.7274605e-05
5.6514899e-05
9.10905e-05
0.00014717329
0.00023186911
0.00035170447
0.00051069771
0.00070764102
0.00093620851
0.0011822726
0.0014299808
0.0016541582
1.6578131e-07
1.2879146e-06
3.4698489e-06
6.5985252e-06
1.0684982e-05
1.5630307e-05
2.1275617e-05
2.7277106e-05
3.313899e-05
3.8162063e-05
4.1616612e-05
4.2909307e-05
4.1927984e-05
3.930522e-05
3.65374e-05
3.5847886e-05
3.991719e-05
5.1858675e-05
7.5585521e-05
0.00011648734
0.00018164847
0.00027906852
0.00041562439
0.00059476287
0.0008139073
0.0010648394
0.0013315844
0.0015969894
0.0018348321
1.73981e-07
1.3382168e-06
3.6297574e-06
6.9505673e-06
1.1360697e-05
1.6810441e-05
2.3203277e-05
3.026157e-05
3.7538828e-05
4.4330749e-05
4.9818038e-05
5.3182244e-05
5.396927e-05
5.2399342e-05
4.9597392e-05
4.7505862e-05
4.8530617e-05
5.5278961e-05
7.0738035e-05
9.9104303e-05
0.00014659852
0.00022150516
0.00033279525
0.00048748598
0.00068816461
0.0009304855
0.0012042397
0.0014915876
0.0017742336
0.0020251705
1.8170142e-07
1.383434e-06
3.7745816e-06
7.2696959e-06
1.1978045e-05
1.789844e-05
2.5000436e-05
3.3083866e-05
4.1771974e-05
5.0392988e-05
5.8086908e-05
6.3862477e-05
6.6959335e-05
6.7185206e-05
6.5271159e-05
6.288623e-05
6.2273634e-05
6.574976e-05
7.5548656e-05
9.4532635e-05
0.00012741212
0.00018166335
0.00026704431
0.00039345617
0.00056779323
0.00079131441
0.0010576734
0.0013544743
0.001662121
0.0019613746
0.002224769
1.913733e-07
1.4172365e-06
3.9055016e-06
7.5573694e-06
1.253893e-05
1.8894422e-05
2.6662306e-05
3.5726179e-05
4.5796072e-05
5.6264856e-05
6.6278562e-05
7.4729133e-05
8.0595763e-05
8.328304e-05
8.3097947e-05
8.1406665e-05
8.0356201e-05
8.2198659e-05
8.8726306e-05
0.00010160729
0.00012369138
0.00016069629
0.00022183026
0.00031853053
0.00046149087
0.00065701641
0.000904654
0.0011956819
0.0015155184
0.0018429312
0.0021579926
0.0024330408
2.042012e-07
1.443162e-06
4.0048617e-06
7.8162683e-06
1.3045514e-05
1.9801107e-05
2.8187779e-05
3.8179125e-05
4.9581901e-05
6.1882823e-05
7.4274696e-05
8.5591819e-05
9.4606841e-05
0.00010034492
0.00010266023
0.00010255573
0.00010208527
0.00010361864
0.0001088855
0.00011873254
0.0001341553
0.00015844377
0.00019896419
0.00026716099
0.00037624911
0.00053733889
0.00075566587
0.0010285215
0.001344655
0.0016872545
0.0020336736
0.0023635622
0.0026492007
2.2180905e-07
1.4656562e-06
4.0809845e-06
8.0080762e-06
1.3502228e-05
2.0621543e-05
2.9580004e-05
4.0438944e-05
5.3112378e-05
6.7200842e-05
8.1982291e-05
9.6289916e-05
0.00010875203
0.00011805328
0.00012357799
0.00012588762
0.00012688051
0.00012914094
0.00013470227
0.00014412577
0.00015689922
0.00017361888
0.00019872559
0.00024204546
0.00031769083
0.00044049484
0.00062150186
0.00086420088
0.0011632536
0.0015046454
0.0018694715
0.0022339177
0.0025774587
0.0028725145
2.4565823e-07
1.4837681e-06
4.1521797e-06
8.14737e-06
1.383517e-05
2.1363311e-05
3.0842348e-05
4.2508812e-05
5.6378308e-05
7.2189509e-05
8.9330469e-05
0.00010669224
0.00012282168
0.00013612001
0.00014550226
0.00015100942
0.00015426772
0.00015806737
0.00016502777
0.00017602516
0.00018967986
0.00020406432
0.00022000581
0.00024415984
0.0002896466
0.00037344156
0.00051164773
0.00071449065
0.00098311326
0.0013090797
0.0016756191
0.002061866
0.0024431577
0.0027990256
0.0031024075
2.7709155e-07
1.4970234e-06
4.2185397e-06
8.2767727e-06
1.4068562e-05
2.1896909e-05
3.198604e-05
4.4391565e-05
5.9381283e-05
7.6830102e-05
9.6270333e-05
0.00011669403
0.00013663775
0.00015428568
0.0001681102
0.00017756622
0.00018385867
0.00018986941
0.0001989513
0.00021285756
0.00023017625
0.0002470649
0.00026053604
0.00027283684
0.00029408818
0.00034138674
0.00043451901
0.00059014406
0.00081688344
0.001112818
0.001466188
0.0018574466
0.0022640481
0.0026608205
0.0030276164
0.0033383031
3.1741696e-07
1.5037911e-06
4.2801815e-06
8.3953735e-06
1.4285941e-05
2.2261437e-05
3.2794105e-05
4.6103998e-05
6.2121467e-05
8.1120305e-05
0.0001027671
0.00012621847
0.00015005135
0.00017232112
0.00019110181
0.00020522812
0.00021532456
0.00022416413
0.00023581774
0.00025334904
0.00027622146
0.00029965405
0.00031720549
0.00032593819
0.00033112508
0.00034761974
0.00039692087
0.00050111601
0.00067654542
0.00092925353
0.0012537324
0.0016346528
0.0020499044
0.0024755489
0.0028862697
0.0032625562
0.0035795055
3.6782704e-07
1.5041461e-06
4.3374422e-06
8.5002073e-06
1.4487163e-05
2.2606256e-05
3.3326303e-05
4.7298349e-05
6.4622985e-05
8.5053713e-05
0.00010881035
0.00013520627
0.00016294652
0.00019002535
0.00021420086
0.00023368047
0.00024837025
0.00026067523
0.00027520914
0.00029657882
0.00032597641
0.00035891083
0.00038639594
0.00040015163
0.00039909527
0.00039341533
0.00040377799
0.00045598619
0.00057360959
0.00077148416
0.0010522141
0.0014061683
0.0018144753
0.0022526727
0.0026958283
0.0031188213
0.0035030941
0.0038252128
4.2436069e-07
1.5006796e-06
4.3891665e-06
8.587645e-06
1.4671673e-05
2.2931014e-05
3.3830389e-05
4.8063648e-05
6.6344631e-05
8.866499e-05
0.00011438084
0.00014363223
0.000175227
0.00020723298
0.00023715274
0.00026262101
0.00028271229
0.00029919081
0.00031689799
0.00034198351
0.00037804084
0.00042220581
0.00046433398
0.00049132766
0.00049481323
0.0004780228
0.00045794264
0.00046160001
0.00051854316
0.000652532
0.00087570894
0.0011863367
0.0015703977
0.002005536
0.0024653387
0.00292428
0.0033577758
0.0037484688
0.0040746133
4.6836014e-07
1.4954798e-06
4.4318499e-06
8.6555849e-06
1.483813e-05
2.3229146e-05
3.4305279e-05
4.8794116e-05
6.7416967e-05
9.1133869e-05
0.000119528
0.00015145332
0.00018684321
0.00022379778
0.00025973611
0.00029175524
0.00031806659
0.0003395227
0.00036078913
0.0003893151
0.00043150283
0.00048738702
0.00054740738
0.00059486644
0.00061387898
0.00059884047
0.00056006953
0.00052278755
0.00052033831
0.00058479036
0.00073863562
0.00099000812
0.0013321795
0.0017465625
0.002207627
0.002687402
0.0031602293
0.0036023996
0.0039979229
0.0043269237
1.4905822e-06
4.6771325e-07
4.46121e-06
8.7044779e-06
1.4981554e-05
2.3491014e-05
3.4744593e-05
4.9488816e-05
6.8446214e-05
9.2647871e-05
0.00012303554
0.00015873976
0.00019771333
0.00023963457
0.00028174241
0.00032081175
0.00035413676
0.00038147696
0.00040685542
0.00043857604
0.00048592202
0.00055289744
0.00063243416
0.00070609014
0.00075107233
0.00075166898
0.00070869911
0.00064212005
0.00058615486
0.00057954319
0.00065526791
0.00083282512
0.0011152282
0.0014902115
0.0019347264
0.0024204213
0.0029182928
0.0034029599
0.0038519327
0.0042507078
0.0045814169
4.4750728e-06
1.4867805e-06
4.222959e-07
8.7350429e-06
1.5094861e-05
2.3708502e-05
3.5140667e-05
5.0135329e-05
6.9432185e-05
9.410952e-05
0.0001251715
0.00016372357
0.00020793693
0.00025460097
0.00030303845
0.00034951597
0.00039062983
0.00042482744
0.00045508365
0.00048993209
0.00054127811
0.00061780929
0.00071686378
0.00082059016
0.0009007568
0.00093108412
0.00090043233
0.00081989217
0.00072096239
0.00064655178
0.00063923037
0.00073081393
0.00093617829
0.001252189
0.0016608287
0.0021348102
0.0026435043
0.0031573693
0.003651727
0.0041056059
0.0045060844
0.0048373929
8.7488473e-06
4.4714005e-06
1.4844125e-06
3.6520944e-07
1.517237e-05
2.3878192e-05
3.5482536e-05
5.0716646e-05
7.0357144e-05
9.5520071e-05
0.00012724597
0.00016678382
0.00021499318
0.00026883749
0.00032339413
0.00037768034
0.00042722108
0.00046932484
0.00050542328
0.00054363073
0.00059787043
0.00068181644
0.00079888607
0.00093451307
0.0010572872
0.0011308453
0.0011302587
0.0010542033
0.00092741872
0.00079359303
0.00070305307
0.0006998862
0.00081260166
0.0010498509
0.0014016834
0.0018442961
0.002346636
0.0028763487
0.0034039295
0.0039057636
0.0043626531
0.0047633377
0.005094174
1.5215065e-05
8.7436203e-06
4.4505975e-06
1.4838911e-06
3.1490524e-07
2.3997976e-05
3.575814e-05
5.1214622e-05
7.1198039e-05
9.6850263e-05
0.00012926559
0.00016977116
0.00021941849
0.00027881766
0.00034300758
0.00040495868
0.00046367749
0.00051464688
0.00055777773
0.00059991591
0.0006562179
0.00074513892
0.00087750073
0.0010447583
0.0012153659
0.0013443386
0.0013919461
0.0013412246
0.0012058491
0.0010262366
0.00085762167
0.00075538958
0.00076254224
0.00090204121
0.0011750634
0.001564403
0.002040761
0.0025698807
0.0031183521
0.0036572228
0.0041642892
0.0046223185
0.0050217742
0.0053511209
2.4069971e-05
1.5218644e-05
8.7194244e-06
4.4158919e-06
1.484106e-06
2.7500629e-07
3.595867e-05
5.1616292e-05
7.1928338e-05
9.8061753e-05
0.00013118573
0.00017270162
0.00022376032
0.00028530016
0.00035704641
0.00043163277
0.00049951614
0.00056055622
0.00061193169
0.00065898862
0.00071693525
0.00080843202
0.00095244802
0.001149148
0.0013703287
0.0015649781
0.0016784967
0.001675556
0.0015544432
0.001347718
0.0011118596
0.0009114898
0.00080409132
0.00082868832
0.0010007577
0.0013130037
0.0017409323
0.0022502107
0.0028041154
0.0033688276
0.0039164649
0.0044265206
0.0048838676
0.0052807295
0.0056076277
3.6087552e-05
2.4083462e-05
1.5181231e-05
8.6803104e-06
4.3701568e-06
1.4827362e-06
2.4372919e-07
5.1914592e-05
7.2523951e-05
9.9114326e-05
0.00013294442
0.000175505
0.00022805374
0.00029169164
0.00036659127
0.00045122847
0.00053514287
0.00060644005
0.00066773461
0.00072090185
0.00078065601
0.00087262679
0.0010241764
0.0012463979
0.001518417
0.0017865691
0.0019825708
0.0020506818
0.0019695721
0.0017590584
0.0014724914
0.0011807668
0.00095472557
0.00085043536
0.00090025134
0.0011104697
0.0014648005
0.0019316885
0.0024724886
0.0030487851
0.0036270299
0.0041808485
0.0046916825
0.0051465928
0.0055395728
0.0058631303
5.2114742e-05
3.6127461e-05
2.4034219e-05
1.5105783e-05
8.6280811e-06
4.3163973e-06
1.4785558e-06
2.196547e-07
7.2971091e-05
9.9973414e-05
0.00013447587
0.00017807844
0.00023219374
0.00029805654
0.00037605764
0.00046529908
0.00056210974
0.00065289155
0.00072450779
0.00078574612
0.00084788728
0.00093882677
0.0010936502
0.0013362103
0.0016567895
0.0020036564
0.0022969135
0.0024594056
0.0024462397
0.0022593372
0.001944077
0.0015738646
0.0012308291
0.00098796177
0.00089644106
0.00097945182
0.0012329376
0.0016314365
0.002136921
0.0027072769
0.0033032419
0.0038921579
0.0044495576
0.0049590141
0.0054098161
0.0057977095
0.0061171036
7.3276238e-05
5.218774e-05
3.6067406e-05
2.3931716e-05
1.4994823e-05
8.5624005e-06
4.2573976e-06
1.4702019e-06
2.0196029e-07
0.00010062003
0.00013572041
0.00018031554
0.00023600921
0.00030423805
0.00038555275
0.00047935997
0.00058268078
0.00068921843
0.00078312394
0.00085293293
0.00091916045
0.001008117
0.0011622692
0.0014190303
0.0017838094
0.0022115674
0.0026147382
0.0028943403
0.0029785356
0.0028461393
0.0025292315
0.0020994277
0.001647228
0.0012614473
0.0010129714
0.00094471267
0.0010687257
0.0013698414
0.001813723
0.0023566807
0.0029541172
0.0035667437
0.0041633788
0.0047217755
0.0052277744
0.0056728917
0.0060545844
0.0063690679
0.0001010604
7.3399016e-05
5.2117536e-05
3.5914593e-05
2.3776895e-05
1.4854111e-05
8.4815437e-06
4.1952585e-06
1.4559823e-06
1.8915289e-07
0.00013664558
0.00018211784
0.00023931921
0.00030994996
0.00039485462
0.00049356627
0.00060345897
0.00071876863
0.00083051727
0.00092373346
0.00099424198
0.0010816461
0.0012316155
0.0014960985
0.0018986805
0.0024069432
0.0029298003
0.0033482867
0.0035601967
0.0035160419
0.0032290624
0.0027642467
0.002217008
0.0016899924
0.0012736634
0.0010325097
0.00099833628
0.0011705616
0.0015227229
0.0020122464
0.0025908305
0.0032124136
0.0038384825
0.0044398315
0.0049966901
0.0054972462
0.0059352138
0.0063096895
0.0066185844
0.0001372598
0.00010123892
7.331353e-05
5.1912782e-05
3.5666331e-05
2.3570721e-05
1.4691005e-05
8.3846617e-06
4.1302579e-06
1.4365125e-06
1.7951215e-07
0.00018342941
0.0002419507
0.00031489077
0.00040348962
0.0005076106
0.00062463335
0.00074907556
0.00087169139
0.0009827636
0.0010749164
0.0011598667
0.0013034836
0.0015690634
0.0020018314
0.0025871142
0.0032371751
0.0038143808
0.0041849652
0.0042652615
0.0040437062
0.0035736728
0.0029515576
0.002291297
0.0017018288
0.0012700218
0.0010501921
0.0010606701
0.0012873969
0.001692899
0.0022273615
0.0028390432
0.0034814537
0.004117584
0.0047206362
0.0052735012
0.005766753
0.0061962299
0.0065625628
0.0068652496
0.00018426064
0.00013749947
0.00010112206
7.3018444e-05
5.1563821e-05
3.533895e-05
2.3316259e-05
1.4511061e-05
8.2733123e-06
4.0615034e-06
1.4131474e-06
1.7186671e-07
0.00024380458
0.00031876953
0.00041095026
0.00052071305
0.0006458008
0.00078029733
0.00091484599
0.00103752
0.0011435866
0.001245111
0.0013792583
0.0016401231
0.0020941724
0.0027511368
0.0035321815
0.0042870658
0.004846901
0.0050900011
0.0049730617
0.0045321985
0.0038609254
0.0030815593
0.0023197918
0.0016845723
0.0012544326
0.0010702338
0.0011351863
0.0014214895
0.001881428
0.0024591795
0.0031008133
0.003760409
0.0044031187
0.0050049052
0.0055514484
0.0060356804
0.0064554336
0.0068127665
0.0071204854
0.00024490171
0.0001845479
0.00013732298
0.00010069949
7.2502199e-05
5.1086838e-05
3.4951893e-05
2.3023997e-05
1.4315274e-05
8.1500258e-06
3.9885553e-06
1.3811972e-06
1.6382081e-07
0.00032140531
0.00041674072
0.00053202873
0.00066569956
0.00081192483
0.00095995907
0.0010967368
0.0012112873
0.0013170986
0.0014616748
0.0017114752
0.0021778149
0.0028981893
0.0038125181
0.0047604313
0.0055414209
0.0059870437
0.0060171702
0.0056442687
0.0049544188
0.0040757276
0.0031486031
0.0023029887
0.0016420727
0.0012318551
0.001097226
0.001225288
0.0015748446
0.0020890763
0.0027075608
0.0033754535
0.0040483444
0.0046941231
0.00529179
0.0058298431
0.0063034562
0.0067123163
0.0070705077
0.007389924
0.00032283418
0.00024520713
0.00018424506
0.00013669944
9.9951191e-05
7.1803443e-05
5.0509323e-05
3.4518216e-05
2.2705209e-05
1.4103722e-05
8.0159406e-06
3.8924059e-06
1.3374096e-06
1.5571008e-07
0.00042051527
0.0005407393
0.00068291653
0.00084195592
0.0010064079
0.0011599395
0.0012880508
0.0013913902
0.001525161
0.0017859366
0.0022549121
0.0030298251
0.0040748483
0.0052320287
0.0062631444
0.0069546484
0.00717717
0.0069147481
0.0062414639
0.0052880566
0.0042081168
0.0031510924
0.0022442212
0.0015798245
0.0012080107
0.0011358911
0.0013341874
0.0017491479
0.0023162859
0.0029721023
0.0036621006
0.0043442549
0.0049896699
0.0055805174
0.006108024
0.0065694611
0.0069764342
0.0073416609
0.0076662832
0.00042235787
0.00032309845
0.00024467678
0.0001832937
0.00013559813
9.8930273e-05
7.0966343e-05
4.9860064e-05
3.40461e-05
2.2365985e-05
1.3876113e-05
7.8277678e-06
3.7647383e-06
1.2882385e-06
1.4737161e-07
0.00054621605
0.00069609879
0.00086805041
0.001051114
0.0012263386
0.0013725861
0.001482355
0.0015899881
0.0018248631
0.0023280664
0.0031461841
0.0043201431
0.0056961405
0.0070119404
0.0079903448
0.0084558396
0.0083502537
0.0077322167
0.0067329738
0.0055174199
0.0042535332
0.0030913124
0.0021492199
0.0015045985
0.0011890545
0.001190898
0.0014647891
0.0019456934
0.0025631367
0.0032521355
0.0039597743
0.0046471554
0.0052888989
0.005870312
0.0063852266
0.006843102
0.0072539003
0.0076208485
0.0079494684
0.00054868982
0.00042248197
0.00032215872
0.0002432083
0.00018164826
0.00013409879
9.7705677e-05
7.0029227e-05
4.9160143e-05
3.3543081e-05
2.200574e-05
1.3547289e-05
7.5716464e-06
3.6230564e-06
1.2334621e-06
1.3878393e-07
0.0007041491
0.00088801012
0.0010902654
0.0012913405
0.0014638258
0.0015876662
0.001682542
0.001851445
0.0023280956
0.0032504244
0.0045432597
0.0061544919
0.0077808325
0.0090991618
0.0098560541
0.0099592257
0.0094392164
0.0084258655
0.007095641
0.0056339893
0.0042126607
0.0029749086
0.0020256496
0.0014240155
0.0011813213
0.0012666832
0.0016195628
0.0021653084
0.0028293383
0.0035468116
0.0042674822
0.0049561106
0.0055909013
0.0061602331
0.0066712238
0.0071307017
0.0075405597
0.0079079465
0.0082393572
0.00070750448
0.00054852746
0.00042086688
0.00031985363
0.00024072439
0.00017942599
0.00013230774
9.6341101e-05
6.9022941e-05
4.8423225e-05
3.3009974e-05
2.1473624e-05
1.3093516e-05
7.2861616e-06
3.4661281e-06
1.1726942e-06
1.2988263e-07
0.00089998662
0.0011203035
0.0013488866
0.0015551916
0.0017058077
0.0017997895
0.0019192226
0.0022768853
0.0032112882
0.0047508067
0.0065930676
0.0085756729
0.010273937
0.011390004
0.011751751
0.011376994
0.010384931
0.0089628779
0.0073158326
0.0056362989
0.0040907418
0.0028102389
0.0018825488
0.0013462106
0.0011910709
0.0013672483
0.0018004107
0.0024083328
0.0031143385
0.0038552242
0.0045842437
0.005270066
0.0058945246
0.0064609669
0.006972502
0.0074287573
0.0078362931
0.0082027738
0.0085358063
0.00090465733
0.00070685824
0.00054580292
0.00041725111
0.00031606234
0.00023739827
0.00017678483
0.00013032394
9.4887791e-05
6.7969865e-05
4.7648284e-05
3.2198243e-05
2.0730772e-05
1.2589099e-05
6.968804e-06
3.2931537e-06
1.1057369e-06
1.2054238e-07
0.0011381747
0.0013933024
0.0016373473
0.001827865
0.0019395325
0.0020261613
0.0022789378
0.0030443479
0.0047009057
0.0070280709
0.0093716689
0.011529383
0.013051566
0.013748041
0.013563768
0.012630483
0.011142092
0.0093230666
0.0073894105
0.0055290212
0.0038967097
0.0026076669
0.0017298998
0.0012795011
0.0012241957
0.0014959516
0.002008629
0.0026747495
0.0034174642
0.0041764078
0.0049088629
0.0055876295
0.0062119624
0.0067791037
0.0072856315
0.0077371776
0.0081408675
0.0085051207
0.0088386464
0.0011448326
0.00090332774
0.00070242752
0.00054012984
0.00041143311
0.00031104689
0.00023347141
0.00017387685
0.00012822928
9.3380689e-05
6.686865e-05
4.6442097e-05
3.1046555e-05
1.9908357e-05
1.2029505e-05
6.6181148e-06
3.1034028e-06
1.0325057e-06
1.1068698e-07
0.0014196768
0.0017013349
0.0019401418
0.0020904712
0.0021694587
0.0023366582
0.0029348186
0.0044042682
0.0070450813
0.010203369
0.012827496
0.014868419
0.015944445
0.016027596
0.015188895
0.013658493
0.011682141
0.0094990886
0.0073204725
0.0053216815
0.003642187
0.0023789931
0.0015782122
0.0012319841
0.0012859148
0.0016554411
0.0022450614
0.0029643377
0.0037378704
0.0045090448
0.0052396859
0.0059231898
0.006549854
0.0071106679
0.0076105795
0.008055682
0.0084540226
0.0088147277
0.0091476872
0.0014293595
0.0011426037
0.00089635211
0.0006936143
0.00053118716
0.00040381992
0.00030516805
0.00022918089
0.00017083272
0.00012607627
9.1814951e-05
6.5119519e-05
4.4710609e-05
2.977552e-05
1.8998604e-05
1.1412478e-05
6.2328532e-06
2.8965078e-06
9.5312596e-07
1.0028996e-07
0.0017396115
0.002029097
0.002233967
0.0023358141
0.0024483167
0.0028929822
0.0041561609
0.0066539794
0.010417387
0.014220747
0.01678398
0.018383137
0.018769181
0.018094915
0.016545724
0.014421874
0.011993967
0.0094947163
0.0071195089
0.0050272865
0.0033407491
0.0021369406
0.0014380018
0.0012111189
0.0013806744
0.0018478378
0.002510249
0.0032765405
0.0040741685
0.0048512246
0.0055940603
0.0062833761
0.0069029984
0.0074557234
0.0079470275
0.0083839794
0.0087754315
0.0091313049
0.0094627137
0.0017542837
0.0014260682
0.0011320106
0.00088280683
0.00067991261
0.00051961318
0.00039496789
0.00029879051
0.00022473288
0.00016773031
0.00012385389
8.9302574e-05
6.2580517e-05
4.2808609e-05
2.8373098e-05
1.799858e-05
1.0736028e-05
5.8125854e-06
2.6724875e-06
8.6795938e-07
8.938062e-08
0.002083922
0.00235089
0.0025019013
0.0026002951
0.0029219176
0.0039728835
0.0062802847
0.010038646
0.014769117
0.018861669
0.020981507
0.021843305
0.021355491
0.019843057
0.017580946
0.01490484
0.012081657
0.009322246
0.0068013785
0.0046612611
0.0030072698
0.0018945111
0.0013192572
0.001223602
0.0015123691
0.0020748578
0.0028041673
0.0036099934
0.0044242279
0.0052241229
0.0059785774
0.006660965
0.0072715975
0.0078139284
0.0082946678
0.0087216878
0.0091047233
0.0094545177
0.0097834905
0.0021074169
0.0017497214
0.0014105652
0.0011115369
0.00086197251
0.00066233764
0.00050625758
0.00038544735
0.0002922399
0.00022023763
0.0001645478
0.00012028066
8.5634801e-05
5.9804648e-05
4.0717572e-05
2.6836117e-05
1.6905627e-05
9.9996373e-06
5.357773e-06
2.4319819e-06
7.7755009e-07
7.8046089e-08
0.0024250567
0.0026423076
0.0027661178
0.0030117852
0.0038658678
0.0059469651
0.0096138854
0.014564989
0.019866785
0.023806247
0.025138617
0.0250324
0.023566199
0.021200105
0.01827224
0.015112338
0.011960572
0.0089994064
0.0063837348
0.0042405678
0.0026571331
0.0016643393
0.0012313096
0.0012756442
0.0016844051
0.0023373486
0.0031256345
0.0039624377
0.0048139939
0.0056343072
0.0063830909
0.0070563564
0.0076552939
0.0081849684
0.0086530834
0.0090683721
0.0094414696
0.0097840018
0.010109756
0.0024593988
0.0021018613
0.0017273244
0.0013804293
0.0010802402
0.00083546463
0.00064221718
0.00049201509
0.00037576688
0.00028567069
0.00021565467
0.00015948243
0.00011505333
8.1649337e-05
5.6764523e-05
3.8435313e-05
2.5161446e-05
1.5719656e-05
9.2043731e-06
4.8701438e-06
2.1764351e-06
6.8267462e-07
6.6418267e-08
0.0027336102
0.002914381
0.0031368617
0.0038365046
0.0056753225
0.0091783975
0.014235869
0.020008481
0.025355122
0.028720286
0.028989674
0.027776903
0.02530681
0.022135567
0.018626139
0.015064809
0.01165317
0.0085470585
0.0058857511
0.0037827316
0.0023054932
0.0014586093
0.0011832085
0.0013729394
0.0018989428
0.0026345496
0.003472433
0.0043655712
0.0052501321
0.0060676768
0.0068082673
0.0074691804
0.0080537856
0.0085684048
0.0090217906
0.0094235297
0.0097851984
0.010119366
0.010441282
0.0027790652
0.0024528827
0.0020690919
0.0016844196
0.0013343942
0.0010407409
0.00080535706
0.00062097358
0.00047768195
0.00036613234
0.00027901535
0.00020850964
0.00015210215
0.00010941155
7.7306027e-05
5.3461056e-05
3.5958916e-05
2.3350288e-05
1.4443091e-05
8.3535666e-06
4.352982e-06
1.9083229e-06
5.8457341e-07
5.4690043e-08
0.0030139543
0.0032623685
0.0038654856
0.0054826291
0.0087686274
0.013813377
0.019929102
0.026004655
0.030877359
0.033287049
0.032322739
0.02995728
0.026536093
0.022659651
0.018671189
0.014792054
0.011185324
0.0079871823
0.0053268635
0.0033050243
0.0019673221
0.0012896047
0.0011835625
0.0015194932
0.0021559817
0.0029645625
0.003882941
0.0048264597
0.0057134625
0.0065252518
0.0072537242
0.0078991687
0.0084666271
0.0089637244
0.0094002286
0.0097865997
0.010135413
0.010460253
0.010777773
0.003066013
0.0027724644
0.0024089611
0.0020094157
0.0016185886
0.0012767703
0.00099629876
0.00077392263
0.00059984148
0.00046352816
0.00035643948
0.00026896766
0.00019819241
0.00014420156
0.00010329768
7.2612966e-05
4.9892905e-05
3.3292428e-05
2.1407674e-05
1.3082064e-05
7.4532729e-06
3.811488e-06
1.6312385e-06
4.8503976e-07
4.3156924e-08
0.0033507663
0.003919872
0.0053594427
0.0084095128
0.013352225
0.019652573
0.026320825
0.03215027
0.03607805
0.037257242
0.034987358
0.031519481
0.027266459
0.022812909
0.018448255
0.014327917
0.010583184
0.0073410847
0.0047258128
0.00282475
0.0016582641
0.0011694078
0.0012388081
0.0017165057
0.0024543667
0.0033731604
0.0043652389
0.0053196634
0.0062054594
0.0070066302
0.0077192496
0.0083458853
0.0088932922
0.0093703249
0.0097877621
0.010157001
0.010491646
0.010806225
0.011118923
0.0033993985
0.0030615479
0.0027186569
0.002330121
0.0019185514
0.001536882
0.0012126298
0.00095052715
0.00074306504
0.00057915926
0.00044941047
0.00034239666
0.0002546741
0.00018724913
0.00013569905
9.6733345e-05
6.7572808e-05
4.6069592e-05
3.0445501e-05
1.9344361e-05
1.1647079e-05
6.5130327e-06
3.2532459e-06
1.3501404e-06
3.862243e-07
3.219655e-08
0.0039604968
0.0052815064
0.0080992922
0.01287902
0.019255821
0.026311478
0.032964846
0.038053724
0.04067848
0.040455279
0.036914227
0.032472911
0.027547543
0.022650157
0.018003364
0.013705286
0.0098704747
0.0066282363
0.0041013163
0.0023606076
0.0013942186
0.0011074435
0.001351865
0.0019641714
0.0028474871
0.0038705479
0.0048865109
0.0058472261
0.0067256797
0.0075116778
0.0082044321
0.0088088084
0.0093331538
0.0097875144
0.010183744
0.010534162
0.010853342
0.011156803
0.011464409
0.0039844808
0.0033933894
0.0030015741
0.0026227517
0.0022117434
0.0018073404
0.0014472299
0.0011476291
0.00090630348
0.00071320001
0.00055875996
0.00042994305
0.00032281254
0.00023967553
0.00017556593
0.00012664035
8.972927e-05
6.2204743e-05
4.2008578e-05
2.7436241e-05
1.7177734e-05
1.015404e-05
5.5464273e-06