/*--------------------------------*- C++ -*----------------------------------*\
| =========                 |                                                 |
| \\      /  F ield         | OpenFOAM: The Open Source CFD Toolbox           |
|  \\    /   O peration     | Version:  5.0                                   |
|   \\  /    A nd           | Web:      www.OpenFOAM.org                      |
|    \\/     M anipulation  |                                                 |
\*---------------------------------------------------------------------------*/
FoamFile
{
    version     2.0;
    format      ascii;
    class       volVectorField;
    location    "60";
    object      U;
}
// * * * * * * * * * * * * * * * * * * * * * * * * * * * * * * * * * * * * * //

dimensions      [0 1 -1 0 0 0 0];

internalField   nonuniform List<vector> 
9200
(
(1.0024028 -0.00075877953 -3.3881396e-24)
(1.0026192 -0.0024173336 -7.3632602e-22)
(1.0046998 -0.00080331945 0)
(1.0029585 -0.003696233 3.708527e-22)
(1.0048629 -0.0025757838 -6.82204e-22)
(1.0057803 -0.00083594445 0)
(1.0033305 -0.0050707544 3.8435012e-23)
(1.0051279 -0.003927258 -6.6998635e-23)
(1.0059226 -0.0026962369 0)
(1.0074904 -0.00088837082 0)
(1.0038104 -0.0060868586 -6.5497527e-22)
(1.0053954 -0.0054017783 -3.35635e-22)
(1.0061512 -0.0041030209 -3.7776141e-22)
(1.0076039 -0.0028989029 -2.6140792e-23)
(1.0089137 -0.00093667442 5.1825654e-25)
(1.0043265 -0.0071071505 -6.016734e-22)
(1.0057311 -0.0064834698 1.0988417e-22)
(1.0063685 -0.005653314 -1.1681572e-21)
(1.007782 -0.0044038663 -4.1350533e-22)
(1.0090051 -0.0030932075 5.1515838e-23)
(1.0105969 -0.00099496779 1.3322916e-21)
(1.0048899 -0.007880392 -4.2763754e-22)
(1.0060946 -0.0075789503 -7.9449858e-22)
(1.0066407 -0.0067909597 7.2236588e-22)
(1.0079313 -0.0060842076 2.8750761e-23)
(1.0091413 -0.0046943747 -5.6905094e-22)
(1.0106725 -0.0033361026 -5.5521374e-22)
(1.0121812 -0.0010497314 -6.9776807e-23)
(1.0054654 -0.0085777204 -2.8694606e-23)
(1.0064753 -0.0084104958 -4.2076769e-22)
(1.0069296 -0.007945815 -6.8118337e-22)
(1.0081123 -0.0073246038 1.3287355e-22)
(1.0092348 -0.0064982561 1.1772401e-21)
(1.0107721 -0.0050622216 5.2832761e-22)
(1.0122432 -0.0035729556 9.4321229e-22)
(1.0139479 -0.0011087624 -1.5153122e-21)
(1.006049 -0.0091128081 4.2419825e-22)
(1.0068616 -0.0091635847 -6.4696963e-22)
(1.0072287 -0.0088292555 1.2433565e-22)
(1.0082966 -0.0085880023 -4.2180674e-22)
(1.0093405 -0.00783993 3.1335642e-22)
(1.0108186 -0.0070268342 2.0714976e-21)
(1.0123093 -0.0054223731 -9.2510143e-22)
(1.0140089 -0.0038388582 1.6977245e-21)
(1.0156496 -0.0011621136 3.4495365e-21)
(1.0066245 -0.0095485121 -2.2021826e-22)
(1.0072431 -0.0097464859 5.0104517e-22)
(1.0075271 -0.0096296386 -1.6014995e-23)
(1.008474 -0.0095685101 -4.6116383e-22)
(1.0094367 -0.0092065785 9.9355469e-23)
(1.0108552 -0.008508591 5.4745103e-22)
(1.0123134 -0.0075430016 -7.6947633e-22)
(1.0140537 -0.0058316966 -1.5821905e-21)
(1.0157121 -0.0040888537 -8.5027673e-22)
(1.0175004 -0.0012155929 -2.2988219e-22)
(1.0071857 -0.0098719174 1.0839901e-22)
(1.0076147 -0.010224193 2.2468438e-22)
(1.0078182 -0.010254207 -5.5308996e-22)
(1.0086379 -0.010457609 4.2024893e-22)
(1.0095113 -0.010280121 -1.2970984e-21)
(1.0108669 -0.010021234 2.3796317e-21)
(1.0122863 -0.0091631137 1.8788155e-22)
(1.0140335 -0.0081361204 -2.842055e-21)
(1.0157419 -0.0062189712 1.5265176e-21)
(1.0175793 -0.0043498859 -3.1668768e-21)
(1.0192887 -0.0012616487 6.1154813e-22)
(1.0077252 -0.010105758 -3.8523357e-23)
(1.0079698 -0.010582611 -3.2105573e-22)
(1.008096 -0.010765915 2.1541817e-22)
(1.0087824 -0.011159703 0)
(1.0095609 -0.011253001 1.7145678e-23)
(1.0108363 -0.011234289 -5.5662921e-22)
(1.0122199 -0.010818538 5.3292151e-22)
(1.0139609 -0.0099283922 1.4168989e-21)
(1.0157068 -0.0086986819 -6.0411227e-22)
(1.0176092 -0.0066279565 1.9902777e-21)
(1.0193892 -0.0045841684 1.4589547e-21)
(1.0211886 -0.001303868 -3.1703202e-22)
(1.0082382 -0.01025723 -1.0521394e-23)
(1.0083042 -0.01084466 2.0284557e-22)
(1.0083552 -0.011150747 0)
(1.0089037 -0.011735527 0)
(1.0095815 -0.012029797 4.2795202e-22)
(1.0107632 -0.012340099 -1.2321182e-21)
(1.0120924 -0.012169743 1.620749e-21)
(1.0138344 -0.011766719 -1.3901126e-21)
(1.0156004 -0.01065898 -8.2130223e-23)
(1.0175817 -0.0092995053 6.9883031e-24)
(1.0194292 -0.0069978079 -2.788059e-21)
(1.0213252 -0.0048106367 3.42858e-21)
(1.0230195 -0.0013365997 -6.2988711e-21)
(1.0087161 -0.01034078 1.3111782e-22)
(1.0086134 -0.011017074 -2.8352777e-23)
(1.0085919 -0.011431082 3.561052e-22)
(1.0089997 -0.01217189 -4.7075844e-22)
(1.0095713 -0.01266888 5.4696378e-22)
(1.0106417 -0.013239969 -3.643834e-22)
(1.0119071 -0.013407224 -2.7724798e-22)
(1.0136245 -0.013302986 4.9910229e-23)
(1.0154277 -0.012676503 -9.8106356e-22)
(1.0174653 -0.011451676 -8.997162e-22)
(1.0194237 -0.0098471552 -6.8900264e-22)
(1.0213924 -0.0073591799 -1.9386042e-21)
(1.0231965 -0.0050007429 -1.3925735e-21)
(1.0249144 -0.0013613436 1.8222481e-21)
(1.0091629 -0.010358291 -1.8871426e-22)
(1.0088959 -0.011112276 -7.8549416e-22)
(1.008804 -0.01161464 -4.0331959e-23)
(1.009071 -0.01249108 5.373036e-23)
(1.0095324 -0.013158417 -5.3628373e-23)
(1.0104762 -0.01398921 4.607135e-22)
(1.0116618 -0.014434398 -2.4182886e-22)
(1.013336 -0.014722864 3.6775417e-22)
(1.0151497 -0.014396457 -3.3794035e-22)
(1.0172698 -0.013678101 3.7410199e-23)
(1.0193159 -0.012183048 4.1264714e-23)
(1.0214348 -0.010389886 -2.2609995e-22)
(1.023303 -0.0076654584 3.0697561e-21)
(1.0251469 -0.005165998 -1.6916307e-21)
(1.0267346 -0.0013745748 1.511283e-21)
(1.0095705 -0.010327745 -1.5888979e-22)
(1.0091487 -0.011142632 3.5667921e-22)
(1.0089919 -0.011717596 -3.5104709e-22)
(1.0091208 -0.012703983 4.5618094e-22)
(1.0094697 -0.013520589 -5.3807856e-22)
(1.0102739 -0.014576491 8.7520537e-22)
(1.0113622 -0.015302095 -1.5972344e-21)
(1.0129628 -0.015926981 1.1722181e-22)
(1.0147713 -0.015998998 3.9268986e-22)
(1.0169431 -0.015618852 -9.9668033e-22)
(1.019121 -0.014613845 4.4673681e-21)
(1.0213658 -0.012921166 -2.1218126e-21)
(1.0234112 -0.010856918 -1.0368955e-21)
(1.0253139 -0.0079352702 -3.0754493e-22)
(1.0270242 -0.0052875944 9.9609923e-23)
(1.0285632 -0.0013762194 -1.7375821e-21)
(1.009942 -0.010255145 0)
(1.0093743 -0.011118089 5.3377816e-22)
(1.0091565 -0.011750593 7.4021221e-23)
(1.0091523 -0.012824931 0)
(1.0093889 -0.013766876 0)
(1.010042 -0.015021094 0)
(1.0110138 -0.01599608 1.5020959e-22)
(1.0125093 -0.016956186 -6.4920659e-22)
(1.0142824 -0.017383586 1.6336607e-21)
(1.0164905 -0.0174482 -1.1132546e-21)
(1.0187758 -0.016778794 3.576798e-22)
(1.021204 -0.015574247 -9.6522056e-22)
(1.0234049 -0.013568849 2.3224108e-22)
(1.0255149 -0.011277579 1.19051e-21)
(1.027258 -0.0081367703 1.686799e-22)
(1.0289237 -0.005370196 8.8811432e-22)
(1.030316 -0.0013648642 0)
(1.010276 -0.010148247 -2.9291683e-22)
(1.0095726 -0.011048651 -6.4219521e-22)
(1.0092993 -0.011726841 1.3042786e-21)
(1.0091688 -0.012868327 8.6891222e-22)
(1.009294 -0.013911482 9.2694876e-22)
(1.0097873 -0.015331453 0)
(1.0106235 -0.016530177 1.4178492e-21)
(1.0119831 -0.017793072 -5.6032643e-22)
(1.0136901 -0.018585904 -2.68771e-21)
(1.0158989 -0.01906625 2.2004627e-21)
(1.0182827 -0.018846381 6.8558021e-22)
(1.0208694 -0.017987214 4.3740793e-22)
(1.0233061 -0.016433081 -2.7817657e-21)
(1.0256042 -0.014167474 3.797169e-21)
(1.0275686 -0.011602927 5.0775358e-22)
(1.0292493 -0.008278825 6.4047259e-21)
(1.0307462 -0.0054054606 2.3931409e-21)
(1.0320211 -0.0013401036 2.3343889e-21)
(1.0105729 -0.010013945 2.4618496e-23)
(1.0097447 -0.010943412 -4.2506574e-22)
(1.0094215 -0.011656355 -9.6511979e-23)
(1.0091722 -0.012846935 8.3851516e-22)
(1.0091886 -0.013967679 -1.3056142e-22)
(1.0095161 -0.01552043 3.9297473e-23)
(1.0102005 -0.016910373 -1.9481449e-21)
(1.0113963 -0.018447669 -3.2718869e-21)
(1.0130039 -0.019587871 -1.3134562e-21)
(1.015174 -0.020500138 6.5224123e-22)
(1.0176206 -0.020715171 -5.3201665e-22)
(1.0203614 -0.020322647 2.0713496e-21)
(1.0230216 -0.019091519 -1.7932447e-21)
(1.0256071 -0.017245998 9.6036962e-23)
(1.0277796 -0.014648141 -4.0718674e-25)
(1.0296999 -0.011847866 -1.0550775e-21)
(1.0311641 -0.0083452238 2.2377136e-21)
(1.0325324 -0.0053945384 -1.3436078e-22)
(1.0336446 -0.0013017913 2.2462791e-21)
(1.0108333 -0.0098589459 1.9561617e-22)
(1.0098913 -0.010810236 4.4600784e-22)
(1.0095237 -0.011549136 -2.42555e-21)
(1.0091643 -0.012772353 -4.9854758e-22)
(1.0090754 -0.013948241 2.2732418e-22)
(1.0092353 -0.015601053 -1.8214996e-23)
(1.0097556 -0.017149471 3.1148154e-22)
(1.0107642 -0.018927928 7.4986736e-22)
(1.012238 -0.020396814 -5.6582852e-22)
(1.0143234 -0.021727064 -3.7103204e-21)
(1.0167917 -0.022403792 1.98775e-21)
(1.0196515 -0.022478369 1.1272104e-22)
(1.0225448 -0.021702485 -6.9559176e-22)
(1.025412 -0.020159138 4.932307e-23)
(1.0279175 -0.017920641 2.2872259e-22)
(1.0300657 -0.015031946 -3.7768587e-21)
(1.0317606 -0.011984554 1.2059538e-21)
(1.0330656 -0.0083382549 -3.7271574e-21)
(1.0342371 -0.0053361283 -9.4364624e-22)
(1.0351843 -0.0012499357 -2.3643868e-21)
(1.0110577 -0.0096880922 6.4546034e-23)
(1.0100124 -0.010655877 7.7960184e-22)
(1.0096064 -0.011413129 4.8149541e-22)
(1.0091465 -0.012654236 7.9043043e-22)
(1.008958 -0.01386546 -3.1132749e-22)
(1.0089516 -0.01558727 -7.4155e-22)
(1.0092994 -0.017261036 2.4701589e-21)
(1.0101017 -0.0192446 5.190137e-21)
(1.0114075 -0.021013666 -2.9010139e-22)
(1.0133606 -0.022744554 0)
(1.0158007 -0.023884389 -1.2223222e-21)
(1.018738 -0.02446606 1.8340915e-21)
(1.0218372 -0.024164061 2.8724165e-21)
(1.025007 -0.023062027 -2.8478101e-21)
(1.0278566 -0.021074981 1.0725785e-21)
(1.0303783 -0.018485137 -3.040067e-21)
(1.0323011 -0.015277051 1.1829621e-22)
(1.0338397 -0.012017817 1.4818223e-21)
(1.034886 -0.0082545692 -2.4125995e-21)
(1.0358624 -0.0052303748 -1.6986451e-22)
(1.036628 -0.0011855289 -2.2371963e-21)
(1.011247 -0.0095052648 -1.7337913e-22)
(1.0101077 -0.010486252 6.7332151e-22)
(1.0096696 -0.011255239 1.1764308e-21)
(1.0091195 -0.012502647 -1.3734386e-21)
(1.0088382 -0.013731523 -1.3348478e-21)
(1.0086711 -0.01549333 1.6562184e-23)
(1.0088425 -0.017259866 0)
(1.0094237 -0.019411192 -1.1673911e-22)
(1.0105304 -0.021445865 -1.5735564e-21)
(1.012305 -0.023550701 -3.4000467e-21)
(1.0146628 -0.025149709 1.9995469e-22)
(1.0176228 -0.026253616 1.0997583e-21)
(1.0208907 -0.026482238 -3.4026747e-22)
(1.0243436 -0.025854078 -8.3467311e-22)
(1.0275783 -0.02426479 1.9319574e-21)
(1.0304962 -0.021872504 -1.8610233e-21)
(1.0328199 -0.01888045 4.0170488e-22)
(1.0345901 -0.01539117 -2.6263348e-21)
(1.0358339 -0.01193913 -3.1421032e-22)
(1.0366348 -0.0080953932 -6.0105109e-23)
(1.0373935 -0.0050794494 -1.3016289e-21)
(1.0379689 -0.0011102462 0)
(1.0114038 -0.0093145518 9.9714289e-24)
(1.0101775 -0.010306339 -3.927843e-22)
(1.0097133 -0.011081415 -6.6116289e-23)
(1.0090832 -0.012326019 -1.7774557e-21)
(1.0087176 -0.013557054 -1.1984577e-21)
(1.0083984 -0.01533284 7.5938552e-22)
(1.0083934 -0.017161176 2.2208079e-22)
(1.0087438 -0.019441821 2.8139544e-21)
(1.0096251 -0.02170282 7.4399972e-22)
(1.011178 -0.024147935 3.5428803e-22)
(1.0133973 -0.02619118 -9.9909589e-23)
(1.0163184 -0.027825534 -2.633902e-21)
(1.0197002 -0.028619198 2.2153191e-22)
(1.0234057 -0.028535712 1.4201719e-21)
(1.027021 -0.027392395 -2.0428798e-21)
(1.0303939 -0.025346469 -2.7062505e-21)
(1.0331599 -0.022473202 3.6033177e-23)
(1.0353509 -0.019116888 4.6718291e-21)
(1.0367971 -0.015357435 2.5200194e-22)
(1.0377834 -0.011749734 -1.5266944e-21)
(1.0382913 -0.0078631982 0)
(1.0388231 -0.004886054 2.8825793e-21)
(1.0392017 -0.0010263912 4.229447e-23)
(1.0115342 -0.0091189243 6.5700305e-22)
(1.0102233 -0.010119977 -8.0781259e-22)
(1.0097374 -0.010896812 1.1947864e-21)
(1.0090372 -0.012131493 5.4542488e-22)
(1.0085965 -0.013351806 -1.8954531e-21)
(1.0081366 -0.015118808 0)
(1.0079591 -0.016979642 7.5681981e-23)
(1.0080736 -0.019351869 7.5198127e-22)
(1.008709 -0.021797061 2.4261491e-21)
(1.0100019 -0.02454313 3.9786416e-21)
(1.0120269 -0.027005026 -1.5174686e-21)
(1.0148426 -0.029165833 -2.0593635e-21)
(1.0182725 -0.030551219 2.6139044e-21)
(1.0221792 -0.03106446 -2.1129489e-21)
(1.0261586 -0.030454916 3.8723696e-21)
(1.0299981 -0.028814766 4.7850805e-21)
(1.0332901 -0.026208887 -2.2484709e-21)
(1.0359557 -0.02288913 1.8571515e-21)
(1.0378217 -0.019166516 -5.9283911e-21)
(1.0389931 -0.015176577 1.829567e-21)
(1.0396355 -0.011453022 3.361189e-21)
(1.0398468 -0.0075612911 -2.9370561e-21)
(1.0401442 -0.0046537854 1.8355176e-21)
(1.0403236 -0.00093607699 3.5917774e-23)
(1.0116485 -0.0089206913 -1.6533619e-22)
(1.0102502 -0.009930362 -8.4948196e-22)
(1.0097432 -0.010705586 -5.7402633e-22)
(1.0089806 -0.01192521 -4.0104047e-21)
(1.0084745 -0.013124245 1.0624881e-21)
(1.0078871 -0.01486309 -2.5603529e-21)
(1.0075445 -0.016729536 9.4174272e-23)
(1.0074229 -0.019156954 -3.3959381e-21)
(1.0077982 -0.021742901 3.4826103e-22)
(1.0087983 -0.024745529 1.4459307e-21)
(1.0105768 -0.02759181 -5.0908164e-22)
(1.0132195 -0.030263352 4.0480161e-21)
(1.0166226 -0.032254475 -1.1595294e-21)
(1.0206654 -0.033410037 -2.9384691e-22)
(1.0249678 -0.033407959 1.1705222e-21)
(1.0292741 -0.03227371 6.6998037e-22)
(1.0331251 -0.030003207 -4.5874414e-22)
(1.0363696 -0.026863039 3.0153883e-21)
(1.0387268 -0.023077464 0)
(1.0403142 -0.019029754 5.1364698e-22)
(1.0410843 -0.014851442 1.527293e-22)
(1.0413914 -0.011052378 -2.9007155e-22)
(1.0412914 -0.0071955468 3.9104958e-23)
(1.0413519 -0.0043866814 -2.6462247e-21)
(1.0413338 -0.00084046318 -1.2137956e-21)
(1.0117571 -0.0087226067 -4.5747798e-22)
(1.010268 -0.0097399284 6.0203705e-22)
(1.0097354 -0.010511236 5.0627554e-22)
(1.0089142 -0.011711972 4.8328214e-22)
(1.0083504 -0.012881722 4.0712071e-21)
(1.0076496 -0.014576333 5.7690664e-22)
(1.0071525 -0.016424205 1.2231335e-22)
(1.0067992 -0.018872704 2.1287143e-22)
(1.0069065 -0.021556221 2.9943117e-21)
(1.0075883 -0.024768376 2.898638e-22)
(1.0090737 -0.02795734 1.8792297e-21)
(1.0114774 -0.031113353 -5.4338813e-22)
(1.0147745 -0.033710092 -2.2271134e-21)
(1.0188759 -0.035542071 2.6572565e-22)
(1.0234418 -0.036215757 -1.1288781e-21)
(1.0281873 -0.035678286 -1.8160814e-21)
(1.032619 -0.033853366 -1.126033e-21)
(1.0364954 -0.030963871 -4.4030031e-21)
(1.0394727 -0.027248435 -6.5059984e-21)
(1.0415525 -0.023038629 -3.2830377e-23)
(1.0427019 -0.018705762 6.3436084e-21)
(1.0431001 -0.014383019 1.3484687e-21)
(1.0430335 -0.010555408 -2.8666255e-21)
(1.0426186 -0.0067722065 2.5849417e-21)
(1.0424435 -0.004089182 -1.842107e-21)
(1.0422324 -0.00073983191 1.0305275e-22)
(1.0118579 -0.0085268603 1.3464806e-23)
(1.0102887 -0.0095508499 4.4421243e-22)
(1.0097236 -0.010316612 -1.6024478e-21)
(1.0088424 -0.011496045 2.2906807e-21)
(1.0082243 -0.012630166 -2.8591559e-21)
(1.0074231 -0.014267989 2.7191154e-21)
(1.0067843 -0.016075937 2.5369811e-21)
(1.0062074 -0.018514309 2.0848942e-21)
(1.0060454 -0.021253935 -4.5793867e-21)
(1.0063907 -0.024626769 -2.0670115e-21)
(1.0075434 -0.028111356 -1.8567712e-22)
(1.0096467 -0.031715438 -5.2736266e-21)
(1.0127573 -0.034904545 4.8587349e-21)
(1.0168312 -0.03743293 -2.3674008e-21)
(1.0215834 -0.038840233 5.7347987e-22)
(1.0267196 -0.038987825 8.0349321e-22)
(1.0317241 -0.037715933 -2.8736692e-21)
(1.0362782 -0.035192135 3.200487e-21)
(1.0399529 -0.031616946 -2.9526096e-21)
(1.0426735 -0.027363952 3.7161239e-22)
(1.0442955 -0.02276314 0)
(1.0450423 -0.018191707 2.5680707e-21)
(1.0449926 -0.013783707 3.2089288e-22)
(1.0445533 -0.0099700399 0)
(1.0438238 -0.0062984683 -3.133121e-21)
(1.0434179 -0.00376597 -1.3621692e-22)
(1.0430197 -0.00063443201 9.159379e-22)
(1.0119102 -0.0083350846 1.3998765e-22)
(1.0103155 -0.0093647626 9.1784543e-23)
(1.0097197 -0.010124413 -1.4078641e-21)
(1.008775 -0.011280422 7.1644798e-23)
(1.0081003 -0.01237493 -9.255274e-22)
(1.0072071 -0.013945994 -3.1106288e-21)
(1.0064396 -0.015696056 -1.789333e-22)
(1.0056506 -0.01809612 -2.5452757e-21)
(1.0052234 -0.020853044 7.6896836e-22)
(1.0052216 -0.024337766 3.1279284e-21)
(1.0060103 -0.02806716 -4.5088395e-21)
(1.0077578 -0.03207487 -2.3138664e-21)
(1.0106036 -0.035829768 -3.0341675e-21)
(1.0145588 -0.039060118 5.6437159e-22)
(1.0194065 -0.041244064 -2.8199409e-21)
(1.0248635 -0.04215837 9.4040437e-22)
(1.0304102 -0.041548563 -3.5337684e-21)
(1.0356587 -0.039509586 9.6649749e-21)
(1.0401044 -0.036189474 3.1566784e-21)
(1.043563 -0.031956677 5.913387e-22)
(1.0458252 -0.027187416 3.7383825e-21)
(1.0470121 -0.02224743 -4.1854649e-22)
(1.0472435 -0.017506122 -2.337029e-22)
(1.0467605 -0.013061436 0)
(1.0459424 -0.0093068134 0)
(1.0449045 -0.0057818837 2.5091861e-22)
(1.0442757 -0.0034217059 -1.884784e-21)
(1.0436971 -0.00052501381 -1.5078112e-21)
(1.0117998 -0.0081483989 0)
(1.0103187 -0.0091853259 3.216584e-22)
(1.0097287 -0.0099364248 1.4053447e-21)
(1.0087245 -0.011068436 1.353149e-21)
(1.007988 -0.012119501 2.8720472e-21)
(1.0070049 -0.013617497 6.8343525e-22)
(1.0061187 -0.015294256 -1.9786014e-21)
(1.0051296 -0.017631567 -4.3510417e-21)
(1.0044461 -0.020370278 4.2730898e-21)
(1.004094 -0.023919219 -5.4029214e-22)
(1.0044956 -0.027840869 3.6106176e-22)
(1.00584 -0.032200754 5.0650245e-22)
(1.0083478 -0.03648347 -8.7166581e-21)
(1.0120914 -0.040405909 9.4306689e-22)
(1.0169337 -0.043394264 1.0312019e-21)
(1.0226242 -0.045145122 -2.8500593e-21)
(1.0286582 -0.045304629 1.1909888e-21)
(1.034595 -0.04387561 -2.841237e-21)
(1.0398564 -0.040935691 7.4244555e-21)
(1.0441516 -0.036830496 -1.9420516e-21)
(1.0471712 -0.031944482 3.1723047e-21)
(1.0489766 -0.02671439 2.0635147e-21)
(1.0495894 -0.021509107 -1.5220998e-22)
(1.0493343 -0.016649586 -6.4013785e-21)
(1.0483878 -0.012229952 -1.77514e-21)
(1.0471961 -0.0085764007 3.2212861e-22)
(1.0458602 -0.005230161 2.4603615e-21)
(1.0450192 -0.0030606615 -1.0301671e-21)
(1.0442708 -0.00041270695 1.7725262e-21)
(1.0113151 -0.0079773992 -4.1437854e-22)
(1.010197 -0.0090147299 0)
(1.0097241 -0.0097559611 0)
(1.0086977 -0.010861837 0)
(1.0079008 -0.011867984 -7.326181e-22)
(1.0068253 -0.013287575 2.6899265e-21)
(1.0058252 -0.014879505 1.5401664e-22)
(1.0046458 -0.017132387 3.9577157e-22)
(1.0037163 -0.01982177 6.615224e-21)
(1.0030172 -0.023389376 -7.6092946e-21)
(1.0030174 -0.027450402 2.4610128e-21)
(1.0039205 -0.032106611 -1.0648252e-21)
(1.0060245 -0.03686906 3.3808641e-21)
(1.0094656 -0.04145959 -1.1582569e-21)
(1.0141965 -0.045263055 6.3298706e-21)
(1.0200186 -0.047906833 1.4903362e-21)
(1.0264628 -0.048933939 -3.1196354e-21)
(1.0330552 -0.048243647 -3.5575315e-21)
(1.0391544 -0.045819284 1.4132617e-21)
(1.0443591 -0.041965314 -1.8691136e-21)
(1.0482609 -0.037056855 -3.7841513e-21)
(1.0508165 -0.031573176 4.3801088e-22)
(1.0520029 -0.025956567 4.8762606e-21)
(1.0520672 -0.020545613 -2.9550391e-21)
(1.0512622 -0.015648411 -2.1939834e-22)
(1.049867 -0.011302717 -1.0222936e-21)
(1.0483118 -0.0077901996 2.415939e-21)
(1.0466925 -0.0046508649 5.9902568e-22)
(1.0456532 -0.0026868195 3.4827834e-21)
(1.0447524 -0.00029921239 8.330391e-22)
(1.0100418 -0.0078034144 1.5690356e-22)
(1.0097422 -0.0088605659 3.0660488e-22)
(1.0096092 -0.0095831434 0)
(1.008672 -0.010664626 0)
(1.0078467 -0.011622271 0)
(1.0066821 -0.012961836 0)
(1.005568 -0.014458963 0)
(1.0042037 -0.01661004 -1.0755682e-22)
(1.0030368 -0.019221998 -2.2856498e-21)
(1.0019978 -0.022766403 8.5505666e-21)
(1.0015899 -0.026914986 9.0745188e-23)
(1.0020232 -0.031808809 2.9301953e-21)
(1.0036669 -0.036995573 -8.3846074e-21)
(1.0067199 -0.04221655 5.6960008e-21)
(1.0112321 -0.046829434 -5.6945703e-22)
(1.0170732 -0.050405601 3.3399961e-21)
(1.0238306 -0.052387099 -4.6871279e-21)
(1.0310202 -0.052560164 1.4776047e-21)
(1.037952 -0.050796767 3.9288391e-21)
(1.0441205 -0.047332372 2.1109204e-21)
(1.0490073 -0.042517121 5.1043191e-22)
(1.0524587 -0.036855292 3.0262105e-21)
(1.0543612 -0.030844832 9.615098e-23)
(1.0549356 -0.024912492 -1.9043065e-21)
(1.0543605 -0.019393377 1.2316272e-21)
(1.0530349 -0.01451144 5.1392832e-21)
(1.0511922 -0.010295207 1.3094592e-21)
(1.0492893 -0.0069594707 -1.0522351e-21)
(1.0474045 -0.0040513644 6.632516e-23)
(1.0461837 -0.0023047971 -2.0768224e-21)
(1.0451474 -0.00018807278 -4.5857686e-22)
(1.0070442 -0.0076168366 4.992275e-22)
(1.0085451 -0.0087072875 2.9751221e-22)
(1.0091784 -0.0094293998 1.1222239e-21)
(1.0085556 -0.010475656 2.0139662e-21)
(1.0078057 -0.011387302 0)
(1.0065841 -0.012642626 0)
(1.005361 -0.014040564 2.1875766e-22)
(1.0038144 -0.016072735 3.7985667e-21)
(1.0024131 -0.018585113 -5.910778e-21)
(1.0010411 -0.022067226 7.598202e-21)
(1.0002236 -0.026254459 -3.2961846e-22)
(1.0001679 -0.031326318 -6.6084349e-21)
(1.0013057 -0.036876329 1.8300325e-21)
(1.0038931 -0.042679123 -8.6641151e-22)
(1.0080816 -0.048079064 -5.3115521e-21)
(1.0138225 -0.052609243 2.9705671e-22)
(1.0207794 -0.055615861 7.8493446e-21)
(1.0284833 -0.056770096 -4.3651878e-22)
(1.0362156 -0.055814988 -3.8302779e-21)
(1.0433771 -0.052895517 1.268711e-20)
(1.049337 -0.048306955 -1.1360155e-22)
(1.0538121 -0.042567091 -3.3969245e-21)
(1.0565935 -0.036214319 6.9891752e-21)
(1.0578249 -0.029758493 3.558663e-21)
(1.0576769 -0.023619064 -4.313893e-22)
(1.0564975 -0.018052923 2.9331471e-21)
(1.0546305 -0.013264179 1.4943662e-21)
(1.0523612 -0.0092223065 4.6363132e-22)
(1.0501305 -0.0060953231 -1.1276823e-21)
(1.0480003 -0.0034389392 -2.2176907e-22)
(1.0466153 -0.0019202446 -5.4582175e-22)
(1.0454403 -8.8273373e-05 -1.4324564e-23)
(1.0012052 -0.0074326348 -2.1036195e-22)
(1.0057052 -0.0085571438 -4.2482447e-22)
(1.0080242 -0.0092667583 -1.3175504e-21)
(1.0081436 -0.010308871 -1.8518446e-21)
(1.0076883 -0.011160313 0)
(1.0065138 -0.012337055 0)
(1.0052132 -0.013627244 0)
(1.0034932 -0.015531393 -2.4951631e-22)
(1.0018569 -0.017922109 7.4013656e-21)
(1.0001554 -0.021309072 7.1029807e-21)
(0.99892758 -0.025487839 -4.7758837e-22)
(0.99837069 -0.030679718 -1.1931927e-21)
(0.99896748 -0.036528728 1.4527675e-20)
(1.001022 -0.04285498 -7.6337372e-21)
(1.0047882 -0.049005309 7.3161057e-22)
(1.0103068 -0.054491586 0)
(1.0173368 -0.058576155 2.5178759e-21)
(1.0254503 -0.060817182 -1.7799178e-21)
(1.0339238 -0.060817092 3.0338083e-21)
(1.0420816 -0.058606482 4.7449066e-22)
(1.0491805 -0.054400871 -6.0905851e-21)
(1.0547985 -0.048702298 -3.8033911e-22)
(1.0586085 -0.042085697 -5.3232361e-21)
(1.0606702 -0.035131405 -6.0656958e-21)
(1.0610962 -0.028348753 1.6885399e-21)
(1.0602493 -0.022080066 6.4740192e-22)
(1.0584227 -0.016569437 -3.9461697e-22)
(1.0560482 -0.011923634 3.384618e-23)
(1.0533741 -0.008099498 -1.2681032e-21)
(1.050839 -0.0052082954 -1.1416278e-21)
(1.0484849 -0.0028205659 3.3322663e-22)
(1.0469483 -0.0015372536 7.254744e-22)
(1.0456168 -3.3995462e-05 5.4599267e-23)
(0.99098798 -0.0072378977 -2.1986193e-22)
(1.0000603 -0.0084280233 -1.7364924e-22)
(1.0052541 -0.00909319 -2.084594e-21)
(1.0070161 -0.010130078 -3.7315779e-21)
(1.0072888 -0.010959056 8.2640209e-22)
(1.0063835 -0.012040002 4.1636161e-22)
(1.0051081 -0.013229301 6.0717136e-21)
(1.0032505 -0.014989825 -3.5664914e-21)
(1.0013857 -0.017246509 -1.2346579e-21)
(0.99935492 -0.020505352 -1.4783385e-20)
(0.99771343 -0.024635147 6.3653406e-21)
(0.99664559 -0.029889665 1.0826078e-20)
(0.99667484 -0.035972924 1.041802e-22)
(0.9981405 -0.042757439 -7.1867633e-21)
(1.0013945 -0.049607905 -7.1926714e-21)
(1.0065708 -0.056034482 -9.5470627e-22)
(1.0135393 -0.061229162 1.223922e-21)
(1.0219386 -0.064647246 5.1383469e-21)
(1.0310681 -0.0657422 -8.0371272e-22)
(1.040197 -0.064411092 -9.220284e-22)
(1.0484774 -0.060759222 7.7093103e-22)
(1.0553408 -0.055248711 -9.880936e-21)
(1.0603266 -0.0484658 4.6958593e-22)
(1.063383 -0.041065494 1.2593568e-21)
(1.0645609 -0.033636291 -7.9273574e-21)
(1.0641862 -0.026623815 -2.4730449e-21)
(1.0625839 -0.020347235 -2.0579036e-21)
(1.0601559 -0.014947914 -9.9101611e-22)
(1.0572842 -0.010510888 -1.1373772e-21)
(1.0542333 -0.0069412011 2.9539142e-24)
(1.0514196 -0.0043081562 -3.0236391e-22)
(1.0488643 -0.0022020372 -1.1806823e-22)
(1.0471855 -0.0011546975 -1.7909378e-23)
(1.0457578 1.8105681e-05 -3.7538054e-22)
(0.97478708 -0.0070188952 4.6341982e-22)
(0.98994543 -0.0083176138 2.2711409e-22)
(0.9996935 -0.0089240216 2.1346292e-21)
(1.0042844 -0.0099350676 1.5011411e-21)
(1.0061752 -0.010738599 -2.9429562e-21)
(1.0059855 -0.01177569 -5.0197208e-21)
(1.004959 -0.012838437 -8.097315e-22)
(1.0030712 -0.014463188 0)
(1.0010112 -0.016562772 -4.687254e-21)
(0.99865953 -0.019673963 -1.8520102e-20)
(0.99659884 -0.023712229 -2.1406498e-21)
(0.99500898 -0.028978781 -4.1794828e-21)
(0.99444831 -0.035230291 0)
(0.99527852 -0.042403888 1.0592246e-21)
(0.99794156 -0.049893873 1.378125e-20)
(1.0026611 -0.057226665 1.2497663e-21)
(1.0094303 -0.063543836 -1.1121028e-20)
(1.0179768 -0.068209509 0)
(1.0276524 -0.070528644 7.495063e-22)
(1.0376985 -0.070248009 9.8030803e-22)
(1.0471756 -0.067334813 -9.6582227e-21)
(1.0553686 -0.06217887 1.3611127e-22)
(1.0616671 -0.05535756 0)
(1.0658864 -0.047580405 -7.8623468e-21)
(1.0679883 -0.039528109 2.0732604e-21)
(1.0682615 -0.031741214 -1.0674907e-22)
(1.0670142 -0.024639297 -3.1954197e-21)
(1.0646997 -0.01842849 2.2304033e-21)
(1.0616676 -0.013233207 1.3797123e-22)
(1.0583397 -0.0090449907 -2.2983685e-21)
(1.0549436 -0.005761168 2.3485543e-21)
(1.0518785 -0.0034037679 1.0357854e-21)
(1.0491451 -0.0015874025 0)
(1.0473377 -0.00077190087 -1.3340748e-24)
(1.0458489 9.3962131e-05 -2.3504088e-22)
(0.95165433 -0.0067205944 3.8788586e-22)
(0.97347167 -0.0081920293 1.0661315e-22)
(0.98963125 -0.0087417926 1.6487876e-21)
(0.99874112 -0.0097393729 6.768676e-22)
(1.0034452 -0.010494105 -3.7190947e-22)
(1.0048675 -0.011485266 -1.2838383e-21)
(1.0045564 -0.012488424 -5.5887012e-21)
(1.0028687 -0.013938048 -4.0685807e-22)
(1.0007201 -0.015891678 0)
(0.99808318 -0.018820419 6.172797e-21)
(0.99560757 -0.022740991 -6.2760917e-21)
(0.99348325 -0.027965262 -1.5740241e-23)
(0.99231037 -0.034325442 -5.0979877e-21)
(0.99246427 -0.041814426 7.8447713e-21)
(0.99446672 -0.049875532 5.9631646e-21)
(0.99862405 -0.058065566 1.0625799e-20)
(1.0050575 -0.065495942 -2.4691545e-20)
(1.0136026 -0.071459471 -7.6123131e-21)
(1.023693 -0.075115506 9.1873456e-21)
(1.0345732 -0.07605196 -1.1790023e-20)
(1.0452334 -0.074070627 9.9820536e-21)
(1.0548176 -0.069457099 -4.7341158e-21)
(1.0625536 -0.062748253 0)
(1.0681 -0.054694583 -2.1888522e-21)
(1.0713079 -0.046055449 4.7222381e-22)
(1.0724012 -0.037488453 3.5661926e-21)
(1.0716766 -0.029504706 1.5919232e-21)
(1.0695908 -0.022410682 7.8753875e-22)
(1.0665552 -0.016380468 1.4244971e-21)
(1.0629736 -0.011434111 0)
(1.0592187 -0.0075447815 2.0330783e-21)
(1.0555112 -0.0045717067 2.5369059e-21)
(1.0522228 -0.0025030058 1.9490121e-22)
(1.0493333 -0.00098016362 -5.2798706e-22)
(1.0474176 -0.00039322156 -5.0123749e-23)
(1.0458869 0.00018007409 1.1355261e-21)
(0.9224049 -0.0061929404 -4.9575982e-22)
(0.94925825 -0.0079450858 6.7071738e-23)
(0.97307163 -0.008511951 -5.8099386e-22)
(0.98858472 -0.0095174754 -8.6892123e-23)
(0.99786136 -0.010239443 3.2215711e-21)
(1.0021019 -0.011163654 3.9242866e-21)
(1.0034296 -0.012100709 2.0508421e-22)
(1.0024328 -0.013465344 -4.0771093e-21)
(1.0004267 -0.015212045 -4.0332486e-22)
(0.99761412 -0.017973733 -5.4403977e-21)
(0.99475693 -0.021727402 2.1506345e-22)
(0.99209704 -0.026875874 4.1506843e-21)
(0.99028962 -0.033278463 1.1170676e-21)
(0.98972801 -0.04101394 5.7597443e-21)
(0.99100668 -0.049569711 -3.2418161e-20)
(0.99450432 -0.058555009 -3.9071375e-22)
(1.000471 -0.067070958 8.9415344e-21)
(1.0088606 -0.074358305 1.1063066e-20)
(1.0192173 -0.07944574 -1.0294113e-20)
(1.0308212 -0.08175537 -2.9363144e-21)
(1.0426204 -0.080902971 6.0670681e-21)
(1.0536314 -0.077036016 -1.0015865e-20)
(1.062913 -0.070617161 6.7196636e-21)
(1.0699465 -0.062411037 0)
(1.074444 -0.053251477 7.8031725e-21)
(1.0765437 -0.043905977 8.1958057e-21)
(1.0765073 -0.035006966 -2.4435319e-21)
(1.0748048 -0.02695109 5.4569783e-21)
(1.0718659 -0.020002584 2.0163476e-22)
(1.0681692 -0.014213017 -1.5224881e-21)
(1.0640635 -0.0095900819 -1.3872121e-21)
(1.0599273 -0.0060271539 -7.4561227e-22)
(1.055944 -0.003383961 -1.7826458e-22)
(1.0524613 -0.0016126365 6.1328563e-22)
(1.0494359 -0.00038425673 -5.3890991e-22)
(1.0474314 -2.4749774e-05 -8.4400242e-23)
(1.0458612 0.00027464542 5.8816582e-22)
(0.89055239 -0.0053905798 7.6802844e-23)
(0.91770063 -0.0075481066 -4.2625522e-23)
(0.94840388 -0.008183647 -9.0822149e-22)
(0.97161357 -0.0092265759 -6.5671798e-22)
(0.9875515 -0.0099388201 1.4206676e-22)
(0.99639972 -0.010826805 -2.3768592e-22)
(1.0006158 -0.011672928 -2.0360474e-21)
(1.0012698 -0.012933783 5.563972e-22)
(0.99992284 -0.014600179 0)
(0.9971678 -0.017100823 1.1691175e-21)
(0.99403786 -0.02071073 0)
(0.990872 -0.025716442 0)
(0.98842099 -0.032121133 5.1476922e-21)
(0.98710656 -0.040023128 -8.9450378e-22)
(0.98760064 -0.048999711 -5.2457263e-21)
(0.99034731 -0.058705358 -1.063542e-20)
(0.99572078 -0.068261192 2.0293914e-20)
(1.0038006 -0.07687705 6.980106e-21)
(1.0142623 -0.083465992 8.9919244e-21)
(1.0264548 -0.087291343 3.6181612e-21)
(1.0393184 -0.087762826 -1.0753272e-20)
(1.0517626 -0.084859356 2.7600844e-21)
(1.0626774 -0.078930865 2.2463131e-21)
(1.0713489 -0.070725978 2.2219043e-21)
(1.0773225 -0.06113455 6.5112841e-22)
(1.080622 -0.05103956 1.484779e-21)
(1.0814562 -0.041192863 -1.7961288e-21)
(1.0802891 -0.032117562 -3.4429775e-21)
(1.0775852 -0.024153431 -3.6073671e-22)
(1.0738539 -0.017433497 -4.4610291e-21)
(1.0695227 -0.011980245 -1.8578111e-21)
(1.0649527 -0.0077102706 -7.7099348e-22)
(1.0604739 -0.0045080614 -2.3652487e-21)
(1.0562501 -0.0022076773 7.3196915e-22)
(1.052603 -0.00073856826 -1.4241888e-21)
(1.0494616 0.00019598894 -7.1600515e-23)
(1.0473809 0.00032880207 -5.0570937e-22)
(1.0457649 0.00038603667 0)
(0.86227172 -0.0042073353 6.4227596e-22)
(0.88231626 -0.0067170901 5.0560441e-23)
(0.91572044 -0.0076205115 -2.9400075e-22)
(0.94592698 -0.0087798801 -4.8720829e-22)
(0.97016866 -0.0095395479 -1.8674209e-21)
(0.98578172 -0.010425212 -1.5762427e-21)
(0.99476909 -0.011225785 5.4859008e-22)
(0.99837397 -0.012344323 6.8622314e-21)
(0.99869744 -0.013895385 5.8894554e-22)
(0.99654222 -0.01631881 1.1454709e-20)
(0.99336787 -0.019640697 5.1784657e-22)