/*--------------------------------*- C++ -*----------------------------------*\
| =========                 |                                                 |
| \\      /  F ield         | OpenFOAM: The Open Source CFD Toolbox           |
|  \\    /   O peration     | Version:  5.0                                   |
|   \\  /    A nd           | Web:      www.OpenFOAM.org                      |
|    \\/     M anipulation  |                                                 |
\*---------------------------------------------------------------------------*/
FoamFile
{
    version     2.0;
    format      ascii;
    class       volVectorField;
    location    "60";
    object      U_0;
}
// * * * * * * * * * * * * * * * * * * * * * * * * * * * * * * * * * * * * * //

dimensions      [0 1 -1 0 0 0 0];

internalField   nonuniform List<vector> 
9200
(
(1.0024018 -0.00075770087 -3.385504e-24)
(1.0026178 -0.0024138472 -7.3566903e-22)
(1.0046955 -0.00080225406 0)
(1.0029565 -0.0036909906 3.7052537e-22)
(1.0048583 -0.0025722961 -6.8162735e-22)
(1.0057746 -0.00083488348 0)
(1.0033277 -0.0050636237 3.840059e-23)
(1.005123 -0.0039220428 -6.6940772e-23)
(1.0059168 -0.0026926795 0)
(1.0074825 -0.00088730877 0)
(1.0038068 -0.0060783412 -6.5440083e-22)
(1.0053899 -0.0053946535 -3.3535595e-22)
(1.006145 -0.004097715 -3.7742841e-22)
(1.0075959 -0.0028952219 -2.6117866e-23)
(1.008904 -0.00093560264 5.1798443e-25)
(1.0043218 -0.0070973043 -6.0114951e-22)
(1.0057249 -0.006474942 1.0978241e-22)
(1.0063618 -0.0056460551 -1.1671155e-21)
(1.0077737 -0.0043983905 -4.1313109e-22)
(1.0089954 -0.0030893682 5.1477869e-23)
(1.0105853 -0.00099388732 1.3311338e-21)
(1.0048842 -0.0078695039 -4.2727793e-22)
(1.0060877 -0.0075690552 -7.9379995e-22)
(1.0066333 -0.0067822854 7.2171428e-22)
(1.0079227 -0.0060767081 2.8723462e-23)
(1.0091314 -0.0046886641 -5.6854366e-22)
(1.0106608 -0.0033320497 -5.5471111e-22)
(1.0121676 -0.0010486443 -6.9699018e-23)
(1.0054585 -0.0085658858 -2.865315e-23)
(1.0064675 -0.0083995137 -4.2041794e-22)
(1.0069215 -0.0079357738 -6.8056044e-22)
(1.0081033 -0.0073156584 1.3275882e-22)
(1.0092246 -0.0064904169 1.1761563e-21)
(1.0107602 -0.0050561818 5.2783327e-22)
(1.0122296 -0.003568682 9.4240753e-22)
(1.0139323 -0.0011076604 -1.5140285e-21)
(1.0060409 -0.0091001501 4.2384474e-22)
(1.0068528 -0.0091516362 -6.4641482e-22)
(1.0072198 -0.0088181824 1.2421124e-22)
(1.0082871 -0.0085777048 -4.2142388e-22)
(1.0093302 -0.0078305632 3.1308652e-22)
(1.0108066 -0.007018503 2.0695746e-21)
(1.0122957 -0.0054159754 -9.2438221e-22)
(1.0139932 -0.0038343426 1.6962894e-21)
(1.015632 -0.0011609753 3.4466378e-21)
(1.006615 -0.0095350965 -2.2001931e-22)
(1.0072331 -0.0097337534 5.0061987e-22)
(1.0075174 -0.00961776 -1.5995794e-23)
(1.008464 -0.0095572816 -4.6072225e-22)
(1.0094261 -0.009195805 9.9261092e-23)
(1.0108432 -0.0084985776 5.4699803e-22)
(1.0122997 -0.0075341315 -7.6874906e-22)
(1.014038 -0.0058248823 -1.5807599e-21)
(1.0156944 -0.0040841198 -8.4948847e-22)
(1.0174807 -0.0012143911 -2.29659e-22)
(1.0071747 -0.00985784 1.0830283e-22)
(1.0076034 -0.010210857 2.244727e-22)
(1.0078076 -0.01024184 -5.5254891e-22)
(1.0086275 -0.010445759 4.1986859e-22)
(1.0095005 -0.01026838 -1.295868e-21)
(1.0108549 -0.010009647 2.3773513e-21)
(1.0122727 -0.0091523685 1.8773682e-22)
(1.0140178 -0.0081266109 -2.8395009e-21)
(1.0157242 -0.0062117596 1.5252016e-21)
(1.0175594 -0.0043449467 -3.1641283e-21)
(1.0192671 -0.0012603673 6.1108854e-22)
(1.0077129 -0.010091113 -3.848326e-23)
(1.0079572 -0.010568887 -3.2069991e-22)
(1.0080845 -0.010753382 2.1526872e-22)
(1.0087715 -0.011147579 0)
(1.00955 -0.011240571 1.7126076e-23)
(1.0108245 -0.011221523 -5.5609089e-22)
(1.0122065 -0.010805995 5.3240313e-22)
(1.0139454 -0.0099167461 1.4155731e-21)
(1.0156891 -0.0086885635 -6.0380316e-22)
(1.0175893 -0.0066203544 1.988555e-21)
(1.0193672 -0.0045790697 1.4577549e-21)
(1.0211649 -0.0013025072 -3.1675463e-22)
(1.0082245 -0.010242159 -1.0508948e-23)
(1.0082905 -0.010830755 2.0263482e-22)
(1.0083429 -0.011138363 0)
(1.0088925 -0.011723437 0)
(1.0095706 -0.012016984 4.2750937e-22)
(1.0107515 -0.012326411 -1.2308692e-21)
(1.0120793 -0.012155763 1.6191738e-21)
(1.0138191 -0.011752977 -1.3887107e-21)
(1.0155829 -0.010646467 -8.2030978e-23)
(1.0175618 -0.0092887759 6.985678e-24)
(1.0194072 -0.0069898946 -2.7858247e-21)
(1.0213011 -0.0048054205 3.4261309e-21)
(1.0229938 -0.0013351831 -6.294241e-21)
(1.0087009 -0.010325576 1.3095135e-22)
(1.0085987 -0.011003185 -2.8320015e-23)
(1.0085789 -0.011419113 3.55783e-22)
(1.0089882 -0.012160075 -4.702086e-22)
(1.0095604 -0.012655998 5.4636783e-22)
(1.0106304 -0.013225741 -3.6400916e-22)
(1.0118945 -0.013392079 -2.7693779e-22)
(1.0136098 -0.013287492 4.9869006e-23)
(1.0154106 -0.012661629 -9.798896e-22)
(1.0174456 -0.011438251 -8.9855083e-22)
(1.0194016 -0.0098359262 -6.8838733e-22)
(1.0213681 -0.0073510312 -1.9369054e-21)
(1.0231703 -0.0049954699 -1.3914133e-21)
(1.0248867 -0.0013599084 1.8209532e-21)
(1.0091468 -0.010342701 -1.8845214e-22)
(1.0088803 -0.011098474 -7.8442096e-22)
(1.0087901 -0.011603204 -4.0232125e-23)
(1.009059 -0.012479701 5.3660904e-23)
(1.0095213 -0.013145684 -5.3567042e-23)
(1.0104651 -0.013974672 4.6022982e-22)
(1.0116497 -0.014418389 -2.4154917e-22)
(1.013322 -0.014705918 3.6734135e-22)
(1.0151335 -0.014379558 -3.3767485e-22)
(1.0172505 -0.013661949 3.7316263e-23)
(1.0192939 -0.01216884 4.1225338e-23)
(1.0214102 -0.010378254 -2.2616601e-22)
(1.0232765 -0.0076572004 3.0673481e-21)
(1.0251187 -0.0051607495 -1.6904654e-21)
(1.026705 -0.0013731715 1.5103166e-21)
(1.0095534 -0.010311992 -1.5869257e-22)
(1.0091321 -0.011128936 3.5622741e-22)
(1.008977 -0.011706594 -3.506398e-22)
(1.009108 -0.012693087 4.5569692e-22)
(1.0094583 -0.013508159 -5.3747243e-22)
(1.0102629 -0.014561897 8.7421968e-22)
(1.0113506 -0.015285616 -1.5954559e-21)
(1.0129498 -0.015909035 1.1710236e-22)
(1.0147561 -0.015980377 3.9225066e-22)
(1.0169246 -0.015600149 -9.9602399e-22)
(1.0190993 -0.014596547 4.4627746e-21)
(1.0213411 -0.012906282 -2.1202985e-21)
(1.0233842 -0.010845073 -1.0360547e-21)
(1.0252852 -0.0079270461 -3.0717276e-22)
(1.0269941 -0.0052824567 9.9731024e-23)
(1.0285319 -0.001374914 -1.7364957e-21)
(1.0099239 -0.010239248 0)
(1.0093567 -0.011104456 5.3306922e-22)
(1.0091405 -0.011740034 7.3866229e-23)
(1.0091387 -0.012814743 0)
(1.009377 -0.013754954 0)
(1.0100312 -0.015006786 0)
(1.011003 -0.015979662 1.5002845e-22)
(1.0124978 -0.016937768 -6.4844606e-22)
(1.0142687 -0.017363584 1.632102e-21)
(1.0164731 -0.01742709 -1.111906e-21)
(1.0187548 -0.0167585 3.5749445e-22)
(1.0211795 -0.015555921 -9.6417797e-22)
(1.0233776 -0.013553546 2.3215501e-22)
(1.0254854 -0.01126571 1.1895194e-21)
(1.0272272 -0.0081287307 1.6838959e-22)
(1.0288918 -0.0053652799 8.8754212e-22)
(1.0302832 -0.0013637309 0)
(1.010257 -0.010132206 -2.9258542e-22)
(1.009554 -0.011035003 -6.4146502e-22)
(1.0092821 -0.01171666 1.3028472e-21)
(1.009154 -0.012858841 8.6801595e-22)
(1.0092815 -0.013900294 9.2585144e-22)
(1.0097766 -0.015317884 0)
(1.0106139 -0.016514439 1.416053e-21)
(1.0119732 -0.017774705 -5.5967281e-22)
(1.0136782 -0.018564859 -2.684606e-21)
(1.015883 -0.019042913 2.1986208e-21)
(1.0182628 -0.018823182 6.8471314e-22)
(1.0208454 -0.017965405 4.3726079e-22)
(1.0232786 -0.016414033 -2.7793768e-21)
(1.0255741 -0.014151988 3.7935822e-21)
(1.0275368 -0.011591252 5.0679995e-22)
(1.0292165 -0.0082711465 6.4005245e-21)
(1.0307127 -0.0054008643 2.391538e-21)
(1.0319869 -0.0013392129 2.333103e-21)
(1.0105531 -0.0099977404 2.4598826e-23)
(1.0097251 -0.010929652 -4.2460336e-22)
(1.0094029 -0.011646489 -9.6449936e-23)
(1.0091561 -0.012838195 8.377086e-22)
(1.0091754 -0.013957502 -1.3039829e-22)
(1.0095057 -0.015508034 3.9356076e-23)
(1.010192 -0.016895821 -1.9454521e-21)
(1.0113883 -0.018429797 -3.2678301e-21)
(1.0129941 -0.019566123 -1.3119872e-21)
(1.0151602 -0.020474864 6.5112493e-22)
(1.0176025 -0.020689225 -5.316256e-22)
(1.0203384 -0.020297316 2.0688835e-21)
(1.0229944 -0.019068554 -1.7920412e-21)
(1.0255765 -0.017226509 9.622059e-23)
(1.0277467 -0.014632784 1.2558047e-26)
(1.0296657 -0.011836629 -1.0543413e-21)
(1.0311295 -0.008338052 2.2363434e-21)
(1.0324975 -0.0053903583 -1.3438809e-22)
(1.0336092 -0.0013011994 2.2452319e-21)
(1.0108127 -0.009842553 1.9550193e-22)
(1.0098706 -0.01079627 4.4559639e-22)
(1.0095037 -0.011539481 -2.4237376e-21)
(1.0091469 -0.012764379 -4.9798974e-22)
(1.0090615 -0.013939329 2.2711016e-22)
(1.009225 -0.01559023 -1.8127392e-23)
(1.0097481 -0.017136566 3.1105063e-22)
(1.0107582 -0.01891101 7.4884883e-22)
(1.0122306 -0.020374806 -5.6516056e-22)
(1.0143121 -0.021700249 -3.7060577e-21)
(1.0167759 -0.022375362 1.98487e-21)
(1.0196301 -0.022449504 1.1295998e-22)
(1.0225183 -0.021675414 -6.9446789e-22)
(1.0253811 -0.020135342 4.9224529e-23)
(1.0278836 -0.017901124 2.2896033e-22)
(1.0300301 -0.015017041 -3.7741003e-21)
(1.0317243 -0.011973966 1.2057145e-21)
(1.0330293 -0.0083317416 -3.7248343e-21)
(1.0342008 -0.005332439 -9.4309532e-22)
(1.035148 -0.0012496666 -2.363374e-21)
(1.0110364 -0.0096714667 6.4470977e-23)
(1.0099906 -0.010641619 7.7892765e-22)
(1.0095848 -0.01140353 4.8097196e-22)
(1.0091276 -0.01264708 7.8956345e-22)
(1.0089431 -0.013858031 -3.1079329e-22)
(1.0089414 -0.015578356 -7.4051434e-22)
(1.0092929 -0.017250152 2.4666571e-21)
(1.0100976 -0.0192291 5.1831477e-21)
(1.0114027 -0.020991909 -2.8934354e-22)
(1.0133524 -0.022716689 0)
(1.0157879 -0.023853771 -1.2203677e-21)
(1.0187188 -0.0244337 1.8328185e-21)
(1.0218119 -0.024132687 2.8693246e-21)
(1.0249762 -0.023033571 -2.8460184e-21)
(1.0278219 -0.021050874 1.0711684e-21)
(1.030341 -0.01846601 -3.0374881e-21)
(1.0322629 -0.015262908 1.1893886e-22)
(1.0338013 -0.012008112 1.4812114e-21)
(1.0348482 -0.0082488259 -2.4114953e-21)
(1.0358251 -0.0052272369 -1.6968577e-22)
(1.036591 -0.0011855379 -2.2363859e-21)
(1.0112251 -0.0094883576 -1.734768e-22)
(1.0100849 -0.010471615 6.7281344e-22)
(1.0096466 -0.011245595 1.1756969e-21)
(1.009099 -0.01249636 -1.3720342e-21)
(1.0088222 -0.01372571 -1.3331265e-21)
(1.0086608 -0.015486597 1.6619859e-23)
(1.0088368 -0.017251342 0)
(1.0094216 -0.019397606 -1.1664315e-22)
(1.0105285 -0.021424925 -1.5716729e-21)
(1.0123003 -0.023522313 -3.3953386e-21)
(1.0146535 -0.025117246 2.00168e-22)
(1.0176066 -0.026217848 1.0987772e-21)
(1.0208674 -0.026446431 -3.4009761e-22)
(1.0243136 -0.025820601 -8.3341589e-22)
(1.0275431 -0.0242356 1.9304747e-21)
(1.0304575 -0.021848626 -1.859824e-21)
(1.0327795 -0.018862142 4.0136369e-22)
(1.0345494 -0.01537812 -2.6246421e-21)
(1.0357938 -0.011930482 -3.1353198e-22)
(1.0365957 -0.0080905155 -5.9978555e-23)
(1.0373552 -0.0050768956 -1.3011615e-21)
(1.0379314 -0.0011103974 0)
(1.0113814 -0.0092973164 9.8176156e-24)
(1.0101536 -0.010291243 -3.9251784e-22)
(1.009689 -0.011071614 -6.603154e-23)
(1.0090611 -0.012320551 -1.7755377e-21)
(1.0087003 -0.013552952 -1.1967983e-21)
(1.0083877 -0.015328524 7.5830411e-22)
(1.0083884 -0.017155321 2.2161232e-22)
(1.0087435 -0.019430652 2.8098425e-21)
(1.0096263 -0.021683302 7.4286149e-22)
(1.0111774 -0.024119631 3.5384593e-22)
(1.0133921 -0.026157327 -9.9808988e-23)
(1.0163059 -0.027786591 -2.6315146e-21)
(1.0196797 -0.028578919 2.2116839e-22)
(1.0233772 -0.028496914 1.4214423e-21)
(1.0269859 -0.027357589 -2.0395356e-21)
(1.030354 -0.025317213 -2.7033396e-21)
(1.0331174 -0.022450117 3.5508822e-23)
(1.0353075 -0.019099847 4.6685325e-21)
(1.0367542 -0.015345736 2.5201808e-22)
(1.0377418 -0.011742307 -1.5259935e-21)
(1.0382512 -0.007859255 0)
(1.0387841 -0.0048840989 2.8817516e-21)
(1.0391639 -0.0010265129 4.2247093e-23)
(1.0115114 -0.0091013068 6.5710625e-22)
(1.0101983 -0.010104349 -8.0748234e-22)
(1.0097117 -0.010886749 1.1942572e-21)
(1.0090133 -0.012126777 5.4501953e-22)
(1.0085777 -0.013349462 -1.8932645e-21)
(1.0081254 -0.015117096 0)
(1.0079546 -0.016976733 7.5531968e-23)
(1.0080752 -0.019343625 7.5083268e-22)
(1.0087134 -0.021779614 2.4226232e-21)
(1.0100056 -0.024515582 3.9735549e-21)
(1.0120266 -0.026970328 -1.5149943e-21)
(1.0148348 -0.029124058 -2.0568243e-21)
(1.0182557 -0.030506521 2.6109338e-21)
(1.022153 -0.031020059 -2.1098271e-21)
(1.0261242 -0.030413949 3.8677762e-21)
(1.0299574 -0.028779407 4.7782553e-21)
(1.0332454 -0.026180284 -2.2487525e-21)
(1.0359093 -0.022867443 1.8557018e-21)
(1.0377756 -0.019151119 -5.9256031e-21)
(1.0389484 -0.015166486 1.8296809e-21)
(1.0395926 -0.011446941 3.3601408e-21)
(1.0398059 -0.0075583188 -2.9364676e-21)
(1.0401046 -0.0046524359 1.8353113e-21)
(1.0402856 -0.00093608496 3.5882208e-23)
(1.0116254 -0.0089026324 -1.6499817e-22)
(1.0102243 -0.0099141361 -8.4903039e-22)
(1.0097161 -0.010695164 -5.7344543e-22)
(1.008955 -0.011921155 -4.0065866e-21)
(1.008454 -0.013123665 1.0614404e-21)
(1.007875 -0.014864134 -2.5568517e-21)
(1.0075402 -0.016729824 9.3991343e-23)
(1.0074262 -0.019152119 -3.3906873e-21)
(1.0078059 -0.021728167 3.4759547e-22)
(1.0088068 -0.024719428 1.4437587e-21)
(1.0105819 -0.027556864 -5.0770276e-22)
(1.0132172 -0.030219163 4.0433651e-21)
(1.0166106 -0.032205458 -1.157434e-21)
(1.0206425 -0.033359778 -2.9368937e-22)
(1.0249349 -0.033360258 1.166909e-21)
(1.029233 -0.032231493 6.6945228e-22)
(1.0330785 -0.029968232 -4.587386e-22)
(1.0363202 -0.026835906 3.0127643e-21)
(1.038677 -0.023057702 0)
(1.0402656 -0.019016384 5.131906e-22)
(1.0410379 -0.014843141 1.5262714e-22)
(1.0413475 -0.01104774 -2.8992934e-22)
(1.04125 -0.0071935628 3.9289783e-23)
(1.0413121 -0.0043859403 -2.6458831e-21)
(1.0412956 -0.00084042831 -1.2137395e-21)
(1.0117338 -0.0087040475 -4.577274e-22)
(1.0102412 -0.0097230372 6.016339e-22)
(1.009707 -0.01050036 5.0603739e-22)
(1.0088868 -0.011708468 4.8283835e-22)
(1.0083281 -0.012882872 4.0667642e-21)
(1.0076364 -0.014580242 5.7595965e-22)
(1.0071483 -0.016427906 1.2207652e-22)
(1.006804 -0.018871716 2.1253651e-22)
(1.0069175 -0.021544826 2.9895158e-21)
(1.0076017 -0.024744426 2.8973793e-22)
(1.0090847 -0.027922779 1.8762996e-21)
(1.0114814 -0.031067239 -5.4278897e-22)
(1.0147681 -0.033656932 -2.2248852e-21)
(1.0188572 -0.035485768 2.6480277e-22)
(1.0234112 -0.036160805 -1.1286071e-21)
(1.0281465 -0.035628435 -1.8101654e-21)
(1.0325708 -0.033811111 -1.1170864e-21)
(1.0364431 -0.030930339 -4.3987058e-21)
(1.039419 -0.027223476 -6.5010102e-21)
(1.0414995 -0.02302132 -3.2675366e-23)
(1.0426513 -0.018694673 6.3404863e-21)
(1.0430524 -0.01437665 1.3486568e-21)
(1.0429889 -0.010552267 -2.866464e-21)
(1.0425769 -0.0067712122 2.5848099e-21)
(1.0424036 -0.0040890496 -1.8420623e-21)
(1.0421943 -0.00073989867 1.0303934e-22)
(1.0118345 -0.0085077532 1.3485957e-23)
(1.0102609 -0.0095332301 4.4393984e-22)
(1.0096938 -0.0103052 -1.6022165e-21)
(1.0088132 -0.011492973 2.2889992e-21)
(1.0082001 -0.012632975 -2.8566655e-21)
(1.0074086 -0.014274831 2.715483e-21)
(1.0067799 -0.016083235 2.5329895e-21)
(1.0062136 -0.018517551 2.0816047e-21)
(1.0060596 -0.02124647 -4.5718428e-21)
(1.0064093 -0.024605668 -2.063606e-21)
(1.0075608 -0.028077851 -1.8563467e-22)
(1.0096576 -0.031667978 -5.2655385e-21)
(1.0127575 -0.034847539 4.8515836e-21)
(1.016818 -0.037370531 -2.3654975e-21)
(1.0215563 -0.038777613 5.721227e-22)
(1.0266801 -0.038929603 8.0361101e-22)
(1.031675 -0.03766541 -2.8715571e-21)
(1.0362229 -0.035151145 3.1989192e-21)
(1.039895 -0.031585777 -2.9508226e-21)
(1.0426157 -0.027341894 3.7215723e-22)
(1.04424 -0.022748667 0)
(1.04499 -0.018183141 2.5672612e-21)
(1.0449441 -0.01377936 3.2039499e-22)
(1.0445083 -0.0099684136 0)
(1.0437819 -0.0062984548 -3.1330499e-21)
(1.0433782 -0.0037664395 -1.3609802e-22)
(1.0429818 -0.00063468034 9.1614866e-22)
(1.0118869 -0.0083153829 1.4015247e-22)
(1.010287 -0.0093463583 9.1699083e-23)
(1.0096887 -0.010112377 -1.407858e-21)
(1.0087439 -0.011277668 7.1734042e-23)
(1.008074 -0.012379302 -9.2446768e-22)
(1.007191 -0.013955792 -3.1066834e-21)
(1.0064348 -0.015707097 -1.7866732e-22)
(1.0056578 -0.018103916 -2.541179e-21)
(1.0052407 -0.020850063 7.6769895e-22)
(1.0052454 -0.024320203 3.1224183e-21)
(1.0060342 -0.028035417 -4.5020245e-21)
(1.0077764 -0.032026739 -2.3113335e-21)
(1.0106114 -0.035769343 -3.0305008e-21)
(1.0145522 -0.03899172 5.6287081e-22)
(1.019384 -0.041173469 -2.818383e-21)
(1.0248262 -0.042091056 9.3841093e-22)
(1.0303608 -0.041488725 -3.5362415e-21)
(1.0356008 -0.039459935 9.6526254e-21)
(1.040042 -0.036150949 3.1527073e-21)
(1.0434999 -0.031928866 5.8589024e-22)
(1.045764 -0.027168814 3.7364174e-21)
(1.0469543 -0.022236161 -4.174938e-22)
(1.0471899 -0.017500218 -2.3357674e-22)
(1.0467114 -0.013059152 0)
(1.0458973 -0.0093066946 0)
(1.0448627 -0.0057828319 2.5089717e-22)
(1.0442362 -0.0034227577 -1.8852273e-21)
(1.0436594 -0.00052542709 -1.508325e-21)
(1.0117768 -0.0081280605 0)
(1.0102896 -0.0091660991 3.2130986e-22)
(1.0096965 -0.0099236773 1.4055027e-21)
(1.0086916 -0.011065893 1.3521075e-21)
(1.0079596 -0.012125312 2.869471e-21)
(1.0069869 -0.013630239 6.8238353e-22)
(1.0061131 -0.015309155 -1.9758088e-21)
(1.0051376 -0.017644178 -4.3439935e-21)
(1.0044662 -0.020372281 4.2656477e-21)
(1.0041229 -0.023905862 -5.3912486e-22)
(1.0045265 -0.027811613 3.6046029e-22)
(1.0058669 -0.032152696 5.0498413e-22)
(1.0083642 -0.036420166 -8.7047533e-21)
(1.0120925 -0.040331737 9.4015618e-22)
(1.0169173 -0.043315483 1.0290297e-21)
(1.0225903 -0.04506802 -2.8494312e-21)
(1.0286092 -0.04523438 1.1889165e-21)
(1.0345349 -0.043816005 -2.8402845e-21)
(1.0397898 -0.040888496 7.4192655e-21)
(1.0440828 -0.036795774 -1.9443504e-21)
(1.0471036 -0.031920805 3.1704149e-21)
(1.0489125 -0.026699764 2.0625507e-21)
(1.04953 -0.021501225 -1.5189792e-22)
(1.0492801 -0.016646417 -6.4009341e-21)
(1.0483385 -0.012229725 -1.7744664e-21)
(1.0471511 -0.0085777556 3.2183295e-22)
(1.0458187 -0.0052320387 2.4609179e-21)
(1.0449801 -0.0030622645 -1.0305869e-21)
(1.0442335 -0.00041324759 1.7734635e-21)
(1.0112927 -0.0079564113 -4.1549101e-22)
(1.0101678 -0.0089946789 0)
(1.009691 -0.0097424304 0)
(1.0086629 -0.010859395 0)
(1.0078703 -0.011875105 -7.3207572e-22)
(1.0068053 -0.013303188 2.6872847e-21)
(1.0058187 -0.014898329 1.5364121e-22)
(1.0046543 -0.017150015 3.950014e-22)
(1.003739 -0.019829201 6.6035587e-21)
(1.0030513 -0.023380862 -7.5952238e-21)
(1.0030555 -0.027424366 2.455759e-21)
(1.0039563 -0.032059419 -1.0626065e-21)
(1.0060504 -0.036803514 3.3766502e-21)
(1.0094757 -0.041379984 -1.154016e-21)
(1.0141874 -0.045175972 6.3245522e-21)
(1.0199894 -0.047819304 1.4872964e-21)
(1.0264154 -0.048852193 -3.1203699e-21)
(1.0329935 -0.048172729 -3.5518602e-21)
(1.0390835 -0.045761984 1.4170757e-21)
(1.0442842 -0.041922324 -1.8642907e-21)
(1.0481862 -0.037026995 -3.781577e-21)
(1.0507451 -0.031554355 4.3630991e-22)
(1.0519366 -0.025946211 4.8751553e-21)
(1.0520067 -0.020541285 -2.9553755e-21)
(1.0512075 -0.015648008 -2.187437e-22)
(1.0498177 -0.011304504 -1.0225074e-21)
(1.048267 -0.0077929695 2.4168384e-21)
(1.0466514 -0.004653625 5.9860949e-22)
(1.0456145 -0.0026889373 3.4846049e-21)
(1.0447155 -0.00029987683 8.3395282e-22)
(1.0100207 -0.0077817606 1.565725e-22)
(1.0097134 -0.0088397473 3.0608446e-22)
(1.0095757 -0.0095687598 0)
(1.0086358 -0.010662193 0)
(1.0078141 -0.011630565 0)
(1.0066598 -0.012980202 0)
(1.0055601 -0.014481766 0)
(1.0042124 -0.016632837 -1.0734133e-22)
(1.0030617 -0.019235236 -2.2816113e-21)
(1.0020368 -0.022763331 8.5342914e-21)
(1.0016353 -0.026892892 9.074464e-23)
(1.0020682 -0.031763305 2.9233439e-21)
(1.0037031 -0.036928496 -8.3699475e-21)
(1.0067402 -0.042131958 5.6901108e-21)
(1.0112317 -0.046734058 -5.6908366e-22)
(1.0170501 -0.050307115 3.3358457e-21)
(1.0237859 -0.052292834 -4.6802776e-21)
(1.0309578 -0.052476554 1.4788955e-21)
(1.0378772 -0.050727798 3.9200093e-21)
(1.0440393 -0.047279579 2.1075255e-21)
(1.0489248 -0.042479741 5.1003359e-22)
(1.0523791 -0.036831291 3.0218187e-21)
(1.0542869 -0.03083132 9.5869893e-23)
(1.0548678 -0.024906662 -1.9040364e-21)
(1.0542995 -0.019392594 1.2301876e-21)
(1.0529804 -0.01451371 5.1401341e-21)
(1.0511433 -0.010298936 1.3095441e-21)
(1.049245 -0.0069635749 -1.0526473e-21)
(1.0473639 -0.0040549471 6.6284549e-23)
(1.0461456 -0.0023073847 -2.0785159e-21)
(1.0451111 -0.00018887421 -4.5961124e-22)
(1.0070254 -0.007594444 5.0180262e-22)
(1.0085177 -0.0086857211 2.9721203e-22)
(1.0091456 -0.0094142179 1.1229178e-21)
(1.0085186 -0.010473125 2.0135274e-21)
(1.0077712 -0.011396637 0)
(1.0065595 -0.012663607 0)
(1.0053514 -0.014067333 2.1830402e-22)
(1.0038229 -0.016100799 3.7926741e-21)
(1.0024399 -0.018604478 -5.9002218e-21)
(1.0010848 -0.022070148 7.5831804e-21)
(1.0002762 -0.026237006 -3.2943422e-22)
(1.0002225 -0.031283326 -6.5960007e-21)
(1.0013528 -0.036808496 1.8279211e-21)
(1.0039246 -0.0425901 -8.6529445e-22)
(1.0080913 -0.047975543 -5.3056363e-21)
(1.013807 -0.052499421 2.9612369e-22)
(1.0207388 -0.055508156 7.8484694e-21)
(1.0284211 -0.056672417 -4.362857e-22)
(1.0361374 -0.055732679 -3.8373255e-21)
(1.0432896 -0.052831193 1.2672302e-20)
(1.0492462 -0.04826052 -1.2186804e-22)
(1.0537233 -0.042536692 -3.394414e-21)
(1.05651 -0.036196852 6.9886818e-21)
(1.0577486 -0.029750663 3.5556064e-21)
(1.0576084 -0.023617773 -4.3375394e-22)
(1.0564367 -0.01805565 2.9339028e-21)
(1.0545764 -0.013269028 1.4946693e-21)
(1.0523129 -0.0092278687 4.642987e-22)
(1.0500869 -0.0061006693 -1.1284587e-21)
(1.0479604 -0.0034432784 -2.2159497e-22)
(1.0465779 -0.0019232515 -5.4698823e-22)
(1.0454048 -8.9191435e-05 -1.4492054e-23)
(1.0011905 -0.0074096259 -2.1145371e-22)
(1.0056811 -0.0085349878 -4.2381078e-22)
(1.0079936 -0.0092506812 -1.3187341e-21)
(1.0081071 -0.0103063 -1.8526419e-21)
(1.0076528 -0.011170527 0)
(1.0064871 -0.012360493 0)
(1.0052016 -0.013657919 0)
(1.0035013 -0.015564793 -2.4929081e-22)
(1.0018853 -0.017947852 7.3877916e-21)
(1.0002034 -0.021318479 7.0888369e-21)
(0.99898745 -0.02547569 -4.7715332e-22)
(0.99843505 -0.030640051 -1.1907466e-21)
(0.9990263 -0.036460957 1.4500761e-20)
(1.0010657 -0.042762174 -7.617968e-21)
(1.0048093 -0.048893935 7.2802114e-22)
(1.0103005 -0.054370211 0)
(1.0173019 -0.058454214 2.5168011e-21)
(1.0253895 -0.06070408 -1.7818581e-21)
(1.0338429 -0.060719687 3.0229454e-21)
(1.0419877 -0.058528731 4.7620093e-22)
(1.0490808 -0.054343624 -6.082922e-21)
(1.0546994 -0.04866408 -3.7564265e-22)
(1.0585145 -0.042063254 -5.3196027e-21)
(1.0605841 -0.035121004 -6.0641533e-21)
(1.0610189 -0.028346683 1.6901482e-21)
(1.0601808 -0.022083301 6.4649233e-22)
(1.0583623 -0.016575551 -3.9419827e-22)
(1.0559949 -0.011930917 3.3936896e-23)
(1.0533266 -0.0081067633 -1.2696936e-21)
(1.0507961 -0.0052147867 -1.1420799e-21)
(1.0484457 -0.0028255992 3.3305853e-22)
(1.0469116 -0.0015406519 7.2886699e-22)
(1.045582 -3.4803415e-05 5.3775582e-23)
(0.99098 -0.0072145616 -2.2045237e-22)
(1.000042 -0.0084056909 -1.7349454e-22)
(1.0052287 -0.0090762686 -2.0867606e-21)
(1.0069825 -0.010127289 -3.7334153e-21)
(1.0072539 -0.010970186 8.2681249e-22)
(1.0063556 -0.012065694 4.1570249e-22)
(1.0050946 -0.013263782 6.0664109e-21)
(1.0032576 -0.015028575 -3.561357e-21)
(1.0014151 -0.017278821 -1.2322298e-21)
(0.99940697 -0.020521681 -1.4753313e-20)
(0.99778043 -0.02462892 6.3513971e-21)
(0.99671986 -0.029854105 1.08036e-20)
(0.99674578 -0.035906057 1.0472934e-22)
(0.99819744 -0.042661579 -7.176171e-21)
(1.0014284 -0.04948911 -7.1827468e-21)
(1.0065752 -0.055901506 -9.5060602e-22)
(1.0135117 -0.061092329 1.2233346e-21)
(1.0218808 -0.064517428 5.1249105e-21)
(1.0309854 -0.065627903 -8.0399366e-22)
(1.040097 -0.064317876 -9.1971647e-22)
(1.0483683 -0.060689193 7.772207e-22)
(1.0552305 -0.055201006 -9.872958e-21)
(1.0602208 -0.048437163 4.667038e-22)
(1.0632854 -0.041051769 1.2648142e-21)
(1.0644732 -0.033633131 -7.9264467e-21)
(1.0641088 -0.026627515 -2.473503e-21)
(1.062516 -0.02035479 -2.0588571e-21)
(1.0600964 -0.01495719 -9.9011954e-22)
(1.0572318 -0.010520438 -1.138407e-21)
(1.0541868 -0.0069500241 3.1758858e-24)
(1.0513776 -0.0043156848 -3.0286533e-22)
(1.048826 -0.002207706 -1.1806886e-22)
(1.0471496 -0.0011584819 -1.9076344e-23)
(1.0457236 1.6847819e-05 -3.7483513e-22)
(0.97478958 -0.0069946415 4.6272874e-22)
(0.98993622 -0.0082953254 2.2690645e-22)
(0.99967714 -0.0089068252 2.1369712e-21)
(1.004258 -0.0099320509 1.5035084e-21)
(1.0061436 -0.01075034 -2.9449402e-21)
(1.0059582 -0.011803641 -5.0204434e-21)
(1.0049443 -0.012876559 -8.0912854e-22)
(1.0030774 -0.014507267 0)
(1.0010414 -0.016601778 -4.6787397e-21)
(0.99871514 -0.019697583 -1.8481984e-20)
(0.99667274 -0.023712495 -2.136971e-21)
(0.99509318 -0.028948066 -4.1704193e-21)
(0.99453175 -0.035165179 0)
(0.9953494 -0.042305766 1.0598799e-21)
(0.99798935 -0.049768216 1.3760601e-20)
(1.0026777 -0.057082208 1.2432972e-21)
(1.0094117 -0.063391618 -1.1114239e-20)
(1.0179234 -0.068061782 0)
(1.027569 -0.07039567 7.5966137e-22)
(1.0375927 -0.070137188 9.9529265e-22)
(1.0470568 -0.067249824 -9.6442732e-21)
(1.0552461 -0.062119761 1.4495382e-22)
(1.061548 -0.055321262 0)
(1.0657757 -0.047562436 -7.8603179e-21)
(1.0678887 -0.039523423 2.0767083e-21)
(1.0681736 -0.031745347 -1.0706069e-22)
(1.0669375 -0.024648518 -3.1953617e-21)
(1.0646329 -0.018440162 2.231796e-21)
(1.0616094 -0.013245435 1.3786503e-22)
(1.0582886 -0.009056617 -2.3027911e-21)
(1.0548982 -0.0057713993 2.3515993e-21)
(1.0518375 -0.0034122124 1.03688e-21)
(1.0491076 -0.0015936365 0)
(1.0473025 -0.00077603982 -1.2858102e-24)
(1.0458151 9.259561e-05 -2.3490793e-22)
(0.95167301 -0.0066961837 3.8698499e-22)
(0.97347577 -0.008171889 1.0447343e-22)
(0.98962874 -0.0087254296 1.6493955e-21)
(0.99872859 -0.0097367988 6.7779598e-22)
(1.0034225 -0.010506306 -3.7329509e-22)
(1.0048439 -0.011515099 -1.2826611e-21)
(1.0045425 -0.012530179 -5.5855183e-21)
(1.0028747 -0.013987378 -4.0592951e-22)
(1.0007509 -0.015937449 0)
(0.99814191 -0.018851634 6.1599242e-21)
(0.99568805 -0.022748258 -6.261584e-21)
(0.99357728 -0.027940084 -1.6640713e-23)
(0.99240655 -0.034262925 -5.0870458e-21)
(0.99254976 -0.04171488 7.8296122e-21)
(0.99452959 -0.049743681 5.9577645e-21)
(0.99865453 -0.057909912 1.0606764e-20)
(1.0050497 -0.065328024 -2.4678738e-20)
(1.0135553 -0.071292789 -7.6202621e-21)
(1.0236102 -0.074962122 9.1740358e-21)
(1.0344624 -0.075921334 -1.1793784e-20)
(1.0451049 -0.07396832 9.9751207e-21)
(1.054682 -0.069384409 -4.7469548e-21)
(1.0624197 -0.062702573 0)
(1.0679745 -0.054671219 -2.1881352e-21)
(1.0711943 -0.046048686 4.7316655e-22)
(1.072301 -0.037492913 3.5672617e-21)
(1.0715895 -0.029515855 1.5899229e-21)
(1.0695155 -0.022425144 7.8665806e-22)
(1.0664901 -0.016395901 1.4260464e-21)
(1.062917 -0.011448981 0)
(1.0591689 -0.0075582807 2.0369392e-21)
(1.055467 -0.0045832 2.539821e-21)
(1.0521828 -0.0025122586 1.9160263e-22)
(1.0492968 -0.00098688687 -5.2674642e-22)
(1.0473832 -0.00039763517 -5.0266353e-23)
(1.0458538 0.00017875189 1.1313056e-21)
(0.92244854 -0.0061695132 -4.9534462e-22)
(0.94928087 -0.0079276913 6.6993972e-23)
(0.9730885 -0.0084977947 -5.7947379e-22)
(0.98859433 -0.009516529 -8.6816393e-23)
(0.99785597 -0.010252734 3.2242765e-21)
(1.0020886 -0.011195174 3.9293301e-21)
(1.0034198 -0.012145762 2.0463634e-22)
(1.0024402 -0.013519867 -4.07344e-21)
(1.0004586 -0.01526464 -4.0238383e-22)
(0.99767578 -0.01801274 -5.4289743e-21)
(0.99484364 -0.021742143 2.1470267e-22)
(0.9922007 -0.026856853 4.1409388e-21)
(0.99039865 -0.033219362 1.1157617e-21)
(0.98982865 -0.040913833 5.7451583e-21)
(0.99108564 -0.049432427 -3.2360938e-20)
(0.99455007 -0.058388594 -3.9722184e-22)
(1.0004757 -0.066887214 8.9392926e-21)
(1.0088213 -0.074171796 1.1058534e-20)
(1.0191366 -0.079270325 -1.029774e-20)
(1.0307063 -0.081602715 -2.9386923e-21)
(1.0424822 -0.080780835 6.0564624e-21)
(1.0534819 -0.076947312 -1.0019637e-20)
(1.0627629 -0.070560097 6.7280796e-21)
(1.0698041 -0.062380901 0)
(1.0743144 -0.0532419 7.7937167e-21)
(1.0764293 -0.043910626 8.1963332e-21)
(1.076408 -0.035020275 -2.4467934e-21)
(1.0747195 -0.02696889 5.4609676e-21)
(1.0717927 -0.020021835 2.0144721e-22)
(1.0681061 -0.014231875 -1.5244685e-21)
(1.0640087 -0.0096073469 -1.3921465e-21)
(1.0598791 -0.0060423172 -7.4154305e-22)
(1.0559012 -0.0033965805 -1.7829863e-22)
(1.0524223 -0.0016226037 6.1007685e-22)
(1.0494002 -0.00039141397 -5.3873739e-22)
(1.0473979 -2.9328563e-05 -8.4269004e-23)
(1.0458291 0.00027283464 5.8708537e-22)
(0.8906305 -0.0053673502 7.6766167e-23)
(0.91774996 -0.0075324445 -4.2873285e-23)
(0.94844694 -0.0081738245 -9.0349334e-22)
(0.97165454 -0.0092292893 -6.577635e-22)
(0.98757492 -0.0099543591 1.4186215e-22)
(0.99640728 -0.010860717 -2.3724182e-22)
(1.0006175 -0.011721128 -2.0377746e-21)
(1.001282 -0.012993359 5.575599e-22)
(0.99995743 -0.014659419 0)
(0.99723262 -0.017147897 1.1666222e-21)
(0.99413057 -0.020733262 0)
(0.99098504 -0.025704172 0)
(0.98854284 -0.032066215 5.1355707e-21)
(0.98722275 -0.039923335 -8.928311e-22)
(0.98769654 -0.048857822 -5.2355257e-21)
(0.99040967 -0.058528756 -1.0621159e-20)
(0.99573975 -0.068061684 2.0267247e-20)
(1.0037711 -0.076670046 6.9962006e-21)
(1.0141854 -0.08326707 8.9976303e-21)
(1.026337 -0.087114471 3.6214519e-21)
(1.0391709 -0.087618229 -1.0742352e-20)
(1.0515986 -0.084751971 2.7814839e-21)
(1.0625095 -0.078860119 2.2419397e-21)
(1.0711876 -0.07068742 2.2007684e-21)
(1.0771747 -0.061121242 6.4815621e-22)
(1.080491 -0.051044144 1.4860794e-21)
(1.0813427 -0.041208607 -1.7931023e-21)
(1.0801921 -0.032139272 -3.4455835e-21)
(1.0775026 -0.024177289 -3.6076136e-22)
(1.0737832 -0.017457094 -4.4668593e-21)
(1.0694619 -0.012002096 -1.8567069e-21)
(1.0648997 -0.0077296113 -7.7021929e-22)
(1.0604272 -0.0045246784 -2.370047e-21)
(1.0562089 -0.0022212852 7.3226559e-22)
(1.0525651 -0.00074912194 -1.4158993e-21)
(1.0494268 0.00018845817 -7.0470682e-23)
(1.0473483 0.00032400387 -5.0445106e-22)
(1.0457335 0.0003844755 0)
(0.86239452 -0.0041843977 6.3797469e-22)
(0.88240346 -0.0067058694 5.0496918e-23)
(0.91579618 -0.0076176609 -2.9177358e-22)
(0.94600791 -0.008788939 -4.879017e-22)
(0.97023453 -0.0095594677 -1.8660392e-21)
(0.98582571 -0.010462612 -1.5780722e-21)
(0.99479484 -0.011277756 5.4725084e-22)
(0.99839885 -0.012408928 6.86262e-21)
(0.99873773 -0.013961524 5.8749496e-22)
(0.99661136 -0.016373589 1.1430384e-20)
(0.99346666 -0.019671568 5.1685317e-22)
(0.98992527 -0.024534402 0)