/*--------------------------------*- C++ -*----------------------------------*\
| =========                 |                                                 |
| \\      /  F ield         | OpenFOAM: The Open Source CFD Toolbox           |
|  \\    /   O peration     | Version:  5.0                                   |
|   \\  /    A nd           | Web:      www.OpenFOAM.org                      |
|    \\/     M anipulation  |                                                 |
\*---------------------------------------------------------------------------*/
FoamFile
{
    version     2.0;
    format      ascii;
    class       volVectorField;
    location    "60";
    object      UMean;
}
// * * * * * * * * * * * * * * * * * * * * * * * * * * * * * * * * * * * * * //

dimensions      [0 1 -1 0 0 0 0];

internalField   nonuniform List<vector> 
9200
(
(1.0019372 -0.00036776628 -1.7752508e-24)
(1.0019448 -0.0011292026 -3.2435209e-22)
(1.0030261 -0.00039991712 0)
(1.0019803 -0.0017447445 1.625791e-22)
(1.0030059 -0.0012364315 -3.0172551e-22)
(1.0035581 -0.00042196086 0)
(1.0019815 -0.0023800065 1.6874913e-23)
(1.0030075 -0.001904993 -3.2379687e-23)
(1.0035273 -0.0013131932 0)
(1.0044026 -0.00045721379 0)
(1.0020075 -0.002862095 -2.8171867e-22)
(1.0029556 -0.0026062337 -1.3482364e-22)
(1.0035115 -0.0020192277 -1.6641333e-22)
(1.0043567 -0.0014397624 -1.1665465e-23)
(1.0051196 -0.00048963784 2.8015191e-25)
(1.0020227 -0.0033354274 -2.5724731e-22)
(1.0029128 -0.0031335206 5.1527481e-23)
(1.003434 -0.0027675925 -5.0924961e-22)
(1.0043155 -0.0022091007 -1.7581762e-22)
(1.005062 -0.001560061 2.6870253e-23)
(1.0059835 -0.00052942003 6.0756469e-22)
(1.0020482 -0.0036984635 -1.7349913e-22)
(1.0028542 -0.0036563437 -3.431619e-22)
(1.0033593 -0.003329484 3.1507279e-22)
(1.0042014 -0.0030360146 1.1201982e-23)
(1.0049996 -0.0023902101 -2.5498176e-22)
(1.0059162 -0.00171166 -2.4734831e-22)
(1.0068058 -0.00056733481 -2.8548788e-23)
(1.0020704 -0.0040229594 6.8654506e-25)
(1.0027934 -0.0040571785 -1.7159971e-22)
(1.0032636 -0.0038884254 -2.8840635e-22)
(1.0040796 -0.0036585385 6.6695715e-23)
(1.0048553 -0.0032914795 5.1154206e-22)
(1.0058332 -0.0026202442 2.2886405e-22)
(1.0067302 -0.0018600623 4.389795e-22)
(1.0077395 -0.00060953977 -7.0574512e-22)
(1.0020958 -0.0042733808 1.6320179e-22)
(1.0027265 -0.0044166587 -2.7556705e-22)
(1.0031615 -0.0043190033 6.0174305e-23)
(1.0039297 -0.0042806226 -1.8273964e-22)
(1.0046943 -0.0039732753 1.5869171e-22)
(1.0056601 -0.0036177676 9.1324712e-22)
(1.0066286 -0.0028460441 -4.5898637e-22)
(1.0076602 -0.0020298245 7.9491308e-22)
(1.0086522 -0.00064912485 1.6184191e-21)
(1.0021199 -0.0044769184 -7.5117238e-23)
(1.0026569 -0.0046951183 2.2235217e-22)
(1.00305 -0.0047053078 -8.9943601e-24)
(1.0037656 -0.0047653913 -2.2500875e-22)
(1.0044988 -0.0046558126 3.8679964e-23)
(1.0054594 -0.0043798912 2.8130591e-22)
(1.00643 -0.0039378118 -3.3902618e-22)
(1.0075439 -0.0031063281 -7.1829736e-22)
(1.0085707 -0.0021934011 -3.8233004e-22)
(1.0096574 -0.00069020783 -1.0311973e-22)
(1.0021445 -0.0046287754 3.7138928e-23)
(1.002585 -0.0049218302 1.0854964e-22)
(1.002934 -0.0050063586 -2.3533603e-22)
(1.0035867 -0.0052015315 1.6889544e-22)
(1.0042825 -0.0051934268 -5.8906873e-22)
(1.0052166 -0.005145217 1.0566409e-21)
(1.0061936 -0.0047802649 9.8069064e-23)
(1.0073254 -0.0043091977 -1.3068405e-21)
(1.0084427 -0.0033580573 7.1383953e-22)
(1.0095796 -0.0023685328 -1.4752187e-21)
(1.0106472 -0.0007276248 2.9807405e-22)
(1.0021663 -0.0047382468 -1.7288016e-23)
(1.0025121 -0.0050910429 -1.5937758e-22)
(1.0028145 -0.0052518471 7.5943918e-23)
(1.0033984 -0.0055454556 0)
(1.0040467 -0.0056779449 9.3293107e-24)
(1.0049433 -0.0057579865 -2.805352e-22)
(1.0059081 -0.0056279595 2.3785337e-22)
(1.0070577 -0.005249844 6.439919e-22)
(1.0082092 -0.0046692308 -3.3779247e-22)
(1.0094459 -0.003629597 9.3151644e-22)
(1.0105756 -0.0025331678 6.9528881e-22)
(1.0117089 -0.00076391462 -1.489754e-22)
(1.0021871 -0.0048108693 -4.2742586e-24)
(1.0024393 -0.0052142282 9.2025168e-23)
(1.0026942 -0.0054364362 0)
(1.0032036 -0.0058273437 0)
(1.0037978 -0.0060646938 1.8844956e-22)
(1.0046431 -0.006312587 -5.8453245e-22)
(1.0055835 -0.0063170855 7.4933941e-22)
(1.0067327 -0.0061994575 -6.0881672e-22)
(1.0079164 -0.0057080351 -3.162679e-23)
(1.0092059 -0.0050605213 4.0485464e-24)
(1.0104408 -0.0038861081 -1.3451004e-21)
(1.0116501 -0.0026992552 1.7074644e-21)
(1.0127537 -0.00079542891 -3.1038864e-21)
(1.0021996 -0.0048563794 5.3433392e-23)
(1.0023669 -0.0052946277 -1.244268e-23)
(1.0025742 -0.0055714485 1.5207644e-22)
(1.003006 -0.0060415249 -2.0569074e-22)
(1.0035398 -0.0063834541 2.4250519e-22)
(1.0043226 -0.0067621344 -1.734672e-22)
(1.005225 -0.0069437029 -1.1365435e-22)
(1.006357 -0.006985407 2.558521e-23)
(1.0075591 -0.0067603034 -3.831015e-22)
(1.0088957 -0.0062111962 -3.4027771e-22)
(1.0102015 -0.005432227 -3.2190079e-22)
(1.011522 -0.0041468145 -9.0952992e-22)
(1.0127108 -0.0028500429 -6.6452502e-22)
(1.013847 -0.00082348523 9.0677656e-22)
(1.0022188 -0.0048675723 -1.0388533e-22)
(1.0022976 -0.00533828 -3.4683054e-22)
(1.0024565 -0.0056615928 -2.5833138e-23)
(1.0028085 -0.0061990727 2.5014221e-23)
(1.0032774 -0.0066286089 -2.562414e-23)
(1.0039873 -0.0071355401 2.1869902e-22)
(1.0048392 -0.0074594309 -9.5334733e-23)
(1.0059376 -0.0077046305 1.4794715e-22)
(1.0071404 -0.0076463893 -1.7690644e-22)
(1.0085134 -0.0073820181 3.9137067e-24)
(1.0098833 -0.006693645 1.8938392e-23)
(1.0112945 -0.005813475 -1.5479212e-22)
(1.0125952 -0.0043849427 1.4943912e-21)
(1.0138273 -0.002992762 -8.4981538e-22)
(1.0149181 -0.00084574397 7.6911388e-22)
(1.0022353 -0.0048577456 -6.0403125e-23)
(1.0022291 -0.0053527254 1.4396626e-22)
(1.0023419 -0.0057134994 -1.5461729e-22)
(1.0026138 -0.0063046653 1.9536982e-22)
(1.0030145 -0.0068115294 -2.3351923e-22)
(1.0036434 -0.0074268889 3.573787e-22)
(1.0044332 -0.0078923175 -7.196803e-22)
(1.0054807 -0.0083068795 5.7707532e-23)
(1.0066682 -0.0084634184 1.6885623e-22)
(1.0080566 -0.0083861886 -5.3563227e-22)
(1.0094866 -0.0079836246 2.0072253e-21)
(1.0109796 -0.00719424 -1.0717541e-21)
(1.0123888 -0.0061649308 -5.0227344e-22)
(1.0137337 -0.0046122422 -1.2751656e-22)
(1.0149248 -0.0031156204 8.088768e-23)
(1.0160124 -0.00086266033 -8.9133782e-22)
(1.0022497 -0.0048297647 0)
(1.0021635 -0.0053413878 2.2918492e-22)
(1.0022315 -0.0057317339 4.7216278e-23)
(1.0024243 -0.006365398 0)
(1.0027546 -0.0069369415 0)
(1.0032965 -0.0076468072 0)
(1.0040139 -0.0082359872 7.3499733e-23)
(1.0049948 -0.0088181289 -2.5409672e-22)
(1.006148 -0.00915945 8.1773383e-22)
(1.0075341 -0.0093202712 -4.6819748e-22)
(1.0090035 -0.0091098607 1.9875282e-22)
(1.0105803 -0.0086147349 -4.2726336e-22)
(1.0120894 -0.0076615944 1.306615e-22)
(1.0135612 -0.006504532 5.7361325e-22)
(1.0148588 -0.0048094436 5.6421263e-23)
(1.0160529 -0.0032222202 4.5388099e-22)
(1.0170778 -0.00087301475 0)
(1.0022612 -0.0047865268 -1.3160859e-22)
(1.0021007 -0.0053091719 -2.5692487e-22)
(1.0021256 -0.0057224631 5.648778e-22)
(1.0022417 -0.0063877721 3.9094724e-22)
(1.0025008 -0.0070122161 4.1134832e-22)
(1.0029517 -0.007800413 0)
(1.0035881 -0.0085004551 6.5335849e-22)
(1.0044879 -0.0092311418 -2.7314857e-22)
(1.0055888 -0.0097583451 -1.2114899e-21)
(1.0069499 -0.010130327 1.1257404e-21)
(1.0084426 -0.010168012 2.8452846e-22)
(1.0100817 -0.0098776311 2.5345902e-22)
(1.0117018 -0.0092114301 -1.3408956e-21)
(1.0132917 -0.0081197982 1.767612e-21)
(1.0147305 -0.0068035415 1.6063603e-22)
(1.0160252 -0.0049826462 3.2605991e-21)
(1.0171546 -0.0033053864 1.2159561e-21)
(1.0181404 -0.00087683738 1.228956e-21)
(1.0022688 -0.0047311041 1.0236252e-23)
(1.0020412 -0.0052609485 -1.7875062e-22)
(1.0020246 -0.0056899739 -3.3244457e-23)
(1.0020671 -0.0063774645 3.6159886e-22)
(1.0022553 -0.007043523 -5.821646e-23)
(1.0026134 -0.0078952146 -1.6517399e-23)
(1.003162 -0.0086904323 -9.5067123e-22)
(1.0039685 -0.0095545913 -1.5201721e-21)
(1.0049995 -0.010251625 -6.2455536e-22)
(1.0063137 -0.010837257 2.1511044e-22)
(1.0078058 -0.011102287 -2.796388e-22)
(1.0094915 -0.011077149 8.9814232e-22)
(1.0112035 -0.010613636 -9.2569573e-22)
(1.0129318 -0.009804637 8.8407984e-23)
(1.014505 -0.008530533 6.5868801e-23)
(1.0159553 -0.0070714717 -5.3137409e-22)
(1.0171697 -0.005119575 1.1578863e-21)
(1.0182606 -0.0033664068 -8.6596436e-23)
(1.0191686 -0.00087371339 1.2092384e-21)
(1.0022729 -0.0046664944 8.1272109e-23)
(1.0019834 -0.0052006818 1.8294149e-22)
(1.0019284 -0.0056381588 -1.0194292e-21)
(1.0019013 -0.0063402748 -2.216917e-22)
(1.00202 -0.007037403 8.6389189e-23)
(1.0022852 -0.0079384728 -2.3497294e-23)
(1.0027413 -0.0088133733 1.4208699e-22)
(1.0034446 -0.0097929583 2.8937844e-22)
(1.0043898 -0.010646432 -2.6596247e-22)
(1.0056351 -0.011430936 -1.7144266e-21)
(1.0071027 -0.011930534 7.8197007e-22)
(1.008809 -0.012155357 1.1294427e-22)
(1.0106008 -0.011961023 -2.5663169e-22)
(1.0124504 -0.011355797 1.527855e-23)
(1.0141898 -0.010345743 1.7634451e-22)
(1.0157899 -0.0089066171 -1.8883544e-21)
(1.0171674 -0.00728927 6.9979727e-22)
(1.0183297 -0.0052224841 -1.9218072e-21)
(1.0193335 -0.0034019312 -4.9139925e-22)
(1.0201701 -0.00086361025 -1.2887641e-21)
(1.0022731 -0.0045951104 3.0644321e-23)
(1.0019262 -0.0051302411 3.2764613e-22)
(1.0018369 -0.005570612 2.2716635e-22)
(1.0017445 -0.0062814163 3.3382142e-22)
(1.0017961 -0.0069996102 -1.5387164e-22)
(1.0019698 -0.0079370849 -3.2136552e-22)
(1.0023306 -0.0088762954 1.1094267e-21)
(1.0029237 -0.0099534268 2.3811244e-21)
(1.0037692 -0.010946239 -2.2158999e-23)
(1.0049252 -0.011916283 0)
(1.0063428 -0.012640401 -4.5689735e-22)
(1.0080427 -0.013126538 9.6709903e-22)
(1.0098891 -0.013193855 1.31854e-21)
(1.0118515 -0.012864504 -1.4849888e-21)
(1.013745 -0.012045117 4.4677835e-22)
(1.0155384 -0.010851181 -1.4693801e-21)
(1.0170763 -0.0092216541 1.6965416e-22)
(1.0184096 -0.0074607044 8.1226707e-22)
(1.019459 -0.0052852109 -1.3040914e-21)
(1.020385 -0.0034122697 -7.6171859e-23)
(1.0211304 -0.00084657267 -1.2432074e-21)
(1.0022691 -0.0045186034 -6.1652749e-23)
(1.0018698 -0.0050516889 2.8167148e-22)
(1.0017496 -0.0054914361 4.8572657e-22)
(1.0015964 -0.0062054714 -5.6113803e-22)
(1.0015844 -0.0069355728 -5.7407097e-22)
(1.0016693 -0.007897977 -8.3114241e-24)
(1.001934 -0.0088866859 0)
(1.0024122 -0.010043554 -1.2921433e-22)
(1.0031469 -0.011157488 -7.7353877e-22)
(1.0041953 -0.012295406 -1.4626892e-21)
(1.005538 -0.013234066 1.7640065e-22)
(1.007202 -0.013975604 5.4882597e-22)
(1.0090755 -0.014322925 -1.8646259e-22)
(1.0111259 -0.014269345 -3.3128853e-22)
(1.0131717 -0.013718608 9.6344049e-22)
(1.0151513 -0.012701869 -9.5669954e-22)
(1.0169068 -0.011286289 1.9391672e-22)
(1.0184097 -0.0094807692 -1.3441599e-21)
(1.0196272 -0.00757537 -8.7489506e-23)
(1.020577 -0.0053083055 -1.6983116e-23)
(1.0213966 -0.0033966755 -7.2419766e-22)
(1.0220479 -0.00082275243 0)
(1.0022608 -0.0044386887 1.2784621e-23)
(1.0018131 -0.0049682276 -1.6447251e-22)
(1.0016656 -0.0054039504 -3.1812984e-23)
(1.0014563 -0.0061160192 -7.4657433e-22)
(1.001385 -0.0068502237 -5.2434924e-22)
(1.0013847 -0.0078275122 3.2172215e-22)
(1.0015544 -0.008851773 1.5134958e-22)
(1.0019155 -0.010071139 1.2245626e-21)
(1.0025309 -0.011287197 3.0222878e-22)
(1.0034564 -0.012573605 1.6779579e-22)
(1.0047008 -0.013711572 -5.0115262e-23)
(1.0062993 -0.014701532 -1.3192344e-21)
(1.0081678 -0.015330105 8.565628e-23)
(1.0102782 -0.015577339 1.04212e-21)
(1.012455 -0.015303822 -7.7657104e-22)
(1.0146261 -0.014547374 -1.2293124e-21)
(1.0165996 -0.013282334 -5.2756348e-23)
(1.0183418 -0.011657482 2.3502786e-21)
(1.01973 -0.0096683468 1.5596829e-22)
(1.0208478 -0.0076339738 -8.2513597e-22)
(1.0216564 -0.005290026 0)
(1.022368 -0.0033555137 1.6367306e-21)
(1.022916 -0.00079247586 1.9221367e-23)
(1.0022493 -0.004356676 2.6943736e-22)
(1.0017557 -0.004880954 -3.1863725e-22)
(1.0015842 -0.0053101771 4.8019196e-22)
(1.0013234 -0.0060161686 2.1186901e-22)
(1.0011975 -0.0067482698 -7.8371822e-22)
(1.0011165 -0.0077315692 0)
(1.0011938 -0.0087785699 4.5082031e-23)
(1.0014378 -0.010044287 2.8632606e-22)
(1.0019284 -0.01134327 1.0820103e-21)
(1.0027189 -0.012757463 1.90672e-21)
(1.0038443 -0.014076366 -6.0223817e-22)
(1.0053485 -0.015301674 -9.3978095e-22)
(1.0071782 -0.016210587 1.2079455e-21)
(1.009314 -0.016767095 -8.6901619e-22)
(1.0115962 -0.016804376 1.7244183e-21)
(1.0139417 -0.016325005 1.9613421e-21)
(1.0161481 -0.015297735 -1.388171e-21)
(1.0181376 -0.013794195 9.1427437e-22)
(1.0197813 -0.011942858 -3.1822504e-21)
(1.0210697 -0.0097850739 1.1335731e-21)
(1.0220325 -0.0076329857 1.8913991e-21)
(1.0227014 -0.0052308037 -1.7105441e-21)
(1.0232908 -0.0032895585 1.0926998e-21)
(1.0237315 -0.00075613595 1.6968987e-23)
(1.0022373 -0.0042735414 -8.1981009e-23)
(1.0016983 -0.0047915856 -3.4570336e-22)
(1.0015047 -0.0052125393 -2.5856936e-22)
(1.0011965 -0.0059091306 -1.6470869e-21)
(1.0010211 -0.0066337711 4.2528369e-22)
(1.0008645 -0.0076153107 -1.0550763e-21)
(1.0008536 -0.0086736551 5.199952e-23)
(1.0009823 -0.009970789 -1.4389777e-21)
(1.0013454 -0.011334021 1.0128542e-22)
(1.0019919 -0.012854613 6.3397935e-22)
(1.0029807 -0.014333622 -1.1261691e-22)
(1.0043642 -0.015777034 1.9120851e-21)
(1.0061209 -0.016958355 -4.3819358e-22)
(1.0082446 -0.017829627 -1.5692178e-22)
(1.0105976 -0.01819573 2.4714157e-22)
(1.0130951 -0.018035165 3.3137687e-22)
(1.0155245 -0.017270595 -2.7252072e-22)
(1.0177864 -0.015978446 1.4468477e-21)
(1.0197023 -0.014207996 0)
(1.0212585 -0.012142944 2.4390182e-22)
(1.0223802 -0.009824632 7.7545687e-23)
(1.023193 -0.0075726425 -1.5536385e-22)
(1.023699 -0.00513157 5.3707861e-23)
(1.0241616 -0.0031999257 -1.5700653e-21)
(1.0244912 -0.00071420943 -7.3341976e-22)
(1.002229 -0.0041901591 -1.9653087e-22)
(1.0016442 -0.0047011755 2.4959729e-22)
(1.0014275 -0.0051127959 2.0916613e-22)
(1.0010749 -0.0057970298 1.9801899e-22)
(1.0008545 -0.0065100711 1.6724469e-21)
(1.0006277 -0.0074832416 2.566909e-22)
(1.0005337 -0.0085431976 6.4259682e-23)
(1.0005509 -0.0098581688 8.7879072e-23)
(1.0007863 -0.011267912 1.2721807e-21)
(1.0012834 -0.012873689 2.0339768e-22)
(1.0021215 -0.014490174 7.9866901e-22)
(1.003361 -0.016130983 -2.6161041e-22)
(1.0050121 -0.017571155 -1.077592e-21)
(1.0070842 -0.018755013 4.8558392e-23)
(1.0094685 -0.019464523 -6.3427945e-22)
(1.0120842 -0.019650418 -3.5442457e-22)
(1.0147206 -0.019198929 4.5612041e-22)
(1.0172532 -0.01815019 -2.0506969e-21)
(1.0194787 -0.016551539 -3.203537e-21)
(1.0213272 -0.014523876 2.4150181e-24)
(1.0227199 -0.012247248 3.3776487e-21)
(1.0236812 -0.0097862685 8.523799e-22)
(1.0243073 -0.0074537215 -1.7321935e-21)
(1.0246464 -0.0049938825 1.5721715e-21)
(1.0249765 -0.0030881993 -1.1234785e-21)
(1.0251934 -0.00066726443 6.1142732e-23)
(1.0022256 -0.0041074902 6.0363692e-24)
(1.0015979 -0.004611093 1.6926871e-22)
(1.0013552 -0.0050122656 -6.386779e-22)
(1.0009591 -0.0056819368 9.1259773e-22)
(1.0006968 -0.0063801267 -1.1356085e-21)
(1.0004051 -0.0073395881 1.1224359e-21)
(1.0002338 -0.0083926799 1.0913834e-21)
(1.0001445 -0.0097134837 8.2655526e-22)
(1.0002544 -0.011153298 -1.9337311e-21)
(1.0005996 -0.012823629 -8.8006388e-22)
(1.0012769 -0.014554283 -1.1940692e-22)
(1.002353 -0.016368975 -2.2584859e-21)
(1.0038681 -0.018049579 2.085118e-21)
(1.0058498 -0.019537086 -1.1821633e-21)
(1.0082218 -0.020596509 1.8197991e-22)
(1.0109153 -0.021153028 4.8278208e-22)
(1.0137293 -0.02105306 -1.4279028e-21)
(1.016524 -0.020305734 1.6847931e-21)
(1.0190677 -0.018916594 -1.5127904e-21)
(1.0212583 -0.017016291 2.9656898e-22)
(1.0229559 -0.014725577 0)
(1.024188 -0.012253865 1.4330535e-21)
(1.0249381 -0.0096705181 1.1721609e-22)
(1.0253758 -0.007277783 0)
(1.0255375 -0.0048201564 -1.9240543e-21)
(1.0257328 -0.0029562037 -6.6030139e-23)
(1.0258367 -0.00061588629 5.9128504e-22)
(1.0022166 -0.0040259251 6.7764637e-23)
(1.0015623 -0.0045224665 3.9169065e-23)
(1.0012927 -0.0049120854 -5.5998072e-22)
(1.0008517 -0.0055653688 1.9413212e-23)
(1.000548 -0.0062464099 -3.8648253e-22)
(1.0001954 -0.0071875791 -1.2754936e-21)
(0.99995265 -0.008227026 -7.3913689e-23)
(0.99976285 -0.0095430671 -1.0433385e-21)
(0.99975155 -0.010998219 3.4542024e-22)
(0.99994534 -0.012713598 1.2779818e-21)
(1.0004556 -0.014535032 -2.0046643e-21)
(1.0013528 -0.016498539 -1.1260294e-21)
(1.0027055 -0.018396856 -1.4009346e-21)
(1.0045594 -0.020172973 1.6791041e-22)
(1.0068744 -0.021580917 -1.4665709e-21)
(1.0095993 -0.02252418 3.2375793e-22)
(1.0125522 -0.022811229 -2.3265884e-21)
(1.0155854 -0.022413965 4.1501609e-21)
(1.0184495 -0.021298946 1.3514854e-21)
(1.0210017 -0.019567681 -3.7114152e-22)
(1.023067 -0.017349259 1.9527698e-21)
(1.02461 -0.014810081 -9.6585062e-23)
(1.0256183 -0.012161913 -1.2223417e-22)
(1.0261581 -0.0094778579 0)
(1.0263877 -0.0070480517 0)
(1.0263691 -0.0046131411 1.5193736e-22)
(1.0264288 -0.0028060275 -1.2280106e-21)
(1.0264204 -0.00056068 -1.0107966e-21)
(1.0021668 -0.0039461589 0)
(1.0015296 -0.0044368853 1.2302606e-22)
(1.0012447 -0.0048130145 5.5965766e-22)
(1.0007577 -0.0054491368 5.5057794e-22)
(1.0004103 -0.0061107734 1.1616041e-21)
(0.99999859 -0.0070304411 2.9605299e-22)
(0.99968902 -0.0080503755 -8.007145e-22)
(0.99940512 -0.0093529047 -1.7782987e-21)
(0.99927829 -0.010810111 1.7012311e-21)
(0.99932377 -0.012552616 -1.7209566e-22)
(0.99966428 -0.014442134 1.5404234e-22)
(1.0003718 -0.016528458 1.3186556e-22)
(1.0015398 -0.018618901 -3.8863345e-21)
(1.0032319 -0.020662859 2.4612618e-22)
(1.0054453 -0.022410495 3.6812173e-22)
(1.0081518 -0.023748037 -1.5630503e-21)
(1.0111967 -0.024450179 4.5716606e-22)
(1.0144338 -0.02444972 -1.5239007e-21)
(1.0176037 -0.02366727 3.6762274e-21)
(1.0205316 -0.022174344 -1.4243279e-21)
(1.0229965 -0.020071478 1.6164337e-21)
(1.0249252 -0.017545686 1.0920796e-21)
(1.0262405 -0.014772843 -4.472098e-23)
(1.0270245 -0.011969713 -3.8166029e-21)
(1.0273207 -0.0092125796 -9.7756071e-22)
(1.0273393 -0.006767975 1.494001e-22)
(1.0271382 -0.0043761384 1.622031e-21)
(1.0270636 -0.0026398777 -7.0409449e-22)
(1.0269445 -0.00050223089 1.2375435e-21)
(1.002012 -0.003870185 -2.4260049e-22)
(1.0014669 -0.0043557999 0)
(1.0012055 -0.004716764 0)
(1.0006827 -0.0053341816 0)
(1.0002894 -0.0059751454 -2.922167e-22)
(0.99981688 -0.0068702162 1.0703848e-21)
(0.99944268 -0.0078666147 8.0231231e-23)
(0.99907013 -0.0091478478 1.9426823e-22)
(0.99883423 -0.010596006 2.6533444e-21)
(0.99873655 -0.012349192 -3.0892976e-21)
(0.99890796 -0.014285444 8.9163065e-22)
(0.99941923 -0.016468681 -3.9930454e-22)
(1.0003852 -0.018723505 1.5537113e-21)
(1.0018856 -0.021010273 -2.468918e-22)
(1.003955 -0.023081392 3.0711127e-21)
(1.0065919 -0.024812326 5.3953486e-22)
(1.009676 -0.025948817 -1.835374e-21)
(1.0130717 -0.026385718 -1.4094458e-21)
(1.0165205 -0.025994049 1.2394802e-21)
(1.0198202 -0.024806018 -4.9433126e-22)
(1.0227125 -0.022890323 -1.8732112e-21)
(1.0250709 -0.020420624 2.491129e-23)
(1.0267801 -0.017595696 2.7444399e-21)
(1.0278602 -0.014610929 -1.831548e-21)
(1.0283729 -0.011683392 -2.8113653e-23)
(1.0284251 -0.0088778912 -6.6502909e-22)
(1.0282257 -0.0064421247 1.648968e-21)
(1.0278431 -0.0041126625 3.0429991e-22)
(1.0276371 -0.0024599471 2.4585597e-21)
(1.0274103 -0.00044114731 5.9713537e-22)
(1.0016251 -0.0037889562 6.2957342e-23)
(1.001304 -0.0042817352 1.0504668e-22)
(1.0011439 -0.0046235841 0)
(1.0006237 -0.0052227406 0)
(1.000192 -0.0058403949 0)
(0.99965588 -0.0067096324 0)
(0.99921572 -0.0076783011 0)
(0.99875766 -0.0089327378 -5.1642783e-23)
(0.99841848 -0.010361826 -8.6690254e-22)
(0.99818399 -0.012111611 3.4276467e-21)
(0.9981898 -0.014074576 6.2044277e-23)
(0.99850223 -0.016329668 1.0282591e-21)
(0.9992538 -0.018720275 -3.4393358e-21)
(1.0005378 -0.021221224 2.6841199e-21)
(1.0024244 -0.023593687 -2.8457855e-22)
(1.0049413 -0.02570833 1.4704523e-21)
(1.0080079 -0.027289349 -1.9459609e-21)
(1.0115087 -0.028195742 9.5717181e-22)
(1.0151963 -0.028248848 1.259497e-21)
(1.0188506 -0.027434036 8.0918699e-22)
(1.0221801 -0.025778116 2.4447772e-22)
(1.0250101 -0.023435821 1.183015e-21)
(1.0271691 -0.020598234 1.7155832e-23)
(1.0286417 -0.017494759 -1.0950632e-21)
(1.0294285 -0.014329419 5.1625656e-22)
(1.0296697 -0.011303436 3.2620595e-21)
(1.0294609 -0.0084799186 8.2261982e-22)
(1.0290437 -0.0060752963 -7.260854e-22)
(1.0284829 -0.0038264018 3.4703889e-23)
(1.0281501 -0.0022683738 -1.5375663e-21)
(1.0278213 -0.00037829517 -3.5664093e-22)
(1.0007265 -0.0036959398 3.468986e-22)
(1.000905 -0.0042062283 1.2905502e-22)
(1.000989 -0.0045388633 4.3641086e-22)
(1.000552 -0.0051144927 7.8252208e-22)
(1.0001174 -0.0057093195 0)
(0.9995231 -0.0065495355 0)
(0.99901392 -0.0074888742 1.012867e-22)
(0.9984697 -0.0087108092 1.501643e-21)
(0.99803099 -0.010113515 -2.2987419e-21)
(0.99766579 -0.011846837 2.9461715e-21)
(0.99751133 -0.013819062 -2.0002921e-22)
(0.99762602 -0.016121964 -2.6822078e-21)
(0.9981557 -0.018619827 8.5810881e-22)
(0.99920405 -0.02130428 -3.8703692e-22)
(1.000874 -0.023950562 -2.4189396e-21)
(1.0032228 -0.026431705 8.0015923e-23)
(1.0062141 -0.028457401 4.2296784e-21)
(1.0097599 -0.029856309 -2.1809334e-22)
(1.0136353 -0.030400899 -2.8498316e-21)
(1.0176124 -0.030025959 5.4871416e-21)
(1.021375 -0.028706603 -1.033623e-21)
(1.0247009 -0.026567616 -1.6327445e-21)
(1.0273661 -0.023785282 3.9967748e-21)
(1.0292978 -0.020597221 1.6557098e-21)
(1.0304645 -0.01724485 -6.1895901e-22)
(1.0309523 -0.013927339 1.886968e-21)
(1.0308927 -0.010839796 9.566541e-22)
(1.0304248 -0.0080241968 4.0889008e-22)
(1.0297913 -0.0056727723 -8.4531467e-22)
(1.0290576 -0.0035210899 -1.1020021e-22)
(1.0286042 -0.0020674451 -4.9600075e-22)
(1.0281802 -0.00031552131 -2.8931162e-23)
(0.99898323 -0.0035922905 -1.497673e-22)
(0.99998014 -0.0041270191 -1.4173387e-22)
(1.0006022 -0.0044482611 -5.0106553e-22)
(1.0003955 -0.00501736 -6.7161618e-22)
(1.0000393 -0.0055807705 0)
(0.9994208 -0.0063937102 0)
(0.99884554 -0.0072991474 0)
(0.9982122 -0.0084864825 -8.0408853e-23)
(0.99767384 -0.0098550326 2.9772959e-21)
(0.99718226 -0.011562203 2.7909839e-21)
(0.99687312 -0.013527183 -2.6791169e-22)
(0.99679376 -0.01585635 -4.6665753e-22)
(0.99709862 -0.018433384 5.8750139e-21)
(0.99789749 -0.021269598 -2.8942151e-21)
(0.99932263 -0.024158583 9.7634913e-23)
(1.0014597 -0.026981736 0)
(1.0043185 -0.029443187 1.269534e-21)
(1.0078456 -0.031346915 -1.1451639e-21)
(1.0118484 -0.032421286 5.9941199e-22)
(1.0161031 -0.032547434 4.3968373e-22)
(1.0202791 -0.031642917 -2.5430065e-21)
(1.0241117 -0.029789714 3.501876e-22)
(1.0273234 -0.027138623 -2.5781606e-21)
(1.0297842 -0.023927738 -3.3108987e-21)
(1.0314066 -0.020414787 1.2344379e-21)
(1.0322519 -0.016844259 2.4388582e-22)
(1.0324004 -0.013416784 -1.695458e-22)
(1.0320429 -0.010296279 3.583767e-23)
(1.0313121 -0.0075178237 -1.0948853e-21)
(1.0304674 -0.0052398996 -8.0608327e-22)
(1.0295682 -0.003200492 1.8351053e-22)
(1.0290012 -0.001859763 9.7742558e-22)
(1.0284853 -0.00025782958 -1.251916e-22)
(0.99592329 -0.003465257 -1.5445732e-22)
(0.99815584 -0.0040456064 -7.6202338e-23)
(0.99968935 -0.0043484629 -7.8960429e-22)
(1.0000071 -0.0049116181 -1.3738289e-21)
(0.99988561 -0.0054659224 2.9874205e-22)
(0.9993257 -0.0062394228 1.8227716e-22)
(0.99871525 -0.0071142496 2.3834475e-21)
(0.99799395 -0.0082604727 -1.3937069e-21)
(0.99735325 -0.0095919793 -5.2905026e-22)
(0.99673578 -0.011262478 -5.6991873e-21)
(0.99627621 -0.013207698 2.4089592e-21)
(0.99600739 -0.015542317 4.2411374e-21)
(0.99608792 -0.018172767 1.0772869e-22)
(0.99662904 -0.021128586 -3.0875538e-21)
(0.99778721 -0.024226552 -3.090957e-21)
(0.99967443 -0.027361898 -1.7948037e-22)
(1.0023464 -0.030240908 6.0464071e-22)
(1.0057894 -0.032651563 1.5761445e-21)
(1.0098526 -0.03428327 -4.5863811e-22)
(1.014328 -0.034964831 -2.7223301e-22)
(1.0188822 -0.034550566 1.0906219e-21)
(1.0232164 -0.033070507 -4.575277e-21)
(1.0270023 -0.030635563 -9.2905441e-23)
(1.0300477 -0.027474678 1.4518613e-21)
(1.0322085 -0.023853812 -4.4763527e-21)
(1.0334943 -0.020047732 -1.5295406e-21)
(1.0339671 -0.016304293 -1.3840672e-21)
(1.0337763 -0.012799403 -4.4890234e-22)
(1.033108 -0.0096839128 -8.6108017e-22)
(1.0321207 -0.0069675849 4.8535763e-23)
(1.031072 -0.0047821071 -2.9063115e-22)
(1.0300159 -0.0028683256 -7.5493379e-23)
(1.0293421 -0.0016477526 -2.4243231e-22)
(1.0287355 -0.00021143375 -8.3763662e-23)
(0.99103867 -0.0032943407 2.4324692e-22)
(0.99488559 -0.0039499852 9.8658801e-23)
(0.99786174 -0.0042455128 8.211556e-22)
(0.99908973 -0.004794806 5.1456687e-22)
(0.99950297 -0.0053374176 -1.0520682e-21)
(0.99916679 -0.0061027871 -1.8908588e-21)
(0.99860268 -0.0069295214 -3.1842451e-22)
(0.9978223 -0.0080398099 0)
(0.99707847 -0.0093250249 -1.8237035e-21)
(0.99633286 -0.010955043 -7.1340143e-21)
(0.99572358 -0.012866416 -9.739203e-22)
(0.99526905 -0.015190352 -1.6115921e-21)
(0.99512749 -0.017848719 0)
(0.9954069 -0.020893778 6.2930877e-22)
(0.99628229 -0.024165361 5.7762166e-21)
(0.99788757 -0.027578558 1.6095198e-22)
(1.0003232 -0.030849689 -5.3161852e-21)
(1.0036178 -0.033758355 0)
(1.00767 -0.03596417 1.2904112e-21)
(1.0122992 -0.037245574 1.9285946e-21)
(1.0171824 -0.037392453 -3.8012914e-21)
(1.0219967 -0.036373059 1.0405945e-21)
(1.0263691 -0.034247623 0)
(1.0300443 -0.031220359 -4.162252e-21)
(1.0328137 -0.027557811 1.6644649e-21)
(1.0346328 -0.023557594 -1.0857036e-22)
(1.035518 -0.019505171 -1.8790541e-21)
(1.0356103 -0.015626981 1.5668472e-21)
(1.035058 -0.012091483 6.5464211e-23)
(1.0340871 -0.0090094868 -2.121211e-21)
(1.0328491 -0.0063808542 2.2118068e-21)
(1.0316058 -0.0043046749 9.106111e-22)
(1.0304027 -0.0025280413 0)
(1.0296277 -0.0014328545 7.6652715e-24)
(1.0289357 -0.00017493086 -9.8900054e-23)
(0.98400952 -0.0030530639 1.8231772e-22)
(0.98954499 -0.0038194169 7.5203573e-23)
(0.99453721 -0.0041270867 6.6820512e-22)
(0.99723134 -0.004678304 2.4636187e-22)
(0.9985907 -0.0051937657 -8.9910663e-23)
(0.99878174 -0.0059460826 -5.3688607e-22)
(0.99843873 -0.0067672187 -2.1727086e-21)
(0.99768029 -0.0078167489 -1.8295885e-22)
(0.99685912 -0.0090637935 0)
(0.99598316 -0.010640274 2.3494048e-21)
(0.99522236 -0.012512652 -2.3361872e-21)
(0.9945827 -0.014807375 -9.884581e-23)
(0.99422115 -0.017473448 -1.9599628e-21)
(0.99423754 -0.02057689 3.0855451e-21)
(0.9948195 -0.023987621 2.7523517e-21)
(0.99611775 -0.027641136 4.138841e-21)
(0.99827321 -0.031272141 -1.1846509e-20)
(1.0013583 -0.034660851 -4.5809886e-21)
(1.0053264 -0.037445177 3.6734987e-21)
(1.0100351 -0.039360317 -6.5217309e-21)
(1.0151851 -0.040131112 4.6227915e-21)
(1.0204422 -0.039658446 -3.8730256e-21)
(1.0253969 -0.037939403 0)
(1.0297328 -0.035141156 -1.1205171e-21)
(1.0331733 -0.03151535 3.9098645e-22)
(1.0356089 -0.027377761 2.1928151e-21)
(1.0370075 -0.023044475 6.1630083e-22)
(1.037473 -0.018789234 3.2174194e-22)
(1.0371541 -0.0148299 1.1193839e-21)
(1.0362481 -0.011297042 0)
(1.0349749 -0.0082837008 1.8329916e-21)
(1.0334973 -0.0057646304 2.4423398e-21)
(1.0320703 -0.0038126626 -7.1803687e-22)
(1.0307308 -0.002182579 -1.4768691e-22)
(1.0298602 -0.0012154809 -4.59144e-23)
(1.0291015 -0.0001392731 4.6045015e-22)
(0.97506429 -0.0026936548 -2.0856036e-22)
(0.98167483 -0.0036002807 2.8717491e-23)
(0.98900178 -0.0039733247 -2.571755e-22)
(0.99379482 -0.0045470439 -3.7361977e-23)
(0.99672189 -0.0050510073 1.1031346e-21)
(0.99786658 -0.0057681614 1.4433294e-21)
(0.99805239 -0.0065763853 9.1649846e-23)
(0.99750226 -0.0076224207 -1.5284504e-21)
(0.99668128 -0.0087965555 -1.8119779e-22)
(0.99569871 -0.01033121 -2.0532156e-21)
(0.99478264 -0.012146517 1.0246842e-22)
(0.9939565 -0.014404936 1.5545017e-21)
(0.99337435 -0.017054983 5.1793147e-22)
(0.99312711 -0.020191838 2.0150926e-21)
(0.99340863 -0.023705637 -1.288549e-20)
(0.9943806 -0.02756145 -6.6160322e-22)
(0.99621927 -0.031514998 4.4139641e-21)
(0.99903855 -0.035356528 5.3127537e-21)
(1.0028503 -0.038713177 -5.564889e-21)
(1.0075592 -0.041282979 -1.7157455e-21)
(1.0129032 -0.042731113 2.1872135e-21)
(1.0185505 -0.042885774 -5.6412559e-21)
(1.0240665 -0.041672183 4.4883491e-21)
(1.0290786 -0.039205154 0)
(1.0332405 -0.035709243 3.085421e-21)
(1.0363708 -0.031503863 4.6684543e-21)
(1.0383764 -0.026934354 -1.8876744e-21)
(1.0393215 -0.022315882 3.8238641e-21)
(1.039326 -0.017917778 8.779844e-23)
(1.0385981 -0.013918447 -1.2638487e-21)
(1.0373327 -0.010433996 -1.6865627e-21)
(1.0357713 -0.0075148537 1.8341088e-22)
(1.0340662 -0.0051258864 -1.1892525e-22)
(1.032468 -0.0033107899 -4.6783295e-22)
(1.0310031 -0.0018343987 -3.3536757e-22)
(1.0300439 -0.00099634115 -4.2208054e-23)
(1.0292365 -9.4118294e-05 2.4241136e-22)
(0.96530908 -0.0021681014 2.4589596e-23)
(0.9714243 -0.0032258385 -2.7770213e-24)
(0.98069219 -0.0037377457 -4.0288394e-22)
(0.98797795 -0.0043787376 -2.428201e-22)
(0.99321773 -0.0048950577 6.2604943e-23)
(0.99597751 -0.0055941511 -1.0633246e-22)
(0.9971354 -0.0063578484 -7.2446485e-22)
(0.997106 -0.0073878784 1.4628309e-22)
(0.99648416 -0.0085660354 0)
(0.99546862 -0.010010339 4.4117431e-22)
(0.99441857 -0.011785456 0)
(0.99340113 -0.013982844 0)
(0.99259668 -0.016607719 1.912842e-21)
(0.99208319 -0.019747751 -3.5605777e-22)
(0.99205887 -0.023334769 -2.0162841e-21)
(0.99268993 -0.027351705 -4.4432951e-21)
(0.99418132 -0.03158807 8.3946688e-21)
(0.99668515 -0.035848066 4.6760934e-21)
(1.0002713 -0.039759127 4.9670808e-21)
(1.0048994 -0.042993028 2.0991021e-21)
(1.0103561 -0.045159295 -4.5405738e-21)
(1.0163272 -0.046014733 3.4388001e-21)
(1.0223666 -0.045403599 7.2565047e-22)
(1.0280534 -0.043375971 -1.1874036e-21)
(1.0329734 -0.040112945 -1.2804668e-23)
(1.0368673 -0.035926347 9.890001e-22)
(1.0395722 -0.03117798 -5.6446708e-22)
(1.0410979 -0.026227061 -2.3779988e-21)
(1.0415346 -0.021388954 -2.1473353e-22)
(1.0410721 -0.016897882 -3.6879448e-21)
(1.0399244 -0.012913362 -9.2877045e-22)
(1.0383149 -0.0095078917 -3.3985782e-22)
(1.0364753 -0.0067128899 -2.0298293e-21)
(1.0345576 -0.0044711214 -3.7811883e-22)
(1.0328016 -0.0028034228 7.9535399e-22)
(1.0312225 -0.0014858016 1.8556675e-22)
(1.0301831 -0.00077736506 -1.7596843e-22)
(1.0293372 -4.2151857e-05 0)
(0.95677885 -0.0014370609 1.8013886e-22)
(0.96000429 -0.0026252767 1.983214e-23)
(0.96968425 -0.0033543015 -1.2210949e-22)