/*--------------------------------*- C++ -*----------------------------------*\
| =========                 |                                                 |
| \\      /  F ield         | OpenFOAM: The Open Source CFD Toolbox           |
|  \\    /   O peration     | Version:  5.0                                   |
|   \\  /    A nd           | Web:      www.OpenFOAM.org                      |
|    \\/     M anipulation  |                                                 |
\*---------------------------------------------------------------------------*/
FoamFile
{
    version     2.0;
    format      ascii;
    class       volSymmTensorField;
    location    "60";
    object      UPrime2Mean;
}
// * * * * * * * * * * * * * * * * * * * * * * * * * * * * * * * * * * * * * //

dimensions      [0 2 -2 0 0 0 0];

internalField   nonuniform List<symmTensor> 
9200
(
(8.396177e-07 -1.7074304e-07 -9.2540171e-28 4.6682727e-08 2.4146327e-28 1.3484623e-48)
(9.2124752e-07 -5.6697154e-07 -1.8829644e-25 4.525287e-07 1.4765551e-25 5.1638613e-44)
(2.2320237e-06 -3.1173468e-07 0 4.9739338e-08 0 0)
(1.0807353e-06 -9.8309846e-07 1.0763518e-25 1.0731533e-06 -1.1430499e-25 1.3100288e-44)
(2.3640157e-06 -1.012593e-06 -3.0374695e-25 4.928588e-07 1.435237e-25 4.5546608e-44)
(3.1106449e-06 -3.8427855e-07 0 5.2578656e-08 0 0)
(1.2867679e-06 -1.5142645e-06 1.2564117e-26 2.0357962e-06 -1.6326109e-26 1.4011951e-46)
(2.6129079e-06 -1.6513365e-06 -3.2898803e-26 1.1584531e-06 2.2102488e-26 4.770332e-46)
(3.2655214e-06 -1.252404e-06 0 5.3028051e-07 0 0)
(4.8614727e-06 -5.1027143e-07 0 5.7906408e-08 0 0)
(1.6239501e-06 -2.0724122e-06 -2.4513227e-25 2.9548446e-06 3.3377075e-25 4.0312602e-44)
(2.8842288e-06 -2.4211616e-06 -1.6480573e-25 2.2147425e-06 1.4522463e-25 1.030563e-44)
(3.5411287e-06 -2.0084964e-06 -2.101763e-25 1.2388809e-06 1.2526848e-25 1.3732987e-44)
(5.0477399e-06 -1.6790573e-06 -1.7447336e-26 6.0200217e-07 6.0855098e-27 6.6395941e-47)
(6.5976927e-06 -6.2502657e-07 4.4565082e-28 6.3140439e-08 -4.3056917e-29 3.3799188e-50)
(2.0662285e-06 -2.7499602e-06 -2.558791e-25 4.0806414e-06 3.5993329e-25 3.3817506e-44)
(3.2845252e-06 -3.1187159e-06 6.0931005e-26 3.2098731e-06 -5.9960318e-26 1.2384859e-45)
(3.8281041e-06 -2.9140864e-06 -6.8079116e-25 2.3802626e-06 5.3674273e-25 1.3027346e-43)
(5.357242e-06 -2.6460975e-06 -2.8193885e-25 1.3975086e-06 1.4433058e-25 1.6018047e-44)
(6.8096497e-06 -2.0820709e-06 4.2693664e-26 6.7630928e-07 -1.3360903e-26 3.0631781e-46)
(9.0155651e-06 -7.7358547e-07 1.2056465e-24 7.0023551e-08 -1.0555865e-25 1.754672e-43)
(2.6491175e-06 -3.4459534e-06 -2.0686756e-25 5.071784e-06 2.8339659e-25 1.6876537e-44)
(3.7808333e-06 -3.9344424e-06 -4.6497192e-25 4.4462723e-06 4.9852193e-25 6.0536862e-44)
(4.2394213e-06 -3.6987053e-06 4.466384e-25 3.45303e-06 -3.9972287e-25 4.9854265e-44)
(5.6595787e-06 -3.8007243e-06 1.9765634e-26 2.7037761e-06 -1.3631065e-26 7.3556329e-47)
(7.1343385e-06 -3.2482014e-06 -4.5703221e-25 1.563402e-06 2.1334145e-25 3.148439e-44)
(9.2680756e-06 -2.6209609e-06 -5.0644873e-25 7.7813386e-07 1.4702989e-25 2.9788102e-44)
(1.161189e-05 -9.2223624e-07 -6.760534e-26 7.6702808e-08 5.4672986e-27 4.3066547e-46)
(3.3511857e-06 -4.2046095e-06 -1.829793e-26 6.0969206e-06 1.9235784e-26 1.5614091e-46)
(4.3802878e-06 -4.6928333e-06 -2.6246317e-25 5.5321261e-06 2.8949988e-25 1.6359052e-44)
(4.7345754e-06 -4.6001937e-06 -4.4433064e-25 4.7931566e-06 4.4117871e-25 4.3485015e-44)
(6.0722398e-06 -4.7524598e-06 1.024031e-25 3.9369122e-06 -8.1924031e-26 1.9239777e-45)
(7.4361993e-06 -4.6417711e-06 9.6126848e-25 3.0405437e-06 -6.114313e-25 1.3133003e-43)
(9.6165852e-06 -4.0593995e-06 4.8883781e-25 1.7941749e-06 -2.1041504e-25 2.6367256e-44)
(1.1905545e-05 -3.1776128e-06 9.9336916e-25 8.8293714e-07 -2.6992741e-25 8.9669995e-44)
(1.4921378e-05 -1.1000102e-06 -1.7879887e-24 8.4396093e-08 1.3306574e-25 2.3219303e-43)
(4.1760547e-06 -4.9595712e-06 2.5623397e-25 6.9804216e-06 -3.2716038e-25 1.6365532e-44)
(5.0713607e-06 -5.4893955e-06 -4.3546309e-25 6.6600728e-06 4.9444522e-25 3.9573078e-44)
(5.3172569e-06 -5.4120429e-06 8.8017201e-26 5.9767351e-06 -9.3522567e-26 1.6093154e-45)
(6.5536575e-06 -5.823978e-06 -3.2573032e-25 5.4888747e-06 2.9439747e-25 1.6899044e-44)
(7.8294058e-06 -5.7597767e-06 2.7509766e-25 4.445837e-06 -2.0591269e-25 1.080258e-44)
(9.9318676e-06 -5.7888175e-06 1.9666112e-24 3.5121758e-06 -1.1621579e-24 4.1058046e-43)
(1.2269394e-05 -4.8981668e-06 -1.0123191e-24 2.0328057e-06 4.0858966e-25 9.3006315e-44)
(1.5287065e-05 -3.865949e-06 2.0337155e-24 1.0104711e-06 -5.2114591e-25 2.9249068e-43)
(1.8457667e-05 -1.2752452e-06 4.5431033e-24 9.1299731e-08 -3.1592604e-25 1.2134638e-42)
(5.1008503e-06 -5.7163608e-06 -1.4825044e-25 7.786926e-06 1.7697883e-25 4.4061475e-45)
(5.8394254e-06 -6.2327281e-06 3.6130309e-25 7.6343826e-06 -4.1514857e-25 2.437471e-44)
(5.9719492e-06 -6.2461357e-06 -1.2176431e-26 7.207265e-06 1.3873185e-26 3.1505211e-47)
(7.0931524e-06 -6.7516583e-06 -3.794536e-25 6.881115e-06 3.7348996e-25 2.2342403e-44)
(8.2746236e-06 -6.9981719e-06 8.4283042e-26 6.2208312e-06 -7.1811653e-26 8.8123734e-46)
(1.0311697e-05 -7.1573959e-06 5.5495463e-25 5.172736e-06 -3.9025481e-25 3.3649484e-44)
(1.2593358e-05 -6.977955e-06 -8.2318513e-25 3.9999508e-06 4.6103262e-25 5.6523126e-44)
(1.5692316e-05 -5.9458033e-06 -1.9037827e-24 2.3273182e-06 7.2889968e-25 2.455701e-43)
(1.8904556e-05 -4.5671481e-06 -1.116648e-24 1.134375e-06 2.7310014e-25 7.0163686e-44)
(2.2765132e-05 -1.4730256e-06 -3.2791728e-25 9.8419562e-08 2.1301731e-26 5.0603772e-45)
(6.111175e-06 -6.4423238e-06 7.891644e-26 8.4617267e-06 -9.0006833e-26 1.0512557e-45)
(6.6684704e-06 -6.9480701e-06 1.7341229e-25 8.5242986e-06 -2.0259393e-25 5.2687466e-45)
(6.6857189e-06 -7.0057938e-06 -4.26326e-25 8.2771139e-06 4.723006e-25 2.8736938e-44)
(7.676108e-06 -7.6767777e-06 3.4745034e-25 8.335229e-06 -3.5504384e-25 1.6098772e-44)
(8.7496152e-06 -8.0446691e-06 -1.1687959e-24 7.8369578e-06 1.0974938e-24 1.6487677e-43)
(1.0723126e-05 -8.6538183e-06 2.3659219e-24 7.2823547e-06 -1.9297912e-24 5.4477421e-43)
(1.2949221e-05 -8.6142011e-06 2.1445758e-25 5.9305545e-06 -1.4416878e-25 4.0550799e-45)
(1.60639e-05 -8.4823864e-06 -3.4818645e-24 4.608636e-06 1.8525432e-24 8.0077196e-43)
(1.9359081e-05 -7.0171587e-06 2.0615114e-24 2.6152058e-06 -7.5275058e-25 2.3569608e-43)
(2.3342146e-05 -5.3864371e-06 -4.6845336e-24 1.2721625e-06 1.0897716e-24 1.0103409e-42)
(2.729003e-05 -1.6607086e-06 9.9812458e-25 1.0410932e-07 -6.0887067e-26 4.0407406e-44)
(7.1831037e-06 -7.1252909e-06 -2.8911208e-26 9.0188482e-06 3.4244846e-26 1.379476e-46)
(7.5394337e-06 -7.5993728e-06 -2.6278026e-25 9.267611e-06 3.059732e-25 1.1108487e-44)
(7.441749e-06 -7.7206782e-06 1.7232608e-25 9.2551483e-06 -1.8560823e-25 4.0505488e-45)
(8.283907e-06 -8.4867921e-06 0 9.6186436e-06 0 0)
(9.2425885e-06 -9.0631432e-06 1.6295402e-26 9.529259e-06 -1.6868094e-26 3.4728758e-47)
(1.1121155e-05 -9.8991316e-06 -5.7844761e-25 9.248531e-06 5.2763714e-25 3.3579273e-44)
(1.3315615e-05 -1.0385147e-05 5.9117484e-25 8.3930201e-06 -4.6492971e-25 2.736837e-44)
(1.6426664e-05 -1.0489495e-05 1.751911e-24 6.8955038e-06 -1.1257187e-24 1.9638038e-43)
(1.9799784e-05 -1.0031695e-05 -8.790112e-25 5.2081911e-06 4.4729413e-25 4.8187744e-44)
(2.3895726e-05 -8.2825882e-06 2.9883088e-24 2.9399063e-06 -1.0413842e-24 4.0054899e-43)
(2.8019811e-05 -6.1939571e-06 2.3855319e-24 1.3966993e-06 -5.3022121e-25 2.2065974e-43)
(3.2578523e-05 -1.8588618e-06 -5.5294627e-25 1.0908642e-07 3.1556903e-26 1.0170074e-44)
(8.2953397e-06 -7.7539641e-06 -8.5544355e-27 9.4603763e-06 9.422116e-27 9.9187723e-48)
(8.4343708e-06 -8.1873778e-06 1.7366481e-25 9.8840586e-06 -1.9426117e-25 4.1216161e-45)
(8.2247665e-06 -8.3579699e-06 0 1.0077188e-05 0 0)
(8.9021432e-06 -9.21914e-06 0 1.0798137e-05 0 0)
(9.7349323e-06 -9.9318016e-06 4.0224342e-25 1.1045377e-05 -4.2709243e-25 1.7529994e-44)
(1.1497531e-05 -1.1080873e-05 -1.2795282e-24 1.1320693e-05 1.2697941e-24 1.5386994e-43)
(1.3627766e-05 -1.1851734e-05 1.8318438e-24 1.0739037e-05 -1.615692e-24 2.6029503e-43)
(1.6773582e-05 -1.2649599e-05 -1.7226694e-24 9.8315113e-06 1.3061814e-24 1.8297972e-43)
(2.0191461e-05 -1.2441823e-05 -1.0774505e-25 7.8601531e-06 6.6545431e-26 5.9484688e-46)
(2.4477657e-05 -1.1885935e-05 1.1469548e-26 5.8937619e-06 -5.5889283e-27 6.9996691e-48)
(2.8703887e-05 -9.5380409e-06 -4.6375372e-24 3.2358617e-06 1.5464232e-24 8.172571e-43)
(3.3529314e-05 -7.0808616e-06 6.2434817e-24 1.5212896e-06 -1.3223885e-24 1.3072435e-42)
(3.8029123e-05 -2.0365474e-06 -1.2174796e-23 1.1208182e-07 6.5208243e-25 4.3689656e-42)
(9.3971209e-06 -8.3159965e-06 1.0277658e-25 9.8193175e-06 -1.1102682e-25 1.3685466e-45)
(9.3344249e-06 -8.6988218e-06 -2.5291439e-26 1.0364581e-05 2.7534511e-26 7.8629042e-47)
(9.0186404e-06 -8.9203937e-06 3.1194672e-25 1.0760935e-05 -3.4750655e-25 1.1939461e-44)
(9.516746e-06 -9.840344e-06 -4.3048759e-25 1.1798665e-05 4.8479798e-25 2.1164227e-44)
(1.0212288e-05 -1.0690974e-05 5.2350167e-25 1.2446407e-05 -5.8051321e-25 2.8724406e-44)
(1.1828357e-05 -1.2058316e-05 -3.8171568e-25 1.3214726e-05 4.0621975e-25 1.3461118e-44)
(1.3880673e-05 -1.3220884e-05 -3.0920973e-25 1.3230341e-05 2.9745813e-25 7.0125476e-45)
(1.7001532e-05 -1.4443142e-05 6.4560254e-26 1.2702863e-05 -5.5830965e-26 2.758802e-46)
(2.0544314e-05 -1.5031793e-05 -1.3091614e-24 1.1287675e-05 9.5756349e-25 8.5341913e-44)
(2.4964846e-05 -1.4817091e-05 -1.304507e-24 8.9855637e-06 7.7443329e-25 7.0888911e-44)
(2.9486025e-05 -1.3747728e-05 -1.1489968e-24 6.5285692e-06 5.3723631e-25 4.7539359e-44)
(3.4421549e-05 -1.0932067e-05 -3.4954335e-24 3.5362833e-06 1.1130055e-24 3.7904052e-43)
(3.9232591e-05 -7.9161449e-06 -2.6932753e-24 1.6218283e-06 5.4495551e-25 2.003716e-43)
(4.4136777e-05 -2.2080994e-06 3.8095833e-24 1.1352467e-07 -1.9049789e-25 3.7267378e-43)
(1.0539573e-05 -8.8149822e-06 -1.5754156e-25 1.0042847e-05 1.7906089e-25 3.8548289e-45)
(1.0236689e-05 -9.1359325e-06 -7.2456884e-25 1.0717693e-05 7.7616078e-25 6.0308989e-44)
(9.8099952e-06 -9.4018284e-06 -3.5670274e-26 1.1301747e-05 4.5320562e-26 2.3016985e-46)
(1.0114691e-05 -1.035463e-05 5.0144218e-26 1.2629265e-05 -5.8143618e-26 2.8693146e-46)
(1.0663735e-05 -1.1308566e-05 -5.2138242e-26 1.3648701e-05 6.0724133e-26 2.9109135e-46)
(1.2103665e-05 -1.2874316e-05 4.8458843e-25 1.4980835e-05 -5.4676971e-25 2.1424247e-44)
(1.4044313e-05 -1.4333748e-05 -2.6978936e-25 1.5555277e-05 2.7889271e-25 5.2492563e-45)
(1.7111422e-05 -1.6094364e-05 4.5373133e-25 1.5782469e-05 -4.2898275e-25 1.2194624e-44)
(2.0717337e-05 -1.7208589e-05 -4.8521141e-25 1.4726595e-05 4.0975098e-25 1.3007937e-44)
(2.5387801e-05 -1.797507e-05 4.5984936e-26 1.3016261e-05 -3.1494614e-26 2.0787651e-46)
(3.0138817e-05 -1.7240848e-05 6.9234607e-26 1.0051505e-05 -3.9691723e-26 1.6659372e-46)
(3.5518754e-05 -1.5845995e-05 -4.805819e-25 7.1858993e-06 2.1553057e-25 1.1508557e-44)
(4.0386806e-05 -1.2256164e-05 6.0752272e-24 3.7818686e-06 -1.8463927e-24 1.0008354e-42)
(4.5681289e-05 -8.7696307e-06 -3.6090795e-24 1.7070775e-06 6.9382425e-25 3.2428636e-43)
(5.0316202e-05 -2.3480298e-06 3.4148233e-24 1.1268638e-07 -1.593339e-25 2.7051213e-43)
(1.1662612e-05 -9.2479353e-06 -1.4990577e-25 1.0190612e-05 1.4334931e-25 2.1824038e-45)
(1.111387e-05 -9.4980261e-06 3.396115e-25 1.096714e-05 -3.4655971e-25 1.1752033e-44)
(1.0584704e-05 -9.8022528e-06 -3.2746162e-25 1.1710488e-05 3.6060531e-25 1.1830112e-44)
(1.0688972e-05 -1.0760117e-05 4.3410878e-25 1.3281176e-05 -4.9570977e-25 1.9607476e-44)
(1.108206e-05 -1.1795358e-05 -5.280099e-25 1.4660878e-05 6.1705563e-25 2.7422132e-44)
(1.2317643e-05 -1.3496366e-05 9.1293239e-25 1.6519009e-05 -1.0508244e-24 7.0176082e-44)
(1.411322e-05 -1.5233477e-05 -1.809006e-24 1.7752412e-05 2.0363454e-24 2.4641864e-43)
(1.7065804e-05 -1.7418976e-05 1.4895526e-25 1.8724839e-05 -1.5725246e-25 1.4352892e-45)
(2.07122e-05 -1.9207724e-05 5.3929677e-25 1.8461175e-05 -5.041655e-25 1.4369628e-44)
(2.5543535e-05 -2.0674344e-05 -1.6012344e-24 1.7170431e-05 1.3168191e-24 1.1772041e-43)
(3.0712686e-05 -2.1028906e-05 7.5267949e-24 1.4688214e-05 -5.1635763e-24 1.9080289e-42)
(3.6458353e-05 -2.0020965e-05 -4.0321645e-24 1.1183032e-05 2.222066e-24 4.974022e-43)
(4.189765e-05 -1.7873265e-05 -2.0844054e-24 7.7395771e-06 8.9034774e-25 1.1216523e-43)
(4.7210081e-05 -1.3626425e-05 -6.184555e-25 3.994652e-06 1.783474e-25 8.3770095e-45)
(5.2234344e-05 -9.5241636e-06 2.9497657e-25 1.7594412e-06 -5.3939002e-26 4.9713071e-45)
(5.6944533e-05 -2.4637034e-06 -4.1900256e-24 1.0980536e-07 1.8124113e-25 3.6511325e-43)
(1.2759257e-05 -9.6143335e-06 0 1.0267772e-05 0 0)
(1.1966198e-05 -9.7879495e-06 5.207415e-25 1.111817e-05 -5.318559e-25 2.7153356e-44)
(1.1333221e-05 -1.0119879e-05 6.7249578e-26 1.199151e-05 -8.5026042e-26 7.5979489e-46)
(1.1234169e-05 -1.1062749e-05 0 1.3764516e-05 0 0)
(1.1461883e-05 -1.2150595e-05 0 1.5467577e-05 0 0)
(1.2469933e-05 -1.3936199e-05 0 1.7821555e-05 0 0)
(1.4085831e-05 -1.5885441e-05 1.6986451e-25 1.9705082e-05 -2.0619743e-25 2.3285017e-45)
(1.6864822e-05 -1.8453536e-05 -7.9342364e-25 2.1546385e-05 8.8174919e-25 3.7763477e-44)
(2.0476468e-05 -2.0814245e-05 2.2826156e-24 2.2116893e-05 -2.3924047e-24 2.83116e-43)
(2.5434402e-05 -2.3157209e-05 -1.6856012e-24 2.1744695e-05 1.5407839e-24 1.134779e-43)
(3.0940025e-05 -2.4343279e-05 6.3881754e-25 1.9594758e-05 -5.1090738e-25 1.6027451e-44)
(3.7314401e-05 -2.4593439e-05 -1.7832684e-24 1.6503045e-05 1.1754967e-24 8.7459461e-44)
(4.3251222e-05 -2.2764561e-05 4.9895706e-25 1.2171085e-05 -2.6432148e-25 7.2991246e-45)
(4.9295165e-05 -2.0010352e-05 2.5875323e-24 8.2382586e-06 -1.0508883e-24 1.4574599e-43)
(5.4194254e-05 -1.4848175e-05 3.3492633e-25 4.1294951e-06 -9.1094438e-26 2.7629298e-45)
(5.9333286e-05 -1.0222412e-05 2.1749135e-24 1.7839156e-06 -3.7499168e-25 9.2717759e-44)
(6.3537712e-05 -2.5382156e-06 0 1.0473461e-07 0 0)
(1.381471e-05 -9.9130064e-06 -2.9641506e-25 1.0283202e-05 2.7749452e-25 8.1338785e-45)
(1.278341e-05 -1.0010221e-05 -6.4122699e-25 1.1186759e-05 6.2720892e-25 3.7577983e-44)
(1.2046643e-05 -1.0361645e-05 1.2825996e-24 1.2165367e-05 -1.3620304e-24 1.626178e-43)
(1.1746191e-05 -1.1271408e-05 8.4896793e-25 1.4095288e-05 -9.8528142e-25 7.3286752e-44)
(1.1801263e-05 -1.2383911e-05 9.2191316e-25 1.6076815e-05 -1.1204849e-24 8.255819e-44)
(1.2566208e-05 -1.4202121e-05 0 1.886875e-05 0 0)
(1.3969263e-05 -1.6303744e-05 1.5752771e-24 2.1392998e-05 -1.9958446e-24 1.9676502e-43)
(1.6513462e-05 -1.9156565e-05 -6.8804215e-25 2.4103716e-05 8.4958161e-25 3.2194026e-44)
(2.0013002e-05 -2.2051614e-05 -3.6367556e-24 2.5686909e-05 4.1241667e-24 6.9379067e-43)
(2.4988825e-05 -2.5168414e-05 3.4175829e-24 2.633429e-05 -3.541042e-24 5.2619088e-43)
(3.0814568e-05 -2.7428165e-05 1.1386142e-24 2.5086845e-05 -1.0145548e-24 4.2571435e-44)
(3.7727695e-05 -2.8700106e-05 8.7385428e-25 2.2285144e-05 -6.7678007e-25 2.591028e-44)
(4.4542786e-05 -2.8190291e-05 -5.7457806e-24 1.8140867e-05 3.6470537e-24 7.8926346e-43)
(5.1247252e-05 -2.5716118e-05 8.3140704e-24 1.3098033e-05 -4.1703599e-24 1.4065946e-42)
(5.6976019e-05 -2.1960954e-05 1.0229964e-24 8.5820927e-06 -3.8895253e-25 2.5647439e-44)
(6.1868557e-05 -1.599885e-05 1.5953153e-23 4.199776e-06 -4.1281417e-24 4.7007064e-42)
(6.6418e-05 -1.0777538e-05 6.1712999e-24 1.7719293e-06 -1.0017042e-24 6.5911485e-43)
(7.0288721e-05 -2.5736193e-06 6.3438396e-24 9.7726531e-08 -2.325433e-25 7.1501701e-43)
(1.481449e-05 -1.0145346e-05 2.5886287e-26 1.024828e-05 -2.282477e-26 5.5215543e-47)
(1.3562962e-05 -1.0173717e-05 -4.347411e-25 1.11908e-05 4.2194841e-25 1.6997189e-44)
(1.2719913e-05 -1.0530893e-05 -1.0064522e-25 1.2243706e-05 9.70553e-26 8.5414179e-46)
(1.2222601e-05 -1.139385e-05 8.2986231e-25 1.4288148e-05 -9.4645e-25 6.6552105e-44)
(1.2099779e-05 -1.2504659e-05 -1.3012412e-25 1.6497433e-05 1.6007039e-25 1.6431355e-45)
(1.2613151e-05 -1.4310319e-05 4.4225304e-26 1.9662428e-05 -2.8618042e-26 6.3202953e-46)
(1.3774143e-05 -1.6496744e-05 -2.1254349e-24 2.2779704e-05 2.8681527e-24 3.878316e-43)
(1.602983e-05 -1.9539381e-05 -3.9085371e-24 2.6348275e-05 5.1214553e-24 1.0507675e-42)
(1.9331543e-05 -2.2865559e-05 -1.74636e-24 2.8999719e-05 2.1708007e-24 1.7252535e-43)
(2.4213136e-05 -2.6709766e-05 9.3409742e-25 3.0903574e-05 -1.0196623e-24 3.7174939e-44)
(3.0234197e-05 -2.9982082e-05 -9.152216e-25 3.0741662e-05 9.3283078e-25 3.1765005e-44)
(3.7676703e-05 -3.2582606e-05 3.8334986e-24 2.8871509e-05 -3.323378e-24 3.9668764e-43)
(4.5316248e-05 -3.3206597e-05 -3.8006172e-24 2.479918e-05 2.8120997e-24 3.5707654e-43)
(5.3191395e-05 -3.2140824e-05 2.7644942e-25 1.9732522e-05 -1.737881e-25 4.3994885e-45)
(5.9705178e-05 -2.8485003e-05 1.1330162e-25 1.3790219e-05 -6.129132e-26 7.3162283e-45)
(6.5552312e-05 -2.3851524e-05 -2.6830794e-24 8.8008557e-06 9.7715152e-25 1.2187493e-43)
(6.9573672e-05 -1.6922736e-05 5.9495207e-24 4.1809741e-06 -1.4486769e-24 5.9362968e-43)
(7.3753023e-05 -1.1207052e-05 -4.2294894e-25 1.7270157e-06 6.49442e-26 5.0705698e-45)
(7.689975e-05 -2.5621672e-06 6.4898141e-24 8.9042792e-08 -2.1703488e-25 7.2417903e-43)
(1.5755662e-05 -1.0317984e-05 2.1000266e-25 1.017506e-05 -1.7954874e-25 3.4622334e-45)
(1.4291293e-05 -1.0282159e-05 4.6962526e-25 1.114556e-05 -4.4032773e-25 1.8662566e-44)
(1.334858e-05 -1.0632304e-05 -2.4994585e-24 1.2240539e-05 2.5291173e-24 5.6015958e-43)
(1.2662249e-05 -1.1441532e-05 -4.9493308e-25 1.4364805e-05 5.6740762e-25 2.3878394e-44)
(1.2359508e-05 -1.252682e-05 2.3104185e-25 1.6748751e-05 -2.7166035e-25 4.7070103e-45)
(1.2618692e-05 -1.4281128e-05 -1.5566138e-26 2.0216242e-05 3.5256801e-26 1.9923614e-46)
(1.3515578e-05 -1.6486179e-05 3.3289998e-25 2.3857496e-05 -4.6144535e-25 9.3961647e-45)
(1.5440343e-05 -1.9617909e-05 8.6877332e-25 2.8227201e-05 -1.1653237e-24 5.0377968e-44)
(1.84633e-05 -2.3262042e-05 -7.2841372e-25 3.1978133e-05 9.7879168e-25 3.162642e-44)
(2.3124102e-05 -2.770627e-05 -5.3928446e-24 3.5245868e-05 6.7111046e-24 1.340395e-42)
(2.9198832e-05 -3.1973879e-05 3.1903736e-24 3.6498763e-05 -3.5099935e-24 3.5111483e-43)
(3.7016626e-05 -3.5881114e-05 2.5667108e-25 3.5827368e-05 -2.7397657e-25 5.5905151e-45)
(4.5522964e-05 -3.8053167e-05 -1.3679912e-24 3.2529044e-05 1.1313109e-24 4.2256115e-44)
(5.4550751e-05 -3.8261531e-05 1.0159265e-25 2.7325149e-05 -6.9669165e-26 2.2448095e-46)
(6.253212e-05 -3.5954158e-05 6.631466e-25 2.0999746e-05 -3.9347382e-25 1.5676981e-44)
(6.9299249e-05 -3.1241333e-05 -9.8225197e-24 1.4295962e-05 4.4349313e-24 1.5149313e-42)
(7.4266216e-05 -2.5425467e-05 3.4799166e-24 8.8338923e-06 -1.2016197e-24 2.3058615e-43)
(7.7683178e-05 -1.7657416e-05 -1.0435013e-23 4.082154e-06 2.3735505e-24 1.6146096e-42)
(8.0959509e-05 -1.1463715e-05 -2.7151295e-24 1.6488566e-06 3.8475307e-25 1.0805458e-43)
(8.3367242e-05 -2.503185e-06 -7.1705041e-24 7.9041089e-08 2.1652118e-25 8.4593422e-43)
(1.6633212e-05 -1.0435331e-05 6.9959078e-26 1.0073256e-05 -6.0880707e-26 4.0998368e-46)
(1.4962015e-05 -1.0336251e-05 8.4077578e-25 1.1058419e-05 -7.7477126e-25 5.8471872e-44)
(1.3931699e-05 -1.0671834e-05 4.8885762e-25 1.2169814e-05 -5.0995587e-25 2.3208591e-44)
(1.3064007e-05 -1.1424721e-05 7.9426348e-25 1.4345597e-05 -8.869279e-25 5.8425568e-44)
(1.2584267e-05 -1.2463491e-05 -3.0405162e-25 1.68494e-05 3.9410576e-25 9.9884348e-45)
(1.2591093e-05 -1.4134444e-05 -7.4693094e-25 2.0547523e-05 1.0059698e-24 5.1775957e-44)
(1.3209772e-05 -1.6297037e-05 2.5795931e-24 2.4628227e-05 -3.7027137e-24 5.8446264e-43)
(1.4774747e-05 -1.9422564e-05 5.8202749e-24 2.9716691e-05 -8.5912071e-24 2.6088012e-42)
(1.7448357e-05 -2.3254903e-05 -3.4921905e-25 3.4539512e-05 4.1404028e-25 1.1034455e-44)
(2.1768756e-05 -2.8149171e-05 0 3.9240939e-05 0 0)
(2.7724026e-05 -3.3293622e-05 -1.8999248e-24 4.2115798e-05 2.2941556e-24 1.3123931e-43)
(3.5734198e-05 -3.851983e-05 3.4164825e-24 4.3071756e-05 -3.8079532e-24 3.7443754e-43)
(4.4958898e-05 -4.2309978e-05 5.8684843e-24 4.0906966e-05 -5.5740738e-24 7.9142742e-43)
(5.5238033e-05 -4.4317989e-05 -6.6541451e-24 3.6315255e-05 5.4144176e-24 8.9730295e-43)
(6.4755434e-05 -4.3289397e-05 2.5610155e-24 2.9456719e-05 -1.7004326e-24 1.0236252e-43)
(7.330832e-05 -3.9851794e-05 -8.0244194e-24 2.201505e-05 4.3659995e-24 9.2126832e-43)
(7.9226864e-05 -3.362721e-05 5.6563877e-25 1.4499623e-05 -2.5800969e-25 3.1596403e-44)
(8.3616022e-05 -2.675574e-05 4.4111174e-24 8.7011996e-06 -1.419955e-24 2.924485e-43)
(8.5683948e-05 -1.8106897e-05 -7.267742e-24 3.9001138e-06 1.5420312e-24 7.7886e-43)
(8.8071995e-05 -1.154697e-05 -4.5624258e-25 1.5416365e-06 5.9037781e-26 2.4808531e-45)
(8.9555052e-05 -2.3955066e-06 -7.1428541e-24 6.8186849e-08 1.929412e-25 8.3415926e-43)
(1.7445366e-05 -1.0500975e-05 -1.9406711e-25 9.9490697e-06 1.5069843e-25 2.5989973e-45)
(1.5574893e-05 -1.0340142e-05 7.4123274e-25 1.093786e-05 -6.6623052e-25 4.3907355e-44)
(1.4467853e-05 -1.0658157e-05 1.2458342e-24 1.2048883e-05 -1.2076274e-24 1.307136e-43)
(1.3426251e-05 -1.135257e-05 -1.3958657e-24 1.4249962e-05 1.5243309e-24 1.7450845e-43)
(1.2777568e-05 -1.2327868e-05 -1.3324083e-24 1.6821286e-05 1.6373214e-24 1.690138e-43)
(1.2538051e-05 -1.3891997e-05 2.1827338e-26 2.068311e-05 -1.2538185e-26 1.3312506e-46)
(1.2874047e-05 -1.5959527e-05 0 2.5109771e-05 0 0)
(1.4063536e-05 -1.8992831e-05 -1.1484819e-25 3.0814449e-05 2.5903125e-25 5.9313557e-45)
(1.6333761e-05 -2.2879715e-05 -1.8645348e-24 3.6634625e-05 2.9429037e-24 2.527527e-43)
(2.0209515e-05 -2.8048727e-05 -4.5311065e-24 4.2767823e-05 6.6542895e-24 1.0711981e-42)
(2.58704e-05 -3.3904856e-05 3.3561655e-25 4.7425041e-05 -5.1841835e-25 1.125384e-44)
(3.384057e-05 -4.0339209e-05 1.9627309e-24 5.0324658e-05 -2.427277e-24 1.2546351e-43)
(4.3579592e-05 -4.5846148e-05 -7.0667813e-25 4.9848317e-05 7.6934728e-25 1.3512872e-44)
(5.4969008e-05 -4.9824098e-05 -1.831783e-24 4.6311257e-05 1.6513008e-24 6.1509502e-44)
(6.6240701e-05 -5.0741644e-05 4.884493e-24 3.9675458e-05 -3.7767669e-24 3.8564525e-43)
(7.6744997e-05 -4.8567157e-05 -5.1135345e-24 3.129349e-05 3.2614732e-24 3.7338789e-43)
(8.4704018e-05 -4.336174e-05 1.1363137e-24 2.2577854e-05 -5.816124e-25 1.5850812e-44)
(9.007267e-05 -3.5744025e-05 -7.8191441e-24 1.4432374e-05 3.1098947e-24 7.4456286e-43)
(9.290903e-05 -2.7658682e-05 -7.2916578e-25 8.3865579e-06 2.0568338e-25 1.6317865e-44)
(9.3711583e-05 -1.827918e-05 -1.3187647e-25 3.6457247e-06 2.4080179e-26 7.9342377e-46)
(9.4912893e-05 -1.1443509e-05 -4.2332351e-24 1.4101298e-06 5.1392177e-25 2.6492564e-43)
(9.5386381e-05 -2.240208e-06 0 5.6966892e-08 0 0)
(1.8198163e-05 -1.052099e-05 1.0736748e-26 9.8098453e-06 -1.3127073e-26 6.8618997e-47)
(1.6129206e-05 -1.0301142e-05 -4.3983184e-25 1.0797438e-05 3.8695013e-25 1.5080098e-44)
(1.4955359e-05 -1.0598244e-05 -6.7731035e-26 1.1892242e-05 6.8913926e-26 4.40459e-46)
(1.3748743e-05 -1.1231613e-05 -1.8095119e-24 1.4093042e-05 1.9735757e-24 2.9661338e-43)
(1.2943437e-05 -1.2132496e-05 -1.1866655e-24 1.6686554e-05 1.4668694e-24 1.3720318e-43)
(1.2466166e-05 -1.3573188e-05 7.4495905e-25 2.0650612e-05 -1.0260072e-24 5.372727e-44)
(1.252374e-05 -1.5503182e-05 2.0163898e-25 2.5326906e-05 -3.7270853e-25 7.5654474e-45)
(1.3334305e-05 -1.8370561e-05 2.9260685e-24 3.1532097e-05 -4.7349297e-24 7.4117477e-43)
(1.5166611e-05 -2.2184326e-05 8.412123e-25 3.8237451e-05 -1.3596822e-24 5.0164865e-44)
(1.8518398e-05 -2.7444563e-05 4.4946859e-25 4.5740227e-05 -7.3397202e-25 1.2387725e-44)
(2.3722627e-05 -3.3799905e-05 -1.4638029e-25 5.2254988e-05 2.2476592e-25 1.0367539e-45)
(3.1410114e-05 -4.1260787e-05 -4.5008756e-24 5.7366121e-05 6.2117676e-24 7.1956232e-43)
(4.1374516e-05 -4.8435608e-05 4.2152647e-25 5.9048567e-05 -4.9470698e-25 4.3204409e-45)
(5.3651909e-05 -5.4584311e-05 3.514472e-24 5.7242754e-05 -3.8214552e-24 4.0259283e-43)
(6.6604398e-05 -5.7769278e-05 -4.8893416e-24 5.1330653e-05 4.1935275e-24 3.6558541e-43)
(7.9419065e-05 -5.7661757e-05 -7.311693e-24 4.2736987e-05 5.308959e-24 6.8276207e-43)
(8.972664e-05 -5.3507175e-05 -1.7991294e-26 3.2516146e-05 3.3124424e-26 6.3200985e-45)
(9.7364787e-05 -4.6607813e-05 1.432644e-23 2.2729781e-05 -6.8752159e-24 2.2419021e-42)
(0.00010100641 -3.7303928e-05 8.6293532e-25 1.4049788e-05 -3.2518326e-25 1.1505453e-44)
(0.00010245342 -2.8163786e-05 -4.9685512e-24 7.9107231e-06 1.3733591e-24 2.8850772e-43)
(0.00010147808 -1.8138216e-05 0 3.3299909e-06 0 0)
(0.00010140531 -1.1152915e-05 9.8367536e-24 1.2601575e-06 -1.0932816e-24 1.4315386e-42)
(0.0001007819 -2.0400294e-06 1.0758282e-25 4.5904833e-08 -2.0092252e-27 1.722783e-46)
(1.8910803e-05 -1.0504309e-05 7.564203e-25 9.6610438e-06 -5.8973031e-25 3.9706494e-44)
(1.6631342e-05 -1.0223041e-05 -9.3158744e-25 1.064182e-05 7.8470787e-25 6.35912e-44)
(1.539649e-05 -1.0496191e-05 1.2930777e-24 1.1708873e-05 -1.1972877e-24 1.3375216e-43)
(1.4032142e-05 -1.1067798e-05 5.6563011e-25 1.388869e-05 -5.9180058e-25 2.7375823e-44)
(1.3084483e-05 -1.188903e-05 -1.8910968e-24 1.6468562e-05 2.2773142e-24 3.3643386e-43)
(1.2380807e-05 -1.3195582e-05 0 2.0479055e-05 0 0)
(1.2172085e-05 -1.495654e-05 6.792391e-26 2.5311479e-05 -1.220656e-25 7.103017e-46)
(1.2611e-05 -1.7599562e-05 7.6070641e-25 3.189805e-05 -1.238692e-24 5.061311e-44)
(1.3991337e-05 -2.1225963e-05 2.588805e-24 3.9347732e-05 -4.5879392e-24 5.5706527e-43)
(1.6768153e-05 -2.6398067e-05 4.7355932e-24 4.8105354e-05 -8.4709129e-24 1.5732271e-42)
(2.1382534e-05 -3.3011604e-05 -2.0607067e-24 5.6466699e-05 3.3490265e-24 2.0538591e-43)
(2.8554178e-05 -4.1245134e-05 -3.2953333e-24 6.3963575e-05 5.0004369e-24 4.0517563e-43)
(3.8417764e-05 -4.9934179e-05 4.899332e-24 6.8238497e-05 -6.5750369e-24 6.5701752e-43)
(5.1236367e-05 -5.8289012e-05 -4.5125607e-24 6.879671e-05 5.1651203e-24 4.000015e-43)
(6.568144e-05 -6.4111468e-05 9.4916803e-24 6.4398748e-05 -9.3284905e-24 1.3918493e-42)
(8.0824498e-05 -6.6549464e-05 1.2780469e-23 5.6119283e-05 -1.0452781e-23 2.032846e-42)
(9.4051281e-05 -6.438387e-05 -7.1760114e-24 4.502579e-05 5.0595763e-24 7.3949034e-43)
(0.00010441549 -5.8253615e-05 5.8497196e-24 3.3171962e-05 -3.2720169e-24 3.4046218e-43)
(0.00011039949 -4.9183305e-05 -1.9758937e-23 2.2375043e-05 8.8780186e-24 4.0002765e-42)
(0.00011248321 -3.8356299e-05 6.6108985e-24 1.3382611e-05 -2.3063489e-24 6.0785106e-43)
(0.00011174394 -2.8178844e-05 1.1651099e-23 7.2929701e-06 -2.9698357e-24 1.5778283e-42)
(0.00010893512 -1.7683608e-05 -1.0441558e-23 2.9673528e-06 1.7215087e-24 1.5424663e-42)
(0.00010745168 -1.0680475e-05 6.7326124e-24 1.0986468e-06 -6.8266774e-25 7.6906686e-43)
(0.00010567901 -1.7989884e-06 9.4693666e-26 3.5491595e-08 -1.4750342e-27 1.1964567e-46)
(1.9618705e-05 -1.046395e-05 -1.8940598e-25 9.5067374e-06 1.4677526e-25 2.7722944e-45)
(1.7103605e-05 -1.01156e-05 -9.8332711e-25 1.0478469e-05 8.2163215e-25 7.1085182e-44)
(1.5797951e-05 -1.0359485e-05 -6.0495564e-25 1.1509728e-05 5.7749529e-25 3.1958459e-44)
(1.4277186e-05 -1.0868006e-05 -4.1291181e-24 1.3652051e-05 4.3586128e-24 1.5097824e-42)
(1.3202239e-05 -1.1607019e-05 1.0624554e-24 1.6188489e-05 -1.2565737e-24 1.0495938e-43)
(1.2286216e-05 -1.277329e-05 -2.4484493e-24 2.0194986e-05 3.3978538e-24 6.0638935e-43)
(1.1829591e-05 -1.4345259e-05 8.2742534e-26 2.5098501e-05 -1.4805156e-25 9.9660012e-46)
(1.1912674e-05 -1.6720508e-05 -3.2418382e-24 3.1948143e-05 5.7096106e-24 1.0646448e-42)
(1.2845889e-05 -2.0064659e-05 3.6239644e-25 3.9985268e-05 -6.1268649e-25 1.0829246e-44)
(1.5025888e-05 -2.4983662e-05 1.605446e-24 4.983919e-05 -3.0647003e-24 1.9519926e-43)
(1.895568e-05 -3.1605294e-05 -6.3955843e-25 5.9956732e-05 1.0447696e-24 2.4310388e-44)
(2.5412155e-05 -4.0306458e-05 6.0771252e-24 6.9910514e-05 -1.0367996e-23 1.6045472e-42)
(3.4840004e-05 -5.0244711e-05 -2.0146177e-24 7.7119108e-05 2.950946e-24 1.1771593e-43)
(4.7783328e-05 -6.0706389e-05 -6.2950701e-25 8.0665156e-05 8.3781026e-25 9.5120906e-45)
(6.3350556e-05 -6.9364494e-05 2.5693495e-24 7.8592848e-05 -2.6631025e-24 1.4025687e-43)
(8.0699814e-05 -7.4908914e-05 1.857638e-24 7.1497759e-05 -1.7523107e-24 4.5081897e-44)
(9.7039861e-05 -7.5392186e-05 -1.4603505e-24 6.0016715e-05 1.1698433e-24 2.7406837e-44)
(0.00011093794 -7.1073095e-05 9.7218777e-24 4.6585361e-05 -6.244243e-24 8.7066484e-43)
(0.00011989345 -6.2261334e-05 0 3.307863e-05 0 0)
(0.00012432523 -5.113964e-05 1.7277525e-24 2.1553988e-05 -7.0595608e-25 2.4223872e-44)
(0.00012374325 -3.8720542e-05 5.2323209e-25 1.24534e-05 -1.6343465e-25 2.3036283e-45)
(0.00012083121 -2.7710691e-05 -1.0079531e-24 6.5622864e-06 2.3194411e-25 9.4607003e-45)
(0.00011594073 -1.6918781e-05 3.0577457e-25 2.5753189e-06 -5.081697e-26 1.0073982e-44)
(0.00011297813 -1.0037179e-05 -9.8995677e-24 9.3252438e-07 8.9947251e-25 1.5501013e-42)
(0.00011003253 -1.5225757e-06 -4.7059125e-24 2.6183634e-08 6.8868786e-26 4.4225112e-43)
(2.036114e-05 -1.0414771e-05 -5.627982e-25 9.350769e-06 4.3402142e-25 2.1655104e-44)
(1.7585938e-05 -9.9920429e-06 6.9637658e-25 1.0311919e-05 -5.7581395e-25 3.568796e-44)
(1.6178715e-05 -1.0197451e-05 5.4879809e-25 1.1302866e-05 -4.972293e-25 2.4151968e-44)
(1.4492441e-05 -1.0638248e-05 4.9855176e-25 1.3392972e-05 -5.1946812e-25 2.1997317e-44)
(1.3299705e-05 -1.1293729e-05 4.0153577e-24 1.5863428e-05 -4.7752841e-24 1.5497077e-42)
(1.2185535e-05 -1.2317746e-05 5.3091288e-25 1.9823043e-05 -7.6744217e-25 3.1652812e-44)
(1.1503256e-05 -1.3690953e-05 1.0478881e-25 2.4724633e-05 -1.8816944e-25 1.5901247e-45)
(1.1253352e-05 -1.5770182e-05 1.9483848e-25 3.1725279e-05 -3.5451894e-25 4.1426356e-45)
(1.1760328e-05 -1.8759188e-05 2.8370551e-24 4.0186774e-05 -5.6528415e-24 8.2626161e-43)
(1.3349002e-05 -2.3283962e-05 2.8489682e-25 5.0949926e-05 -7.0467374e-25 1.3573788e-44)
(1.6543184e-05 -2.9671979e-05 2.1993569e-24 6.2660901e-05 -4.4349786e-24 3.2348599e-43)
(2.2134368e-05 -3.8507952e-05 -7.5321591e-25 7.5039207e-05 1.448778e-24 2.9315526e-44)
(3.0819196e-05 -4.933757e-05 -3.7088597e-24 8.5401774e-05 6.3488557e-24 4.9386833e-43)
(4.3435054e-05 -6.165541e-05 4.8660325e-25 9.2486201e-05 -6.5049111e-25 7.1378344e-45)
(5.9628939e-05 -7.3186106e-05 -2.7338091e-24 9.3594666e-05 3.5235266e-24 1.4847647e-43)
(7.882236e-05 -8.2239244e-05 -4.4089624e-24 8.8653034e-05 4.3181024e-24 3.5386653e-43)