# Force coefficients
# liftDir      : (0.00000000e+00 1.00000000e+00 0.00000000e+00)
# dragDir      : (1.00000000e+00 0.00000000e+00 0.00000000e+00)
# pitchAxis    : (0.00000000e+00 0.00000000e+00 1.00000000e+00)
# magUInf      : 1.00000000e+00
# lRef         : 1.00000000e+00
# Aref         : 2.00000000e+00
# CofR         : (0.00000000e+00 0.00000000e+00 0.00000000e+00)
# Time         	Cm             	Cd             	Cl             	Cl(f)          	Cl(r)          	Cm	Cd	Cl	Cl(f)	Cl(r)
1.06058433e+02	4.06536564e-03	1.20312435e+00	1.66705011e-02	1.24006162e-02	4.26988492e-03
1.06121339e+02	4.14808025e-03	1.20296654e+00	8.61040099e-03	8.45328074e-03	1.57120248e-04
1.06184275e+02	4.22514084e-03	1.20305537e+00	5.16858180e-05	4.25098375e-03	-4.19929793e-03
1.06247242e+02	4.29722268e-03	1.20296953e+00	-8.78561335e-03	-9.55839966e-05	-8.69002936e-03
1.06310241e+02	4.36390279e-03	1.20282163e+00	-1.73889693e-02	-4.33058185e-03	-1.30583874e-02
1.06373274e+02	4.42501900e-03	1.20273459e+00	-2.57941331e-02	-8.47204754e-03	-1.73220855e-02
1.06436342e+02	4.48074446e-03	1.20271685e+00	-3.49930511e-02	-1.30157811e-02	-2.19772700e-02
1.06499447e+02	4.53083681e-03	1.20274881e+00	-4.34450949e-02	-1.71917107e-02	-2.62533843e-02
1.06562591e+02	4.57325550e-03	1.20282708e+00	-5.27819171e-02	-2.18177031e-02	-3.09642141e-02
1.06625774e+02	4.61272363e-03	1.20287346e+00	-6.13748912e-02	-2.60747219e-02	-3.53001692e-02
1.06688999e+02	4.64441514e-03	1.20307891e+00	-7.01673478e-02	-3.04392587e-02	-3.97280890e-02
1.06752266e+02	4.66990958e-03	1.20322204e+00	-7.88231880e-02	-3.47416844e-02	-4.40815036e-02
1.06815577e+02	4.68899276e-03	1.20346054e+00	-8.79331186e-02	-3.92775665e-02	-4.86555520e-02
1.06878932e+02	4.70189689e-03	1.20389102e+00	-9.63408026e-02	-4.34685044e-02	-5.28722982e-02
1.06942334e+02	4.70779334e-03	1.20359472e+00	-1.04727394e-01	-4.76559036e-02	-5.70714903e-02
1.07005783e+02	4.70614655e-03	1.20395462e+00	-1.13427224e-01	-5.20074654e-02	-6.14197585e-02
1.07069280e+02	4.69737504e-03	1.20424051e+00	-1.21992554e-01	-5.62989020e-02	-6.56936521e-02
1.07132826e+02	4.68221257e-03	1.20452123e+00	-1.29753475e-01	-6.01945247e-02	-6.95589498e-02
1.07196422e+02	4.66017488e-03	1.20511505e+00	-1.38645665e-01	-6.46626574e-02	-7.39830072e-02
1.07260068e+02	4.63074685e-03	1.20565271e+00	-1.46675520e-01	-6.87070133e-02	-7.79685070e-02
1.07323754e+02	4.59458593e-03	1.20611049e+00	-1.54835614e-01	-7.28232210e-02	-8.20123929e-02
1.07387381e+02	4.55211756e-03	1.20680052e+00	-1.62025377e-01	-7.64605710e-02	-8.55648061e-02
1.07450949e+02	4.50282498e-03	1.20731272e+00	-1.70242239e-01	-8.06182947e-02	-8.96239447e-02
1.07514458e+02	4.44705778e-03	1.20792489e+00	-1.77561265e-01	-8.43335747e-02	-9.32276903e-02
1.07577907e+02	4.38488563e-03	1.20864442e+00	-1.84536242e-01	-8.78832353e-02	-9.66530066e-02
1.07641296e+02	4.31615301e-03	1.20929908e+00	-1.91825484e-01	-9.15965890e-02	-1.00228895e-01
1.07704625e+02	4.24107226e-03	1.21000738e+00	-1.98907390e-01	-9.52126230e-02	-1.03694767e-01
1.07767894e+02	4.16009371e-03	1.21096061e+00	-2.05005625e-01	-9.83427186e-02	-1.06662906e-01
1.07831103e+02	4.07290682e-03	1.21182281e+00	-2.11055665e-01	-1.01454926e-01	-1.09600740e-01
1.07894255e+02	3.97800613e-03	1.21275282e+00	-2.17743692e-01	-1.04893840e-01	-1.12849852e-01
1.07957348e+02	3.87675668e-03	1.21363340e+00	-2.23454799e-01	-1.07850643e-01	-1.15604156e-01
1.08020383e+02	3.77357802e-03	1.21456600e+00	-2.28814325e-01	-1.10633584e-01	-1.18180740e-01
1.08083362e+02	3.66207772e-03	1.21523364e+00	-2.33803612e-01	-1.13239728e-01	-1.20563884e-01
1.08146285e+02	3.54483497e-03	1.21636218e+00	-2.39019063e-01	-1.15964696e-01	-1.23054366e-01
1.08209152e+02	3.42345405e-03	1.21788729e+00	-2.43602828e-01	-1.18377960e-01	-1.25224868e-01
1.08271965e+02	3.29467839e-03	1.21875781e+00	-2.47427673e-01	-1.20419158e-01	-1.27008515e-01
1.08334724e+02	3.15939113e-03	1.21949741e+00	-2.51635813e-01	-1.22658515e-01	-1.28977298e-01
1.08397431e+02	3.01983263e-03	1.22073710e+00	-2.55288736e-01	-1.24624535e-01	-1.30664200e-01
1.08460086e+02	2.87497960e-03	1.22179333e+00	-2.58552972e-01	-1.26401506e-01	-1.32151465e-01
1.08522690e+02	2.72331190e-03	1.22267690e+00	-2.61037220e-01	-1.27795298e-01	-1.33241922e-01
1.08585246e+02	2.56391127e-03	1.22377707e+00	-2.63989844e-01	-1.29431011e-01	-1.34558833e-01
1.08647753e+02	2.39989042e-03	1.22477766e+00	-2.66171355e-01	-1.30685787e-01	-1.35485568e-01
1.08710215e+02	2.23332577e-03	1.22586001e+00	-2.67892625e-01	-1.31712987e-01	-1.36179638e-01
1.08772631e+02	2.06345968e-03	1.22690107e+00	-2.68900857e-01	-1.32386969e-01	-1.36513888e-01
1.08835005e+02	1.89029987e-03	1.22795734e+00	-2.70359986e-01	-1.33289693e-01	-1.37070293e-01
1.08897336e+02	1.71309175e-03	1.22889834e+00	-2.71113658e-01	-1.33843737e-01	-1.37269921e-01
1.08959626e+02	1.53220656e-03	1.22987588e+00	-2.71363460e-01	-1.34149524e-01	-1.37213937e-01
1.09021876e+02	1.34673429e-03	1.23066663e+00	-2.71691051e-01	-1.34498791e-01	-1.37192260e-01
1.09084089e+02	1.15789143e-03	1.23160048e+00	-2.71274188e-01	-1.34479202e-01	-1.36794985e-01
1.09146264e+02	9.68779027e-04	1.23260214e+00	-2.70063617e-01	-1.34063030e-01	-1.36000588e-01
1.09208405e+02	7.76588286e-04	1.23368004e+00	-2.68770018e-01	-1.33608421e-01	-1.35161597e-01
1.09270512e+02	5.81816263e-04	1.23424832e+00	-2.67341605e-01	-1.33088986e-01	-1.34252619e-01
1.09332588e+02	3.85492588e-04	1.23483009e+00	-2.65434993e-01	-1.32332004e-01	-1.33102989e-01
1.09394633e+02	1.87979808e-04	1.23560283e+00	-2.62898332e-01	-1.31261186e-01	-1.31637146e-01
1.09456649e+02	-1.06506779e-05	1.23590637e+00	-2.60068129e-01	-1.30044715e-01	-1.30023414e-01
1.09518639e+02	-2.10355617e-04	1.23668817e+00	-2.57252488e-01	-1.28836600e-01	-1.28415889e-01
1.09580604e+02	-4.11343110e-04	1.23722284e+00	-2.53415010e-01	-1.27118848e-01	-1.26296162e-01
1.09642546e+02	-6.13187678e-04	1.23783144e+00	-2.49627165e-01	-1.25426770e-01	-1.24200395e-01
1.09704467e+02	-8.15541881e-04	1.23834549e+00	-2.45244732e-01	-1.23437908e-01	-1.21806824e-01
1.09766368e+02	-1.01820450e-03	1.23848929e+00	-2.40943896e-01	-1.21490153e-01	-1.19453744e-01
1.09828252e+02	-1.22070192e-03	1.23883489e+00	-2.35957689e-01	-1.19199546e-01	-1.16758143e-01
1.09890120e+02	-1.42270582e-03	1.23917984e+00	-2.30531694e-01	-1.16688553e-01	-1.13843141e-01
1.09951975e+02	-1.62658671e-03	1.23922446e+00	-2.25347079e-01	-1.14300126e-01	-1.11046953e-01
1.10013818e+02	-1.82675741e-03	1.23963047e+00	-2.18673726e-01	-1.11163621e-01	-1.07510106e-01
1.10075650e+02	-2.02637029e-03	1.24002296e+00	-2.12130197e-01	-1.08091469e-01	-1.04038728e-01
1.10137475e+02	-2.22496086e-03	1.23980885e+00	-2.05723268e-01	-1.05086595e-01	-1.00636673e-01
1.10199295e+02	-2.42358757e-03	1.23972351e+00	-1.98471140e-01	-1.01659158e-01	-9.68119824e-02
1.10261110e+02	-2.62219230e-03	1.23956640e+00	-1.91153063e-01	-9.81987240e-02	-9.29543394e-02
1.10322924e+02	-2.81592290e-03	1.23932435e+00	-1.83241388e-01	-9.44366167e-02	-8.88047709e-02
1.10384738e+02	-3.00522567e-03	1.23918115e+00	-1.75556576e-01	-9.07835137e-02	-8.47730624e-02
1.10446555e+02	-3.19218383e-03	1.23919696e+00	-1.67258047e-01	-8.68212075e-02	-8.04368399e-02
1.10508377e+02	-3.37420211e-03	1.23881635e+00	-1.58533103e-01	-8.26407537e-02	-7.58923495e-02
1.10570205e+02	-3.55335915e-03	1.23858070e+00	-1.49451960e-01	-7.82793390e-02	-7.11726207e-02
1.10632041e+02	-3.73055904e-03	1.23834191e+00	-1.40259984e-01	-7.38605512e-02	-6.63994331e-02
1.10693889e+02	-3.90459469e-03	1.23799289e+00	-1.30891188e-01	-6.93501889e-02	-6.15409995e-02
1.10755750e+02	-4.07435428e-03	1.23761011e+00	-1.21454589e-01	-6.48016490e-02	-5.66529404e-02
1.10817626e+02	-4.23919447e-03	1.23716505e+00	-1.11965138e-01	-6.02217637e-02	-5.17433748e-02
1.10879518e+02	-4.39905939e-03	1.23684577e+00	-1.01528669e-01	-5.51633941e-02	-4.63652754e-02
1.10941431e+02	-4.55412890e-03	1.23667779e+00	-9.07586465e-02	-4.99334522e-02	-4.08251944e-02
1.11003364e+02	-4.70385232e-03	1.23601740e+00	-8.00232086e-02	-4.47154566e-02	-3.53077520e-02
1.11065321e+02	-4.84824128e-03	1.23554774e+00	-6.97263940e-02	-3.97114383e-02	-3.00149557e-02
1.11127303e+02	-4.98690010e-03	1.23495975e+00	-5.85385449e-02	-3.42561726e-02	-2.42823724e-02
1.11189314e+02	-5.11928632e-03	1.23464935e+00	-4.75269993e-02	-2.88827860e-02	-1.86442133e-02
1.11251354e+02	-5.24524368e-03	1.23434209e+00	-3.56617299e-02	-2.30761086e-02	-1.25856213e-02
1.11313428e+02	-5.36425730e-03	1.23362560e+00	-2.41200517e-02	-1.74242831e-02	-6.69576854e-03
1.11375536e+02	-5.47761512e-03	1.23344123e+00	-1.30319111e-02	-1.19935707e-02	-1.03834044e-03
1.11437682e+02	-5.58471755e-03	1.23313595e+00	-1.11375564e-03	-6.14159537e-03	5.02783973e-03
1.11499867e+02	-5.68548653e-03	1.23260831e+00	1.05776185e-02	-3.96677292e-04	1.09742958e-02
1.11562094e+02	-5.77993326e-03	1.23247250e+00	2.25544675e-02	5.49730047e-03	1.70571670e-02
1.11624364e+02	-5.86690865e-03	1.23210105e+00	3.52710262e-02	1.17686045e-02	2.35024218e-02
1.11686680e+02	-5.94683239e-03	1.23195184e+00	4.62999712e-02	1.72031532e-02	2.90968180e-02
1.11749043e+02	-6.01983695e-03	1.23182715e+00	5.82016539e-02	2.30809900e-02	3.51206639e-02
1.11811455e+02	-6.08481416e-03	1.23161328e+00	7.12626265e-02	2.95464991e-02	4.17161274e-02
1.11873918e+02	-6.14224527e-03	1.23161583e+00	8.31470045e-02	3.54312570e-02	4.77157475e-02
1.11936433e+02	-6.18931891e-03	1.23168098e+00	9.46598824e-02	4.11406223e-02	5.35192601e-02
1.11999004e+02	-6.22958476e-03	1.23162081e+00	1.07828562e-01	4.76846961e-02	6.01438657e-02
1.12061631e+02	-6.26282486e-03	1.23183468e+00	1.19300443e-01	5.33873965e-02	6.59130462e-02
1.12124316e+02	-6.28460892e-03	1.23209473e+00	1.31059773e-01	5.92452774e-02	7.18144953e-02
1.12187062e+02	-6.29753052e-03	1.23225457e+00	1.43047341e-01	6.52261398e-02	7.78212009e-02
1.12249870e+02	-6.30201324e-03	1.23258928e+00	1.55100947e-01	7.12484603e-02	8.38524868e-02
1.12312740e+02	-6.29720607e-03	1.23308142e+00	1.66783494e-01	7.70945407e-02	8.96889529e-02
1.12375672e+02	-6.28297904e-03	1.23415851e+00	1.77870167e-01	8.26521047e-02	9.52180628e-02
1.12438669e+02	-6.25981238e-03	1.23488294e+00	1.89848826e-01	8.86646008e-02	1.01184226e-01
1.12501732e+02	-6.22778585e-03	1.23503424e+00	2.01038239e-01	9.42913339e-02	1.06746906e-01
1.12564861e+02	-6.18666474e-03	1.23576831e+00	2.11662433e-01	9.96445516e-02	1.12017881e-01
1.12628011e+02	-6.13653156e-03	1.23685941e+00	2.22684316e-01	1.05205626e-01	1.17478689e-01
1.12691085e+02	-6.07743125e-03	1.23793197e+00	2.33554964e-01	1.10700051e-01	1.22854913e-01
1.12754084e+02	-6.00974646e-03	1.23868225e+00	2.43257186e-01	1.15618847e-01	1.27638340e-01
1.12817007e+02	-5.93331573e-03	1.23989980e+00	2.53582074e-01	1.20857721e-01	1.32724353e-01
1.12879856e+02	-5.84840628e-03	1.24087480e+00	2.63132252e-01	1.25717720e-01	1.37414532e-01
1.12942632e+02	-5.75515431e-03	1.24215145e+00	2.72756701e-01	1.30623196e-01	1.42133505e-01
1.13005334e+02	-5.65444206e-03	1.24360137e+00	2.81669696e-01	1.35180406e-01	1.46489290e-01
1.13067961e+02	-5.54657024e-03	1.24480146e+00	2.89918827e-01	1.39412843e-01	1.50505983e-01
1.13130498e+02	-5.42821329e-03	1.24623024e+00	2.98748630e-01	1.43946102e-01	1.54802528e-01
1.13192945e+02	-5.30686237e-03	1.24781849e+00	3.06124458e-01	1.47755366e-01	1.58369091e-01
1.13255304e+02	-5.17463193e-03	1.24929176e+00	3.13916025e-01	1.51783381e-01	1.62132644e-01
1.13317576e+02	-5.03435698e-03	1.25070162e+00	3.21566745e-01	1.55749016e-01	1.65817730e-01
1.13379762e+02	-4.88653267e-03	1.25227911e+00	3.27708362e-01	1.58967648e-01	1.68740714e-01
1.13441865e+02	-4.73058250e-03	1.25420630e+00	3.33724822e-01	1.62131829e-01	1.71592994e-01
1.13503886e+02	-4.56681517e-03	1.25526783e+00	3.39381256e-01	1.65123813e-01	1.74257443e-01
1.13565826e+02	-4.39543876e-03	1.25717412e+00	3.45272456e-01	1.68240789e-01	1.77031667e-01
1.13627688e+02	-4.21640331e-03	1.25841119e+00	3.49622379e-01	1.70594786e-01	1.79027593e-01
1.13689474e+02	-4.02949118e-03	1.25985530e+00	3.54102271e-01	1.73021644e-01	1.81080627e-01
1.13751186e+02	-3.83409756e-03	1.26140396e+00	3.58374977e-01	1.75353391e-01	1.83021586e-01
1.13812826e+02	-3.63131083e-03	1.26310525e+00	3.61206644e-01	1.76972011e-01	1.84234633e-01
1.13874397e+02	-3.42199294e-03	1.26467792e+00	3.64221651e-01	1.78688833e-01	1.85532818e-01
1.13935900e+02	-3.20716569e-03	1.26626538e+00	3.66074112e-01	1.79829890e-01	1.86244222e-01
1.13997339e+02	-2.98684558e-03	1.26758839e+00	3.68719176e-01	1.81372742e-01	1.87346433e-01
1.14058716e+02	-2.76118253e-03	1.26918563e+00	3.70151191e-01	1.82314413e-01	1.87836778e-01
1.14120033e+02	-2.52977814e-03	1.27055280e+00	3.70989391e-01	1.82964917e-01	1.88024474e-01
1.14181292e+02	-2.29435923e-03	1.27181942e+00	3.71291673e-01	1.83351477e-01	1.87940196e-01
1.14242497e+02	-2.05535705e-03	1.27325941e+00	3.71462990e-01	1.83676138e-01	1.87786852e-01
1.14303650e+02	-1.81186764e-03	1.27417100e+00	3.70303463e-01	1.83339864e-01	1.86963599e-01
1.14364753e+02	-1.56475947e-03	1.27505182e+00	3.69189520e-01	1.83030001e-01	1.86159520e-01
1.14425809e+02	-1.31474681e-03	1.27614561e+00	3.67400397e-01	1.82385452e-01	1.85014945e-01
1.14486821e+02	-1.06139090e-03	1.27709961e+00	3.65625119e-01	1.81751169e-01	1.83873950e-01
1.14547792e+02	-8.06173482e-04	1.27775673e+00	3.62847591e-01	1.80617622e-01	1.82229969e-01
1.14608724e+02	-5.50003464e-04	1.27884963e+00	3.59577541e-01	1.79238767e-01	1.80338774e-01
1.14669621e+02	-2.92385836e-04	1.27979040e+00	3.55915113e-01	1.77665171e-01	1.78249942e-01
1.14730485e+02	-3.33761533e-05	1.28053422e+00	3.51724975e-01	1.75829111e-01	1.75895864e-01
1.14791319e+02	2.26703793e-04	1.28105724e+00	3.47308986e-01	1.73881197e-01	1.73427789e-01
1.14852125e+02	4.87456725e-04	1.28154815e+00	3.41830291e-01	1.71402602e-01	1.70427689e-01
1.14912908e+02	7.48733395e-04	1.28227429e+00	3.36201831e-01	1.68849649e-01	1.67352182e-01
1.14973670e+02	1.01035865e-03	1.28227873e+00	3.29987889e-01	1.66004303e-01	1.63983586e-01
1.15034413e+02	1.27181460e-03	1.28207381e+00	3.23572363e-01	1.63057996e-01	1.60514367e-01
1.15095142e+02	1.53345608e-03	1.28227569e+00	3.16259087e-01	1.59663000e-01	1.56596087e-01
1.15155858e+02	1.79790932e-03	1.28222354e+00	3.09246896e-01	1.56421357e-01	1.52825539e-01
1.15216566e+02	2.05807293e-03	1.28191322e+00	3.00962838e-01	1.52539492e-01	1.48423346e-01
1.15277269e+02	2.31715850e-03	1.28215930e+00	2.92321756e-01	1.48478036e-01	1.43843719e-01
1.15337969e+02	2.57477388e-03	1.28174856e+00	2.83569316e-01	1.44359432e-01	1.39209884e-01
1.15398671e+02	2.83051430e-03	1.28167455e+00	2.74453332e-01	1.40057180e-01	1.34396151e-01
1.15459377e+02	3.08338514e-03	1.28144631e+00	2.65091791e-01	1.35629281e-01	1.29462511e-01
1.15520091e+02	3.33242586e-03	1.28107697e+00	2.54747409e-01	1.30706130e-01	1.24041278e-01
1.15580815e+02	3.57868188e-03	1.28066381e+00	2.44086414e-01	1.25621889e-01	1.18464525e-01
1.15641554e+02	3.82385159e-03	1.27991273e+00	2.33456112e-01	1.20551908e-01	1.12904204e-01
1.15702311e+02	4.06369660e-03	1.27917685e+00	2.22253829e-01	1.15190611e-01	1.07063218e-01
1.15763088e+02	4.29965678e-03	1.27839370e+00	2.10971402e-01	1.09785358e-01	1.01186044e-01
1.15823890e+02	4.53297842e-03	1.27757792e+00	1.98888673e-01	1.03977315e-01	9.49113583e-02
1.15884719e+02	4.76060912e-03	1.27676666e+00	1.86523567e-01	9.80223925e-02	8.85011743e-02
1.15945578e+02	4.98276550e-03	1.27600874e+00	1.73710505e-01	9.18380181e-02	8.18724871e-02
1.16006472e+02	5.19884931e-03	1.27480682e+00	1.60872095e-01	8.56348969e-02	7.52371982e-02
1.16067403e+02	5.40604883e-03	1.27453851e+00	1.47977280e-01	7.93946889e-02	6.85825912e-02
1.16128375e+02	5.61103784e-03	1.27375684e+00	1.33721083e-01	7.24715794e-02	6.12495037e-02
1.16189391e+02	5.81029130e-03	1.27274998e+00	1.20455816e-01	6.60381991e-02	5.44176165e-02
1.16250453e+02	6.00315042e-03	1.27168550e+00	1.06747858e-01	5.93770795e-02	4.73707786e-02
1.16311557e+02	6.18907279e-03	1.27074908e+00	9.25275652e-02	5.24528554e-02	4.00747098e-02
1.16372693e+02	6.36755705e-03	1.26969503e+00	7.76478096e-02	4.51914619e-02	3.24563478e-02
1.16433864e+02	6.53862296e-03	1.26892420e+00	6.29200422e-02	3.79986441e-02	2.49213981e-02
1.16495072e+02	6.70214906e-03	1.26840116e+00	4.87214290e-02	3.10628636e-02	1.76585654e-02
1.16556320e+02	6.85769054e-03	1.26743698e+00	3.28740853e-02	2.32947332e-02	9.57935212e-03
1.16617610e+02	7.00506549e-03	1.26667348e+00	1.72629156e-02	1.56365233e-02	1.62639232e-03
1.16678946e+02	7.14282103e-03	1.26615072e+00	2.74914481e-03	8.51739344e-03	-5.76824863e-03
1.16740329e+02	7.27269322e-03	1.26554551e+00	-1.31429945e-02	7.01195948e-04	-1.38441905e-02
1.16801763e+02	7.39381362e-03	1.26505928e+00	-2.85922806e-02	-6.90232668e-03	-2.16899539e-02
1.16863248e+02	7.50604760e-03	1.26443045e+00	-4.36310722e-02	-1.43094885e-02	-2.93215837e-02
1.16924789e+02	7.60803773e-03	1.26396733e+00	-6.02764711e-02	-2.25301978e-02	-3.77462733e-02
1.16986388e+02	7.70006625e-03	1.26373397e+00	-7.59074786e-02	-3.02536730e-02	-4.56538055e-02
1.17048047e+02	7.78403527e-03	1.26366557e+00	-9.16500545e-02	-3.80409920e-02	-5.36090625e-02
1.17109768e+02	7.85879281e-03	1.26359451e+00	-1.06923383e-01	-4.56028988e-02	-6.13204844e-02
1.17171555e+02	7.92261466e-03	1.26359858e+00	-1.22852936e-01	-5.35038534e-02	-6.93490828e-02
1.17233409e+02	7.97421841e-03	1.26362593e+00	-1.38616706e-01	-6.13341346e-02	-7.72825715e-02
1.17295333e+02	8.02098426e-03	1.26397297e+00	-1.53868490e-01	-6.89132606e-02	-8.49552291e-02
1.17357328e+02	8.05144747e-03	1.26431053e+00	-1.69829800e-01	-7.68634526e-02	-9.29663475e-02
1.17419397e+02	8.07009661e-03	1.26484576e+00	-1.84760792e-01	-8.43102992e-02	-1.00450492e-01
1.17481542e+02	8.07821968e-03	1.26544159e+00	-1.99804098e-01	-9.18238293e-02	-1.07980269e-01
1.17543764e+02	8.07520966e-03	1.26599874e+00	-2.15201355e-01	-9.95254676e-02	-1.15675887e-01
1.17606066e+02	8.05976138e-03	1.26676634e+00	-2.29468697e-01	-1.06674587e-01	-1.22794110e-01
1.17668449e+02	8.03310537e-03	1.26845925e+00	-2.44642707e-01	-1.14288248e-01	-1.30354459e-01
1.17730916e+02	7.99522451e-03	1.26926446e+00	-2.58672219e-01	-1.21340885e-01	-1.37331334e-01
1.17793467e+02	7.94651517e-03	1.27027336e+00	-2.72577453e-01	-1.28342211e-01	-1.44235242e-01
1.17855968e+02	7.88723287e-03	1.27189128e+00	-2.86544094e-01	-1.35384814e-01	-1.51159280e-01
1.17918354e+02	7.81676888e-03	1.27293013e+00	-3.00029268e-01	-1.42197865e-01	-1.57831403e-01
1.17980627e+02	7.73564205e-03	1.27452483e+00	-3.12642340e-01	-1.48585528e-01	-1.64056812e-01
1.18042787e+02	7.64657703e-03	1.27621020e+00	-3.24922832e-01	-1.54814839e-01	-1.70107993e-01
1.18104836e+02	7.54376599e-03	1.27794130e+00	-3.37576449e-01	-1.61244458e-01	-1.76331990e-01
1.18166776e+02	7.43419199e-03	1.27958176e+00	-3.48988124e-01	-1.67059870e-01	-1.81928254e-01
1.18228609e+02	7.31751528e-03	1.28172950e+00	-3.60178374e-01	-1.72771672e-01	-1.87406702e-01
1.18290337e+02	7.19012506e-03	1.28364767e+00	-3.71494805e-01	-1.78557277e-01	-1.92937527e-01
1.18351961e+02	7.05408698e-03	1.28569418e+00	-3.81409094e-01	-1.83650460e-01	-1.97758634e-01
1.18413483e+02	6.90528342e-03	1.28766982e+00	-3.90829155e-01	-1.88509294e-01	-2.02319861e-01
1.18474906e+02	6.74205985e-03	1.28971214e+00	-3.99519201e-01	-1.93017540e-01	-2.06501660e-01
1.18536231e+02	6.56883606e-03	1.29166579e+00	-4.08255064e-01	-1.97558696e-01	-2.10696368e-01
1.18597460e+02	6.38721485e-03	1.29395082e+00	-4.16390121e-01	-2.01807845e-01	-2.14582275e-01
1.18658595e+02	6.19576429e-03	1.29595556e+00	-4.23847697e-01	-2.05728084e-01	-2.18119613e-01
1.18719638e+02	5.99475804e-03	1.29855862e+00	-4.31349178e-01	-2.09679831e-01	-2.21669347e-01
1.18780591e+02	5.78450327e-03	1.30025456e+00	-4.37123755e-01	-2.12777374e-01	-2.24346381e-01
1.18841457e+02	5.56547757e-03	1.30213302e+00	-4.42453524e-01	-2.15661284e-01	-2.26792239e-01
1.18902238e+02	5.33772733e-03	1.30409677e+00	-4.47350407e-01	-2.18337476e-01	-2.29012931e-01
1.18962937e+02	5.09998906e-03	1.30605788e+00	-4.51576056e-01	-2.20688039e-01	-2.30888017e-01
1.19023556e+02	4.85297494e-03	1.30820632e+00	-4.55984626e-01	-2.23139338e-01	-2.32845288e-01
1.19084098e+02	4.59683167e-03	1.31020041e+00	-4.59366581e-01	-2.25086459e-01	-2.34280122e-01
1.19144565e+02	4.33187993e-03	1.31231984e+00	-4.61768468e-01	-2.26552354e-01	-2.35216114e-01
1.19204960e+02	4.05955842e-03	1.31383286e+00	-4.63126255e-01	-2.27503569e-01	-2.35622686e-01
1.19265287e+02	3.78009338e-03	1.31556991e+00	-4.64642411e-01	-2.28541112e-01	-2.36101299e-01
1.19325547e+02	3.49506307e-03	1.31710220e+00	-4.65282302e-01	-2.29146088e-01	-2.36136214e-01
1.19385743e+02	3.20654398e-03	1.31860526e+00	-4.64864416e-01	-2.29225664e-01	-2.35638752e-01
1.19445879e+02	2.91353345e-03	1.31994235e+00	-4.64822754e-01	-2.29497844e-01	-2.35324911e-01
1.19505957e+02	2.61621312e-03	1.32120881e+00	-4.63769594e-01	-2.29268584e-01	-2.34501010e-01
1.19565980e+02	2.31638212e-03	1.32242059e+00	-4.61632801e-01	-2.28500018e-01	-2.33132783e-01
1.19625950e+02	2.01444376e-03	1.32341846e+00	-4.59024187e-01	-2.27497650e-01	-2.31526537e-01
1.19685872e+02	1.71127960e-03	1.32430182e+00	-4.56067213e-01	-2.26322327e-01	-2.29744886e-01
1.19745747e+02	1.40718230e-03	1.32515161e+00	-4.52143696e-01	-2.24664666e-01	-2.27479031e-01
1.19805580e+02	1.09972129e-03	1.32634607e+00	-4.48014053e-01	-2.22907305e-01	-2.25106748e-01
1.19865372e+02	7.86514629e-04	1.32694906e+00	-4.43021833e-01	-2.20724402e-01	-2.22297431e-01
1.19925128e+02	4.71325835e-04	1.32684073e+00	-4.37556352e-01	-2.18306850e-01	-2.19249502e-01
1.19984850e+02	1.55149755e-04	1.32760140e+00	-4.31492882e-01	-2.15591291e-01	-2.15901591e-01
1.20044541e+02	-1.63309367e-04	1.32777295e+00	-4.24682778e-01	-2.12504698e-01	-2.12178080e-01
1.20104205e+02	-4.84014137e-04	1.32762591e+00	-4.17350818e-01	-2.09159423e-01	-2.08191395e-01
1.20163846e+02	-8.00454293e-04	1.32787842e+00	-4.09587133e-01	-2.05594021e-01	-2.03993112e-01
1.20223465e+02	-1.11659165e-03	1.32767696e+00	-4.01236197e-01	-2.01734690e-01	-1.99501507e-01
1.20283067e+02	-1.43414570e-03	1.32735607e+00	-3.92445922e-01	-1.97657107e-01	-1.94788815e-01
1.20342656e+02	-1.74538914e-03	1.32719692e+00	-3.83307943e-01	-1.93399361e-01	-1.89908582e-01
1.20402233e+02	-2.05893801e-03	1.32644377e+00	-3.73183106e-01	-1.88650491e-01	-1.84532615e-01
1.20461804e+02	-2.37268719e-03	1.32623772e+00	-3.62821545e-01	-1.83783460e-01	-1.79038085e-01
1.20521372e+02	-2.68334235e-03	1.32555005e+00	-3.51405524e-01	-1.78386104e-01	-1.73019420e-01
1.20580940e+02	-2.99138041e-03	1.32443472e+00	-3.40175730e-01	-1.73079246e-01	-1.67096485e-01
1.20640511e+02	-3.29445336e-03	1.32369473e+00	-3.28415297e-01	-1.67502102e-01	-1.60913195e-01
1.20700091e+02	-3.59078421e-03	1.32250347e+00	-3.16005432e-01	-1.61593500e-01	-1.54411932e-01
1.20759681e+02	-3.88338783e-03	1.32176597e+00	-3.02933820e-01	-1.55350298e-01	-1.47583522e-01
1.20819287e+02	-4.17899712e-03	1.32020686e+00	-2.89745247e-01	-1.49051621e-01	-1.40693626e-01
1.20878910e+02	-4.47039617e-03	1.31876192e+00	-2.75597006e-01	-1.42268899e-01	-1.33328107e-01
1.20938556e+02	-4.75853848e-03	1.31758101e+00	-2.62011571e-01	-1.35764324e-01	-1.26247247e-01
1.20998227e+02	-5.04294554e-03	1.31646036e+00	-2.47927970e-01	-1.29006930e-01	-1.18921039e-01
1.21057927e+02	-5.31985754e-03	1.31451615e+00	-2.32646689e-01	-1.21643202e-01	-1.11003487e-01
1.21117660e+02	-5.59017590e-03	1.31364260e+00	-2.17096238e-01	-1.14138295e-01	-1.02957943e-01
1.21177430e+02	-5.85265415e-03	1.31223842e+00	-2.01844617e-01	-1.06774963e-01	-9.50696543e-02
1.21237239e+02	-6.11115013e-03	1.31098406e+00	-1.85388900e-01	-9.88056000e-02	-8.65832998e-02
1.21297092e+02	-6.36552930e-03	1.30901058e+00	-1.69016174e-01	-9.08736162e-02	-7.81425576e-02
1.21356993e+02	-6.60854794e-03	1.30763881e+00	-1.52773397e-01	-8.29952462e-02	-6.97781503e-02
1.21416945e+02	-6.84374400e-03	1.30615726e+00	-1.35200149e-01	-7.44438186e-02	-6.07563306e-02
1.21476952e+02	-7.07200065e-03	1.30457806e+00	-1.18799123e-01	-6.64715620e-02	-5.23275607e-02
1.21537019e+02	-7.29185393e-03	1.30345195e+00	-1.01145402e-01	-5.78645551e-02	-4.32808472e-02
1.21597148e+02	-7.50403178e-03	1.30175592e+00	-8.35200127e-02	-4.92640381e-02	-3.42559746e-02
1.21657344e+02	-7.70783622e-03	1.30042773e+00	-6.54498973e-02	-4.04327849e-02	-2.50171124e-02
1.21717611e+02	-7.90261417e-03	1.29906381e+00	-4.73862521e-02	-3.15957402e-02	-1.57905119e-02
1.21777951e+02	-8.08802266e-03	1.29796242e+00	-2.89074667e-02	-2.25417560e-02	-6.36571067e-03
1.21838370e+02	-8.26309679e-03	1.29701745e+00	-1.07862647e-02	-1.36562292e-02	2.86996442e-03
1.21898870e+02	-8.42650389e-03	1.29586380e+00	8.57085199e-03	-4.14107789e-03	1.27119299e-02
1.21959456e+02	-8.58007927e-03	1.29470600e+00	2.72567111e-02	5.04827627e-03	2.22084348e-02
1.22020130e+02	-8.72277731e-03	1.29397909e+00	4.60373537e-02	1.42958996e-02	3.17414542e-02
1.22080897e+02	-8.85546465e-03	1.29325595e+00	6.46925393e-02	2.34908050e-02	4.12017343e-02
1.22141760e+02	-8.97752030e-03	1.29263276e+00	8.33595052e-02	3.27022323e-02	5.06572729e-02
1.22202720e+02	-9.08887857e-03	1.29213369e+00	1.02824206e-01	4.23232244e-02	6.05009815e-02
1.22263781e+02	-9.19087826e-03	1.29190935e+00	1.22419495e-01	5.20188691e-02	7.04006256e-02
1.22324944e+02	-9.28210753e-03	1.29169939e+00	1.40725741e-01	6.10807628e-02	7.96449778e-02
1.22386181e+02	-9.35864155e-03	1.29173991e+00	1.59835873e-01	7.05592950e-02	8.92765781e-02
1.22447494e+02	-9.42202973e-03	1.29190554e+00	1.78428534e-01	7.97922373e-02	9.86362968e-02
1.22508885e+02	-9.48088189e-03	1.29196157e+00	1.98002370e-01	8.95203032e-02	1.08482067e-01
1.22570357e+02	-9.51924974e-03	1.29269859e+00	2.15937904e-01	9.84497023e-02	1.17488202e-01
1.22631914e+02	-9.54476847e-03	1.29328261e+00	2.34578046e-01	1.07744255e-01	1.26833792e-01
1.22693558e+02	-9.55879826e-03	1.29424325e+00	2.52352735e-01	1.16617569e-01	1.35735166e-01
1.22755291e+02	-9.55855967e-03	1.29541345e+00	2.70408778e-01	1.25645829e-01	1.44762949e-01
1.22817115e+02	-9.54375301e-03	1.29604728e+00	2.87861109e-01	1.34386801e-01	1.53474307e-01
1.22879033e+02	-9.51597755e-03	1.29733048e+00	3.05346139e-01	1.43157092e-01	1.62189047e-01
1.22941046e+02	-9.47541841e-03	1.29917144e+00	3.21915712e-01	1.51482438e-01	1.70433275e-01
1.23003034e+02	-9.42302438e-03	1.30095823e+00	3.38242131e-01	1.59698041e-01	1.78544090e-01
1.23064896e+02	-9.36279329e-03	1.30253935e+00	3.54813047e-01	1.68043730e-01	1.86769317e-01
1.23126633e+02	-9.28444961e-03	1.30463289e+00	3.69975680e-01	1.75703391e-01	1.94272290e-01
1.23188248e+02	-9.19247459e-03	1.30648312e+00	3.85771061e-01	1.83693056e-01	2.02078005e-01
1.23249741e+02	-9.09220503e-03	1.30817333e+00	3.99945496e-01	1.90880543e-01	2.09064953e-01
1.23311113e+02	-8.98175041e-03	1.31073168e+00	4.13675577e-01	1.97856038e-01	2.15819539e-01
1.23372368e+02	-8.86032139e-03	1.31300026e+00	4.27101743e-01	2.04690550e-01	2.22411193e-01
1.23433506e+02	-8.72749004e-03	1.31521821e+00	4.39462941e-01	2.11003981e-01	2.28458961e-01
1.23494530e+02	-8.58359695e-03	1.31770814e+00	4.52028804e-01	2.17430805e-01	2.34597999e-01
1.23555442e+02	-8.42446836e-03	1.32008209e+00	4.63627248e-01	2.23389155e-01	2.40238092e-01
1.23616244e+02	-8.25161649e-03	1.32267982e+00	4.74887252e-01	2.29192010e-01	2.45695243e-01
1.23676939e+02	-8.06730720e-03	1.32541638e+00	4.84120123e-01	2.33992755e-01	2.50127369e-01
1.23737528e+02	-7.87200750e-03	1.32813115e+00	4.93966700e-01	2.39111342e-01	2.54855357e-01
1.23798016e+02	-7.66670948e-03	1.33093358e+00	5.02787896e-01	2.43727238e-01	2.59060657e-01
1.23858403e+02	-7.45025142e-03	1.33306956e+00	5.11140453e-01	2.48119975e-01	2.63020478e-01
1.23918692e+02	-7.22186657e-03	1.33564363e+00	5.17992535e-01	2.51774401e-01	2.66218134e-01
1.23978886e+02	-6.98104699e-03	1.33788904e+00	5.25470541e-01	2.55754223e-01	2.69716317e-01
1.24038988e+02	-6.72977269e-03	1.34041725e+00	5.31274897e-01	2.58907676e-01	2.72367221e-01
1.24098999e+02	-6.46623925e-03	1.34274024e+00	5.35845487e-01	2.61456504e-01	2.74388983e-01
1.24158922e+02	-6.19080026e-03	1.34540005e+00	5.40486454e-01	2.64052427e-01	2.76434027e-01
1.24218761e+02	-5.90469045e-03	1.34772609e+00	5.44440782e-01	2.66315701e-01	2.78125082e-01
1.24278518e+02	-5.60849610e-03	1.34971033e+00	5.47101373e-01	2.67942190e-01	2.79159183e-01
1.24338196e+02	-5.30340112e-03	1.35166997e+00	5.49354474e-01	2.69373836e-01	2.79980638e-01
1.24397799e+02	-4.99078869e-03	1.35343575e+00	5.51275737e-01	2.70647080e-01	2.80628657e-01
1.24457328e+02	-4.67205829e-03	1.35540008e+00	5.51921195e-01	2.71288539e-01	2.80632656e-01
1.24516788e+02	-4.34689370e-03	1.35704578e+00	5.51857804e-01	2.71582008e-01	2.80275795e-01
1.24576181e+02	-4.01616306e-03	1.35852070e+00	5.50905856e-01	2.71436765e-01	2.79469091e-01
1.24635511e+02	-3.68219015e-03	1.35996070e+00	5.50163400e-01	2.71399510e-01	2.78763890e-01
1.24694780e+02	-3.34368410e-03	1.36113976e+00	5.47644951e-01	2.70478792e-01	2.77166160e-01
1.24753993e+02	-3.00227549e-03	1.36237405e+00	5.44617065e-01	2.69306257e-01	2.75310808e-01
1.24813151e+02	-2.65849844e-03	1.36355959e+00	5.41670616e-01	2.68176810e-01	2.73493806e-01
1.24872259e+02	-2.31117626e-03	1.36424530e+00	5.37223630e-01	2.66300639e-01	2.70922991e-01
1.24931319e+02	-1.96055190e-03	1.36498445e+00	5.31932862e-01	2.64005879e-01	2.67926983e-01
1.24990335e+02	-1.60759513e-03	1.36548977e+00	5.26498469e-01	2.61641639e-01	2.64856830e-01
1.25049310e+02	-1.25192015e-03	1.36550252e+00	5.20326422e-01	2.58911291e-01	2.61415131e-01
1.25108247e+02	-8.93222933e-04	1.36603553e+00	5.13476805e-01	2.55845179e-01	2.57631625e-01
1.25167151e+02	-5.32400723e-04	1.36621347e+00	5.06040988e-01	2.52488093e-01	2.53552894e-01
1.25226023e+02	-1.70729190e-04	1.36625578e+00	4.97558186e-01	2.48608364e-01	2.48949822e-01
1.25284868e+02	1.89288496e-04	1.36608054e+00	4.88759500e-01	2.44569038e-01	2.44190461e-01
1.25343689e+02	5.43715546e-04	1.36587273e+00	4.78819530e-01	2.39953481e-01	2.38866050e-01
1.25402490e+02	9.02330508e-04	1.36499941e+00	4.69099443e-01	2.35452052e-01	2.33647391e-01
1.25461273e+02	1.25998473e-03	1.36447464e+00	4.58839963e-01	2.30679966e-01	2.28159997e-01
1.25520042e+02	1.61609139e-03	1.36346750e+00	4.47589695e-01	2.25410939e-01	2.22178756e-01
1.25578802e+02	1.97179704e-03	1.36221552e+00	4.35352083e-01	2.19647838e-01	2.15704244e-01
1.25637555e+02	2.32690140e-03	1.36147366e+00	4.22754716e-01	2.13704260e-01	2.09050457e-01