# Force coefficients
# liftDir      : (0.00000000e+00 1.00000000e+00 0.00000000e+00)
# dragDir      : (1.00000000e+00 0.00000000e+00 0.00000000e+00)
# pitchAxis    : (0.00000000e+00 0.00000000e+00 1.00000000e+00)
# magUInf      : 1.00000000e+00
# lRef         : 1.00000000e+00
# Aref         : 2.00000000e+00
# CofR         : (0.00000000e+00 0.00000000e+00 0.00000000e+00)
# Time         	Cm             	Cd             	Cl             	Cl(f)          	Cl(r)          	Cm	Cd	Cl	Cl(f)	Cl(r)
1.06058433e+02	4.05194606e-03	1.20346913e+00	1.67134647e-02	1.24086784e-02	4.30478630e-03
1.06121336e+02	4.11717180e-03	1.20329602e+00	8.97702451e-03	8.60568406e-03	3.71340452e-04
