/*--------------------------------*- C++ -*----------------------------------*\
| =========                 |                                                 |
| \\      /  F ield         | OpenFOAM: The Open Source CFD Toolbox           |
|  \\    /   O peration     | Version:  5.0                                   |
|   \\  /    A nd           | Web:      www.OpenFOAM.org                      |
|    \\/     M anipulation  |                                                 |
\*---------------------------------------------------------------------------*/
FoamFile
{
    version     2.0;
    format      ascii;
    class       volScalarField;
    location    "200";
    object      ddt0(nuTilda);
}
// * * * * * * * * * * * * * * * * * * * * * * * * * * * * * * * * * * * * * //

dimensions      [0 2 -2 0 0 0 0];

internalField   nonuniform List<scalar> 
9520
(
-6.4724679e-36
-7.5277194e-34
-1.4554602e-35
-4.2316332e-32
-1.6053979e-33
-1.2311914e-35
-1.5202296e-30
-8.4712482e-32
-1.2625006e-33
2.1992972e-36
-3.9542515e-29
-2.8260004e-30
-6.0747113e-32
4.819466e-34
2.2304529e-35
-8.0348304e-28
-6.7329067e-29
-1.8040633e-30
3.8864055e-32
2.7655771e-33
3.6898567e-35
-1.3332705e-26
-1.2381249e-27
-3.6737925e-29
1.776609e-30
1.6136836e-31
4.180605e-33
3.472124e-35
-1.8439949e-25
-1.8400983e-26
-5.3989709e-28
5.5009779e-29
5.9010799e-30
2.2380531e-31
3.4302417e-33
1.0201281e-35
-2.1307044e-24
-2.2612777e-25
-5.6600005e-27
1.2717501e-27
1.5327595e-28
7.5305915e-30
1.5667052e-31
1.1821148e-34
-3.2337914e-35
-2.0203643e-23
-2.3087097e-24
-3.6172654e-26
2.3285753e-26
3.0526256e-27
1.7960763e-28
4.3480406e-30
-4.790268e-32
-4.8370764e-33
-7.7150953e-35
-1.4656849e-22
-1.9047913e-23
-2.8058948e-27
3.4875952e-25
4.8996999e-26
3.2586268e-27
7.9985045e-29
-3.4472695e-30
-3.1804455e-31
-9.299133e-33
-1.006837e-34
-4.0766231e-22
-1.1215807e-22
3.2603821e-24
4.3050242e-24
6.5464984e-25
4.7055036e-26
9.5280565e-28
-1.2844343e-28
-1.2674213e-29
-5.2228824e-31
-1.0606482e-32
-8.1008595e-35
3.9568704e-20
5.1837635e-23
4.1274245e-23
4.3786416e-23
7.4110555e-24
5.5897937e-25
4.8967808e-27
-3.2764493e-27
-3.5081669e-28
-1.832899e-29
-5.2137956e-31
-6.7591765e-33
-1.0003014e-35
3.5867199e-18
4.2231265e-20
1.6631213e-23
3.5484119e-22
7.1906633e-23
5.6294865e-24
-7.359163e-26
-6.3787014e-26
-7.3147853e-27
-4.5399755e-28
-1.5867869e-29
-2.3520752e-31
2.3335575e-33
9.7517004e-35
2.209126e-16
2.6816616e-18
-2.3505014e-20
1.7817312e-21
6.0308722e-22
4.9852365e-23
-2.2965036e-24
-1.0011905e-24
-1.2143899e-25
-8.4987226e-27
-3.3388178e-28
-3.5702409e-30
2.99231e-31
1.4188761e-32
2.0416485e-34
9.8537604e-15
1.1102309e-16
-2.507161e-18
-4.0126252e-20
4.3113163e-21
4.153738e-22
-3.4484062e-23
-1.2985745e-23
-1.6697169e-24
-1.2573369e-25
-5.072161e-27
2.5038004e-29
1.5887407e-29
9.1070928e-31
2.4230982e-32
2.6224543e-34
3.2184153e-13
2.8190814e-15
-2.0068952e-16
-4.2467154e-18
7.1968012e-21
3.6009187e-21
-3.6063547e-22
-1.426516e-22
-1.9447724e-23
-1.5216764e-24
-5.4538968e-26
2.7025476e-27
5.2259458e-28
3.5510928e-29
1.3398791e-30
2.7455406e-32
2.332304e-34
7.584132e-12
2.4403965e-14
-1.1252518e-14
-2.7011427e-16
-1.5388353e-18
4.034903e-20
-2.6252529e-21
-1.3535547e-21
-1.9635792e-22
-1.5389329e-23
-3.5406062e-25
7.8355642e-26
1.2285286e-26
9.6228452e-28
4.6194836e-29
1.340921e-30
2.0574638e-32
1.0515918e-34
1.2922328e-10
-9.1899959e-13
-4.489402e-13
-1.2650126e-14
-7.7049026e-17
1.5535948e-18
8.957607e-21
-1.122024e-20
-1.760848e-21
-1.3260541e-22
3.0313923e-25
1.5126565e-24
2.2404369e-25
1.9563205e-26
1.1201331e-27
4.0485355e-29
7.9404209e-31
3.6083129e-33
-9.990805e-35
1.5170318e-09
-4.1482781e-11
-1.264176e-11
-4.3369516e-13
-1.9330276e-15
1.2963029e-16
2.5913298e-18
-6.8631173e-20
-1.4399328e-20
-1.0012498e-21
4.5957802e-23
2.2322712e-23
3.3211706e-24
3.1470158e-25
2.0406971e-26
8.4165395e-28
1.6229502e-29
-2.2866779e-31
-1.9789847e-32
-3.3075527e-34
1.1899135e-08
-7.5121812e-10
-2.4973917e-10
-1.0781821e-11
1.0317607e-15
8.6574738e-15
2.1058881e-16
1.0315981e-18
-1.0895904e-19
-6.9706568e-21
7.6486637e-22
2.6883778e-22
4.0964347e-23
4.1558563e-24
2.9091579e-25
1.2546274e-26
1.2309748e-28
-2.1793784e-29
-1.4746673e-30
-4.3300933e-32
-5.2147096e-34
5.9406152e-08
-8.6882779e-09
-3.2986689e-09
-1.9073567e-10
1.9127739e-12
4.067105e-13
1.2265883e-14
1.0597786e-16
-9.1323728e-19
-5.1786674e-20
8.5605354e-21
2.7430721e-21
4.3026118e-22
4.5918181e-23
3.3321352e-24
1.3018775e-25
-3.1036182e-27
-8.6532395e-28
-6.3208877e-29
-2.5848124e-30
-5.9761835e-32
-6.1014274e-34
2.019738e-07
-6.0679351e-08
-2.9527249e-08
-2.2713349e-09
7.0231319e-11
1.3293805e-11
5.1541232e-13
5.085725e-15
-4.1165771e-17
-9.1744664e-19
7.3320643e-20
2.433394e-20
3.9303421e-21
4.3161166e-22
3.086215e-23
7.4798444e-25
-1.3704911e-25
-2.2377264e-26
-1.8322309e-27
-9.5307698e-29
-3.1971176e-30
-6.3206043e-32
-5.5591839e-34
4.6143626e-07
-2.8608568e-07
-1.7513925e-07
-1.6279937e-08
1.2786205e-09
2.9761086e-10
1.5362689e-11
1.5523968e-13
-3.8527188e-15
-6.2895373e-17
2.6264493e-19
1.9129166e-19
3.189321e-20
3.508263e-21
2.274173e-22
-2.9804089e-24
-2.980424e-24
-4.3300236e-25
-3.9212701e-26
-2.4615087e-27
-1.0670747e-28
-3.0481227e-30
-5.0510489e-32
-3.4972999e-34
8.0803044e-07
-9.1593499e-07
-7.1434724e-07
-8.0489243e-08
1.5615345e-08
4.413606e-09
3.1670678e-10
2.7154125e-12
-2.3878143e-13
-4.4147292e-15
-2.3957569e-17
1.2893545e-18
2.3526399e-19
2.5153934e-20
1.2495395e-21
-1.4492275e-22
-4.6294743e-23
-6.6840878e-24
-6.5871587e-25
-4.7718577e-26
-2.5024474e-27
-9.0474705e-29
-2.045469e-30
-2.2225291e-32
-1.6614911e-35
1.3467145e-06
-2.0106438e-06
-2.0018597e-06
-2.5991587e-07
1.200754e-07
4.3904413e-08
4.413129e-09
1.3671392e-11
-9.5638391e-12
-2.2295134e-13
-1.7606753e-15
2.2868562e-18
1.6058805e-18
1.6356791e-19
3.7999743e-21
-2.2767569e-21
-5.712533e-22
-8.4604619e-23
-9.0469662e-24
-7.2832896e-25
-4.3830463e-26
-1.8374196e-27
-4.6037083e-29
-2.9553833e-31
1.7510595e-32
3.8947234e-34
2.1718073e-06
-3.0988839e-06
-4.1183573e-06
-5.5561072e-07
6.1269327e-07
2.9039065e-07
4.0828276e-08
-4.5597012e-10
-2.5029708e-10
-7.8502852e-12
-8.1082225e-14
-2.8610801e-16
1.1351574e-17
1.0130509e-18
-1.4490172e-20
-2.55731e-20
-5.8831854e-21
-9.0058265e-22
-1.034289e-22
-9.0624127e-24
-5.9275422e-25
-2.6384094e-26
-5.1588822e-28
2.0449954e-29
1.9152903e-30
6.1777119e-32
7.9581905e-34
1.8515114e-06
-4.5222776e-06
-6.7737487e-06
-9.356351e-07
2.0929243e-06
1.2916024e-06
2.48296e-07
-1.1164508e-08
-4.3096837e-09
-1.8864823e-10
-2.5981737e-12
-9.0255116e-15
2.7370561e-16
9.3445846e-18
-3.2510761e-19
-2.3408519e-19
-5.2137007e-20
-8.2223943e-21
-9.9995893e-22
-9.3226756e-23
-6.301278e-24
-2.5234214e-25
2.4804672e-27
1.250091e-27
9.7185822e-29
4.1748146e-30
1.0212959e-31
1.1236775e-33
1.5673404e-06
-6.2905578e-06
-9.7704848e-06
-1.5985492e-06
4.9527418e-06
3.9144664e-06
9.7555002e-07
-1.1915805e-07
-4.8785442e-08
-2.9752502e-09
-5.7870931e-11
-3.3462318e-15
2.102308e-14
4.5232202e-16
-4.4718755e-19
-1.8363004e-18
-4.0643895e-19
-6.5486939e-20
-8.2782133e-21
-7.9779075e-22
-5.1787338e-23
-1.0197471e-24
2.4080099e-25
3.7638314e-26
3.1237359e-27
1.6889259e-28
6.020232e-30
1.3009591e-31
1.3019724e-33
1.3732173e-06
-7.2475293e-06
-1.1476268e-05
-2.6399068e-06
8.6066722e-06
8.4206934e-06
2.4946457e-06
-7.4512656e-07
-3.6594372e-07
-3.1924789e-08
-8.9494762e-10
6.9320227e-12
1.2322021e-12
3.3820023e-14
2.9433098e-16
-1.2056937e-17
-2.8406406e-18
-4.6169321e-19
-5.9290121e-20
-5.6600101e-21
-2.9964157e-22
1.5210711e-23
5.8619893e-24
7.9146758e-25
7.1907901e-26
4.7054281e-27
2.1966167e-28
7.0244447e-30
1.3875788e-31
1.2808356e-33
8.9395414e-07
-7.6868285e-06
-1.2332153e-05
-2.4051842e-06
1.2031425e-05
1.3693589e-05
4.3660006e-06
-2.9281106e-06
-1.82751e-06
-2.3442719e-07
-9.1148757e-09
2.4777515e-10
4.6518639e-11
1.8191899e-12
2.3581097e-14
-1.8704896e-17
-1.8243306e-17
-2.9256915e-18
-3.7041014e-19
-3.2604927e-20
-6.5988398e-22
4.1254465e-22
9.4977905e-23
1.291785e-23
1.2792575e-24
9.7415146e-26
5.6107406e-27
2.3617453e-28
6.8844974e-30
1.2424336e-31
1.0431306e-33
1.4454404e-07
-7.691372e-06
-1.242229e-05
-1.7796352e-06
1.5139553e-05
1.8708298e-05
5.6893446e-06
-7.5860678e-06
-6.161534e-06
-1.1587674e-06
-5.8078482e-08
5.5652088e-09
1.1467422e-09
6.519582e-11
1.1793407e-12
1.8621964e-15
-1.4235228e-16
-1.7032427e-17
-2.0323542e-18
-1.4245747e-19
1.0403328e-20
5.8032738e-21
1.1926318e-21
1.6985703e-22
1.849166e-23
1.5829799e-24
1.0725932e-25
5.5558811e-27
2.1081331e-28
5.4956211e-30
8.6828061e-32
6.1083667e-34
-6.508077e-07
-7.8484898e-06
-1.1758972e-05
-1.2965879e-06
1.6740424e-05
2.2508435e-05
7.0773349e-06
-1.3701069e-05
-1.4500087e-05
-3.8733857e-06
-2.0713368e-07
7.1957944e-08
1.83846e-08
1.5308058e-09
3.8434702e-11
-2.9995046e-14
-4.9624411e-15
-1.0838486e-16
-9.902427e-18
-3.4422828e-19
1.8030874e-19
6.1197201e-20
1.231749e-20
1.8565241e-21
2.2089505e-22
2.1055489e-23
1.6085314e-24
9.7220774e-26
4.4322614e-27
1.4385188e-28
2.9931269e-30
3.1214907e-32
4.318214e-35
-1.5104824e-06
-7.8858153e-06
-1.0915948e-05
-5.5496767e-07
1.7281751e-05
2.3360878e-05
5.854864e-06
-1.9994675e-05
-2.5331737e-05
-9.0050876e-06
-2.633776e-07
5.7385437e-07
1.9088239e-07
2.3232773e-08
8.0375553e-10
-6.7304509e-12
-3.290092e-13
-2.2476823e-15
-4.6147656e-17
1.2027329e-18
1.798799e-18
5.3004234e-19
1.0803974e-19
1.7240315e-20
2.2218965e-21
2.3229033e-22
1.9593477e-23
1.3139159e-24
6.7058859e-26
2.3481413e-27
4.4054276e-29
-2.5954268e-31
-3.424754e-32
-5.7452468e-34
-2.3913465e-06
-7.8435958e-06
-9.8931341e-06
3.5072145e-07
1.7028466e-05
2.2812116e-05
3.7857938e-06
-2.5062648e-05
-3.540607e-05
-1.5521391e-05
8.1036677e-07
2.9188286e-06
1.2840143e-06
2.2599473e-07
1.0547965e-08
-2.9794862e-10
-1.51999e-11
-1.2304911e-13
-4.6637069e-16
2.2166069e-17
1.3993732e-17
3.9322382e-18
8.2183772e-19
1.3827148e-19
1.9082864e-20
2.1544669e-21
1.9577291e-22
1.3906033e-23
7.2368334e-25
2.0897514e-26
-3.7932084e-28
-7.2809743e-29
-3.7451285e-30
-9.9322026e-32
-1.1492174e-33
-3.1348919e-06
-7.7108733e-06
-8.7017703e-06
1.3118968e-06
1.650959e-05
2.131541e-05
2.4338593e-06
-2.6935464e-05
-4.161009e-05
-2.1143779e-05
4.3208096e-06
9.7314105e-06
5.6274507e-06
1.4018207e-06
8.4552439e-08
-6.7793481e-09
-4.4740307e-10
-5.1134052e-12
-2.0809136e-14
1.4228372e-16
9.2103128e-17
2.5672043e-17
5.5142797e-18
9.7017591e-19
1.4152818e-19
1.692386e-20
1.608984e-21
1.1335291e-22
4.6782801e-24
-7.8291839e-26
-3.4186115e-26
-3.2878414e-27
-1.8750321e-28
-6.9101044e-30
-1.5420738e-31
-1.6007276e-33
-3.5016119e-06
-7.4081267e-06
-7.388984e-06
2.2842154e-06
1.5896195e-05
1.9540542e-05
8.7408048e-07
-2.701495e-05
-4.341457e-05
-2.4023452e-05
1.0157428e-05
2.2263884e-05
1.6331914e-05
5.5507615e-06
3.9313636e-07
-9.0253683e-08
-8.4081345e-09
-1.469935e-10
-9.8730517e-13
-1.7997753e-15
5.301288e-16
1.507522e-16
3.3123206e-17
6.0291287e-18
9.1380217e-19
1.1298366e-19
1.0725647e-20
6.4785633e-22
-2.964651e-24
-6.5396902e-24
-9.5104354e-25
-8.8668649e-26
-5.9100293e-27
-2.8190081e-28
-9.2921066e-30
-1.9174522e-31
-1.8779983e-33
-3.641996e-06
-6.8224281e-06
-6.0839658e-06
3.269709e-06
1.5112524e-05
1.754182e-05
-4.1295725e-07
-2.5368458e-05
-4.3076938e-05
-2.4345397e-05
1.6392442e-05
3.7449637e-05
3.2759117e-05
1.4221996e-05
9.2835489e-07
-7.3713381e-07
-1.0130793e-07
-2.8550756e-09
-3.2706028e-11
-1.6041593e-13
2.4780848e-15
8.1299195e-16
1.8109173e-16
3.3558772e-17
5.1725848e-18
6.3813888e-19
5.5330189e-20
1.3901685e-21
-5.7041314e-22
-1.3219888e-22
-1.7716918e-23
-1.7407342e-24
-1.33305e-25
-7.8387503e-27
-3.4313621e-28
-1.0618433e-29
-2.0864382e-31
-1.966283e-33
-3.5632554e-06
-5.6101541e-06
-5.0035864e-06
4.0563969e-06
1.4248455e-05
1.5399845e-05
-1.7076399e-06
-2.3495184e-05
-4.0135112e-05
-2.3478198e-05
2.1139459e-05
5.0700151e-05
4.8656721e-05
2.4739495e-05
4.1671668e-07
-3.803117e-06
-7.8730634e-07
-3.6815651e-08
-7.204733e-10
-6.2118483e-12
-6.1005483e-15
4.2017717e-15
9.2009412e-16
1.6944501e-16
2.5788397e-17
2.986709e-18
1.8369952e-19
-2.1937317e-20
-9.422566e-21
-1.8170116e-21
-2.5040636e-22
-2.687885e-23
-2.318198e-24
-1.6156947e-25
-8.8400839e-27
-3.6599612e-28
-1.0840842e-29
-2.0564226e-31
-1.8841482e-33
-2.5627806e-06
-3.9829677e-06
-3.7919899e-06
4.1819765e-06
1.3101314e-05
1.3012195e-05
-3.0825683e-06
-2.1211721e-05
-3.6430317e-05
-2.4110796e-05
2.4593571e-05
5.848368e-05
5.8669856e-05
3.1158471e-05
-3.394559e-06
-1.2760639e-05
-4.0009396e-06
-3.134867e-07
-1.0397718e-08
-1.5038666e-10
-5.6787646e-13
3.3772323e-14
4.7046142e-15
7.9193809e-16
1.131252e-16
1.0927582e-17
-1.2977328e-19
-3.6984439e-19
-1.0441471e-19
-1.9628694e-20
-2.8596436e-21
-3.3705319e-22
-3.2612449e-23
-2.608988e-24
-1.7090393e-25
-8.8865331e-27
-3.5291766e-28
-1.0107577e-29
-1.8655864e-31
-1.672527e-33
-1.4466719e-06
5.6685495e-07
-2.224025e-06
3.6845032e-06
1.1569127e-05
1.0390804e-05
-4.697505e-06
-1.8782845e-05
-3.2253145e-05
-2.3765494e-05
2.4734343e-05
6.0883258e-05
6.156626e-05
3.1009336e-05
-1.0849748e-05
-2.9175632e-05
-1.3418e-05
-1.7729752e-06
-9.7649292e-08
-2.2759446e-09
-5.7075332e-12
1.344109e-12
5.8169433e-14
3.8701113e-15
4.3660507e-16
2.3519862e-17
-7.9621048e-18
-3.5847319e-18
-9.1620478e-19
-1.7601042e-19
-2.7345385e-20
-3.5247493e-21
-3.8010644e-22
-3.4363125e-23
-2.6044933e-24
-1.6269142e-25
-8.1236162e-27
-3.1187507e-28
-8.6862411e-30
-1.5672824e-31
-1.3804404e-33
-8.755479e-07
1.6200538e-06
2.0255196e-06
2.5092178e-06
9.6665827e-06
7.7233619e-06
-6.270718e-06
-1.625397e-05
-2.7475142e-05
-2.2985423e-05
2.3125638e-05
6.0899446e-05
5.9428506e-05
2.6465413e-05
-1.9523002e-05
-4.8543989e-05
-3.1915787e-05
-6.7659334e-06
-5.9699561e-07
-2.0753024e-08
2.4915579e-10
6.5857247e-11
3.1698368e-12
6.6874618e-14
1.7052231e-15
-5.5792808e-17
-7.8414133e-17
-2.6934582e-17
-6.7525137e-18
-1.3489096e-18
-2.238903e-19
-3.1385745e-20
-3.7373652e-21
-3.7800629e-22
-3.2433037e-23
-2.3518128e-24
-1.4108449e-25
-6.7975044e-27
-2.5314942e-28
-6.8713086e-30
-1.2139201e-31
-1.0519572e-33
1.1807173e-07
-1.3483301e-06
3.6519155e-06
2.1329643e-06
7.4216541e-06
4.8419898e-06
-7.7049158e-06
-1.3557612e-05
-2.2292465e-05
-2.1827293e-05
2.0956404e-05
5.7977748e-05
5.4138215e-05
1.8517769e-05
-2.8095698e-05
-6.3891623e-05
-5.6424271e-05
-1.8002266e-05
-2.3819101e-06
-1.0375194e-07
9.4693105e-09
2.0219417e-09
1.4908745e-10
4.1969316e-12
3.8530652e-14
-1.0166801e-15
-5.5551845e-16
-1.7077079e-16
-4.3093794e-17
-9.0067025e-18
-1.5944659e-18
-2.4167943e-19
-3.1487898e-20
-3.5250744e-21
-3.3807174e-22
-2.771621e-23
-1.9286492e-24
-1.1124785e-25
-5.1671951e-27
-1.8616803e-28
-4.9057327e-30
-8.4492128e-32
-7.1765495e-34
4.786509e-06
-4.6000891e-06
-8.4934628e-08
4.9638355e-06
1.9181959e-06
2.0590414e-06
-8.8657421e-06
-1.06498e-05
-1.697975e-05
-2.0336679e-05
1.8511727e-05
5.43064e-05
4.9764385e-05
1.2408365e-05
-3.1592846e-05
-7.1485342e-05
-7.8232028e-05
-3.486301e-05
-6.2897872e-06
-1.7254029e-07
1.4649244e-07
3.7516463e-08
4.264764e-09
1.9140911e-10
2.6678633e-12
-2.1745101e-15
-3.3292197e-15
-9.5270043e-16
-2.4281791e-16
-5.3141341e-17
-9.9990158e-18
-1.6287701e-18
-2.302025e-19
-2.821208e-20
-2.9883192e-21
-2.7237238e-22
-2.1303112e-23
-1.4140946e-24
-7.7697676e-26
-3.4294252e-27
-1.1732944e-28
-2.9351944e-30
-4.8106626e-32
-3.9155672e-34
-4.6165315e-07
5.1122455e-07
-6.1232412e-06
1.6595091e-06
5.8014938e-06
1.4906824e-06
-9.3447399e-06
-7.2104037e-06
-1.1742358e-05
-1.8520124e-05
1.5961466e-05
5.0172726e-05
4.5090552e-05
9.264054e-06
-3.0232338e-05
-7.1367924e-05
-9.1463767e-05
-5.2137593e-05
-1.1148706e-05
9.1852595e-07
1.2625114e-06
4.2587863e-07
7.3341888e-08
5.1874755e-09
1.1658718e-10
3.3062318e-13
-1.9993838e-14
-4.8159873e-15
-1.2264798e-15
-2.8019463e-16
-5.5772775e-17
-9.700173e-18
-1.4748257e-18
-1.9570451e-19
-2.2583734e-20
-2.25263e-21
-1.9293363e-22
-1.4111517e-23
-8.6556079e-25
-4.3152908e-26
-1.6845584e-27
-4.9177083e-29
-9.9910125e-31
-1.248263e-32
-7.27062e-35
-8.5532654e-06
-2.3350745e-06
-3.046192e-06
-6.4349705e-06
3.2857694e-06
6.3560674e-06
7.4664118e-07
-2.7881928e-06
-6.4702852e-06
-1.6736867e-05
1.3302089e-05
4.5898035e-05
3.9774477e-05
5.270707e-06
-2.8367171e-05
-6.2446875e-05
-9.6878439e-05
-6.4596215e-05
-1.3658908e-05
6.5041887e-06
6.6166478e-06
3.0077189e-06
7.6668766e-07
8.3452774e-08
2.9372927e-09
1.0222627e-11
-3.5283931e-13
-2.3126436e-14
-5.6393121e-15
-1.3329855e-15
-2.7903906e-16
-5.1451971e-17
-8.3411411e-18
-1.1846651e-18
-1.4656186e-19
-1.5652771e-20
-1.4228278e-21
-1.080348e-22
-6.6565179e-24
-3.0772237e-25
-8.3905004e-27
6.4616983e-29
1.9200465e-29
9.4940106e-31
2.3498558e-32
2.5022461e-34
2.6885442e-06
-5.5634318e-06
-3.9253811e-06
-7.6625321e-06
-6.0412689e-06
4.7265591e-06
6.6659002e-06
-5.9287855e-08
-2.2668753e-06
-1.508385e-05
1.0500415e-05
4.1271562e-05
3.4595879e-05
1.3561204e-06
-2.6656689e-05
-5.2984865e-05
-9.2095123e-05
-7.1164237e-05
-1.2121391e-05
1.971634e-05
2.2134302e-05
1.3460749e-05
4.9289067e-06
8.0503346e-07
4.281768e-08
3.4293176e-11
-1.8130334e-11
-1.7839595e-13
-2.4044148e-14
-5.7751441e-15
-1.2614937e-15
-2.4459411e-16
-4.1850605e-17
-6.2734106e-18
-8.1473359e-19
-8.995224e-20
-8.1417397e-21
-5.5450051e-22
-2.0577382e-23
1.0012026e-24
2.6639542e-25
2.7567215e-26
1.8866355e-27
9.0941921e-29
3.0061407e-30
6.163234e-32
5.9302913e-34
3.0359967e-06
6.8946518e-06
-2.3341487e-06
-6.7279893e-06
-9.9420079e-06
-5.4810812e-06
6.2662866e-06
6.7923999e-06
-8.1762612e-07
-1.3345328e-05
7.4481559e-06
3.6469838e-05
2.9144191e-05
-3.2194849e-06
-2.5036227e-05
-4.332137e-05
-8.2053617e-05
-7.9983227e-05
-7.1314036e-06
3.8413796e-05
4.9917758e-05
3.9065289e-05
1.9760073e-05
4.69337e-06
3.6122762e-07
-4.3923341e-09
-6.7173647e-10
-6.3323317e-12
-1.0341432e-13
-2.3043288e-14
-5.1875256e-15
-1.0470743e-15
-1.866593e-16
-2.8959121e-17
-3.8149997e-18
-4.0507442e-19
-2.9695545e-20
-2.8724921e-22
3.5141233e-22
7.1414185e-23
9.1519424e-24
8.8445489e-25
6.6614238e-26
3.8796371e-27
1.6980268e-28
5.2724738e-30
1.0365593e-31
9.7003704e-34
-1.2946884e-05
7.5665584e-06
1.0528971e-05
-6.8738599e-07
-9.4133442e-06
-1.1915984e-05
-4.673656e-06
7.6907839e-06
6.868532e-06
-1.5075932e-06
3.7649236e-06
3.1554068e-05
2.3804372e-05
-7.6712239e-06
-2.3643e-05
-3.3311114e-05
-6.9974822e-05
-8.2961547e-05
-1.172775e-05
5.7487694e-05
8.1825398e-05
7.6588645e-05
5.0260545e-05
1.6666273e-05
1.7353338e-06
-1.0237121e-07
-1.4700896e-08
-2.4724694e-10
-1.0792854e-12
-8.638163e-14
-1.9537105e-14
-4.0491671e-15
-7.3846405e-16
-1.1483763e-16
-1.4276288e-17
-1.1436196e-18
3.0719959e-20
3.4197917e-20
8.1098737e-21
1.3336703e-21
1.7270921e-22
1.8233529e-23
1.5784343e-24
1.1058432e-25
6.1252696e-27
2.5852055e-28
7.8140568e-30
1.5058576e-31
1.3889866e-33
-2.4498975e-07
-1.1356083e-05
1.1697872e-05
1.3580573e-05
-1.9299533e-07
-1.2287511e-05
-1.3674501e-05
-3.6374353e-06
8.940835e-06
6.8247903e-06
-2.1118745e-06
2.6325924e-05
1.8256873e-05
-1.2240958e-05
-2.1999078e-05
-2.3344124e-05
-5.7285326e-05
-8.2475348e-05
-1.721525e-05
6.8023476e-05
0.00010749947
0.00010957444
8.4805758e-05
3.6636911e-05
4.5028403e-06
-1.0512406e-06
-1.9235917e-07
-5.8717764e-09
-3.9022096e-11
-3.7526219e-13
-6.8012063e-14
-1.4162505e-14
-2.5672177e-15
-3.7530096e-16
-3.494511e-17
1.6240937e-18
1.7313432e-18
5.0307876e-19
1.0440862e-19
1.7474791e-20
2.4427374e-21
2.8795975e-22
2.8587494e-23
2.3673588e-24
1.6029359e-25
8.6468255e-27
3.5742262e-28
1.0627632e-29
2.0220803e-31
1.8472627e-33
2.0617881e-05
-4.4790556e-06
-8.8294614e-06
1.5630196e-05
1.6346538e-05
7.9838092e-08
-1.517529e-05
-1.4974317e-05
-2.5886293e-06
1.0086776e-05
6.6757411e-06
-2.3864634e-06
1.2573731e-05
-1.6755873e-05
-2.0059248e-05
-1.3791782e-05
-4.4083188e-05
-7.9245462e-05
-2.2946343e-05
7.0366564e-05
0.00012630833
0.0001269231
0.0001029172
5.2603533e-05
5.3511921e-06
-5.9515335e-06
-1.5399093e-06
-8.3642761e-08
-1.1204976e-09
-5.929544e-12
-2.2720203e-13
-4.4775402e-14
-7.6492244e-15
-8.8040073e-16
2.481273e-17
5.2185024e-17
1.9043652e-17
4.9196019e-18
1.0340534e-18
1.8415406e-19
2.8164822e-20
3.7079941e-21
4.186793e-22
4.0221702e-23
3.2429297e-24
2.1477637e-25
1.1378467e-26
4.6348473e-28
1.3620384e-29
2.5679078e-31
2.3299299e-33
6.5389877e-06
1.4206708e-05
-9.1534877e-06
-5.6373828e-06
1.945014e-05
1.8893164e-05
1.4842657e-07
-1.7537871e-05
-1.5808144e-05
-1.4900507e-06
1.1029193e-05
6.6630205e-06
-2.3929439e-06
-2.1060871e-05
-1.7426192e-05
-4.3405048e-06
-3.1210281e-05
-7.3456902e-05
-2.8603333e-05
6.8788744e-05
0.00012992103
0.00013550913
9.9386145e-05
5.2159571e-05
-2.2212478e-07
-2.0120759e-05
-7.7382706e-06
-7.3561465e-07
-1.938966e-08
-1.8297253e-10
-1.2225746e-12
-1.2803904e-13
-1.8237028e-14
-3.8586185e-16
9.7750155e-16
4.6650413e-16
1.4935563e-16
3.869973e-17
8.5474017e-18
1.6395183e-18
2.7465867e-19
4.0169067e-20
5.1078274e-21
5.6077435e-22
5.2649553e-23
4.1596437e-24
2.7086703e-25
1.4151665e-26
5.7002597e-28
1.6606018e-29
3.1106627e-31
1.9796656e-35
-2.4517264e-05
4.5497452e-08
7.0125395e-06
-1.1951911e-05
-2.1426677e-06
2.3077723e-05
2.1200265e-05
-1.2509351e-07
-1.9408504e-05
-1.6484759e-05
-3.8472485e-07
1.1687539e-05
6.2269387e-06
-2.4281035e-06
-1.3781471e-05
5.4446168e-06
-1.9033885e-05
-6.5687577e-05
-3.4336997e-05
6.4444317e-05
0.00013015909
0.00013153344
8.6012591e-05
3.797273e-05
-1.1101773e-05
-4.3433244e-05
-2.5267352e-05
-4.1187311e-06
-2.0560265e-07
-3.7761131e-09
-2.6528524e-11
-3.7651986e-13
-2.6288e-14
1.0964493e-14
7.650609e-15
3.0535309e-15
9.652908e-16
2.5980525e-16
6.1032251e-17
1.2634883e-17
2.3110486e-18
3.7290526e-19
5.2875301e-20
6.5497871e-21
7.0320795e-22
6.4782803e-23
5.0332266e-24
3.2325946e-25
1.6703668e-26
6.6717664e-28
1.9319777e-29
2.9966358e-33
7.478116e-38
-8.1321078e-06
-2.6688786e-05
-6.9430208e-06
-5.6403477e-07
-1.3746373e-05
1.3324812e-06
2.6603674e-05
2.3302061e-05
-6.3407164e-07
-2.1127531e-05
-1.7031164e-05
6.656381e-07
1.1586284e-05
5.3475526e-06
-2.4368241e-06
1.5758288e-05
-7.3574633e-06
-5.6910961e-05
-3.9300125e-05
5.8563897e-05
0.00012740468
0.00012811299
7.8435919e-05
2.1236673e-05
-2.1158568e-05
-6.4205514e-05
-5.6243943e-05
-1.5221037e-05
-1.3825051e-06
-4.750862e-08
-6.2191376e-10
-3.5695152e-12
3.6086707e-14
8.3988769e-14
4.3440683e-14
1.6702371e-14
5.4063574e-15
1.5293008e-15
3.8325934e-16
8.5491964e-17
1.6988767e-17
3.0025624e-18
4.7030945e-19
6.4975191e-20
7.8676338e-21
8.2825981e-22
7.5054911e-23
5.7489962e-24
3.6511131e-25
1.8709783e-26
7.4312895e-28
2.1125219e-31
1.3140757e-35
1.0850523e-40
2.5922551e-05
-2.5876531e-06
-2.7800664e-05
-1.4259209e-05
-7.5135716e-06
-1.5078414e-05
4.7000836e-06
2.9866645e-05
2.5302291e-05
-1.3992447e-06
-2.2747281e-05
-1.75923e-05
1.3874199e-06
1.0786771e-05
3.8065432e-06
-1.4780133e-06
5.0154028e-06
-4.8979897e-05
-4.2722198e-05
5.170271e-05
0.00012302698
0.00012304372
6.9762406e-05
7.6601182e-06
-3.0133199e-05
-7.0590565e-05
-9.0348602e-05
-3.9061311e-05
-6.1051109e-06
-3.75553e-07
-9.1521602e-09
-8.6508829e-11
2.4407132e-13
4.3260642e-13
2.0686254e-13
8.0052103e-14
2.6886357e-14
8.0177372e-15
2.1401751e-15
5.124868e-16
1.1003374e-16
2.1145536e-17
3.6265833e-18
5.5289771e-19
7.4566257e-20
8.8405194e-21
9.1476599e-22
8.1642468e-23
6.1799445e-24
3.8915043e-25
1.9835868e-26
9.2569497e-30
1.0712702e-33
2.2811806e-38
5.1633691e-44
1.6792421e-05
3.5616151e-05
2.6745441e-06
-2.8957086e-05
-2.1095224e-05
-1.4812735e-05
-1.6179616e-05
7.9311026e-06
3.3133846e-05
2.693216e-05
-2.2693135e-06
-2.3724126e-05
-1.7152256e-05
2.3350775e-06
8.6850942e-06
2.8043988e-06
-9.0446035e-07
-4.1895676e-05
-4.5145181e-05
4.3980233e-05
0.00011735509
0.00011769481
6.0112625e-05
-4.1987103e-06
-3.598302e-05
-6.0396432e-05
-0.00011062917
-7.4255178e-05
-1.8587395e-05
-1.9337154e-06
-8.3858414e-08
-1.476593e-09
-7.2127041e-12
1.8240601e-12
8.6910074e-13
3.4430236e-13
1.2046597e-13
3.7827536e-14
1.0714939e-14
2.739739e-15
6.316255e-16
1.310272e-16
2.4395672e-17
4.063782e-18
6.0333101e-19
7.9470673e-20
9.2324653e-21
9.4029351e-22
8.2822223e-23
6.2117554e-24
3.890853e-25
2.83044e-28
5.4319932e-32
2.1909158e-36
1.3667208e-41
7.049485e-48
-3.5370543e-05
2.7306288e-05
4.4446532e-05
8.2764009e-06
-3.1396716e-05
-2.8989735e-05
-2.2089532e-05
-1.7118011e-05
1.0774878e-05
3.6156378e-05
2.825301e-05
-3.1574297e-06
-2.380841e-05
-1.5900104e-05
3.322436e-06
5.9044674e-06
1.7566955e-06
-5.2904943e-07
-4.7496699e-05
3.5487837e-05
0.00011008571
0.00011152074
4.9410969e-05
-1.6679721e-05
-4.3725539e-05
-5.2697721e-05
-9.7806086e-05
-0.00011110209
-4.1446769e-05
-6.8149088e-06
-4.9559248e-07
-1.5560631e-08
-1.8947256e-10
6.0023523e-12
3.3049512e-12
1.3488476e-12
4.9136717e-13
1.6187494e-13
4.840477e-14
1.3134719e-14
3.2286222e-15
7.1734798e-16
1.4373399e-16
2.5904014e-17
4.1863542e-18
6.0461741e-19
7.7725547e-20
8.8456091e-21
8.8810074e-22
7.7374104e-23
5.7688956e-24
6.4119661e-27
1.9278373e-30
1.3040353e-34
1.5669973e-39
2.9471869e-45
-5.7381595e-52
-4.9894224e-05
-2.7783885e-05
3.6737862e-05
5.2631015e-05
1.3716105e-05
-3.30176e-05
-3.689501e-05
-2.9353718e-05
-1.8344892e-05
1.3454807e-05
3.8789235e-05
2.8546378e-05
-4.2228233e-06
-2.3309946e-05
-1.2804258e-05
2.2729929e-06
3.6082935e-06
7.9907887e-07
-2.196152e-07
2.5894418e-05
0.00010099978
0.0001039931
3.7709101e-05
-3.2640214e-05
-5.3283494e-05
-4.7309596e-05
-7.8429083e-05
-0.00013088583
-7.2090399e-05
-1.7406495e-05
-1.9892427e-06
-1.0454249e-07
-2.383235e-09
1.2900229e-12
1.1576675e-11
4.8773003e-12
1.8403162e-12
6.326392e-13
1.9841818e-13
5.673315e-14
1.4754323e-14
3.4810208e-15
7.4331635e-16
1.4335325e-16
2.4911852e-17
3.8909352e-18
5.4469128e-19
6.8131794e-20
7.5972885e-21
7.5128406e-22
6.4916811e-23
1.1123965e-25
5.0944834e-29
5.4392841e-33
1.0971015e-37
4.1503447e-43
2.182043e-49
-3.1332461e-55
1.5221236e-05
-5.1600348e-05
-1.9349756e-05
4.5349789e-05
6.0219372e-05
1.8923694e-05
-3.4428869e-05
-4.4783337e-05
-3.6751498e-05
-1.9753873e-05
1.5846741e-05
4.0632978e-05
2.7366851e-05
-5.2513418e-06
-2.0207343e-05
-9.1599994e-06
1.4921579e-06
1.7580114e-06
2.520068e-07
-6.3009955e-08
8.9612367e-05
9.4291045e-05
2.5152518e-05
-5.1123385e-05
-6.4584944e-05
-4.4129865e-05
-5.6230945e-05
-0.00012378161
-0.00010756227
-3.4512066e-05
-5.7376918e-06
-4.7241209e-07
-1.8241786e-08
-2.3583572e-10
3.6886277e-11
1.6680799e-11
6.4254142e-12
2.273396e-12
7.4207608e-13
2.2172833e-13
6.0466022e-14
1.4999916e-14
3.3751415e-15
6.8725354e-16
1.2641665e-16
2.0970423e-17
3.1318846e-18
4.2048731e-19
5.0659303e-20
5.5055668e-21
5.355584e-22
1.5000817e-24
1.0388393e-27
1.6956433e-31
5.3742387e-36
3.3718793e-41
4.9147197e-47
-1.5687067e-53
-5.2223804e-59
7.5944741e-05
4.4593649e-06
-5.1269141e-05
-1.060074e-05
5.3466732e-05
6.7323561e-05
2.3833224e-05
-3.5148172e-05
-5.2157299e-05
-4.3767384e-05
-2.0956787e-05
1.9120566e-05
4.1569712e-05
2.4247584e-05
-5.3504071e-06
-1.4686956e-05
-5.5890369e-06
9.4422932e-07
6.3164339e-07
5.278129e-08
-1.2594119e-08
8.213318e-05
1.1310189e-05
-7.1043858e-05
-7.6367175e-05
-4.0902099e-05
-3.4831607e-05
-9.755893e-05
-0.00013307482
-6.395338e-05
-1.2697493e-05
-1.5166072e-06
-9.1400977e-08
-2.3179142e-09
1.0273835e-10
5.5609715e-11
2.17548e-11
7.7359808e-12
2.5476253e-12
7.8741376e-13
2.2276149e-13
5.7399952e-14
1.3412578e-14
2.8320085e-15
5.3869203e-16
9.2103682e-17
1.4129725e-17
1.9436284e-18
2.4004367e-19
2.6614788e-20
2.7429179e-21
1.5650317e-23
1.6672477e-26
4.1019804e-30
1.9746984e-34
1.8894703e-39
4.7934171e-45
2.2415021e-51
-5.4685754e-57
-5.6068409e-63
6.7045194e-05
6.0084677e-05
-5.8009464e-06
-4.8816213e-05
-1.5935635e-06
6.0993744e-05
7.3738647e-05
2.8413666e-05
-3.4957743e-05
-5.8560857e-05
-5.0754961e-05
-2.2004297e-05
2.2666714e-05
3.9040167e-05
1.8874878e-05
-4.1940958e-06
-8.9215673e-06
-2.4731032e-06
4.2058482e-07
1.6030025e-07
7.2091193e-09
-1.6096645e-09
-3.3323922e-06
-8.9342399e-05
-8.7609315e-05
-3.5913379e-05
-1.3146042e-05
-6.7325984e-05
-0.00014299426
-9.6521859e-05
-2.9106495e-05
-3.6434811e-06
-3.0654849e-07
-9.6117596e-09
6.9147748e-10
2.2550285e-10
7.4515769e-11
2.6592034e-11
8.5854395e-12
2.561852e-12
7.3884639e-13
1.9455532e-13
4.6216465e-14
9.8235912e-15
1.8500164e-15
3.0461175e-16
4.297635e-17
5.0079343e-18
4.4320534e-19
2.1781585e-20
-1.2530515e-21
1.2106955e-22
2.1194278e-25
7.8752456e-29
5.6656401e-33
7.947178e-38
3.0232062e-43
3.602835e-49
-1.5211201e-55
-6.9874548e-61
-5.0932291e-67
-1.8841957e-05
4.951867e-05
4.2955883e-05
-1.5802269e-05
-4.4551677e-05
7.3051887e-06
6.8097173e-05
7.9094202e-05
3.2493999e-05
-3.3873471e-05
-6.35205e-05
-5.6634483e-05
-2.0860898e-05
2.5303137e-05
3.2846024e-05
1.230721e-05
-2.8544923e-06
-4.1700869e-06
-7.5254055e-07
1.2196361e-07
2.7948374e-08
5.6937305e-10
-1.3668795e-10
-0.00010351868
-9.5822979e-05
-2.7751945e-05
9.9549766e-06
-3.3782812e-05
-0.00013310578
-0.00012882837
-5.2389579e-05
-1.0232432e-05
-6.2062648e-07
2.7188811e-08
1.6907763e-08
2.8831799e-09
4.3139992e-10
9.6990397e-11
2.8073487e-11
8.1055123e-12
2.2069753e-12
5.7966893e-13
1.3499115e-13
2.7138975e-14
4.4727116e-15
5.2087398e-16
1.0454487e-17
-1.5223331e-17
-5.2983479e-18
-1.1895157e-18
-2.0925717e-19
5.7777943e-22
2.1100409e-24
1.2137911e-27
1.3005325e-31
2.6285373e-36
1.4054674e-41
2.6972202e-47
1.0969158e-53
-3.6795275e-59
-6.8552993e-65
-4.3592287e-71
-0.00011215113
-3.4361923e-05
3.0018955e-05
2.5515825e-05
-2.4480449e-05
-3.9009319e-05
1.6261877e-05
7.4680725e-05
8.3861483e-05
3.5826209e-05
-3.1580686e-05
-6.5533931e-05
-5.7674253e-05
-1.610107e-05
2.3254847e-05
2.2799826e-05
6.1450802e-06
-1.5661457e-06
-1.3906102e-06
-1.533351e-07
2.2933095e-08
3.183377e-09
2.9632849e-11
-8.0615573e-12
-9.8246737e-05
-1.6137456e-05
3.4959296e-05
2.1922187e-06
-0.00010893323
-0.00015332007
-8.1662014e-05
-2.1293845e-05
-1.8465307e-06
6.6321503e-07
2.6817332e-07
6.0222228e-08
8.9300592e-09
8.9443304e-10
1.0649457e-10
2.4472313e-11
6.2145238e-12
1.4914139e-12
3.1474468e-13
4.8749111e-14
2.1851961e-15
-1.9889373e-15
-9.8226215e-16
-3.0446354e-16
-7.4735264e-17
-1.5445664e-17
-2.7494021e-18
-5.3252835e-22
1.5642161e-23
1.5027605e-26
2.4223443e-30
7.027827e-35
5.1282169e-40
1.3850264e-45
1.4168949e-51
-7.3938062e-58
-4.2441388e-63
-6.1360866e-69
-3.5620056e-75
-9.4289588e-05
-0.00011526968
-4.8969435e-05
9.9594065e-06
8.8586892e-06
-2.9963984e-05
-3.2110877e-05
2.4797683e-05
8.112819e-05
8.7636527e-05