/*--------------------------------*- C++ -*----------------------------------*\
| =========                 |                                                 |
| \\      /  F ield         | OpenFOAM: The Open Source CFD Toolbox           |
|  \\    /   O peration     | Version:  5.0                                   |
|   \\  /    A nd           | Web:      www.OpenFOAM.org                      |
|    \\/     M anipulation  |                                                 |
\*---------------------------------------------------------------------------*/
FoamFile
{
    version     2.0;
    format      ascii;
    class       surfaceScalarField;
    location    "200";
    object      ddtCorrDdt0(phi);
}
// * * * * * * * * * * * * * * * * * * * * * * * * * * * * * * * * * * * * * //

dimensions      [0 3 -2 0 0 0 0];

internalField   nonuniform List<scalar> 
18820
(
2.3774962e-06
0.00032905599
3.9432988e-06
0.00030611433
2.908916e-06
0.00032614853
4.7770043e-06
0.00028254611
5.6430301e-06
0.00030339062
-5.0177158e-06
0.00033117238
4.7506849e-06
0.00025864447
7.9294473e-06
0.0002802689
-8.7496537e-06
0.00030713978
-1.585017e-05
0.00034703253
3.9386304e-06
0.00023458828
8.8591836e-06
0.00025772375
-1.1733585e-05
0.00028326795
-2.9855083e-05
0.0003211664
-1.906818e-05
0.00036611321
2.6158676e-06
0.00021082013
7.8468556e-06
0.00023560923
-1.4695993e-05
0.00026070065
-4.2495862e-05
0.00029592778
-3.7395296e-05
0.00033951767
-1.3987784e-05
0.00038011489
5.7037871e-07
0.0001876986
5.1947434e-06
0.0002134801
-1.8482471e-05
0.0002394091
-5.3707398e-05
0.00027193002
-5.5129325e-05
0.00031368274
-2.8810002e-05
0.00035436449
-4.6723662e-06
0.00038480136
-3.1926032e-06
0.00016547083
9.7776738e-07
0.00019192233
-2.3527273e-05
0.00021853658
-6.3936336e-05
0.00024965396
-7.1517862e-05
0.0002883377
-4.4468912e-05
0.00032936273
-1.072637e-05
0.00036044203
1.3304171e-06
0.00038348443
-1.1194102e-05
0.00014469519
-5.3962868e-06
0.00017185026
-3.0011968e-05
0.00019841641
-7.4268087e-05
0.00022888142
-8.6310655e-05
0.00026446305
-6.0267399e-05
0.0003041548
-1.8085018e-05
0.00033674116
2.085127e-06
0.00035970861
-1.5660102e-07
0.00038365318
-2.8254227e-05
0.00012609011
-1.6062082e-05
0.0001553648
-3.7921701e-05
0.00017976662
-8.5306913e-05
0.00020946469
-0.00010045889
0.00024304198
-7.549697e-05
0.00027970756
-2.7260668e-05
0.00031334726
2.4764264e-06
0.00033636737
3.907192e-07
0.00035917964
-7.5230786e-06
0.00039118673
-6.2408952e-05
0.0001109756
-3.6192355e-05
0.00014622271
-4.6297362e-05
0.00016374431
-9.6657759e-05
0.00019112294
-0.00011454299
0.00022355633
-9.0511643e-05
0.00025806673
-3.7605883e-05
0.00029006532
1.3051019e-06
0.00031453285
1.419874e-06
0.00033535294
-1.3276087e-05
0.00036494775
-1.5998185e-05
0.00040719345
-0.00012470156
0.00010891159
-7.7301913e-05
0.00015208628
-5.2601475e-05
0.00015252827
-0.00010545806
0.00017254631
-0.0001284175
0.00020500012
-0.0001058491
0.00023889849
-4.8329859e-05
0.00026879811
-2.0182892e-06
0.00029339871
2.5840822e-06
0.00031338022
-1.8320618e-05
0.00034040936
-2.9947875e-05
0.00037890935
-2.0809033e-05
0.00042800917
-0.00021947176
0.00013094324
-0.00014290761
0.00017451771
-4.829484e-05
0.0001477795
-0.00010521354
0.00015228247
-0.00014116028
0.00018528762
-0.0001226612
0.000221812
-5.9298476e-05
0.00024986938
-5.4030689e-06
0.00027218822
2.9925897e-06
0.00029299799
-2.2633746e-05
0.00031770248
-4.2862793e-05
0.00035333345
-4.0338602e-05
0.00039844794
-1.9715186e-05
0.00044772932
-0.00033839825
0.00014453924
-0.00019585607
0.00018389198
-7.9001859e-06
0.00013412239
-8.0575037e-05
0.00012313785
-0.00014906433
0.00016018238
-0.00014356279
0.00020618542
-7.1670774e-05
0.00023418263
-7.5652193e-06
0.000252033
3.4743486e-06
0.00027171079
-2.5969382e-05
0.00029633997
-5.4971775e-05
0.00032981851
-5.8631928e-05
0.00037163362
-3.9521273e-05
0.00041826064
-1.3491662e-05
0.00046122457
-0.00048614684
0.00017498254
-0.00022697376
0.00017565751
8.5895473e-05
9.0096304e-05
-1.9288232e-05
7.2831618e-05
-0.00014944234
0.00012351064
-0.00017464805
0.00019126198
-8.9026477e-05
0.00022353746
-7.6063868e-06
0.00023422327
5.5785228e-06
0.0002499312
-2.910444e-05
0.00027485041
-6.6132786e-05
0.00030750638
-7.5903345e-05
0.00034709523
-5.8775204e-05
0.0003908924
-2.8228944e-05
0.00043300266
-4.9875653e-06
0.00046621465
-0.00065785232
0.00020791758
-0.00022356704
0.00017157699
0.00020170385
5.9850726e-05
6.0141671e-05
1.0662284e-05
-0.00015630778
7.9692083e-05
-0.00023042721
0.00017928365
-0.00012020944
0.00022244112
-5.0258272e-06
0.00022095651
1.1929509e-05
0.00022787486
-3.1755538e-05
0.00025258706
-7.7222597e-05
0.0002859455
-9.2624064e-05
0.00032423177
-7.6922826e-05
0.00036524656
-4.4219229e-05
0.0004068859
-1.1592357e-05
0.00043961083
2.3239431e-06
0.00046389258
-0.00088083974
0.00027537602
-0.00020275854
0.0001871109
0.00036671638
6.5683031e-06
0.00015935801
-3.9369592e-05
-0.00019417864
4.8529012e-05
-0.00033106624
0.00018032502
-0.0001765504
0.00023562153
2.8306413e-06
0.00021458576
2.7029557e-05
0.00020586095
-3.2663649e-05
0.00022878995
-8.9198463e-05
0.00026457008
-0.00010956398
0.00030289116
-9.473752e-05
0.00034205014
-6.0060361e-05
0.00038108983
-2.0936815e-05
0.00041623221
3.2782007e-06
0.00043865907
5.8289887e-06
0.00045806509
-0.0011664008
0.0003491058
-0.00015893653
0.00023155644
0.00058741408
-3.3580714e-05
0.00028480771
-0.00011888519
-0.00026251867
2.8966997e-05
-0.00048069999
0.00019815663
-0.00026801824
0.00027179013
1.8679133e-05
0.00021977563
5.9098391e-05
0.00018252352
-2.8637343e-05
0.00020184462
-0.00010285944
0.00024246119
-0.00012811327
0.00028312789
-0.00011321373
0.00032137265
-7.5721898e-05
0.00035771385
-3.2662519e-05
0.00039281602
2.1750738e-06
0.0004173361
1.0657736e-05
0.00043383222
4.9392208e-06
0.00045312726
-0.0015499304
0.00049335878
-0.00010393204
0.00029410432
0.00093457611
-0.00011559774
0.00049058366
-0.00023936007
-0.00040151472
2.0107438e-05
-0.00067980221
0.00022806267
-0.00040137419
0.00033150893
5.1025232e-05
0.00023944694
0.00011960129
0.00015927989
-1.5749479e-05
0.00016964743
-0.00011880726
0.00021780509
-0.00014994523
0.00026430454
-0.00013347629
0.00030339823
-9.2220942e-05
0.0003378751
-4.4842235e-05
0.00036989357
-3.0316186e-06
0.00039802155
1.5262672e-05
0.00041273105
9.2803623e-06
0.00042949258
1.0563575e-06
0.00045207223
-0.0019821907
0.00058544503
2.2170597e-05
0.00036725983
0.0014373143
-0.0002086253
0.00078069662
-0.0004057133
-0.00061849313
-2.2385806e-05
-0.00094983246
0.0002901307
-0.00058387552
0.00041055825
0.00010455795
0.00027797795
0.00022558113
0.00013347253
1.4915343e-05
0.00012862592
-0.00013715276
0.0001880052
-0.00017765489
0.00024552681
-0.00015741024
0.0002882477
-0.00010980894
0.00032099106
-5.735374e-05
0.00035038694
-1.0889805e-05
0.00037774933
1.8053624e-05
0.00039522786
1.3924398e-05
0.00040808617
2.2087021e-06
0.00042834128
-3.5732211e-06
0.00045564676
-0.0025696128
0.00078553244
0.00018039597
0.00042722427
0.0021623664
-0.00035778399
0.0011871864
-0.00061511622
-0.00093917856
-8.5033057e-05
-0.001361165
0.00038893962
-0.00081553283
0.00052177995
0.0002042716
0.00031084421
0.00039453957
0.00010902166
7.4944148e-05
7.3450843e-05
-0.00015615602
0.00014763763
-0.0002145656
0.00022492473
-0.00018863647
0.00027676039
-0.00012942017
0.00030786314
-6.9285264e-05
0.0003329228
-1.8189499e-05
0.00035768332
1.7367506e-05
0.00037843061
1.844842e-05
0.00039069975
2.7998207e-06
0.00040749355
-6.1774932e-06
0.00043094607
-7.0889213e-06
0.00046273683
-0.003177065
0.00083528461
0.00041762577
0.00054830853
0.0030594919
-0.00046989396
0.0017156903
-0.00088628689
-0.0013759274
-0.00017837316
-0.001986956
0.0005407511
-0.0011218891
0.00069528665
0.00036356969
0.00036247914
0.0006621224
4.3260529e-05
0.00019817443
-1.4206711e-05
-0.00017062285
8.7920176e-05
-0.00026528403
0.00019835797
-0.00023359605
0.00026988575
-0.00015333966
0.00030067969
-7.9815786e-05
0.00031839131
-2.3482064e-05
0.00033821047
1.5813823e-05
0.00035923031
2.154046e-05
0.0003753318
3.4686275e-06
0.00039002577
-1.0368863e-05
0.00041168281
-1.2790498e-05
0.00043664741
-8.591634e-06
0.00047132937
-0.0040106348
0.0011663832
0.00064878604
0.00060413181
0.0043161637
-0.00070835723
0.0024411884
-0.0011953887
-0.0019752276
-0.00028699199
-0.0029038453
0.00073850971
-0.0015220277
0.00094088116
0.00061654357
0.00044230791
0.001068268
-4.3668512e-05
0.0003831311
-0.00014169905
-0.00017092767
-1.3904788e-05
-0.00033738066
0.00016001067
-0.00030452315
0.00026927834
-0.00018643924
0.00030297745
-8.7996391e-05
0.00030885221
-2.4439761e-05
0.00031934036
1.5888065e-05
0.00033812718
2.3619555e-05
0.00035714211
3.3831281e-06
0.00037540929
-1.5334775e-05
0.00039498575
-2.0060977e-05
0.0004189506
-1.6450347e-05
0.00044450495
-7.9753281e-06
0.00047930521
-0.0047191512
0.0012983216
0.0010812992
0.00073387921
0.0057098683
-0.00078956766
0.0033533298
-0.001620493
-0.0027259647
-0.00044465499
-0.004204729
0.001013885
-0.0020542399
0.0012707158
0.0010037973
0.00055362049
0.0016696613
-0.00015908657
0.00067347072
-0.00033401408
-0.00019512445
-0.00011750812
-0.00045888391
0.00010758635
-0.0004227289
0.00027820254
-0.0002384877
0.00032131078
-9.2923932e-05
0.0003078895
-1.7199102e-05
0.00030159714
2.0790914e-05
0.0003144247
2.5725418e-05
0.00033600993
1.3649356e-06
0.00035915018
-2.0590364e-05
0.00038065648
-2.9388073e-05
0.00040430647
-2.4827773e-05
0.00042732478
-1.6751917e-05
0.00045327924
-5.4454822e-06
0.00048475074
-0.0057202285
0.0015366282
0.0017251291
0.00065450252
0.0076915627
-0.0012478103
0.0045449825
-0.0019812131
-0.0037545562
-0.00059190186
-0.0059869574
0.0013375656
-0.0027239168
0.0016835588
0.0015727844
0.0007017197
0.0025315889
-0.00030830723
0.0011088481
-0.0005944707
-0.00027261968
-0.00025652521
-0.00064343508
6.7029415e-05
-0.00062331823
0.0003081585
-0.00032554863
0.00036524298
-9.3493635e-05
0.00032185947
4.5100384e-06
0.00028616067
3.5487072e-05
0.00028688398
2.9482705e-05
0.00031065347
-2.3980301e-06
0.00033976149
-2.8314337e-05
0.00036686444
-3.9401155e-05
0.00039066154
-3.5764993e-05
0.00041523721
-2.5285106e-05
0.00043585427
-1.2990197e-05
0.00046082042
-1.27032e-06
0.00048602058
-0.0067043441
0.0016305521
0.0022813536
0.00098041561
0.0098621347
-0.0015160643
0.0056961991
-0.0023990189
-0.0048923627
-0.00084340388
-0.0083875086
0.0018086398
-0.0035911631
0.0022048105
0.0023731898
0.00088314256
0.0037252415
-0.00049193353
0.0017393627
-0.00093882731
-0.0003849636
-0.00048213297
-0.00095645934
5.6488562e-05
-0.0009226632
0.00036635837
-0.00046984204
0.00045243314
-8.8228941e-05
0.00035995691
5.1885154e-05
0.00027446349
6.7521569e-05
0.00025410721
3.7768266e-05
0.00027858295
-7.6181907e-06
0.00031586159
-3.9278152e-05
0.00035071583
-5.1510715e-05
0.00037896591
-4.8706672e-05
0.00040359626
-3.5147931e-05
0.00042509369
-2.080108e-05
0.0004436611
-4.7780695e-06
0.00046432334
4.0323009e-06
0.00048198726
-0.007574799
0.0022227031
0.002909693
0.001002225
0.012686925
-0.0018443689
0.006995889
-0.0028157464
-0.006349959
-0.00094141781
-0.011493281
0.0022623566
-0.0046007705
0.0028182451
0.0034478919
0.0011300965
0.0053250907
-0.00071671056
0.0026362015
-0.0013887749
-0.00052664558
-0.00079715223
-0.0014761215
3.7524912e-05
-0.0013361325
0.00046994602
-0.00068546572
0.00058197063
-7.0816128e-05
0.00043500469
0.00014132447
0.00027050191
0.00012781165
0.00021415753
5.5873071e-05
0.00023598877
-1.3658913e-05
0.00028461284
-5.4377266e-05
0.0003309527
-6.7342421e-05
0.00036654136
-6.3266279e-05
0.0003935198
-4.7736372e-05
0.00041617923
-2.822695e-05
0.0004325136
-9.8535008e-06
0.00044873232
6.3337307e-06
0.00046201576
9.4627322e-06
0.00047252298
-0.0078165651
0.0020980643
0.0042971301
0.00083527812
0.01569321
-0.0020040536
0.0085335935
-0.0033820664
-0.0081213683
-0.0010443314
-0.015349774
0.0029150621
-0.0059055562
0.0035671369
0.0048694481
0.001396677
0.0074476347
-0.00099245685
0.003873109
-0.001953617
-0.00069881109
-0.0012166175
-0.002266445
-6.8261547e-06
-0.0019419557
0.0006433419
-0.00098110035
0.00076557887
-3.7308205e-05
0.00054845707
0.00029857547
0.00027774824
0.0002351958
0.00016311066
9.2675416e-05
0.00017734818
-1.9235561e-05
0.00024155915
-7.5004703e-05
0.00030523559
-8.8692131e-05
0.00035229925
-8.1311837e-05
0.00038458443
-6.2403035e-05
0.00040818339
-3.7801082e-05
0.00042574963
-1.4955505e-05
0.00043761018
5.3995927e-06
0.00044966221
1.7489754e-05
0.00045398131
1.3841329e-05
0.00045867964
-0.0077731329
0.0018647289
0.0062752785
0.00011992724
0.019658595
-0.0031300998
0.0099929638
-0.003463418
-0.010057229
-0.0014462007
-0.020078102
0.0036839816
-0.0073545547
0.0043640505
0.0066815268
0.0017550472
0.010192026
-0.0013477284
0.0055535832
-0.0026729266
-0.0009024362
-0.0017499996
-0.0033986605
-8.439443e-05
-0.0028470019
0.00089822058
-0.0013958647
0.0010581123
2.4617441e-05
0.00070365882
0.00054692908
0.00030010901
0.00041908214
9.3866703e-05
0.00016139314
9.4395965e-05
-2.1930905e-05
0.00018004527
-0.00010377492
0.0002703302
-0.00011836593
0.00033491031
-0.00010493653
0.00037592508
-8.0390722e-05
0.00040257298
-5.07877e-05
0.00042116937
-2.2158914e-05
0.00043295106
2.1063355e-06
0.00044089863
2.1727949e-05
0.0004454199
2.5934952e-05
0.00044187899
1.6597506e-05
0.00044207976
-0.0074645525
0.0016869696
0.0083145275
-0.00017451004
0.024030544
-0.0042520152
0.010794079
-0.00393121
-0.011459088
-0.0020615558
-0.025907108
0.0043827906
-0.008740775
0.0050701875
0.0089871146
0.0020584529
0.013766346
-0.0018192895
0.0077468017
-0.0035409401
-0.0011550289
-0.0024203376
-0.0049524585
-0.00019619224
-0.0041761211
0.0012447337
-0.0019800696
0.0014824349
0.00013895903
0.0009437862
0.0009189904
0.00033161013
0.00071898817
2.1830129e-07
0.00027976176
-2.4489682e-05
-1.8371653e-05
9.0847351e-05
-0.00014492004
0.00022119779
-0.00016118292
0.00031315274
-0.00013752315
0.00036750138
-0.00010356117
0.00039909945
-6.7829858e-05
0.00041961832
-3.3191323e-05
0.00043220313
-2.3953067e-06
0.00043745242
2.210407e-05
0.00044051824
3.5822101e-05
0.00043552881
3.1210386e-05
0.00042725627
1.7820699e-05
0.00042425642
-0.0070077313
0.001911856
0.010524473
-0.00052296589
0.028344275
-0.0044882344
0.010627926
-0.0040858576
-0.013437631
-0.0019526645
-0.032197355
0.0042286771
-0.010243767
0.0058857667
0.011717834
0.0023394603
0.018288112
-0.0024633286
0.010476127
-0.0045486074
-0.0014450712
-0.0032508944
-0.0070178968
-0.00035489162
-0.0060714164
0.0016991206
-0.0028056135
0.0020702857
0.00032998954
0.0012914263
0.0014881873
0.00037460309
0.0011751767
-0.00012455801
0.00047006915
-0.00019007283
-5.4038446e-06
-3.7441484e-05
-0.00020682072
0.00015276004
-0.0002264987
0.00028652265
-0.00018608629
0.00036172244
-0.00013574552
0.00039969094
-8.9610424e-05
0.00042088479
-4.7174364e-05
0.0004336057
-8.9311139e-06
0.00043874165
2.1465657e-05
0.00043809191
4.1581775e-05
0.00043475467
4.4283231e-05
0.00042245236
3.3790673e-05
0.00041127535
1.7772728e-05
0.00040648095
-0.0064421889
0.0019603911
0.013062922
-0.00062658454
0.032360008
-0.0045386918
0.0098181719
-0.003678475
-0.017107347
-0.00041613917
-0.039459798
0.0053097657
-0.013331723
0.007316617
0.0146744
0.0029291937
0.02379277
-0.003165208
0.013751614
-0.0057388086
-0.0017729911
-0.0042206766
-0.0097576497
-0.00051113721
-0.0087077388
0.0022814541
-0.0039478115
0.0028413228
0.00062399599
0.001776302
0.0023399986
0.00043962528
0.0018510544
-0.0003012569
0.00077470127
-0.00042917657
5.3932684e-06
-0.0002008559
-0.00030690769
6.2656974e-05
-0.00033132898
0.00025759912
-0.00026237127
0.00036281396
-0.00018224124
0.00040822224
-0.00011735181
0.00042743585
-6.3817983e-05
0.00043753215
-1.7390927e-05
0.00044206989
1.9263428e-05
0.00044094731
4.4248577e-05
0.00043542709
5.4666349e-05
0.00042436778
4.853875e-05
0.00040770105
3.3910832e-05
0.00039512534
1.6769483e-05
0.00038970869
-0.0058074051
0.0019277839
0.01567919
-0.0006558667
0.036448919
-0.0047154892
0.0085344478
-0.0032549634
-0.021411892
0.0006260735
-0.047542122
0.0076661746
-0.016638111
0.0086161399
0.017455063
0.0045359494
0.030539946
-0.003817988
0.017649449
-0.0070630376
-0.0022361448
-0.0052756395
-0.013225504
-0.00075282236
-0.012241303
0.0030224502
-0.005507575
0.0038412182
0.0010519741
0.0024133614
0.0035814719
0.00053483434
0.0028385651
-0.00054787787
0.0012294288
-0.00075597815
4.00175e-05
-0.00046379678
-0.00045169172
-5.6067053e-05
-0.00049587366
0.00022720441
-0.0003784974
0.0003737278
-0.0002490668
0.00042964003
-0.00015275311
0.00044362332
-8.2871523e-05
0.00044648944
-2.7092208e-05
0.00044723495
1.5740379e-05
0.00044559665
4.4707274e-05
0.00044049194
6.0966697e-05
0.00042912913
6.0916705e-05
0.00041198599
4.9430777e-05
0.0003921784
3.2362413e-05
0.00037951958
1.5208002e-05
0.00037449807
-0.0051565021
0.0018534109
0.018280735
-0.00067375251
0.040729058
-0.004935999
0.0075895348
-0.0037705735
-0.025741354
0.0010744971
-0.055083902
0.0081678437
-0.017230943
0.0082589957
0.021055925
0.0050152737
0.039380067
-0.0043041755
0.022242766
-0.0084113011
-0.0028894242
-0.006409743
-0.017544621
-0.0009565247
-0.016939325
0.0039452161
-0.007561577
0.0050764511
0.0016529403
0.0032402571
0.0053292029
0.00066563317
0.0042533607
-0.00087996826
0.0018831477
-0.0012015985
0.00010703469
-0.00082300653
-0.00067860548
-0.00023688876
-0.00071625487
0.00016430557
-0.00054349891
0.00039220124
-0.000344905
0.00046956078
-0.00019806737
0.00047494945
-0.000103331
0.00046407775
-3.6482246e-05
0.00045587553
1.1558398e-05
0.00045141602
4.4064996e-05
0.00044624133
6.3582312e-05
0.00043787885
6.9667177e-05
0.00042038112
6.2673002e-05
0.00039873971
4.7452743e-05
0.00037708587
3.025917e-05
0.00036445477
1.3650567e-05
0.00036084509
-0.0045204758
0.0016806204
0.020757188
-0.00062303299
0.045047972
-0.0049926593
0.006568452
-0.0039149118
-0.029444354
-6.7571887e-05
-0.062313979
0.0083045631
-0.016361071
0.00729796
0.025877863
0.0034370545
0.049596401
-0.005201063
0.027883357
-0.0099447654
-0.0037792524
-0.0075214616
-0.022825803
-0.0011285651
-0.023041072
0.0051452306
-0.010214605
0.0065982443
0.002484496
0.0042448885
0.0077394203
0.00083004233
0.0062275177
-0.0013085446
0.0027984452
-0.0017952733
0.00021429287
-0.0013088827
-0.00099250656
-0.00050912181
-0.0010764455
0.00012328026
-0.00079248317
0.00041327615
-0.00048847945
0.00053576394
-0.00025872265
0.00053020726
-0.00012395442
0.00049556449
-4.2421072e-05
0.00047000778
9.5417621e-06
0.00045788538
4.4069246e-05
0.00045140876
6.6629414e-05
0.0004431949
7.6850211e-05
0.00043069709
7.1150013e-05
0.00041190644
6.0937352e-05
0.00038525064
4.3954937e-05
0.00036338848
2.790564e-05
0.00035018527
1.1990259e-05
0.00034885282
-0.0039494635
0.0014341384
0.023008794
-0.00057097809
0.049296529
-0.0048715851
0.0055011545
-0.0039253563
-0.033340697
-1.8567048e-05
-0.070106959
0.0077254032
-0.014862992
0.0068064748
0.030831636
0.0023441803
0.059736569
-0.0067031202
0.034638639
-0.011956349
-0.0045738584
-0.0091501533
-0.029046777
-0.0013004926
-0.030862714
0.0066930791
-0.013476371
0.0084070013
0.0036097046
0.005473023
0.01096058
0.0010237348
0.0089213135
-0.0018637806
0.0040500561
-0.0025601661
0.00036463831
-0.0019456533
-0.0014330072
-0.00086840623
-0.0016370511
5.1452572e-05
-0.0011555999
0.00048637525
-0.00071468733
0.00063946683
-0.00034510836
0.00062213893
-0.0001433572
0.0005496019
-4.0369228e-05
0.00049350385
1.4483499e-05
0.00046505627
4.6622265e-05
0.00045532476
6.8205905e-05
0.00044982752
8.0260774e-05
0.00043978322
8.0343189e-05
0.00042150389
7.2557885e-05
0.00040028808
5.6735733e-05
0.00037246476
4.0184347e-05
0.00035110867
2.3816614e-05
0.00033834382
1.0438207e-05
0.00033841305
-0.0034537611
0.0011192781
0.024921405
-0.00047846387
0.053293237
-0.0045676831
0.0045160396
-0.0038864651
-0.037324335
5.8283914e-05
-0.078040746
0.0079152139
-0.014891584
0.0077539887
0.036240263
0.0013978434
0.070020832
-0.0079400915
0.041257675
-0.013322165
-0.0052393214
-0.011290885
-0.035884931
-0.0023120058
-0.040415919
0.0082527114
-0.017260784
0.010477503
0.0051952314
0.0068214643
0.015181476
0.0012521386
0.012507589
-0.0025625628
0.0057045584
-0.0035182939
0.00057299096
-0.0027685515
-0.0020329952
-0.0013456933
-0.0024428433
-6.2647137e-05
-0.0017236386
0.00061946449
-0.0010295824
0.00080125094
-0.00047654636
0.00077089421
-0.0001587101
0.00063748778
-2.2478613e-05
0.00053170822
3.3682963e-05
0.00047429878
5.7344777e-05
0.00045432673
7.2580394e-05
0.00045094348
8.2979167e-05
0.00044710322
8.530681e-05
0.00043481722
7.9943689e-05
0.00041411701
6.8332749e-05
0.00038869296
5.1580364e-05
0.00036106282
3.5073319e-05
0.00033985143
2.0828779e-05
0.00032793753
9.2662453e-06
0.00032914583
-0.0030359576
0.00080856337
0.026464155
-0.0004234639
0.056878205
-0.0040634301
0.0035693998
-0.0036210385
-0.041230847
2.004949e-05
-0.085928033
0.0079455614
-0.014903412
0.007927033
0.039332056
0.0046621888
0.080280909
-0.0088622418
0.047363935
-0.014046365
-0.0076181838
-0.010943304
-0.043445889
-0.0037299314
-0.051997292
0.0092693672
-0.02139476
0.012386706
0.0074119657
0.0082607656
0.020572226
0.0014307325
0.017199485
-0.0034397675
0.0078317421
-0.0046897558
0.00084759719
-0.0037929218
-0.0028378808
-0.0019636939
-0.0035647919
-0.00022377086
-0.0025844249
0.00079811185
-0.001480027
0.0010698919
-0.00065606834
0.00098076369
-0.00016945236
0.0007816381
2.3411063e-05
0.00059160426
7.9294466e-05
0.00048610131
8.4676976e-05
0.00044696819
8.3657793e-05
0.00044324759
8.6456846e-05
0.00044746067
8.8065321e-05
0.00044433869
8.4721489e-05
0.00043003663
7.6093352e-05
0.00040635456
6.2474267e-05
0.0003778006
4.6154855e-05
0.00034997432
3.1125771e-05
0.00032955446
1.8508594e-05
0.00031867898
8.5758559e-06
0.0003205696
-0.0027770796
0.00046738669
0.027676475
-0.00040374845
0.059880824
-0.0034260824
0.002658428
-0.0031524537
-0.044895206
4.3328025e-05
-0.093680659
0.0077726682
-0.014709034
0.0077511728
0.042437087
0.004821989
0.090587774
-0.0056446884
0.052670716
-0.014169034
-0.011503649
-0.010160898
-0.049886987
-0.0045022027
-0.066160421
0.010433199
-0.026418355
0.014292988
0.010044824
0.0097538508
0.027317478
0.0015155359
0.023161575
-0.0045313526
0.010486588
-0.0060946207
0.0011972423
-0.0050394091
-0.0038759822
-0.0027548445
-0.0050956415
-0.0004328583
-0.0038370286
0.0010288101
-0.0021461341
0.0014642085
-0.00088970147
0.0013035181
-0.00017533331
0.00098665093
0.00011608467
0.00068897812
0.00016670471
0.00050421007
0.00014088344
0.00042990867
0.00010895753
0.00042167984
9.3513082e-05
0.00043619475
8.880699e-05
0.0004467166
8.6022279e-05
0.00044303301
8.0587513e-05
0.00042554017
7.0401132e-05
0.00039842526
5.6286915e-05
0.00036766958
4.1318518e-05
0.00033977353
2.7900846e-05
0.00032016289
1.717005e-05
0.00031006809
8.4270375e-06
0.00031214287
0.00013820273
-0.0027416095
0.028371354
-0.00022748329
0.062242039
-0.0027649638
0.0016641949
-0.0024318448
-0.048048353
7.0220409e-07
-0.10097748
0.0073401402
-0.014416487
0.007480111
0.045342099
0.0048461476
0.10110985
-0.0057000985
0.060723577
-0.013697564
-0.01651995
-0.0091527323
-0.057348703
-0.0026991679
-0.082575166
0.011912548
-0.033359873
0.017374746
0.012238454
0.012099366
0.035521632
0.001549715
0.030538307
-0.0058611833
0.013677899
-0.0077226701
0.0016156242
-0.0065130029
-0.0051827548
-0.0037326538
-0.0071292677
-0.00072122215
-0.0055994629
0.0013295638
-0.0031250143
0.0020076889
-0.0012130906
0.0017875953
-0.00014748049
0.0012756742
0.00026531163
0.00083743997
0.00032474635
0.00053095833
0.00024411739
0.00040099828
0.00015874337
0.00038014747
0.00010911185
0.00040609933
8.9059232e-05
0.00043595065
8.3125776e-05
0.00044961421
8.047376e-05
0.000443144
7.4580955e-05
0.00042135932
6.4295479e-05
0.00039041366
5.1479585e-05
0.00035750908
3.7529063e-05
0.00033013623
2.6005328e-05
0.00031132893
1.6794181e-05
0.00030168387
8.6922803e-06
0.00030345151
-3.3129586e-05
0.028542694
-0.00012424348
-0.0028703893
0.063757249
-0.001742693
0.00060279728
-0.0017035617
-0.050522821
4.2634535e-05
-0.10763792
0.0066611469
-0.013911235
0.0068348777
0.048011026
0.0048111683
0.11166295
-0.0057069717
0.068787691
-0.013764221
-0.01708924
-0.013128274
-0.067781152
0.0012797378
-0.099877272
0.014602947
-0.043488866
0.022041568
0.014358171
0.015255045
0.045287042
0.002333963
0.039587776
-0.0074997371
0.017397334
-0.0095806294
0.0020818043
-0.0081888512
-0.0067697738
-0.0049259945
-0.0097779056
-0.0010840175
-0.0080231899
0.0017025067
-0.0045264826
0.0027310391
-0.0016705141
0.0024651185
-6.5838435e-05
0.0017059641
0.00050783519
0.0010331652
0.00057899044
0.00058321506
0.00041925191
0.00035584366
0.00025084021
0.00030893009
0.00014189726
0.00034739105
9.1239379e-05
0.00040394088
7.5602847e-05
0.00044348591
7.4279068e-05
0.00045581359
7.353667e-05
0.00044418859
6.8385796e-05
0.00041726943
5.8683208e-05
0.00038320636
4.6336346e-05
0.00034870207
3.5171651e-05
0.00032095993
2.5420676e-05
0.0003027044
1.7118956e-05
0.00029323971
9.2957732e-06
0.00029415733
-0.00064958451
0.064373706
0.00012718188
0.028291276
-0.00042576239
-0.0032176057
-0.00010841024
-0.0010314807
-0.052387818
0.00016144755
-0.11327664
0.0056813471
-0.01320842
0.005958318
0.050272887
0.0045729981
0.12198031
-0.0055062076
0.076815023
-0.013734304
-0.017312683
-0.01354078
-0.074428714
-0.006480701
-0.11456902
0.015971492
-0.051754913
0.022869011
0.01913517
0.017264594
0.057133581
0.0034085018
0.051104367
-0.0091826081
0.021510225
-0.011612643
0.0025727578
-0.010071589
-0.0086555511
-0.0063030799
-0.013119169
-0.0015847376
-0.011277941
0.0021707471
-0.0064998982
0.0036759351
-0.002309843
0.0033703843
8.6649294e-05
0.0023126451
0.00091330234
0.0013005106
0.00096041265
0.00065175483
0.00071071689
0.00029175799
0.00040563338
0.00020106839
0.000201528
0.00024932603
9.8183239e-05
0.0003404734
6.2693912e-05
0.00041687269
5.9880048e-05
0.00045789929
6.5154193e-05
0.00046420437
6.7086738e-05
0.00044549118
6.3126827e-05
0.00041282742
5.4441303e-05
0.00037509729
4.4200995e-05
0.00033967307
3.4426189e-05
0.00031194358
2.5898815e-05
0.00029392704
1.8270039e-05
0.00028424763
1.0186992e-05
0.00028397251
-0.00030849063
-0.00044949878
0.00054112867
0.063959763
0.00034543986
0.027520081
-0.0007771327
-0.0037016262
-0.05342059
1.3029089e-06
-0.1175385
0.0044232998
-0.012330504
0.004803416
0.052204762
0.0040264231
0.13164156
-0.0050882719
0.084695886
-0.013387073
-0.017582796
-0.013464196
-0.080887144
-0.0070823378
-0.12914995
0.0081002297
-0.055266915
0.0194835
0.025997782
0.016006424
0.070655458
0.0037427142
0.065439579
-0.010926691
0.026257795
-0.013930189
0.0030069532
-0.012046849
-0.010805251
-0.0079218935
-0.017245084
-0.0021771765
-0.015589261
0.0027265989
-0.0092084152
0.0048792812
-0.003201698
0.0045678109
0.00033669059
0.0031203631
0.0015481183
0.0016778441
0.0015409573
0.00071997279
0.0011569725
0.00020549376
0.00066043731
3.6951684e-05
0.00030568131
9.6924146e-05
0.00011444767
0.00023307687
4.3339141e-05
0.00035984884
3.4235293e-05
0.00044253745
4.6006471e-05
0.00047706166
5.777525e-05
0.00047352784
6.2307267e-05
0.00044631662
5.9631064e-05
0.00040764012
5.2529208e-05
0.00036676505
4.377569e-05
0.00033032425
3.5173038e-05
0.0003026577
2.7497047e-05
0.00028470299
1.991718e-05
0.00027449931
1.1170169e-05
0.00027280511
5.263193e-05
-0.053781702
0.00048369043
-0.00039205403
0.0016100069
0.062695201
0.00046109441
0.026281858
-0.0011099704
-0.0042450048
-0.12028548
0.0027482792
-0.0113481
0.003440878
0.053619031
0.0033891278
0.1402384
-0.0045704335
0.092113433
-0.012505826
-0.017737111
-0.013232764
-0.087981211
-0.0063701193
-0.14416844
0.0079361731
-0.06580611
0.018639455
0.031479405
0.014001915
0.082731791
0.0039300981
0.081434592
-0.012252287
0.031636399
-0.016305295
0.0032757856
-0.014199034
-0.013197866
-0.0096542358
-0.022196484
-0.0029705031
-0.021160564
0.0033941335
-0.012902684
0.0064208907
-0.0044108034
0.0060884005
0.00072893554
0.0041755919
0.0024879482
0.0021805474
0.0024173056
0.00080150324
0.0017989445
7.7988534e-05
0.0010606927
-0.00019478126
0.00046945266
-0.00012683429
0.00014719223
6.4171586e-05
1.6921925e-05
0.00025949694
-7.0809026e-06
0.00040117652
1.1211933e-05
0.00047734549
3.6234736e-05
0.00049861696
5.3401494e-05
0.00048244786
6.0003442e-05
0.00044595091
5.8551568e-05
0.00040162132
5.2617764e-05
0.0003579196
4.5049878e-05
0.00032044855
3.7206553e-05
0.00029293565
2.9827368e-05
0.00027479607
2.1776219e-05
0.0002638749
1.2224478e-05
0.00026058391
0.00088039046
-0.12111324
-9.0933721e-05
-0.05320707
0.0009007495
0.00031721149
0.0026715734
0.060484728
0.00046113302
0.024710758
-0.001427229
-0.0048651468
-0.010931501
0.0023316617
0.054350055
0.0027098373
0.14754502
-0.0039175209
0.098607256
-0.01106427
-0.017769521
-0.012473417
-0.094671283
-0.0065426797
-0.15849459
0.0079560595
-0.077358926
0.019489009
0.028410931
0.021707959
0.092399776
0.0043339319
0.098199164
-0.012834466
0.037960007
-0.01857589
0.0032661497
-0.016295679
-0.015830628
-0.011566274
-0.028046395
-0.0038043295
-0.028260102
0.0041290306
-0.017815877
0.0083073553
-0.0060159095
0.0080259956
0.0013246346
0.0054927285
0.003845154
0.0028183923
0.0036907734
0.00090708789
0.0027170157
-0.00011658005
0.0016435926
-0.00050493661
0.00071883727
-0.00044419696
0.00020464819
-0.00018432046
-1.8954945e-05
0.00010002595
-7.0383769e-05
0.00032279052
-4.6217664e-05
0.00045860484
-3.5624779e-06
0.00051714997
3.195349e-05
0.00052007953
5.275135e-05
0.00048971364
6.0659603e-05
0.00044384948
6.0059608e-05
0.00039418475
5.4921067e-05
0.00034804601
4.7699908e-05
0.00030995666
4.018583e-05
0.00028256378
3.254642e-05
0.00026402941
2.3900205e-05
0.00025218065
1.3242393e-05
0.0002473453
0.00093639177
-0.010987522
-0.001217788
-0.1199864
0.00017691391
-0.052483227
0.0017192898
0.0012695048
0.0034712616
0.057474607
0.00052176719
0.022761762
-0.0016750522
-0.0055323348
0.054979412
0.0017022881
0.15306558
-0.00281075
0.10407951
-0.0093897945
-0.017637568
-0.011196219
-0.10095187
-0.0061928077
-0.17299837
0.0079611314
-0.087983986
0.018581125
0.025932511
0.021967469
0.095450034
0.018657681
0.11603562
-0.013502527
0.045318897
-0.02019337
0.0030692149
-0.018378987
-0.018853302
-0.013273016
-0.034866405
-0.0047462668
-0.037087674
0.0050232274
-0.024330098
0.010643281
-0.0080573659
0.010348801
0.0022415247