/*--------------------------------*- C++ -*----------------------------------*\
| =========                 |                                                 |
| \\      /  F ield         | OpenFOAM: The Open Source CFD Toolbox           |
|  \\    /   O peration     | Version:  5.0                                   |
|   \\  /    A nd           | Web:      www.OpenFOAM.org                      |
|    \\/     M anipulation  |                                                 |
\*---------------------------------------------------------------------------*/
FoamFile
{
    version     2.0;
    format      ascii;
    class       volVectorField;
    location    "200";
    object      ddtCorrDdt0(U);
}
// * * * * * * * * * * * * * * * * * * * * * * * * * * * * * * * * * * * * * //

dimensions      [0 1 -2 0 0 0 0];

internalField   nonuniform List<vector> 
9520
(
(-0.00024738128 -1.1470597e-06 0)
(-0.00024558787 -2.8017577e-06 0)
(-0.00024450128 -1.1531503e-06 0)
(-0.00024188667 -3.754032e-06 0)
(-0.00024349637 -3.7278433e-06 0)
(-0.00024240372 2.5878115e-06 0)
(-0.00023606492 -4.1778002e-06 0)
(-0.00024067323 -5.9103701e-06 0)
(-0.00024099107 6.4167825e-06 0)
(-0.00025252512 7.6455576e-06 0)
(-0.00022818785 -3.688364e-06 0)
(-0.00023627153 -7.6567937e-06 0)
(-0.00023808894 9.3816978e-06 0)
(-0.00024993161 2.1579758e-05 0)
(-0.00026541556 9.1014945e-06 0)
(-0.00021866567 -2.7450951e-06 0)
(-0.00023006187 -7.5446395e-06 0)
(-0.00023464194 1.1885859e-05 0)
(-0.0002461134 3.3960036e-05 0)
(-0.000262588 2.7305555e-05 0)
(-0.00027991161 6.5462044e-06 0)
(-0.00020721239 -1.3888709e-06 0)
(-0.00022192632 -5.8915669e-06 0)
(-0.00023037024 1.4797567e-05 0)
(-0.00024186352 4.5342744e-05 0)
(-0.00025875349 4.4751164e-05 0)
(-0.00027830186 2.1123378e-05 0)
(-0.00028800379 1.9683442e-06 0)
(-0.00019301208 8.7200435e-07 0)
(-0.00021227223 -2.912215e-06 0)
(-0.0002242628 1.8754255e-05 0)
(-0.00023748439 5.5084745e-05 0)
(-0.00025404011 6.1782696e-05 0)
(-0.00027581911 3.6414547e-05 0)
(-0.00028779779 7.6009857e-06 0)
(-0.00028697984 -8.2214725e-07 0)
(-0.00017451319 5.1813608e-06 0)
(-0.00020176506 1.5551907e-06 0)
(-0.00021684415 2.4008059e-05 0)
(-0.00023230999 6.4551364e-05 0)
(-0.00024912341 7.6682497e-05 0)
(-0.00027171262 5.2563324e-05 0)
(-0.00028676521 1.458933e-05 0)
(-0.00028802256 -2.0385229e-06 0)
(-0.00028541658 4.019608e-07 0)
(-0.00014894657 1.4009431e-05 0)
(-0.00019248523 8.4017546e-06 0)
(-0.00020961301 3.0554376e-05 0)
(-0.00022634625 7.4540471e-05 0)
(-0.00024442303 9.0532107e-05 0)
(-0.00026672148 6.8238553e-05 0)
(-0.00028383456 2.2927807e-05 0)
(-0.00028826196 -2.5144326e-06 0)
(-0.00028622414 -7.6021918e-08 0)
(-0.00028745134 4.9115111e-06 0)
(-0.00011235256 3.4859544e-05 0)
(-0.00018848885 2.1133162e-05 0)
(-0.00020621844 3.8222569e-05 0)
(-0.00021980324 8.5326235e-05 0)
(-0.00023961048 0.00010410964 0)
(-0.00026247256 8.3351252e-05 0)
(-0.0002798562 3.3547465e-05 0)
(-0.00028787974 -2.8422222e-06 0)
(-0.00028608711 -8.589077e-07 0)
(-0.00028733789 1.2332489e-05 0)
(-0.00029661481 1.0066175e-05 0)
(-7.3181955e-05 7.3578105e-05 0)
(-0.00019971129 4.568793e-05 0)
(-0.00021375174 4.6068388e-05 0)
(-0.00021252694 9.5967253e-05 0)
(-0.0002335946 0.00011780979 0)
(-0.00025879204 9.8399822e-05 0)
(-0.00027699976 4.4703039e-05 0)
(-0.00028544825 3.3576933e-08 0)
(-0.00028655775 -2.3735345e-06 0)
(-0.00028664485 1.8327987e-05 0)
(-0.00029535403 2.7959465e-05 0)
(-0.00031122188 1.3026624e-05 0)
(-6.1562369e-05 0.00013698367 0)
(-0.00025158217 8.7714993e-05 0)
(-0.0002466045 4.9911782e-05 0)
(-0.0002052218 0.00010167031 0)
(-0.00022283554 0.00013101418 0)
(-0.00025488836 0.00011402089 0)
(-0.00027562397 5.5945582e-05 0)
(-0.00028305557 4.1061589e-06 0)
(-0.00028752487 -3.3866237e-06 0)
(-0.00028598114 2.4048274e-05 0)
(-0.00029452996 4.3793338e-05 0)
(-0.00030951912 3.8237494e-05 0)
(-0.00032762894 1.2336568e-05 0)
(-4.8234578e-05 0.00022765845 0)
(-0.00034794981 0.00015616356 0)
(-0.00029162811 3.9660602e-05 0)
(-0.00019197899 9.1818501e-05 0)
(-0.00020157668 0.0001413176 0)
(-0.00024880599 0.00013189952 0)
(-0.00027645151 6.7577148e-05 0)
(-0.00028112357 7.5005752e-06 0)
(-0.00028513637 -3.5212902e-06 0)
(-0.00028528322 2.8337174e-05 0)
(-0.00029395254 5.913737e-05 0)
(-0.00030865505 6.1962238e-05 0)
(-0.00032648546 3.7981852e-05 0)
(-0.0003408117 8.3400981e-06 0)
(-5.5736427e-05 0.00033718293 0)
(-0.00041033767 0.00018834133 0)
(-0.00026632021 -2.25623e-05 0)
(-0.00013621914 5.7785468e-05 0)
(-0.00015127124 0.00014663813 0)
(-0.00023328971 0.00015576195 0)
(-0.000280744 8.1530513e-05 0)
(-0.00028157846 9.0300404e-06 0)
(-0.00028095675 -4.3525737e-06 0)
(-0.00028294769 3.1983686e-05 0)
(-0.00029302491 7.3088364e-05 0)
(-0.00030816197 8.4104042e-05 0)
(-0.00032569463 6.3744395e-05 0)
(-0.00034126639 2.7313374e-05 0)
(-0.00034788049 2.741872e-06 0)
(-7.8020366e-05 0.00047597477 0)
(-0.0005121878 0.00021632694 0)
(-0.00022777019 -0.00011848526 0)
(-3.2758743e-05 -1.8175266e-05 0)
(-6.8354486e-05 0.00014678606 0)
(-0.00020578805 0.00019579845 0)
(-0.00029372822 0.00010480207 0)
(-0.0002890059 8.2886348e-06 0)
(-0.00027623851 -7.9994313e-06 0)
(-0.00027811043 3.5514197e-05 0)
(-0.00029080965 8.6133979e-05 0)
(-0.00030727168 0.00010525012 0)
(-0.00032522387 8.809772e-05 0)
(-0.00034163821 4.7995232e-05 0)
(-0.00035013346 1.0850068e-05 0)
(-0.00034839374 -2.1891979e-06 0)
(-0.00012007439 0.00062401651 0)
(-0.00063209416 0.00016884062 0)
(-0.00018430676 -0.00024284425 0)
(3.9888966e-05 -9.8724327e-05 0)
(1.3992564e-05 0.00015941357 0)
(-0.00017692128 0.00026325444 0)
(-0.00032614925 0.00014646264 0)
(-0.00031432589 3.8950934e-06 0)
(-0.00027284783 -1.8170786e-05 0)
(-0.00026938407 3.809995e-05 0)
(-0.00028601828 9.9731634e-05 0)
(-0.00030589789 0.00012593008 0)
(-0.00032524167 0.00011091122 0)
(-0.00034175659 7.027366e-05 0)
(-0.00035317652 2.1094287e-05 0)
(-0.00035193734 -4.5702406e-06 0)
(-0.00034451033 -4.5493917e-06 0)
(-0.00015643585 0.00084453258 0)
(-0.00089735891 0.00020624062 0)
(-0.00020011886 -0.00042161883 0)
(0.00023277587 -0.0001921683 0)
(9.4363312e-05 0.00020492678 0)
(-0.00016213516 0.00039602838 0)
(-0.00039874489 0.00021932151 0)
(-0.00036513248 -8.3182804e-06 0)
(-0.00026785622 -4.1671002e-05 0)
(-0.00025472521 3.7428498e-05 0)
(-0.00027734096 0.00011490473 0)
(-0.00030383172 0.00014760148 0)
(-0.00032583434 0.00013425587 0)
(-0.00034277029 9.0722846e-05 0)
(-0.000354306 3.6736862e-05 0)
(-0.00035763005 -5.1252268e-06 0)
(-0.00034872486 -1.2836686e-05 0)
(-0.00033973635 -3.6699744e-06 0)
(-0.00028521165 0.001134103 0)
(-0.0012663783 1.5183069e-05 0)
(-0.00019976748 -0.00060851597 0)
(0.00046178315 -0.0003235059 0)
(0.00018485832 0.00029549778 0)
(-0.00015559561 0.00056815838 0)
(-0.00052067866 0.00033673789 0)
(-0.0004569548 -2.9056624e-05 0)
(-0.00027007782 -8.9576842e-05 0)
(-0.00023176711 2.9042277e-05 0)
(-0.00026159654 0.00013245156 0)
(-0.00029980842 0.00017215165 0)
(-0.00032748659 0.00015888606 0)
(-0.00034545051 0.00011243102 0)
(-0.00035650098 5.3562936e-05 0)
(-0.00036291933 -1.6386163e-06 0)
(-0.00035513474 -1.9287319e-05 0)
(-0.00034429306 -1.160468e-05 0)
(-0.00033712967 -3.724777e-07 0)
(-0.00042640017 0.0013986857 0)
(-0.0018683121 0.00025589342 0)
(-0.00020769062 -0.0010630775 0)
(0.00084669894 -0.0006034014 0)
(0.00045161506 0.0004635432 0)
(-0.00019125651 0.00078733464 0)
(-0.00069519492 0.00049829308 0)
(-0.00059981237 -7.4561629e-05 0)
(-0.00027952273 -0.00017315825 0)
(-0.00019533618 7.6390708e-06 0)
(-0.00023396549 0.00015276329 0)
(-0.00029132797 0.00020184034 0)
(-0.0003301897 0.00018672838 0)
(-0.00035038819 0.00013519686 0)
(-0.00036093067 7.1076772e-05 0)
(-0.0003651987 9.812722e-06 0)
(-0.00036369214 -2.6713991e-05 0)
(-0.00034997373 -1.7416576e-05 0)
(-0.00034179311 -3.0729051e-06 0)
(-0.00033809589 3.6097863e-06 0)
(-0.00058267999 0.0020037683 0)
(-0.0023416118 -0.00037569872 0)
(-0.0001567725 -0.0014906141 0)
(0.0013529159 -0.00082969395 0)
(0.00087639034 0.00071913983 0)
(-0.00025876952 0.0011076013 0)
(-0.00096727407 0.00071576851 0)
(-0.00079970857 -0.00014716337 0)
(-0.00031368959 -0.00032673132 0)
(-0.00013766401 -4.2392e-05 0)
(-0.00018482003 0.0001760021 0)
(-0.00027362587 0.00024069423 0)
(-0.00033420317 0.0002207777 0)
(-0.00035883134 0.00015981887 0)
(-0.00036735476 8.8490123e-05 0)
(-0.00037014053 2.1053815e-05 0)
(-0.000371883 -2.7762485e-05 0)
(-0.00035855511 -2.6027859e-05 0)
(-0.00034718758 -4.2687591e-06 0)
(-0.00034241513 8.128763e-06 0)
(-0.00034237817 6.629473e-06 0)
(-0.00072264177 0.0021915567 0)
(-0.0034415223 0.00016345792 0)
(-0.00020698363 -0.0024332929 0)
(0.0021464235 -0.0014288463 0)
(0.0014995047 0.0010837893 0)
(-0.00038455766 0.0016161279 0)
(-0.0013968284 0.00098063865 0)
(-0.0010728972 -0.00028278559 0)
(-0.00029845396 -0.00054303152 0)
(-4.8274082e-05 -0.0001439618 0)
(-9.7683693e-05 0.00019519331 0)
(-0.00023637549 0.00029329752 0)
(-0.00033893036 0.00026745948 0)
(-0.00037384892 0.00018806039 0)
(-0.00037755275 0.00010458124 0)
(-0.00037568908 3.1000113e-05 0)
(-0.00037620411 -2.5134732e-05 0)
(-0.00036800892 -3.181147e-05 0)
(-0.00035525465 -5.0110351e-06 0)
(-0.00034888688 1.2273894e-05 0)
(-0.00034585696 1.7600158e-05 0)
(-0.0003486769 7.8037838e-06 0)
(-0.0011149267 0.0032308549 0)
(-0.0038347321 -0.00099161189 0)
(-0.00010125611 -0.0030217992 0)
(0.0030021403 -0.0017329763 0)
(0.0023317412 0.0015391139 0)
(-0.00053758818 0.0023538404 0)
(-0.0020612513 0.0013522669 0)
(-0.0015140793 -0.00048583486 0)
(-0.00031350949 -0.00092465072 0)
(0.00018015503 -0.00030109922 0)
(9.197241e-05 0.00021794146 0)
(-0.00016082155 0.00036613485 0)
(-0.00034180567 0.00033695394 0)
(-0.00040048276 0.00022434586 0)
(-0.00039565323 0.00011822202 0)
(-0.00038251208 3.6667859e-05 0)
(-0.00037859345 -2.2924645e-05 0)
(-0.0003744207 -3.5612239e-05 0)
(-0.00036533726 -6.5426822e-06 0)
(-0.00035720061 2.1984068e-05 0)
(-0.00035421174 2.6494363e-05 0)
(-0.00035146327 2.2665785e-05 0)
(-0.00035525312 6.9599753e-06 0)
(-0.0020916661 0.0033587263 0)
(-0.005817925 6.6448418e-05 0)
(-0.00040666576 -0.004696587 0)
(0.0045127792 -0.003110059 0)
(0.0034998507 0.0022840977 0)
(-0.00078130384 0.0034506969 0)
(-0.0030057488 0.0018000183 0)
(-0.0021550228 -0.00082495628 0)
(-0.00031667619 -0.0014482278 0)
(0.00055611311 -0.00057658064 0)
(0.00030322717 0.00017813027 0)
(-2.4129835e-05 0.00048259824 0)
(-0.00034014143 0.00045142162 0)
(-0.00044855874 0.00027721395 0)
(-0.00042923039 0.00012797865 0)
(-0.00039279384 3.4226669e-05 0)
(-0.00037855192 -2.5177502e-05 0)
(-0.00037685496 -3.840747e-05 0)
(-0.00037232536 -4.8273377e-06 0)
(-0.00036789765 2.8977645e-05 0)
(-0.00036420284 4.2619584e-05 0)
(-0.0003612716 3.6188452e-05 0)
(-0.00035848162 2.232525e-05 0)
(-0.00036055021 4.2601703e-06 0)
(-0.0020316648 0.0046593294 0)
(-0.0062498813 -0.0020516443 0)
(0.00026700824 -0.0055966349 0)
(0.0057454373 -0.0031432266 0)
(0.0049642345 0.0029405679 0)
(-0.0010365845 0.0049754086 0)
(-0.0043542472 0.0024839026 0)
(-0.0030834774 -0.0013014415 0)
(-0.00031856804 -0.0022516158 0)
(0.0010717074 -0.00098510213 0)
(0.00070148401 0.00027159398 0)
(0.00013725265 0.00065109508 0)
(-0.00034218797 0.00063886636 0)
(-0.00053466282 0.00036456738 0)
(-0.0004929454 0.00013267403 0)
(-0.00041100447 1.6441881e-05 0)
(-0.00037524797 -3.7182042e-05 0)
(-0.00037301294 -4.2199611e-05 0)
(-0.00037489682 -1.7688632e-07 0)
(-0.00037767952 3.9481331e-05 0)
(-0.00037562283 5.8932898e-05 0)
(-0.00037421878 5.2758918e-05 0)
(-0.000368644 3.9758298e-05 0)
(-0.00036549172 1.6365139e-05 0)
(-0.00036338495 5.7708187e-08 0)
(-0.0026149056 0.004853908 0)
(-0.0086479455 -0.00087933707 0)
(0.00079177135 -0.0082145619 0)
(0.008360848 -0.0055391033 0)
(0.0067282799 0.0043086695 0)
(-0.0015631239 0.0069906856 0)
(-0.0061352041 0.0031254932 0)
(-0.0043122233 -0.0020479872 0)
(-0.00031305439 -0.0033788247 0)
(0.0018055822 -0.0015876995 0)
(0.0013896484 0.0003811295 0)
(0.00027824154 0.00093685979 0)
(-0.0003724819 0.00097128606 0)
(-0.00069296243 0.00050907332 0)
(-0.00060929901 0.00013147873 0)
(-0.0004454159 -2.6763839e-05 0)
(-0.00036808121 -6.8421031e-05 0)
(-0.00035890072 -5.0087293e-05 0)
(-0.00037043658 7.1757625e-06 0)
(-0.00038368978 5.470662e-05 0)
(-0.00038855179 7.7428232e-05 0)
(-0.00038747113 7.5478678e-05 0)
(-0.00038416782 5.4344948e-05 0)
(-0.00037569562 3.3498413e-05 0)
(-0.0003704011 4.795557e-06 0)
(-0.00036257023 -5.1439942e-06 0)
(-0.0058058777 0.0062259507 0)
(-0.0095438707 -0.0029663017 0)
(0.00036308844 -0.0094882506 0)
(0.01035392 -0.0047837691 0)
(0.0080840259 0.0049163299 0)
(-0.0017563061 0.0097698339 0)
(-0.0086415813 0.004382518 0)
(-0.0060471399 -0.0030199924 0)
(-0.00029107886 -0.0049141647 0)
(0.0028209533 -0.0024409171 0)
(0.002397594 0.00052714591 0)
(0.00053619086 0.0014256871 0)
(-0.00047293777 0.00141422 0)
(-0.00094870212 0.00075348613 0)
(-0.00082190904 0.00011931741 0)
(-0.00051354388 -0.00011844628 0)
(-0.00035525678 -0.00013251952 0)
(-0.00032839746 -6.7977627e-05 0)
(-0.00035388002 1.6438872e-05 0)
(-0.00038354761 7.6026073e-05 0)
(-0.00039957064 0.0001009198 0)
(-0.00040306517 9.9479716e-05 0)
(-0.00040062051 7.6501762e-05 0)
(-0.00039193208 4.6781682e-05 0)
(-0.00038188787 1.4147674e-05 0)
(-0.00037118769 -1.1543256e-05 0)
(-0.0003574357 -1.0730219e-05 0)
(-0.0084883972 0.0062735271 0)
(-0.012361956 -0.0019175204 0)
(0.0003566849 -0.013801788 0)
(0.013671063 -0.0084194007 0)
(0.010569585 0.0073880943 0)
(-0.0023572666 0.013180917 0)
(-0.011683738 0.0050756661 0)
(-0.0081512365 -0.0043513374 0)
(-0.00027415636 -0.0069463057 0)
(0.0041805521 -0.0036797645 0)
(0.00383948 0.00071675613 0)
(0.0010057483 0.0022230478 0)
(-0.00065936205 0.0020320431 0)
(-0.0013415897 0.0010891284 0)
(-0.0011388584 8.6192991e-05 0)
(-0.00063285282 -0.00028432736 0)
(-0.00033263126 -0.00024890846 0)
(-0.00027248967 -0.00010637431 0)
(-0.00031661808 2.6395744e-05 0)
(-0.00037254297 0.00010494336 0)
(-0.00040681741 0.00013224433 0)
(-0.00041917444 0.00012796518 0)
(-0.00041866208 0.00010135383 0)
(-0.00041181007 6.2297101e-05 0)
(-0.00039814719 2.4998099e-05 0)
(-0.00038464044 -1.4925183e-05 0)
(-0.00036688408 -2.9694318e-05 0)
(-0.00034849374 -1.5844887e-05 0)
(-0.0092965659 0.0070477697 0)
(-0.010249279 -0.0055322977 0)
(0.0041563222 -0.014551283 0)
(0.015923818 -0.0072701428 0)
(0.013877175 0.0083270956 0)
(-0.0042107066 0.017881382 0)
(-0.01595698 0.0073212002 0)
(-0.011188938 -0.0060622216 0)
(-0.00018682623 -0.0097180571 0)
(0.006032441 -0.0052930502 0)
(0.0058287907 0.00093793297 0)
(0.001754757 0.0033894705 0)
(-0.00095097772 0.0029821873 0)
(-0.0019860264 0.0015508684 0)
(-0.0016040045 2.8870337e-05 0)
(-0.00082442922 -0.00056833266 0)
(-0.0002958297 -0.00045267481 0)
(-0.0001772458 -0.00018211333 0)
(-0.00024499156 3.3834639e-05 0)
(-0.00034271705 0.00014464023 0)
(-0.00040688903 0.0001747927 0)
(-0.00043460094 0.00016438701 0)
(-0.0004395011 0.00013143488 0)
(-0.00043346787 8.3784175e-05 0)
(-0.00042016978 3.4804387e-05 0)
(-0.00040163034 -8.1961246e-06 0)
(-0.00038371472 -4.5917364e-05 0)
(-0.00035846551 -4.5512795e-05 0)
(-0.00033683461 -1.9664511e-05 0)
(-0.010389575 0.0060891566 0)
(-0.0091520128 -0.0057798927 0)
(0.0087906509 -0.020152024 0)
(0.022281929 -0.011686821 0)
(0.01494543 0.011248324 0)
(-0.0051939436 0.021850318 0)
(-0.020279106 0.0075419903 0)
(-0.014279913 -0.0082433967 0)
(0.0001141761 -0.013007173 0)
(0.0085034799 -0.0075102252 0)
(0.0085561506 0.0012081318 0)
(0.0028449102 0.0050319665 0)
(-0.0013662871 0.0043635941 0)
(-0.0029890917 0.002204243 0)
(-0.0023771121 -7.8806497e-05 0)
(-0.0010887841 -0.00099510714 0)
(-0.00024642774 -0.00079663857 0)
(-1.7399569e-05 -0.00031984177 0)
(-0.0001158212 3.4056465e-05 0)
(-0.00028012463 0.00020056207 0)
(-0.00039478015 0.00023529479 0)
(-0.00044811761 0.00021327426 0)
(-0.00046296549 0.00016866699 0)
(-0.00045949845 0.0001125934 0)
(-0.00044659831 5.3768634e-05 0)
(-0.00042563875 -9.6624825e-07 0)
(-0.00040344918 -4.8320877e-05 0)
(-0.00037710222 -7.0575054e-05 0)
(-0.00034756092 -5.6653765e-05 0)
(-0.00032368852 -2.1820345e-05 0)
(-0.011133714 0.0063004809 1.5957073e-23)
(-0.0080922223 -0.0085142571 0)
(0.011139288 -0.023612721 0)
(0.0287002 -0.0094368637 0)
(0.015576447 0.010480018 0)
(-0.0018131782 0.029275404 0)
(-0.025019845 0.010915869 0)
(-0.017626574 -0.011187926 0)
(0.00063322233 -0.017667376 0)
(0.011655606 -0.010420833 0)
(0.012174832 0.0015110298 0)
(0.0043953689 0.0073645675 0)
(-0.0019311691 0.0064292894 0)
(-0.0044656884 0.0031131859 0)
(-0.0035543538 -0.00028423293 0)
(-0.0014880244 -0.0016397299 0)
(-0.00017140216 -0.0013465898 0)
(0.00024607633 -0.00054712556 0)
(0.00010596644 2.2359471e-05 0)
(-0.00016542417 0.00028221626 0)
(-0.00036451919 0.00032374314 0)
(-0.00046073429 0.00028181631 0)
(-0.00049083728 0.00021800947 0)
(-0.00049035197 0.00014990133 0)
(-0.00047777783 7.9117168e-05 0)
(-0.00045618009 1.0439982e-05 0)
(-0.00042853038 -4.7938247e-05 0)
(-0.00040122622 -8.9927955e-05 0)
(-0.00036692117 -8.8133838e-05 0)
(-0.00033504082 -6.3119086e-05 0)
(-0.00031015416 -2.238792e-05 0)
(-0.011880275 0.0056466124 -1.6851453e-23)
(-0.0077772797 -0.010082364 -1.6681072e-23)
(0.014519515 -0.024045504 0)
(0.030969578 -0.0098139115 0)
(0.014626761 0.016321922 0)
(-0.0025347338 0.036462095 0)
(-0.028138849 0.01090986 0)
(-0.022693605 -0.013770231 0)
(0.0012406649 -0.023290356 0)
(0.016024098 -0.014000696 0)
(0.016815608 0.0018922251 0)
(0.0064153146 0.01031136 0)
(-0.0026920075 0.0092520564 0)
(-0.0065707691 0.0044294458 0)
(-0.0053058909 -0.00059919626 0)
(-0.0021018954 -0.0026298993 0)
(-2.6676486e-05 -0.0021612839 0)
(0.00064674292 -0.00091423783 0)
(0.00045117504 -4.975916e-06 0)
(2.1756175e-05 0.00040879988 0)
(-0.00031414416 0.00046118192 0)
(-0.00047513783 0.00038684087 0)
(-0.00052811027 0.00028844848 0)
(-0.00052990704 0.00019704016 0)
(-0.00051459236 0.00011012562 0)
(-0.0004906912 2.6104983e-05 0)
(-0.00046006819 -4.5411074e-05 0)
(-0.0004278051 -9.7633421e-05 0)
(-0.00039304742 -0.00011761595 0)
(-0.00035482936 -9.9453374e-05 0)
(-0.00032200427 -6.540418e-05 0)
(-0.00029722573 -2.1669471e-05 0)
(-0.012059086 0.0052727676 1.6918154e-23)
(-0.0078711824 -0.012756194 7.7180206e-23)
(0.016238687 -0.028395858 0)
(0.030876017 -0.0083583139 0)
(0.011964597 0.017180831 0)
(-0.015387092 0.04359032 0)
(-0.038500785 0.016854205 0)
(-0.035309805 -0.017587017 0)
(0.0011247726 -0.029640017 0)
(0.021401262 -0.017798887 0)
(0.02256174 0.0022619381 0)
(0.0091514937 0.014056426 0)
(-0.0037439407 0.013246184 0)
(-0.009486751 0.0061564524 0)
(-0.0077784651 -0.0010946012 0)
(-0.0030151831 -0.0040866079 0)
(0.00020929466 -0.0033679598 0)
(0.0012574328 -0.0014890217 0)
(0.0010057413 -2.3697379e-05 0)
(0.00025498831 0.00059285051 0)
(-0.00024459215 0.00068041949 0)
(-0.00049406375 0.00055384284 0)
(-0.00058387377 0.00039060791 0)
(-0.00058570058 0.00025729846 0)
(-0.00056102206 0.0001463433 0)
(-0.00053055828 4.6059827e-05 0)
(-0.00049667837 -3.9092245e-05 0)
(-0.00046124975 -0.00010148399 0)
(-0.00042267603 -0.00013747502 0)
(-0.00038243379 -0.00013449376 0)
(-0.00034203508 -0.00010392323 0)
(-0.00030944625 -6.4270834e-05 0)
(-0.00028520607 -2.0105987e-05 0)
(-0.011790738 0.0047375883 0)
(-0.0077259507 -0.014967627 -7.731698e-23)
(0.017423745 -0.035006147 0)
(0.032045761 -0.0077046265 0)
(0.010679351 0.023581105 0)
(-0.0236239 0.051849605 0)
(-0.049686696 0.017727361 0)
(-0.041605764 -0.020571913 0)
(-0.0003723997 -0.038915105 0)
(0.027652463 -0.023186207 0)
(0.029474888 0.0031092783 0)
(0.012265863 0.018840975 0)
(-0.0051022379 0.018387185 0)
(-0.013482892 0.0086245228 0)
(-0.011267058 -0.0017776768 0)
(-0.004309969 -0.0062024486 0)
(0.00056432834 -0.0051137223 0)
(0.0021833951 -0.0023288444 0)
(0.0018413813 -0.00011092624 0)
(0.00077872213 0.00091801485 0)
(-7.0354095e-05 0.0010285613 0)
(-0.00050919129 0.00080185082 0)
(-0.00066803264 0.00053771624 0)
(-0.0006687637 0.00033430771 0)
(-0.00062500129 0.00018675923 0)
(-0.00057933425 6.7040071e-05 0)
(-0.00053772538 -2.9320209e-05 0)
(-0.00049910468 -0.00010113739 0)
(-0.00045963533 -0.00014753176 0)
(-0.00041527262 -0.00016021117 0)
(-0.0003704678 -0.00014289621 0)
(-0.00032859836 -0.00010327203 0)
(-0.0002972786 -6.0906829e-05 0)
(-0.00027428158 -1.821363e-05 0)
(-0.010910709 0.0041775512 -1.2981586e-23)
(-0.0075345125 -0.017385407 0)
(0.017919588 -0.039328882 -1.7384477e-22)
(0.032641298 -0.0067609587 0)
(0.0098159493 0.027083032 0)
(-0.028237739 0.058185982 0)
(-0.050787094 0.017984199 0)
(-0.034071806 -0.026195724 0)
(9.4261602e-05 -0.049580883 0)
(0.034895141 -0.028274002 0)
(0.037399877 0.0036448394 0)
(0.015968321 0.024856603 0)
(-0.0070086299 0.025435953 0)
(-0.018796718 0.011617778 0)
(-0.015897285 -0.0027605264 0)
(-0.0060982274 -0.0091165773 0)
(0.0010671625 -0.0076062396 0)
(0.0035426012 -0.0035213401 0)
(0.0030798194 -0.00024238473 0)
(0.0015543044 0.0013408509 0)
(9.726666e-05 0.0014511378 0)
(-0.00049710915 0.0011638876 0)
(-0.00079201337 0.0007493007 0)
(-0.0007966686 0.00043374206 0)
(-0.00071739174 0.00022964114 0)
(-0.00064270085 8.5693411e-05 0)
(-0.00058532715 -2.1011014e-05 0)
(-0.00054001512 -9.9108832e-05 0)
(-0.0004977239 -0.00015224577 0)
(-0.00045399838 -0.00017785823 0)
(-0.00040704512 -0.00017176582 0)
(-0.00035789057 -0.00014253068 0)
(-0.00031478331 -0.00010089793 0)
(-0.00028476122 -5.708184e-05 0)
(-0.00026478213 -1.6271108e-05 0)
(-0.0094446119 0.0036787777 4.0270321e-23)
(-0.0069083502 -0.019516438 1.7108647e-22)
(0.017471805 -0.043434127 1.7372149e-22)
(0.032188644 -0.0056565287 -2.8016092e-22)
(0.010108623 0.030519919 -2.3451266e-22)
(-0.031487438 0.067605535 0)
(-0.052650879 0.016211106 0)
(-0.029556995 -0.028925158 0)
(0.0052870417 -0.061408824 0)
(0.04409771 -0.036599868 0)
(0.047416256 0.0058790033 0)
(0.019872272 0.031935897 0)
(-0.0098263727 0.034203938 0)
(-0.026047073 0.015772236 0)
(-0.022107491 -0.0040641239 0)
(-0.0084458799 -0.013137915 0)
(0.0018149204 -0.011024674 0)
(0.0054518021 -0.0051750828 0)
(0.0048582907 -0.00044943908 0)
(0.0026778676 0.0019521014 0)
(0.00048738148 0.0022565904 0)
(-0.00056028874 0.0016742671 0)
(-0.0009730707 0.0010797432 0)
(-0.00099840096 0.0005710389 0)
(-0.0008589335 0.00027058963 0)
(-0.00073041256 9.352797e-05 0)
(-0.00064132544 -2.0917601e-05 0)
(-0.00058430175 -9.8992844e-05 0)
(-0.00053924627 -0.00015628803 0)
(-0.00049272126 -0.00018954953 0)
(-0.00044559812 -0.00019324725 0)
(-0.00039694902 -0.00017393623 0)
(-0.00034589781 -0.0001359243 0)
(-0.0003059192 -9.75414e-05 0)
(-0.00027470494 -5.2108269e-05 0)
(-0.00025641149 -1.4666777e-05 0)
(-0.007605383 0.0032270883 -4.588089e-23)
(-0.006007468 -0.021466644 -2.6601133e-22)
(0.016366554 -0.047436083 0)
(0.031005772 -0.004739561 7.4308395e-22)
(0.0099213407 0.034888785 2.334253e-22)
(-0.032444559 0.075072132 7.3851648e-23)
(-0.05382482 0.014669838 2.3930807e-23)
(-0.028027893 -0.037836289 0)
(0.010100986 -0.072400033 0)
(0.054716742 -0.043771637 0)
(0.061347089 0.0044066036 0)
(0.027429163 0.04027398 0)
(-0.013138434 0.045802316 0)
(-0.035645361 0.020201835 0)
(-0.029877011 -0.0058331357 0)
(-0.011516804 -0.018414583 0)
(0.0028814877 -0.015689126 0)
(0.0080884141 -0.0073928158 0)
(0.0073579145 -0.00073885466 0)
(0.0042877489 0.0028091321 0)
(0.0010986176 0.0033997435 0)
(-0.00070041002 0.0024702759 0)
(-0.0012772767 0.0015840954 0)
(-0.0013143024 0.00076829649 0)
(-0.0010796702 0.00031069742 0)
(-0.00085817303 7.7870447e-05 0)
(-0.00071170678 -4.1629769e-05 0)
(-0.00062902096 -0.00011043793 0)
(-0.00057920788 -0.00016209339 0)
(-0.00053567986 -0.00019758893 0)
(-0.00048890745 -0.00020822087 0)
(-0.00043649233 -0.00019843201 0)
(-0.00038504298 -0.00016897356 0)
(-0.00033497557 -0.00012721743 0)
(-0.00029480374 -8.5222367e-05 0)
(-0.00026587268 -4.6992176e-05 0)
(-0.00024914102 -1.3629684e-05 0)
(-0.0057712904 0.0028044285 6.1785871e-24)
(-0.0046545797 -0.02301241 5.9419689e-23)
(0.014368968 -0.051149161 7.2536837e-23)
(0.028596834 -0.0040089058 -2.1664448e-22)
(0.010134905 0.038763758 -4.8177163e-22)
(-0.033005338 0.083801345 2.3496032e-22)
(-0.053780463 0.016657419 -2.5184598e-22)
(-0.027479783 -0.040753526 1.6534812e-23)
(0.017102491 -0.083558373 0)
(0.064819809 -0.053119617 0)
(0.071509492 0.009377731 0)
(0.038088979 0.050091832 0)
(-0.0140462 0.058189523 0)
(-0.045846466 0.026090602 0)
(-0.039300357 -0.0085678178 0)
(-0.015010477 -0.025339882 0)
(0.0044102442 -0.021768416 0)
(0.011623905 -0.010339329 0)
(0.010734197 -0.0011173508 0)
(0.0065572842 0.0039580904 0)
(0.0020073556 0.0050360988 0)
(-0.00085426232 0.0037130295 0)
(-0.0018007485 0.0022565598 0)
(-0.00178795 0.0010799093 0)
(-0.0014401889 0.00032912847 0)
(-0.0010487077 2.1426982e-05 0)
(-0.00080310583 -0.00010214161 0)
(-0.00067393758 -0.00014668021 0)
(-0.00061274614 -0.00017648943 0)
(-0.00057322061 -0.00020422178 0)
(-0.00053184924 -0.00021928845 0)
(-0.00048316767 -0.00021570375 0)
(-0.00042829376 -0.00019534138 0)
(-0.0003745052 -0.00015995297 0)
(-0.00032454222 -0.00011756681 0)
(-0.00028563046 -7.7632662e-05 0)
(-0.00025807005 -4.3124485e-05 0)
(-0.00024258078 -1.3371419e-05 0)
(-0.0034091215 0.0024678396 9.566951e-24)
(-0.0031365391 -0.02433217 -1.1804685e-23)
(0.011982725 -0.054363368 0)
(0.024964013 -0.0032066182 -3.3831936e-23)
(0.0097175194 0.042900524 -2.374596e-23)
(-0.032174881 0.092253988 0)
(-0.051795011 0.015585822 -1.1118694e-22)
(-0.027785646 -0.04497101 -8.3829362e-23)
(0.019049802 -0.097382671 0)
(0.072259576 -0.056193922 0)
(0.07815321 0.0078479977 0)
(0.032177262 0.058128223 0)
(-0.013919492 0.075028513 0)
(-0.054979788 0.031201369 0)
(-0.049716497 -0.012121825 0)
(-0.018826142 -0.033997541 0)
(0.0066510342 -0.029768055 0)
(0.016306467 -0.013981079 0)
(0.015201635 -0.0016465576 0)
(0.009659002 0.0054827325 0)
(0.0032875851 0.0072850096 0)
(-0.0010198705 0.005555182 0)
(-0.00259894 0.0032626502 0)
(-0.0025695384 0.0014656491 0)
(-0.0019579532 0.00036169505 0)
(-0.0013510941 -0.00011402851 0)
(-0.00092958876 -0.00023766674 0)
(-0.00071655429 -0.00023161759 0)
(-0.00063267436 -0.00021321606 0)
(-0.00059874014 -0.00021447341 0)
(-0.00056957265 -0.00022323261 0)
(-0.00052981182 -0.00022509041 0)
(-0.00047762644 -0.0002137761 0)
(-0.00042037799 -0.00018694604 0)
(-0.00036400839 -0.00014891266 0)
(-0.00031500878 -0.00010887036 0)
(-0.00027742336 -7.1727736e-05 0)
(-0.00025110948 -4.1139007e-05 0)
(-0.0002363273 -1.3939116e-05 0)
(-0.00079746222 0.0023526457 0)
(-0.0016407239 -0.025171994 0)
(0.0094269613 -0.056904062 1.2204832e-23)
(0.02040003 -0.0024379336 0)
(0.0090570466 0.046599916 -8.5085148e-24)
(-0.030798379 0.10046595 1.316246e-22)
(-0.0493888 0.015895843 1.7313097e-22)
(-0.026747725 -0.048256799 3.2328243e-22)
(0.018343006 -0.10822683 0)
(0.078223445 -0.066403754 0)
(0.082458178 0.020060631 0)
(0.025601704 0.067215174 0)
(-0.00097066406 0.096374566 0)
(-0.067194977 0.040587229 0)
(-0.06378342 -0.015719973 0)
(-0.023581147 -0.044540555 0)
(0.0098588706 -0.039620647 0)
(0.022354175 -0.018645213 0)
(0.020967899 -0.002216449 0)
(0.013802347 0.0074184384 0)
(0.0051258657 0.010339194 0)
(-0.0012112219 0.0082055246 0)
(-0.0037591324 0.0047360793 0)
(-0.00378467 0.001988461 0)
(-0.0027609387 0.00035436005 0)
(-0.0018095326 -0.00036179722 0)
(-0.0011084805 -0.00047180875 0)
(-0.00075682753 -0.0003972517 0)
(-0.00062817904 -0.00029349228 0)
(-0.00060037408 -0.00023832648 0)
(-0.0005925906 -0.00022335399 0)
(-0.00057151739 -0.00022351571 0)
(-0.00052876116 -0.00022126553 0)
(-0.00047288294 -0.00020574518 0)
(-0.00041230397 -0.00017639026 0)
(-0.00035404714 -0.00013836316 0)
(-0.00030585985 -0.00010151209 0)
(-0.00026962576 -6.9305703e-05 0)
(-0.00024426387 -4.1664112e-05 0)
(-0.00022997557 -1.5271147e-05 0)
(-0.00034605284 -0.02553172 6.2045708e-25)
(0.0012217043 0.0023801743 0)
(0.0051044644 -0.058853658 1.4782181e-23)
(0.01597465 -0.0010454195 -4.418743e-23)
(0.007223381 0.049562172 9.3930227e-23)
(-0.02802387 0.10802967 -6.0926537e-23)
(-0.044963284 0.015331872 -4.6844281e-24)
(-0.025468274 -0.051655347 9.8649615e-23)
(0.017406882 -0.1213914 -3.1430085e-22)
(0.07767215 -0.077014341 0)
(0.082693925 0.021367632 -2.1347033e-21)
(0.01831197 0.076852799 0)
(-0.0094096964 0.11980119 0)
(-0.096919861 0.050376792 0)
(-0.087619554 -0.017513792 0)
(-0.033609908 -0.057750078 0)
(0.01454818 -0.051741017 0)
(0.030038422 -0.023833381 0)
(0.028149044 -0.0030333719 0)
(0.019159796 0.0098580206 0)
(0.0076175038 0.014334929 0)
(-0.0013944932 0.011877925 0)
(-0.0054129453 0.0069199247 0)
(-0.0055878764 0.0027208789 0)
(-0.0040372322 0.00025360246 0)
(-0.0024414643 -0.00072523648 0)
(-0.0013959465 -0.00091629933 0)
(-0.00079461788 -0.00069216572 0)
(-0.00058508095 -0.00044307895 0)
(-0.0005604445 -0.00028923843 0)
(-0.00058546657 -0.00022460488 0)
(-0.00059807153 -0.00021059237 0)
(-0.00057725203 -0.00021422178 0)
(-0.00052971419 -0.00021189485 0)
(-0.00046856486 -0.00019552234 0)
(-0.00040396933 -0.0001656953 0)
(-0.00034499742 -0.00013169085 0)
(-0.00029733446 -9.8114108e-05 0)
(-0.00026218151 -7.0303246e-05 0)
(-0.00023766428 -4.4252428e-05 0)
(-0.00022336008 -1.7199865e-05 0)
(0.00051848092 -0.059975804 -1.651779e-23)
(0.00095102475 -0.025521315 0)
(0.0036790704 0.002635825 -2.219293e-23)
(0.010322804 -0.00017361454 4.4158374e-23)
(0.0049200653 0.051518719 -4.2553851e-23)
(-0.024247236 0.11473805 2.6444985e-22)
(-0.039707507 0.014669486 -2.270785e-22)
(-0.022649666 -0.054484386 -4.4073481e-23)
(0.015490872 -0.13392396 -3.3014338e-22)
(0.075704159 -0.086158747 -3.4565934e-22)
(0.083097522 0.019868919 -2.1973057e-21)
(0.018808225 0.091543928 2.2422477e-21)
(-0.041723484 0.13805007 0)
(-0.12264044 0.067169773 0)
(-0.11322194 -0.023397023 0)
(-0.044571713 -0.073022421 0)
(0.018807901 -0.066713816 0)
(0.039684769 -0.030358325 0)
(0.036940255 -0.0036367774 0)
(0.025876282 0.012705657 0)
(0.011092949 0.019506763 0)
(-0.0015835803 0.01690543 0)
(-0.0077011024 0.0099413277 0)
(-0.0081842124 0.0037580456 0)
(-0.0059415279 3.6764491e-05 0)
(-0.0034058593 -0.0013672087 0)
(-0.0017882691 -0.0015730395 0)
(-0.0008339858 -0.0011775695 0)
(-0.00048216734 -0.00072214647 0)
(-0.00044912346 -0.00039605382 0)