/*--------------------------------*- C++ -*----------------------------------*\
| =========                 |                                                 |
| \\      /  F ield         | OpenFOAM: The Open Source CFD Toolbox           |
|  \\    /   O peration     | Version:  5.0                                   |
|   \\  /    A nd           | Web:      www.OpenFOAM.org                      |
|    \\/     M anipulation  |                                                 |
\*---------------------------------------------------------------------------*/
FoamFile
{
    version     2.0;
    format      ascii;
    class       volScalarField;
    location    "200";
    object      nut;
}
// * * * * * * * * * * * * * * * * * * * * * * * * * * * * * * * * * * * * * //

dimensions      [0 2 -1 0 0 0 0];

internalField   nonuniform List<scalar> 
9520
(
1.5374955e-117
1.9512722e-109
1.3421749e-117
1.41959e-102
1.705564e-109
1.1694145e-117
1.8421767e-96
1.2417321e-102
1.487633e-109
1.0264163e-117
6.8469789e-91
1.6125241e-96
1.0839011e-102
1.3084196e-109
9.1576675e-118
9.5115198e-86
5.9976728e-91
1.4090001e-96
9.550515e-103
1.1720144e-109
8.3309983e-118
5.8938034e-81
8.3359858e-86
5.2473628e-91
1.243951e-96
8.5834675e-103
1.071717e-109
7.6853873e-118
1.8358544e-76
5.168403e-81
7.3021479e-86
4.642576e-91
1.1212838e-96
7.8786644e-103
9.9206203e-110
7.0941908e-118
3.0974148e-72
1.6119873e-76
4.5335954e-81
6.4739506e-86
4.1953877e-91
1.0319349e-96
7.3028943e-103
9.1422265e-110
6.4372303e-118
2.9994762e-68
2.7255693e-72
1.4168714e-76
4.0281533e-81
5.8625308e-86
3.8669708e-91
9.5624528e-97
6.7034403e-103
8.2293038e-110
5.6578561e-118
1.7601948e-64
2.6474821e-68
2.4019807e-72
1.2622768e-76
3.6545396e-81
5.4061525e-86
3.5768712e-91
8.730369e-97
5.9761619e-103
7.1483418e-110
4.804291e-118
7.0487887e-61
1.5569265e-64
2.3404722e-68
2.1457975e-72
1.1476004e-76
3.3692932e-81
4.9841948e-86
3.2443203e-91
7.7041043e-97
5.1298793e-103
6.0141151e-110
4.0106525e-118
3.816351e-57
6.1256474e-61
1.379255e-64
2.0954116e-68
1.9546303e-72
1.0577739e-76
3.0927513e-81
4.4857371e-86
2.8336835e-91
6.540367e-97
4.2837937e-103
5.0266459e-110
3.4218668e-118
3.1215471e-52
2.8567177e-57
5.3435789e-61
1.2339743e-64
1.9109966e-68
1.8012964e-72
9.6657381e-77
2.7590628e-81
3.8770109e-86
2.3824813e-91
5.4336065e-97
3.5953667e-103
4.3622271e-110
3.1310688e-118
4.5620339e-46
1.7221324e-52
2.1476142e-57
4.6877716e-61
1.1238664e-64
1.7610573e-68
1.639354e-72
8.5463866e-77
2.3591099e-81
3.2323858e-86
1.974258e-91
4.5932216e-97
3.1806049e-103
4.1144139e-110
3.1713335e-118
7.8535341e-40
2.5980504e-46
8.1805306e-53
1.5872806e-57
4.2051037e-61
1.0358194e-64
1.598247e-68
1.4374375e-72
7.2315964e-77
1.9526062e-81
2.6781798e-86
1.685328e-91
4.1487407e-97
3.0886721e-103
4.3009371e-110
3.5230989e-118
6.1281831e-34
5.3223536e-40
1.0043794e-46
2.9357627e-53
1.2366946e-57
3.855454e-61
9.3933064e-65
1.3911168e-68
1.2043707e-72
5.9499593e-77
1.6214573e-81
2.3136336e-86
1.5549783e-91
4.1391259e-97
3.3131116e-103
4.8607632e-110
4.0796092e-118
1.7448064e-28
4.8504702e-34
2.0993662e-40
2.042213e-47
1.0713699e-53
1.0510629e-57
3.4938382e-61
8.1266495e-65
1.1544278e-68
9.86115e-73
4.9631851e-77
1.4206428e-81
2.1796602e-86
1.5882849e-91
4.5274432e-97
3.7758995e-103
5.5895446e-110
4.5906454e-118
1.6459341e-23
1.5540762e-28
1.9809427e-34
3.8277827e-41
3.3101003e-48
5.6236448e-54
9.2449005e-58
3.0041111e-61
6.6760612e-65
9.4088348e-69
8.2763262e-73
4.4186211e-77
1.366241e-81
2.2693782e-86
1.7591464e-91
5.1610052e-97
4.2737757e-103
6.094896e-110
4.7085813e-118
4.6527917e-19
1.5889179e-23
6.5510841e-29
3.5659116e-35
5.6939593e-42
1.0155629e-48
4.1075612e-54
7.7650295e-58
2.4351309e-61
5.4094042e-65
7.9521391e-69
7.4936737e-73
4.336142e-77
1.4443007e-81
2.5266556e-86
1.9900263e-91
5.70841e-97
4.4854659e-103
5.9465066e-110
4.2126178e-118
3.6448019e-15
4.7226846e-19
6.8957576e-24
1.2018293e-29
6.1418215e-36
2.2511466e-42
7.2122068e-49
3.0410945e-54
6.0613467e-58
1.9528491e-61
4.6023219e-65
7.3262061e-69
7.4925532e-73
4.6382487e-77
1.6058194e-81
2.815198e-86
2.1381102e-91
5.7396644e-97
4.1482853e-103
5.0108072e-110
3.2251323e-118
7.219325e-12
3.7442067e-15
2.181281e-19
1.3483034e-24
2.5737515e-30
3.9261271e-36
2.5140554e-42
4.9550366e-49
1.8286281e-54
4.6838958e-58
1.6681925e-61
4.3149673e-65
7.4530745e-69
8.0767405e-73
5.1225048e-77
1.7499253e-81
2.9222919e-86
2.0539257e-91
5.0239941e-97
3.2939586e-103
3.6158687e-110
2.1342377e-118
3.5882022e-09
7.3468531e-12
1.8444041e-15
5.0191744e-20
3.7753045e-25
2.6195798e-30
6.7617755e-36
2.1133104e-42
1.4042901e-49
1.0255707e-54
3.9486552e-58
1.5910936e-61
4.4632652e-65
8.0687196e-69
8.8154651e-73
5.4306011e-77
1.7453746e-81
2.676673e-86
1.7031085e-91
3.7680972e-97
2.2533059e-103
2.2905845e-110
1.2823087e-118
4.457187e-07
3.593977e-09
3.9571916e-12
5.2168645e-16
1.9916628e-20
5.5796155e-25
6.1510707e-30
6.6946353e-36
4.4990163e-43
1.8067372e-50
7.0331776e-55
3.8095907e-58
1.6740936e-61
4.8421867e-65
8.6657055e-69
9.0531793e-73
5.1838896e-77
1.5201687e-81
2.1070101e-86
1.2128393e-91
2.4629805e-97
1.3845865e-103
1.3673607e-110
7.7503122e-119
1.265075e-05
4.3882129e-07
2.0974405e-09
1.4024228e-12
2.7962727e-16
3.3855168e-20
1.5566855e-24
6.6515494e-30
1.3492428e-36
2.0834415e-44
2.7859692e-51
6.3357339e-55
4.0808618e-58
1.8195595e-61
5.1002227e-65
8.5880607e-69
8.2528478e-73
4.2865113e-77
1.1373753e-81
1.4350777e-86
7.6597364e-92
1.4918793e-97
8.4012107e-104
8.7455237e-111
5.5006859e-119
6.7559056e-05
1.2443139e-05
2.7958389e-07
9.1187806e-10
9.3757502e-13
5.0714487e-16
9.7914934e-20
1.7320741e-24
1.293706e-30
4.7848188e-38
4.3214025e-46
1.1042331e-51
6.7680684e-55
4.452425e-58
1.8759504e-61
4.8604408e-65
7.4616364e-69
6.4845757e-73
3.0544051e-77
7.4607447e-82
8.8814357e-87
4.6612062e-92
9.4352137e-98
5.8524174e-104
7.0680051e-111
5.331983e-119
0.00013709392
6.6995309e-05
9.0776075e-06
1.4667767e-07
7.2474394e-10
1.7327544e-12
1.4065634e-15
1.0767841e-19
3.3109915e-25
4.0783595e-32
5.5283293e-40
1.6516738e-47
9.1334798e-52
7.3997642e-55
4.4914212e-58
1.7133365e-61
4.0154617e-65
5.5778621e-69
4.4234129e-73
1.94414e-77
4.5928707e-82
5.5474851e-87
3.1494316e-92
7.3444021e-98
5.4846075e-104
8.1046801e-111
7.3780627e-119
0.00019646299
0.00013615157
5.7396337e-05
5.7953985e-06
1.321242e-07
1.336405e-09
4.4211459e-12
1.4918392e-15
2.0785293e-20
1.0370627e-26
4.1167264e-34
8.2352184e-42
3.9941414e-48
9.5313196e-52
7.2997673e-55
3.9175046e-58
1.3417414e-61
2.8581617e-65
3.664633e-69
2.7621556e-73
1.2082465e-77
3.0118388e-82
4.0956566e-87
2.7868003e-92
8.0310167e-98
7.3566448e-104
1.2869591e-110
1.3200495e-118
0.00024309024
0.00019385864
0.00012370772
4.5530625e-05
5.6416511e-06
2.3728041e-07
3.0482458e-09
4.4848021e-12
2.9985825e-16
7.248556e-22
1.3422772e-28
8.1668021e-36
1.4829105e-42
3.7254952e-48
9.0966e-52
6.0504698e-55
2.8950884e-58
9.0925453e-62
1.8198592e-65
2.2730035e-69
1.762625e-73
8.4840329e-78
2.4801828e-82
4.1484825e-87
3.5270539e-92
1.2316859e-97
1.2948122e-103
2.4559178e-110
2.600991e-118
0.00028152746
0.00023933423
0.00017933195
0.00010820118
4.5431266e-05
9.1257375e-06
4.7592118e-07
2.9317409e-09
9.6644516e-13
1.2864339e-17
1.4602226e-23
5.0916707e-30
4.5477125e-36
2.7339083e-42
3.5685257e-48
6.9366743e-52
4.1880533e-55
1.8651736e-58
5.6435298e-62
1.1358122e-65
1.5154148e-69
1.347585e-73
7.8919482e-78
2.8790742e-82
5.9581202e-87
5.9952277e-92
2.318612e-97
2.5427263e-103
4.8146843e-110
4.9400945e-118
0.00031377476
0.00027648065
0.00022336495
0.00016318572
0.0001083287
5.9479796e-05
1.4804137e-05
4.360423e-07
6.9360186e-10
5.3793119e-14
4.1282952e-19
1.1441826e-24
7.0125054e-30
1.7327442e-35
3.5629295e-42
1.7421552e-48
4.3098427e-52
2.5536188e-55
1.1345352e-58
3.5900331e-62
8.042678e-66
1.2780948e-69
1.4192639e-73
1.0421262e-77
4.5886226e-82
1.0845702e-86
1.1667642e-91
4.5494483e-97
4.837938e-103
8.6824095e-110
8.3388735e-118
0.00034071593
0.00030738311
0.00025931875
0.00020688513
0.00016458567
0.0001269038
7.4963417e-05
1.3398232e-05
1.1774724e-07
5.1946203e-11
2.8367284e-15
6.8902709e-20
2.7452554e-24
3.7319022e-29
2.7552277e-35
8.2228519e-43
5.3108951e-49
2.4260181e-52
1.5276926e-55
7.4484879e-59
2.739898e-62
7.5474779e-66
1.5169404e-69
2.0919014e-73
1.8017003e-77
8.6805007e-82
2.1175231e-86
2.2333951e-91
8.2498777e-97
8.1662838e-103
1.3541236e-109
1.1999126e-117
0.00036160796
0.00033266549
0.00028978006
0.00024257478
0.00020935143
0.00018566264
0.00014552739
7.0425213e-05
4.8683505e-06
1.2278607e-08
4.638706e-12
9.5329032e-16
2.3019666e-19
1.6770106e-23
6.3957038e-29
5.7834596e-36
2.9459075e-44
1.8733924e-49
1.422429e-52
1.0469093e-55
6.201958e-59
2.8722383e-62
9.9957282e-66
2.4401202e-69
3.8152292e-73
3.4638437e-77
1.6606022e-81
3.8798803e-86
3.8084229e-91
1.2909107e-96
1.1679054e-102
1.7726119e-109
1.4442106e-117
0.00037686037
0.00035225794
0.00031461335
0.00027336505
0.00024532622
0.0002313794
0.00020513448
0.00013904905
4.1051792e-05
7.8009769e-07
1.8746692e-09
2.8855302e-12
3.8714637e-15
1.4343898e-18
2.933294e-23
1.3823242e-29
1.142174e-37
6.1240047e-46
9.6184622e-50
1.0262004e-52
9.5985258e-56
7.2571466e-59
4.1880452e-62
1.7152497e-65
4.5758845e-69
7.2897041e-73
6.3982821e-77
2.8712789e-81
6.161366e-86
5.4871212e-91
1.6847594e-96
1.3852869e-102
1.9225946e-109
1.4433568e-117
0.00038719936
0.00036649863
0.00033425774
0.00029900001
0.00027595824
0.0002668602
0.00024961117
0.00019584625
0.00010150443
1.3130767e-05
1.9993578e-07
1.9201978e-09
1.2864306e-11
2.2714471e-14
2.4709e-18
6.6355565e-24
2.7601757e-31
3.0732881e-40
6.8048342e-47
7.2253046e-50
1.042421e-52
1.2483159e-55
1.1470474e-58
7.5035721e-62
3.2358021e-65
8.532132e-69
1.2833937e-72
1.0351416e-76
4.2155224e-81
8.1466541e-86
6.5142382e-91
1.8062923e-96
1.3509662e-102
1.7200697e-109
1.1959516e-117
0.0003928756
0.00037617815
0.00034900324
0.00031981258
0.00030154777
0.00029596123
0.00028307806
0.0002382731
0.00015477547
5.5942129e-05
5.7069617e-06
2.9140859e-07
8.6584044e-09
6.6943222e-11
3.7517364e-14
5.9164813e-19
1.4877727e-25
6.9164031e-34
7.9958011e-43
3.965316e-47
8.141193e-50
1.4974602e-52
2.1061884e-55
2.1046268e-58
1.3984704e-61
5.8021543e-65
1.4174835e-68
1.9302519e-72
1.3937132e-76
5.0844932e-81
8.7971948e-86
6.3052847e-91
1.5817265e-96
1.0805111e-102
1.2691964e-109
8.2275457e-118
0.00039468321
0.0003817802
0.00035964533
0.00033615261
0.00032239419
0.0003196519
0.00030939613
0.00027034173
0.00019651188
0.00010680165
3.8382127e-05
9.534255e-06
1.2088524e-06
3.81138e-08
1.0356731e-10
9.6181677e-15
1.5779163e-20
5.1604215e-28
8.5940508e-37
3.4704919e-44
4.7213649e-47
1.283112e-49
2.6600952e-52
3.8948942e-55
3.8175244e-58
2.3836836e-61
9.0215095e-65
1.9704342e-68
2.3774741e-72
1.5226501e-76
4.9607685e-81
7.6859713e-86
4.9554291e-91
1.1299055e-96
7.0922432e-103
7.7393234e-110
4.7144758e-118
0.00039394991
0.00038430919
0.00036670225
0.00034876545
0.00033887281
0.00033854055
0.00033023723
0.00029602253
0.00022907559
0.00014983293
8.9904481e-05
5.6608812e-05
2.7034704e-05
4.0886098e-06
5.4239656e-08
2.8705926e-11
3.1948096e-16
8.2016218e-23
9.4601348e-31
1.4223733e-39
2.3067732e-44
8.0806234e-47
2.3768157e-49
4.8956249e-52
6.7953908e-55
6.1260138e-58
3.4457614e-61
1.155236e-64
2.2174057e-68
2.3544336e-72
1.335753e-76
3.8930573e-81
5.4178702e-86
3.1601487e-91
6.5927165e-97
3.8297816e-103
3.9142791e-110
2.2607759e-118
0.00039124505
0.00038489843
0.00037119664
0.00035804535
0.00035184438
0.00035308351
0.00034630032
0.0003163561
0.00025745849
0.00018417656
0.00013605739
0.00011763119
9.7756466e-05
5.2514203e-05
5.1982007e-06
1.6490173e-08
1.2321964e-12
2.5294722e-18
2.3691086e-25
1.1978265e-33
3.0782209e-41
3.9674512e-44
1.5550695e-46
4.3155755e-49
8.1398718e-52
1.0183169e-54
8.1856064e-58
4.0540309e-61
1.1861041e-64
1.9909719e-68
1.8595474e-72
9.3718776e-77
2.4537011e-81
3.0825803e-86
1.6382777e-91
3.151484e-97
1.7086499e-103
1.6510748e-110
9.1342547e-119
0.00038681243
0.00038418635
0.00037482928
0.00036474832
0.00036149259
0.00036417935
0.00035810437
0.00033221263
0.00028092856
0.0002148532
0.00017345894
0.00016843179
0.00016686744
0.00013381909
5.756486e-05
1.8943037e-06
9.4254224e-10
1.4777133e-14
1.1165521e-20
4.494733e-28
2.6650443e-36
2.4578627e-41
7.9878781e-44
2.7755756e-46
6.7839192e-49
1.1311444e-51
1.2502647e-54
8.8310765e-58
3.7931653e-61
9.652465e-65
1.417383e-68
1.1679807e-72
5.2565776e-77
1.2433388e-81
1.4194226e-86
6.9326686e-92
1.2408125e-97
6.3423473e-104
5.8589215e-111
3.1419963e-119
0.00038328425
0.00038569399
0.00037799789
0.00037006962
0.00036826027
0.00037187106
0.00036634842
0.00034391974
0.00030032049
0.00024142583
0.00020409817
0.00020811898
0.00022121306
0.00020483167
0.00013787014
3.2898535e-05
1.5500711e-07
1.6860576e-11
9.70149e-17
3.4514023e-23
1.5879635e-30
6.1410778e-37
6.4398804e-41
1.4186723e-43
4.0980997e-46
8.6707494e-49
1.2689551e-51
1.2332744e-54
7.5234777e-58
2.7965913e-61
6.1956667e-65
7.9844556e-69
5.8356277e-73
2.3620328e-77
5.083441e-82
5.3195156e-87
2.4134285e-92
4.063869e-98
1.9836211e-104
1.7764607e-111
9.3719079e-120
0.00038062378
0.00038607604
0.00038765017
0.00037399978
0.00037306364
0.00037665191
0.0003712708
0.0003521334
0.00031604215
0.00026420639
0.00023044864
0.00023846523
0.00026078896
0.00025922431
0.00020625306
0.00010231267
5.6960016e-06
4.0685613e-09
1.6313932e-13
5.258112e-19
3.9316838e-25
1.0806342e-30
6.8129399e-36
1.5317953e-40
1.9525118e-43
4.7682899e-46
8.8149121e-49
1.1370802e-51
9.558984e-55
5.0240303e-58
1.6186084e-61
3.1331817e-65
3.5630273e-69
2.3272768e-73
8.5524309e-78
1.6910461e-82
1.6421007e-87
7.0202342e-93
1.1304128e-98
5.365899e-105
4.7501269e-112
2.5142722e-120
0.00037646083
0.00038536979
0.00038775773
0.00038809448
0.00037572359
0.00037914079
0.00037350511
0.00035731051
0.00032860283
0.00028366028
0.00025298656
0.00026224858
0.00028900342
0.00029510983
0.00025657472
0.00016497376
4.074958e-05
2.4415431e-07
5.9075223e-11
1.7815124e-15
2.5312624e-20
9.8467207e-25
2.4448874e-29
4.6528565e-35
1.9211235e-40
2.0092794e-43
4.339913e-46
7.1257498e-49
8.0109258e-52
5.7803135e-55
2.6227835e-58
7.3538382e-62
1.2514286e-65
1.2664414e-69
7.4781046e-74
2.5305272e-78
4.6696649e-83
4.2940889e-88
1.7706357e-93
2.8012447e-99
1.3315775e-105
1.2003681e-112
6.5560888e-121
0.00037609204
0.00037879621
0.00038838159
0.0003874834
0.00038714068
0.00037933504
0.00037351071
0.00036014994
0.00033844419
0.00030025066
0.00027222002
0.00028192596
0.00030900426
0.00031800879
0.00028905058
0.0002121331
9.3253511e-05
4.1849776e-06
5.7091527e-09
1.5918709e-12
3.9109129e-16
1.5528717e-19
2.4058476e-23
2.0453257e-28
5.7035706e-35
1.1728089e-40
1.5876855e-43
3.1294909e-46
4.5498038e-49
4.3850033e-52
2.7231615e-55
1.0719776e-58
2.6353211e-62
3.9845044e-66
3.6418586e-70
1.984063e-74
6.3415555e-79
1.126078e-83
1.0193762e-88
4.2364865e-94
6.9155265e-100
3.4592207e-106
3.3246685e-113
1.9462853e-121
0.00037724841
0.00037398217
0.00038149554
0.00038912727
0.00038550162
0.00038392746
0.0003716884
0.00036133022
0.00034622363
0.00031425833
0.00028859701
0.00029809395
0.00032472467
0.00033435708
0.00031023706
0.00024550232
0.00013793811
2.3155909e-05
1.8690516e-07
4.5164563e-10
1.3720349e-12
3.9284149e-15
3.4265714e-18
1.867648e-22
2.5713111e-28
8.7399779e-36
5.3305912e-41
9.9900582e-44
1.7986539e-46
2.2527988e-49
1.8654033e-52
1.0033604e-55
3.4605465e-59
7.5697242e-63
1.0389489e-66
8.8447878e-71
4.6385753e-75
1.4769635e-79
2.6930819e-84
2.5912289e-89
1.1779176e-94
2.1515923e-100
1.216532e-106
1.3174316e-113
8.5619541e-122
0.00036843374
0.00037236658
0.00037305514
0.00038302517
0.00038770598
0.00038123462
0.00037690917
0.00036158346
0.00035271486
0.00032608511
0.00030246105
0.0003113753
0.00033656971
0.00034597602
0.00032546772
0.00027168871
0.00017274773
5.6400789e-05
2.5215171e-06
4.3789046e-08
1.0686023e-09
1.6616399e-11
7.1584606e-14
2.3362149e-17
2.3363736e-22
3.4097157e-29
2.4668306e-37
2.4730149e-41
5.0983534e-44
8.0409994e-47
8.6606348e-50
6.2157393e-53
2.9369274e-56
9.0734332e-60
1.8266838e-63
2.3923032e-67
2.0358336e-71
1.1277228e-75
3.9916961e-80
8.4456425e-85
9.7666819e-90
5.422066e-95
1.2060685e-100
8.1283719e-107
1.0142603e-113
7.2943318e-122
0.00036185314
0.00036378852
0.00036756123
0.00037201498
0.00038267604
0.00038388898
0.00037316713
0.00036542977
0.00035783561
0.00033650393
0.00031418619
0.00032203777
0.00034559722
0.0003532966
0.00033555257
0.00029169013
0.00020831777
9.0217571e-05
1.4688474e-05
1.4364183e-06
1.8512689e-07
1.2652975e-08
2.3498706e-10
4.1524903e-13
2.8435225e-17
3.522799e-23
3.931412e-31
9.3830896e-39
1.0766623e-41
2.046296e-44
2.7961537e-47
2.6224035e-50
1.6669749e-53
7.1661084e-57
2.0954005e-60
4.2163687e-64
5.9159417e-68
5.8398159e-72
4.0406202e-76
1.8712131e-80
5.2795327e-85
8.0640274e-90
5.7155047e-95
1.5473399e-100
1.2043557e-106
1.6507378e-113
1.2466525e-121
0.00036342861
0.00036062855
0.00035813976
0.00036217216
0.00037012207
0.00037997492
0.00037647697
0.00036087844
0.00034923949
0.00034565435
0.00032407703
0.00033041846
0.00035180489
0.00035758616
0.00034112932
0.0003062552
0.00023720614
0.00012853549
4.1478619e-05
1.4354432e-05
6.8919645e-06
1.7995693e-06
1.316888e-07
1.1254992e-09
4.8448128e-13
4.8996997e-18
5.3851004e-25
5.0773874e-34
1.9155641e-39
3.8249778e-42
6.4397831e-45
7.7492859e-48
6.5493726e-51
3.9030005e-54
1.6699105e-57
5.2761083e-61
1.2672405e-64
2.3461963e-68
3.2955037e-72
3.3243671e-76
2.181149e-80
8.2556076e-85
1.5769689e-89
1.3088374e-94
3.9204557e-100
3.2266986e-106
4.5158206e-113
3.3879293e-121
0.00035396107
0.00036633491
0.00035775081
0.00035165352
0.00035589536
0.00036634224
0.00037417381
0.00036493633
0.00034423531
0.00032755211
0.00033233325
0.00033686674
0.00035571687
0.000358926
0.00034315755
0.00031608062
0.00026110424
0.00016295372
7.5026342e-05
4.9330927e-05
4.6771737e-05
3.4890743e-05
1.1161793e-05
4.9892241e-07
1.2452227e-09
9.513641e-14
1.0628388e-19
7.9260332e-28
1.6063023e-36
5.4940354e-40
1.0869236e-42
1.6509465e-45
1.8474915e-48
1.5415947e-51
9.9214698e-55
5.1483412e-58
2.2314946e-61
8.087568e-65
2.3381753e-68
4.9543242e-72
6.9334986e-76
5.7413341e-80
2.5301003e-84
5.272285e-89
4.5640668e-94
1.3824622e-99
1.1268885e-105
1.539928e-112
1.1163292e-120
0.00033925186
0.00036033883
0.00036700851
0.00035301354
0.0003436586
0.00034805559
0.00035995571
0.00036455346
0.00034919423
0.00032244253
0.00030026489
0.00034136782
0.0003575465
0.00035799423
0.00034233084
0.00032210097
0.00028047235
0.00019375543
0.00010872734
8.4758351e-05
0.0001042734
0.00010938406
8.3917822e-05
2.6017469e-05
5.2019461e-07
2.8046116e-10
2.9177567e-15
2.8893189e-22
4.2880717e-31
8.4833e-38
1.3890891e-40
2.6152913e-43
3.8962695e-46
4.6720167e-49
4.7385889e-52
4.2755046e-55
3.491472e-58
2.4866264e-61
1.4189673e-64
5.8449022e-68
1.5739403e-71
2.5360877e-75
2.2546862e-79
1.0174687e-83
2.1075657e-88
1.7836971e-93
5.2329462e-99
4.1111735e-105
5.4013043e-112
3.7586567e-120
0.00034410858
0.00034464802
0.0003647043
0.0003654837
0.00034619019
0.00033393425
0.00033806336
0.00035034499
0.00035083209
0.00032842253
0.00029534169
0.00026741072
0.00035728792
0.00035486095
0.00033927955
0.00032531444
0.00029581008
0.00022127149
0.00013973151
0.00011675502
0.00014821819
0.00017659181
0.00016989543
0.00011660956
2.57945e-05
1.3843606e-07
1.2243689e-11
1.4525748e-17
2.6738959e-25
3.6664427e-34
1.449555e-38
3.1901386e-41
6.4251933e-44
1.1542668e-46
1.9508458e-49
3.2006774e-52
4.9497947e-55
6.6192608e-58
6.8754823e-61
5.0158493e-64
2.365982e-67
6.7504046e-71
1.0974601e-74
9.5803293e-79
4.1673335e-83
8.2646421e-88
6.6835712e-93
1.8746807e-98
1.4108234e-104
1.7798208e-111
1.1918968e-119
0.00035491773
0.00034512893
0.00034890547
0.00036704709
0.00036174377
0.00033740273
0.00032201676
0.00032569051
0.00033706429
0.00033229054
0.00030234996
0.00026306861
0.00022965615
0.00034967117
0.00033435038
0.00032663688
0.00030785938
0.00024562895
0.00016791493
0.00014489378
0.00017987875
0.00022740373
0.00023791806
0.00020402146
0.00011445405
1.0564001e-05
8.8089459e-09
1.0948298e-13
2.676815e-20
1.4616399e-28
3.1089887e-36
3.1318467e-39
8.6934148e-42
2.4616689e-44
7.2617049e-47
2.1837476e-49
6.13231e-52
1.4279198e-54
2.4749544e-57
2.9431815e-60
2.2573024e-63
1.0627737e-66
2.9399082e-70
4.5678618e-74
3.7868566e-78
1.5581699e-82
2.9299377e-87
2.2548717e-92
6.044888e-98
4.3673502e-104
5.3118212e-111
4.4432884e-128
0.00034241817
0.00035019518
0.00034445969
0.0003521479
0.0003672995
0.00035588767
0.00032625716
0.0003074965
0.00031051782
0.00031934232
0.00030853733
0.00027116821
0.00022576182
0.00018395533
0.00032790227
0.00032665461
0.00031763255
0.0002669389
0.00019370142
0.00016966768
0.00020616867
0.00025855064
0.00028665283
0.00026800151
0.000200138
7.8341506e-05
1.2074074e-06
1.4030004e-10
3.8669478e-16
2.6171167e-23
7.110957e-32
2.9481367e-37
1.0120783e-39
4.7275754e-42
2.4753115e-44
1.3175819e-46
6.2512037e-49
2.3389437e-51
6.2937276e-54
1.144974e-56
1.3496e-59
9.9454635e-63
4.4319008e-66
1.1537029e-69
1.6864489e-73
1.3159587e-77
5.1104785e-82
9.1197785e-87
6.6989569e-92
1.7237782e-97
1.2018393e-103
2.9947715e-119
7.1490203e-138
0.00032046166
0.00033305224
0.00034301221
0.00034258796
0.00035394514
0.00036534363
0.00034760255
0.00031232463
0.00029003202
0.00029145265
0.0002968082
0.00027944837
0.00023409313
0.00018026126
0.00012689291
0.0003257978
0.00032608045
0.00028566766
0.00021744867
0.00019191056
0.00022809405
0.00028396747
0.00031671625
0.00030952229
0.00026177577
0.00016047749
2.6130405e-05
3.5137064e-08
9.1414965e-13
6.9602555e-19
1.4362301e-26
1.5180259e-34
1.0670965e-37
8.3197511e-40
7.5717224e-42
6.6933877e-44
4.9675205e-46
2.7850147e-48
1.100325e-50
2.9265806e-53
5.0825203e-56
5.624532e-59
3.8667008e-62
1.6066858e-65
3.9107907e-69
5.3714826e-73
3.9459683e-77
1.4515622e-81
2.47009e-86
1.7413767e-91
4.3269568e-97
1.0459057e-111
7.5670565e-129
3.4996945e-149
0.00032405116
0.00031181115
0.000321758
0.00033431628
0.00034009343
0.00035388521
0.00036100282
0.00033647407
0.00029536165
0.00026902111
0.00026792639
0.00026890508
0.00024360783
0.00018823326
0.00012293271
5.9962634e-05
0.00033402298
0.00030233668
0.00023940898
0.00021214926
0.0002470031
0.0003041513
0.00034015002
0.00033642451
0.00029851801
0.00022422745
9.3820928e-05
1.9928094e-06
4.064903e-10
2.9040572e-15
6.5670727e-22
5.860082e-30
1.3345154e-35
1.3312018e-37
2.0013733e-39
2.7350531e-41
2.9683605e-43
2.361569e-45
1.3116516e-47
4.9259305e-50
1.22153e-52
1.9635375e-55
2.009146e-58
1.2803644e-61
4.9546829e-65
1.1297022e-68
1.462151e-72
1.0158836e-76
3.5606061e-81
5.814262e-86
3.9600634e-91
5.8795435e-105
4.3243053e-121
5.4865962e-140
4.8781661e-162
0.00034085765
0.00032093735
0.00030157805
0.00030903121
0.00032563942
0.00033626636
0.00035158807
0.00035371274
0.00032239574
0.00027467679
0.00024375639
0.00023929291
0.00023454986
0.00019850152
0.00012958076
5.7383402e-05
9.9846227e-06
0.00031828263
0.00025969835
0.00023065107
0.00026342344
0.00032104821
0.00035764997
0.00035542998
0.00032272215
0.00026601291
0.00015896157
2.4134654e-05
4.1759386e-08
2.1866192e-12
4.6696634e-18
3.4520396e-25
1.0707579e-32
1.9201184e-35
4.4009662e-37
8.7126579e-39
1.3104937e-40
1.4188737e-42
1.0711003e-44
5.5138163e-47
1.9016433e-49
4.3240488e-52
6.388713e-55
6.034828e-58
3.570666e-61
1.2914216e-64
2.7717797e-68
3.395414e-72
2.2457321e-76
7.5512015e-81
1.1916735e-85
8.4565524e-99
4.0552489e-114
5.1401892e-132
8.7194222e-153
4.513575e-176
0.00033291523
0.00034547645
0.00031613741
0.00029003477
0.0002950947
0.00031480897
0.0003305473
0.00034641917
0.00034343856
0.00030450434
0.00024971945
0.00021383771
0.00020534966
0.00019121744
0.00013985614
6.2701551e-05
9.1713058e-06
3.2181806e-07
0.00027847854
0.00024758372
0.00027742925
0.0003349115
0.00037155275
0.00036789409
0.00033741729
0.00029348041
0.00021448175
7.5176146e-05
1.2144027e-06
3.6756779e-10
5.7582558e-15
3.9553752e-21
1.5465823e-28
2.9330971e-33
7.8359796e-35
2.130045e-36
4.2591099e-38
6.0704323e-40
6.05669e-42
4.1671514e-44
1.9500248e-46
6.1251949e-49
1.2742435e-51
1.7324089e-54
1.5155057e-57
8.3630433e-61
2.8424195e-64
5.7791355e-68
6.7368561e-72
4.2727137e-76
1.3886516e-80
4.0145703e-93
9.824443e-108
8.3057955e-125
1.1551823e-144
5.9755899e-167
8.4145498e-191
0.00029574037
0.00034518343
0.000347458
0.00030968233
0.00027700265
0.00027927426
0.0003019622
0.00032213749
0.000337929
0.00032926249
0.0002821522
0.00021976749
0.00017896696
0.00016298882
0.00013484203
7.0691643e-05
1.0889582e-05
2.7828929e-07
2.4868971e-09
0.00026299425
0.00028904306
0.00034538927
0.00038199745
0.00037556333
0.00034440838
0.00030889971
0.00025352795
0.00013892586
1.1311955e-05
1.7457564e-08
1.5268662e-12
7.7715745e-18
2.0067461e-24
1.0989563e-30
1.1308093e-32
3.9879615e-34
1.0249976e-35
1.8704343e-37
2.4061054e-39
2.1621603e-41
1.3422875e-43
5.6907424e-46
1.6285821e-48
3.1076993e-51
3.9036363e-54
3.1786928e-57
1.6456218e-60
5.2900943e-64
1.025416e-67
1.1454609e-71
7.0213733e-76
7.3949582e-88
7.8938048e-102
3.5553217e-118
2.9875192e-137
7.7958669e-159
6.3085203e-182
5.320303e-206
0.00027704946
0.00031136719
0.00035436521
0.00034706018
0.00030135298
0.00026230111
0.00026146156
0.00028627508
0.00031029844
0.00032538586
0.00031042019
0.00025375474
0.00018364881
0.00013587256
0.00010893581
6.6885715e-05
1.3899123e-05
3.4605258e-07
1.9720775e-09
4.8543952e-12
0.00029800959
0.00035201631
0.00038828694
0.00037866552
0.00034514297
0.00031531132
0.00027903951
0.00019217116
5.4030932e-05
3.0223198e-07
1.103163e-10
3.1693464e-15
5.8081266e-21
1.9324125e-27
1.4430623e-30
5.8308876e-32
1.8555476e-33
4.2153316e-35
6.8304164e-37
7.840386e-39
6.3194742e-41
3.5386205e-43
1.3617039e-45
3.562353e-48
6.2632526e-51
7.3081415e-54
5.5738008e-57
2.7255966e-60
8.3476502e-64
1.5525581e-67
1.6756308e-71
5.9112316e-83
2.4654671e-96
5.1169005e-112
2.1903047e-130
2.4868712e-151
5.4147498e-174
2.4144408e-197
1.305568e-221
0.00030457796
0.00028947626
0.00032504632
0.00036060978
0.00034424391
0.00029114645
0.00024564266
0.00024103877
0.0002671742
0.0002943211
0.0003081622
0.00028574763
0.00021790369
0.00013834179
8.2372608e-05
4.6267782e-05
1.246262e-05
4.9463775e-07
2.4766264e-09
3.4137571e-12
2.3987488e-15
0.00035422757
0.00038921955
0.0003767608
0.00034019922
0.00031468708
0.00029367123
0.00023448896
0.00010911391
5.4335767e-06
2.7970586e-09
3.3948764e-13
3.5882551e-18
4.1509492e-24
2.2426528e-28
6.979783e-30
2.6419221e-31
7.1577671e-33
1.4122233e-34
2.0250139e-36
2.0740301e-38
1.5018005e-40
7.60547e-43
2.6663447e-45
6.4061912e-48
1.0434567e-50
1.1381212e-53
8.187632e-57
3.8106699e-60
1.1209097e-63
2.0144524e-67
2.2266272e-78
3.3406127e-91
2.8845564e-106
5.6158739e-124
2.5826131e-144
1.4845285e-166
1.1105333e-189
4.489286e-213
1.3244679e-237
0.00035208589
0.00030872815
0.00030073714
0.00033657475
0.00036401792
0.00033904701
0.00027868312
0.00022665235
0.00021772559
0.00024423227
0.00027369612
0.0002854867
0.00025259938
0.00017033698
8.2355926e-05
2.6995278e-05
6.0566662e-06
4.3540072e-07
3.8330845e-09
4.2754093e-12
1.4331e-15
3.1583469e-19
0.00038402271
0.00036901422
0.00032989351
0.00030834448
0.00030062416
0.0002654738
0.00016196054
3.0661941e-05
1.191235e-07
1.2282904e-11
6.0844336e-16
4.4212691e-21
1.0388699e-25
8.5245301e-28
3.1717509e-29
9.8709742e-31
2.2404336e-32
3.8031191e-34
4.8393017e-36
4.4359524e-38
2.89487e-40
1.3310434e-42
4.2712101e-45
9.4765403e-48
1.4389976e-50
1.4775401e-53
1.010426e-56
4.5136475e-60
1.2855903e-63
4.2107246e-74
2.1279979e-86
7.0825676e-101
5.7869146e-118
1.019996e-137
1.6486561e-159
1.8477283e-182
1.2257226e-205
4.1100611e-229
9.7638e-254
0.00037239995
0.00034571023
0.00031155115
0.0003110934
0.00034564973
0.00036451391
0.00033115529
0.00026358711
0.00020490817
0.00019120829
0.00021698115
0.00024753307
0.00025490762
0.00020482641
0.00011003925
2.5532511e-05
2.2738842e-06
1.6319194e-07
3.4424046e-09
7.1548737e-12
1.7699088e-15
1.5725416e-19
1.2059748e-23
0.00035522386
0.00031487729
0.00029752695
0.0003020612
0.00028828082
0.00020937537
7.6581765e-05
1.8129775e-06
1.1235164e-09
4.3539617e-14
3.9618567e-18
6.9002189e-22
6.704611e-25
5.0884925e-27
1.2168795e-28
2.9364861e-30
5.5309722e-32
8.1947671e-34
9.3024748e-36
7.6596525e-38
4.5226853e-40
1.8967264e-42
5.6012102e-45
1.1548183e-47
1.6463173e-50
1.6036764e-53
1.0513191e-56
4.5489825e-60
4.2049055e-70
6.7772073e-82
8.1857015e-96
2.6451158e-112
1.713563e-131
7.9681338e-153
1.6041752e-175
1.0563325e-198
8.4142348e-222
3.0083287e-245
6.6587687e-270
0.00033553224
0.00035494796
0.00033675291
0.00031373169
0.00032007621
0.00035189055
0.00036203183
0.0003202289
0.00024541776
0.00017999809
0.00016126504
0.00018468616
0.00021624636
0.00021026602
0.0001417454
4.2384967e-05
1.8516106e-06
4.3165157e-08
1.1142966e-09
6.6185679e-12
3.1612027e-15
1.7852192e-19
5.0958386e-24
1.4745471e-28
0.00029599322
0.00028338997
0.00029980042
0.00030565767
0.00025114471
0.00012730637
1.2880543e-05
3.2709013e-08
9.7574882e-12
5.0542986e-15
1.6735291e-17
2.688394e-20
2.099352e-23
3.5487543e-26
3.5917019e-28
6.6044518e-30
1.0636209e-31
1.4140052e-33
1.4373773e-35
1.0672302e-37
5.727009e-40
2.2022099e-42
6.0217501e-45
1.1618176e-47
1.5671144e-50
1.4604967e-53
9.2619201e-57
2.3114635e-66
1.1330232e-77
4.7244171e-91
5.7681481e-107
1.3346014e-125
1.7748655e-146
7.5064067e-169
5.2635775e-192
4.2718575e-215
5.552244e-238
2.1195399e-261
4.123694e-286
0.00027392856
0.00031097631
0.00033419818
0.00032681811
0.00031513834
0.00032708471
0.00035496794
0.00035607902
0.000306016
0.0002235183
0.00015167216
0.00012795772
0.00015153858
0.00017390221
0.00014872603
6.7595775e-05
3.9762609e-06
2.7792893e-08
2.1419538e-10
1.9111682e-12
2.9832084e-15
3.2644839e-19
4.9722503e-24
5.3565134e-29
6.0640271e-34
0.00026691673
0.00029521594
0.00031972918
0.00028869756
0.00017761029
4.4183288e-05
4.8939222e-07
6.315389e-10
3.3246335e-12
1.2832915e-13
1.0968616e-15
2.089386e-18
8.0187336e-22
1.7964501e-25
7.4210306e-28
1.1213404e-29
1.6108877e-31
1.9529687e-33
1.7845615e-35
1.1998943e-37
5.8814657e-40
2.0860231e-42
5.3182901e-45
9.6772247e-48
1.2456111e-50
1.1209231e-53
7.2448468e-63
1.0345346e-73
1.4262955e-86
6.341652e-102
5.1485661e-120
1.9354331e-140
1.8441125e-162
1.8006082e-185
1.0810589e-208
2.1254682e-231
3.8761683e-254
1.3736535e-277
2.3077733e-302
0.00024899797