/*--------------------------------*- C++ -*----------------------------------*\
| =========                 |                                                 |
| \\      /  F ield         | OpenFOAM: The Open Source CFD Toolbox           |
|  \\    /   O peration     | Version:  5.0                                   |
|   \\  /    A nd           | Web:      www.OpenFOAM.org                      |
|    \\/     M anipulation  |                                                 |
\*---------------------------------------------------------------------------*/
FoamFile
{
    version     2.0;
    format      ascii;
    class       volScalarField;
    location    "200";
    object      nuTilda;
}
// * * * * * * * * * * * * * * * * * * * * * * * * * * * * * * * * * * * * * //

dimensions      [0 2 -1 0 0 0 0];

internalField   nonuniform List<scalar> 
9520
(
4.8431926e-33
5.1405112e-31
4.6812413e-33
2.6697232e-29
4.9702066e-31
4.522786e-33
9.0106725e-28
2.5817483e-29
4.8032924e-31
4.3780606e-33
2.2248368e-26
8.7153326e-28
2.4955413e-29
4.6520432e-31
4.2554981e-33
4.295215e-25
2.1523082e-26
8.426524e-28
2.4180771e-29
4.5263397e-31
4.1564099e-33
6.776732e-24
4.1557534e-25
2.0816622e-26
8.1690332e-28
2.3547124e-29
4.4265996e-31
4.0733793e-33
9.0028523e-23
6.5577016e-24
4.0206145e-25
2.0191368e-26
7.9608093e-28
2.3049741e-29
4.3417584e-31
3.9920433e-33
1.0260539e-21
8.7147597e-23
6.3466651e-24
3.9018836e-25
1.9689078e-26
7.7976743e-28
2.2614831e-29
4.2531093e-31
3.8951256e-33
1.0178477e-20
9.9376213e-22
8.4386455e-23
6.1626035e-24
3.8067651e-25
1.929259e-26
7.6497561e-28
2.2130452e-29
4.141423e-31
3.7702854e-33
8.9087264e-20
9.865767e-21
9.6291357e-22
8.1993917e-23
6.0151183e-24
3.7304665e-25
1.8917531e-26
7.4756053e-28
2.1497089e-29
3.9969791e-31
3.6185908e-33
7.0870651e-19
8.6396619e-20
9.5669748e-21
9.3625457e-22
8.0072575e-23
5.8940938e-24
3.6548449e-25
1.845622e-26
7.2431023e-28
2.0686452e-29
3.8276113e-31
3.4593205e-33
6.0803871e-18
6.8427873e-19
8.3822666e-20
9.3071177e-21
9.1474756e-22
7.8455001e-23
5.7681499e-24
3.5587308e-25
1.7836434e-26
6.9510143e-28
1.977464e-29
3.6606979e-31
3.3264982e-33
1.0290453e-16
5.6557965e-18
6.613064e-19
8.1530545e-20
9.095943e-21
8.9620843e-22
7.6689976e-23
5.604061e-24
3.4302556e-25
1.7076688e-26
6.6367046e-28
1.8934305e-29
3.5355536e-31
3.256245e-33
3.5804169e-15
8.86733e-17
5.2647861e-18
6.4005564e-19
7.965401e-20
8.9114472e-21
8.7514347e-22
7.4342119e-23
5.3873641e-24
3.2774457e-25
1.6295628e-26
6.3667905e-28
1.8376678e-29
3.4873123e-31
3.2693866e-33
1.2973802e-13
3.1080675e-15
7.3492434e-17
4.8810767e-18
6.2296851e-19
7.8040996e-20
8.6957474e-21
8.4657573e-22
7.128345e-23
5.1383761e-24
3.1277291e-25
1.5672707e-26
6.2118791e-28
1.8258236e-29
3.528692e-31
3.3577926e-33
3.8566837e-12
1.1754813e-13
2.4432824e-15
5.6824589e-17
4.587005e-18
6.0957545e-19
7.6136312e-20
8.3963625e-21
8.0977497e-22
6.7892988e-23
4.906862e-24
3.0173772e-25
1.5373369e-26
6.2133098e-28
1.8591615e-29
3.638856e-31
3.4820904e-33
8.9090782e-11
3.6302517e-12
9.280719e-14
1.6373006e-15
4.4213496e-17
4.4050864e-18
5.945884e-19
7.3402694e-20
8.0123746e-21
7.7038309e-22
6.4913046e-23
4.7507474e-24
2.9752005e-25
1.5466169e-26
6.3566e-28
1.9207748e-29
3.7660548e-31
3.5827763e-33
1.5612374e-09
8.6329717e-11
2.8899966e-12
6.0514445e-14
1.0414209e-15
3.7707888e-17
4.2652092e-18
5.7233451e-19
6.987028e-20
7.6144509e-21
7.3776461e-22
6.310245e-23
4.7083661e-24
3.0071621e-25
1.5869395e-26
6.5661306e-28
1.9796061e-29
3.8438463e-31
3.600195e-33
2.0239708e-08
1.5430626e-09
6.9255823e-11
1.8790345e-12
3.774005e-14
7.7994731e-16
3.4888602e-17
4.081195e-18
5.4297354e-19
6.6308465e-20
7.3054338e-21
7.2023907e-22
6.2852375e-23
4.7764054e-24
3.0889962e-25
1.6357716e-26
6.727012e-28
2.0009719e-29
3.8141539e-31
3.4953628e-33
1.9035027e-07
2.0255448e-08
1.2468914e-09
4.5267131e-11
1.2179457e-12
3.0191057e-14
7.1829243e-16
3.2325799e-17
3.8350295e-18
5.1400465e-19
6.3728535e-20
7.1630109e-21
7.2068648e-22
6.3938504e-23
4.9037258e-24
3.1713837e-25
1.6634549e-26
6.726275e-28
1.9590196e-29
3.6480845e-31
3.2641613e-33
1.2693569e-06
1.9109254e-07
1.662979e-08
8.2864396e-10
3.1037933e-11
1.099553e-12
3.1118577e-14
6.5161529e-16
2.8418738e-17
3.5970216e-18
4.9455139e-19
6.2760865e-20
7.1978667e-21
7.3443328e-22
6.5520081e-23
5.0057807e-24
3.1969888e-25
1.6442677e-26
6.4951495e-28
1.8462203e-29
3.3573066e-31
2.9405712e-33
5.9923495e-06
1.2717712e-06
1.5952449e-07
1.1519871e-08
6.0827714e-10
3.146849e-11
1.2606401e-12
2.9617036e-14
4.7235706e-16
2.4590827e-17
3.4499064e-18
4.8914295e-19
6.3322331e-20
7.3417526e-21
7.5024517e-22
6.641427e-23
4.995546e-24
3.1225753e-25
1.5664646e-26
6.0351743e-28
1.6769105e-29
2.9927987e-31
2.5886196e-33
2.010905e-05
5.9819819e-06
1.0863792e-06
1.1649063e-07
9.2236529e-09
6.7632955e-10
3.8916611e-11
1.2479002e-12
1.9928354e-14
2.8194498e-16
2.2406678e-17
3.4221607e-18
4.9557853e-19
6.4610905e-20
7.468277e-21
7.5435802e-22
6.5549988e-23
4.8182036e-24
2.9366042e-25
1.4370347e-26
5.4213896e-28
1.4842195e-29
2.6321499e-31
2.2862701e-33
4.9666895e-05
1.9993748e-05
5.2164401e-06
8.3973231e-07
1.0044345e-07
1.0607852e-08
8.7211109e-10
3.9340807e-11
8.2727809e-13
9.1786788e-15
1.7709229e-16
2.1855756e-17
3.4824904e-18
5.0580493e-19
6.5393879e-20
7.4417639e-21
7.3597832e-22
6.240913e-23
4.4746271e-24
2.6647455e-25
1.2803371e-26
4.7840494e-28
1.3117206e-29
2.3600233e-31
2.1065013e-33
9.5425263e-05
4.9346152e-05
1.7804555e-05
4.2443313e-06
7.6433242e-07
1.1722427e-07
1.3795267e-08
8.874543e-10
2.5833804e-11
3.5602139e-13
3.4817903e-15
1.4106364e-16
2.2226458e-17
3.5570991e-18
5.0911076e-19
6.4519814e-20
7.1735907e-21
6.9187282e-22
5.7266182e-23
4.0236403e-24
2.3632715e-25
1.131875e-26
4.2755963e-28
1.2025279e-29
2.2477758e-31
2.1007333e-33
0.00015128527
9.4928338e-05
4.4820733e-05
1.5160606e-05
4.0297253e-06
8.9502711e-07
1.50831e-07
1.3995824e-08
5.8016416e-10
1.0790671e-11
1.165513e-13
1.552337e-15
1.347598e-16
2.2710865e-17
3.5601736e-18
4.9693917e-19
6.1416215e-20
6.6608962e-21
6.2811328e-22
5.1127748e-23
3.5656555e-24
2.104372e-25
1.0292532e-26
4.0327698e-28
1.1889235e-29
2.3373204e-31
2.2880121e-33
0.0002046715
0.00015042282
8.7655567e-05
3.9466064e-05
1.4835125e-05
4.710674e-06
1.1278662e-06
1.5168489e-07
9.1746904e-09
2.4200902e-10
3.4187046e-12
4.122827e-14
1.1009423e-15
1.361433e-16
2.2598748e-17
3.4348495e-18
4.6675705e-19
5.6340728e-20
5.9922357e-21
5.583559e-22
4.544397e-23
3.216189e-24
1.9577489e-25
1.0028264e-26
4.1436706e-28
1.2849275e-29
2.632095e-31
2.6512225e-33
0.00024874652
0.00020222135
0.00013979718
7.8788211e-05
3.9315574e-05
1.7232311e-05
5.7724926e-06
1.1222558e-06
1.0051276e-07
3.9377525e-09
8.1802421e-11
1.3086573e-12
2.7565265e-14
1.0866021e-15
1.3430784e-16
2.1523352e-17
3.1798883e-18
4.2303746e-19
5.0306548e-20
5.3204541e-21
4.9989585e-22
4.1725172e-23
3.0763662e-24
1.9731699e-25
1.0682941e-26
4.6267154e-28
1.483012e-29
3.0959001e-31
3.1400246e-33
0.00028584368
0.00024513152
0.00018880845
0.00012704873
7.89094e-05
4.5196561e-05
2.0497275e-05
5.6718142e-06
7.5739242e-07
4.5510994e-08
1.4896464e-09
3.6960427e-11
1.1629094e-12
3.2352233e-14
1.0706857e-15
1.2520588e-16
1.9602505e-17
2.846499e-18
3.7547883e-19
4.4760739e-20
4.8188652e-21
4.6911652e-22
4.1156269e-23
3.2072369e-24
2.1679371e-25
1.2226596e-26
5.4245877e-28
1.7551244e-29
3.6590197e-31
3.6794606e-33
0.00031729138
0.00028093093
0.0002299073
0.00017421744
0.00012730837
8.9574327e-05
5.2251659e-05
1.9907097e-05
3.9221326e-06
3.6654496e-07
1.9380495e-08
8.0727033e-10
4.1057094e-11
1.6263341e-12
3.4213751e-14
8.8798101e-16
1.1097073e-16
1.7312164e-17
2.5149522e-18
3.3587896e-19
4.1180018e-20
4.6362961e-21
4.7729886e-22
4.4288965e-23
3.6134893e-24
2.5215398e-25
1.4441021e-26
6.4133992e-28
2.0575999e-29
4.2303343e-31
4.1828767e-33
0.00034371895
0.00031102996
0.00026432062
0.00021439387
0.00017556995
0.00014273619
0.00010108282
5.0355067e-05
1.4198045e-05
2.0471202e-06
1.7709502e-07
1.2686337e-08
1.0263992e-09
6.2175558e-11
1.8023116e-12
2.3328427e-14
6.5657216e-16
9.6095126e-17
1.5240499e-17
2.2689117e-18
3.150111e-19
4.0699067e-20
4.8588673e-21
5.2757115e-22
5.0876412e-23
4.2395635e-24
2.9782932e-25
1.6957444e-26
7.4253354e-28
2.3390548e-29
4.7137087e-31
4.5672668e-33
0.00036428462
0.00033580215
0.00029385082
0.00024824755
0.00021676795
0.00019476496
0.00015863159
9.7344181e-05
3.7251109e-05
8.04706e-06
1.130337e-06
1.3787867e-07
1.7433655e-08
1.6054514e-09
7.0145411e-11
1.1980109e-12
1.0002769e-14
5.0609659e-16
8.4223633e-17
1.3906313e-17
2.1756467e-18
3.2006239e-19
4.3816798e-20
5.4849351e-21
6.1364757e-22
5.9883727e-23
4.9789648e-24
3.4576548e-25
1.9326747e-26
8.2804615e-28
2.5499783e-29
5.0258336e-31
4.7682698e-33
0.00037933044
0.00035506785
0.0003180994
0.0002779224
0.00025092429
0.00023761497
0.00021277556
0.00015280498
7.4866025e-05
2.2959212e-05
5.0855347e-06
1.0236168e-06
1.9801686e-07
2.7375079e-08
1.8202155e-09
4.6961658e-11
4.4107273e-13
3.7905402e-15
4.2961346e-16
7.7893524e-17
1.3663384e-17
2.2716522e-18
3.5274741e-19
5.0227281e-20
6.4192465e-21
7.2068907e-22
6.9678455e-23
5.6952398e-24
3.870332e-25
2.1108304e-26
8.8217236e-28
2.6523311e-29
5.1117582e-31
4.7515726e-33
0.00038954228
0.00036910147
0.00033736413
0.00030285345
0.0002804639
0.00027166535
0.0002550056
0.00020399659
0.00012127041
4.9866684e-05
1.6433534e-05
5.1988816e-06
1.4988684e-06
3.0615259e-07
3.0927004e-08
1.2330398e-09
1.7335198e-11
9.9300407e-14
2.2099945e-15
4.016628e-16
7.8531453e-17
1.4642778e-17
2.5528292e-18
4.0841976e-19
5.8829966e-20
7.4890694e-21
8.2823293e-22
7.8366502e-23
6.2500818e-24
4.1368887e-25
2.1959731e-26
8.9461522e-28
2.6267305e-29
4.954457e-31
4.5179381e-33
0.00039515262
0.00037865287
0.00035186337
0.00032320462
0.00030535987
0.00029991651
0.000287351
0.00024407064
0.00016647648
8.6319893e-05
3.9437162e-05
1.8302344e-05
7.6116196e-06
2.2486988e-06
3.4245917e-07
2.1265983e-08
4.6883979e-10
3.8382095e-12
2.2608665e-14
1.9450357e-15
4.1561993e-16
8.6239105e-17
1.6713959e-17
2.9712067e-18
4.7664092e-19
6.7937821e-20
8.4801679e-21
9.1447585e-22
8.4145839e-23
6.5280809e-24
4.2027044e-25
2.1706239e-26
8.6239592e-28
2.4754145e-29
4.5759956e-31
4.1004862e-33
0.00039693975
0.00038418511
0.00036234543
0.0003392368
0.00032574956
0.00032306594
0.0003130075
0.00027494887
0.00020455165
0.00012568947
7.3508607e-05
4.6130802e-05
2.6377979e-05
1.0959254e-05
2.4766676e-06
2.3978766e-07
8.4527758e-09
1.1288269e-10
7.2000174e-13
1.0514611e-14
2.0416238e-15
4.6688612e-16
9.9642859e-17
1.9478568e-17
3.442346e-18
5.4331351e-19
7.5647639e-20
9.1791468e-21
9.6018607e-22
8.5733837e-23
6.4654188e-24
4.0488707e-25
2.036536e-26
7.9003955e-28
2.2202862e-29
4.0296205e-31
3.5553174e-33
0.00039621458
0.00038668381
0.0003693037
0.0003516393
0.00034192107
0.00034159635
0.00033342497
0.00029991509
0.00023525471
0.00016221119
0.00011273024
8.7861993e-05
6.4704603e-05
3.6201255e-05
1.1837e-05
1.7706429e-06
1.0080802e-07
2.255796e-09
2.3302805e-11
1.4621466e-13
9.5988853e-15
2.3403455e-15
5.447662e-16
1.1591674e-16
2.2339205e-17
3.8640316e-18
5.9394021e-19
8.0209757e-20
9.4219823e-21
9.5450729e-22
8.2679099e-23
6.0636098e-24
3.6966361e-25
1.8133972e-26
6.8803243e-28
1.8965948e-29
3.3863978e-31
2.9484573e-33
0.00039354038
0.00038726675
0.00037373815
0.00036077763
0.00035467872
0.0003558992
0.000349209
0.00031979162
0.00026247452
0.00019320711
0.0001505501
0.00013531134
0.00011927347
8.4549618e-05
3.8302008e-05
8.6681544e-06
7.9472412e-07
2.9918343e-08
5.2156038e-10
4.3955611e-12
5.7496895e-14
1.1026625e-14
2.7552265e-15
6.3125332e-16
1.3129899e-16
2.4644145e-17
4.1412433e-18
6.1650366e-19
8.0459881e-20
9.139115e-21
8.9660005e-22
7.5397019e-23
5.3832161e-24
3.1989362e-25
1.5332083e-26
5.7007136e-28
1.5446283e-29
2.719724e-31
2.3428354e-33
0.00038915988
0.00038656424
0.000377324
0.00036738429
0.0003641814
0.00036682943
0.00036082988
0.00033534469
0.00028520571
0.00022182252
0.00018363233
0.00017926223
0.00017785322
0.00014869693
8.782438e-05
2.8849212e-05
4.1840793e-06
2.6176494e-07
7.6901339e-09
1.0888426e-10
9.7563472e-13
5.5388079e-14
1.3125606e-14
3.1772751e-15
7.0479448e-16
1.4210758e-16
2.5856013e-17
4.2061119e-18
6.0419823e-19
7.6145816e-20
8.3643406e-21
7.9528422e-22
6.501194e-23
4.5253808e-24
2.62565e-25
1.232208e-26
4.5000358e-28
1.2015764e-29
2.0922519e-31
1.7885774e-33
0.00038567462
0.00038805666
0.00038045316
0.00037263222
0.00037085292
0.00037441393
0.00036895541
0.00034685286
0.00030410084
0.00024709817
0.00021187673
0.00021575809
0.0002280753
0.00021257559
0.00015184723
6.8274995e-05
1.5044461e-05
1.5225504e-06
7.4316067e-08
1.8185561e-09
2.7388776e-11
7.2326062e-13
7.0876284e-14
1.5110261e-14
3.4908332e-15
7.468547e-16
1.457516e-16
2.5678284e-17
4.0265e-18
5.5783911e-19
6.7907574e-20
7.2198249e-21
6.6618832e-22
5.3035425e-23
3.6057052e-24
2.0471615e-25
9.432864e-27
3.3932513e-28
8.9582476e-30
1.5481361e-31
1.3183305e-33
0.00038304707
0.00038843476
0.00038999058
0.00037650956
0.00037559052
0.00037913064
0.0003738102
0.00035493845
0.00031948016
0.00026902164
0.00023673237
0.00024446169
0.00026587098
0.00026429898
0.00021373647
0.00012176602
3.8511061e-05
6.0073626e-06
4.7663333e-07
2.0323418e-08
6.2097036e-10
2.6816188e-11
1.3382244e-12
8.7845451e-14
1.6300312e-14
3.6122721e-15
7.4729695e-16
1.4131309e-16
2.4006772e-17
3.6265818e-18
4.8477399e-19
5.7055137e-20
5.8794082e-21
5.2750695e-22
4.0996836e-23
2.7291398e-24
1.5210859e-25
6.9073448e-27
2.4579318e-28
6.4463714e-30
1.1112896e-31
9.4752341e-34
0.00037893724
0.00038773504
0.00039009781
0.00039042976
0.00037821429
0.00038158609
0.00037601423
0.00036003988
0.00033180008
0.00028788298
0.00025828837
0.00026727727
0.00029318613
0.00029908146
0.00026164193
0.00017549046
7.4022529e-05
1.6801092e-05
2.0850202e-06
1.5648828e-07
1.0035392e-08
8.275152e-10
5.8529795e-11
2.1342186e-12
9.205685e-14
1.6346269e-14
3.5153341e-15
7.0611572e-16
1.2899479e-16
2.1092248e-17
3.0713247e-18
3.9654381e-19
4.5194179e-20
4.5238118e-21
3.9584312e-22
3.0144089e-23
1.9730153e-24
1.0853147e-25
4.8872718e-27
1.7327363e-28
4.5497751e-30
7.8857317e-32
6.7819476e-34
0.00037857624
0.00038123994
0.00039071201
0.00038982752
0.00038948705
0.00038177609
0.00037601903
0.00036284015
0.00034147069
0.00030404797
0.00027684577
0.0002863113
0.00031268129
0.00032144763
0.00029311123
0.00021910862
0.00011416597
3.5226297e-05
6.5694252e-06
8.6588409e-07
1.1292293e-07
1.6401071e-08
1.8303412e-09
9.7661879e-11
2.1951121e-12
8.0407275e-14
1.5350859e-14
3.2281307e-15
6.2889957e-16
1.1054673e-16
1.7410504e-17
2.4468756e-18
3.0573755e-19
3.3836654e-20
3.3028811e-21
2.8339026e-22
2.1289583e-23
1.3813947e-24
7.5779814e-26
3.4240637e-27
1.2254292e-28
3.2641396e-30
5.7571366e-32
5.0438305e-34
0.00037971413
0.00037649079
0.00038390477
0.00039145005
0.0003878698
0.00038631195
0.00037422036
0.00036400605
0.00034912527
0.00031774364
0.00029273939
0.00030203393
0.0003280628
0.00033747805
0.00031379375
0.00025090214
0.000151328
5.9392725e-05
1.5859136e-05
3.5958818e-06
8.7216897e-07
2.0540416e-07
3.5276448e-08
2.9979546e-09
1.0095271e-10
1.3370852e-12
6.5560294e-14
1.3625032e-14
2.8006343e-15
5.2561756e-16
8.8955892e-17
1.3517067e-17
1.8382979e-18
2.2316678e-19
2.4122081e-20
2.3152568e-21
1.9702572e-22
1.4812638e-23
9.6958657e-25
5.4141338e-26
2.5083477e-27
9.2558897e-29
2.5474878e-30
4.6363946e-32
4.1733769e-34
0.00037100985
0.00037489427
0.00037557347
0.00038541549
0.00039004636
0.00038365504
0.00037938026
0.00036425919
0.00035551874
0.00032933536
0.00030624839
0.00031499575
0.00033968003
0.00034889506
0.0003287172
0.00027619596
0.00018239538
8.5920304e-05
3.1158035e-05
1.1385895e-05
4.6036563e-06
1.6438689e-06
4.2077105e-07
5.5982302e-08
3.0988274e-09
5.9298272e-11
5.3568077e-13
5.3943415e-14
1.1476218e-14
2.2817562e-15
4.1242442e-16
6.7361478e-17
9.9130869e-18
1.3123973e-18
1.5621279e-19
1.6714797e-20
1.6078016e-21
1.3911638e-22
1.0776106e-23
7.3472999e-25
4.310144e-26
2.1047522e-27
8.1728019e-29
2.3522921e-30
4.4360745e-32
4.0941136e-34
0.00036452909
0.00036643096
0.00037015224
0.00037454379
0.00038507082
0.00038627579
0.00037569056
0.00036805311
0.00036056574
0.00033956578
0.00031770597
0.00032542686
0.00034854787
0.00035609698
0.00033861996
0.00029565459
0.00021545029
0.00011186406
5.1783242e-05
2.7682529e-05
1.6687621e-05
8.5706423e-06
3.1601072e-06
6.4199283e-07
5.7557371e-08
1.8831056e-09
1.8886791e-11
2.3620478e-13
4.3684481e-14
9.1022507e-15
1.7462972e-15
3.0501905e-16
4.8361073e-17
6.9583657e-18
9.1023967e-19
1.0861792e-19
1.1866976e-20
1.1898086e-21
1.0931784e-22
9.0899158e-24
6.6762861e-25
4.2026544e-26
2.1807321e-27
8.8838148e-29
2.6467453e-30
5.1026087e-32
4.7615876e-34
0.00036608193
0.0003633253
0.00036086585
0.00036483632
0.00037267427
0.00038240322
0.00037895707
0.00036357131
0.00035210237
0.00034856383
0.00032739121
0.00033363935
0.00035465106
0.00036031855
0.00034410304
0.00030988514
0.00024292248
0.00014331125
7.5606659e-05
5.2605265e-05
4.2748447e-05
2.9819352e-05
1.5288902e-05
4.6019971e-06
6.5421566e-07
3.6239215e-08
6.4491298e-10
3.5148929e-12
1.5915886e-13
3.361438e-14
6.796334e-15
1.2639002e-15
2.1532489e-16
3.3654776e-17
4.8504263e-18
6.4951768e-19
8.1417507e-20
9.5820144e-21
1.0533194e-21
1.0652071e-22
9.6588814e-24
7.6199118e-25
5.0589009e-26
2.7232659e-27
1.1351109e-28
3.4230375e-30
6.6250424e-32
6.1671399e-34
0.00035674076
0.00036895083
0.00036049248
0.00035447888
0.00035864901
0.00036894423
0.00037667624
0.00036757198
0.00034718548
0.00033078963
0.00033548787
0.00033996523
0.00035849846
0.0003616354
0.00034609904
0.0003195113
0.00026593808
0.00017357894
0.00010091732
8.2836968e-05
8.1382279e-05
7.2152475e-05
4.900672e-05
2.1107223e-05
4.636696e-06
4.2653315e-07
1.358144e-08
1.236681e-10
8.438049e-13
1.1620812e-13
2.4476921e-14
4.8279266e-15
8.8324723e-16
1.5042679e-16
2.406957e-17
3.6600048e-18
5.3331795e-19
7.4380689e-20
9.7955069e-21
1.1911812e-21
1.3028362e-22
1.247377e-23
1.0187007e-24
6.8927391e-26
3.7419393e-27
1.5617931e-28
4.6938682e-30
9.0255437e-32
8.3279657e-34
0.00034228023
0.00036302548
0.00036961809
0.00035582923
0.00034661249
0.00035092772
0.00036264634
0.00036718617
0.00035206565
0.00032578743
0.00030408437
0.00034438325
0.00036029624
0.00036071386
0.00034528758
0.00032542127
0.00028473002
0.00020184473
0.00012735307
0.00010949047
0.00012514471
0.00012923093
0.00010904577
6.3884796e-05
2.1005801e-05
3.1357777e-06
1.7476388e-07
3.0433974e-09
1.8831018e-11
4.0793206e-13
8.2245932e-14
1.713526e-14
3.3727562e-15
6.3043483e-16
1.1336768e-16
1.9852944e-17
3.3946977e-18
5.603815e-19
8.7311639e-20
1.2506425e-20
1.6073343e-21
1.8141199e-22
1.7630535e-23
1.4455521e-24
9.7530537e-26
5.260256e-27
2.1768325e-28
6.4803294e-30
1.2337178e-31
1.1268266e-33
0.00034707283
0.00034758221
0.00036733087
0.00036811731
0.00034911646
0.000337056
0.00034109828
0.00035317868
0.0003536682
0.00033165476
0.00029929381
0.00027215461
0.0003600371
0.00035762367
0.00034228939
0.00032858238
0.00029968295
0.00022774137
0.00015340149
0.00013481
0.00016182041
0.000186975
0.00018080663
0.00013446489
6.2985259e-05
1.4791674e-05
1.4069522e-06
4.5671072e-08
5.2856089e-10
3.2382115e-12
2.6265341e-13
5.701289e-14
1.2128393e-14
2.5156185e-15
5.1547908e-16
1.0499514e-16
2.1050613e-17
4.0590275e-18
7.3261234e-19
1.2076429e-19
1.7822392e-20
2.3173062e-21
2.6164026e-22
2.5281494e-23
2.0523995e-24
1.3691271e-25
7.2988678e-27
2.9863528e-28
8.7949308e-30
1.6575484e-31
1.4996578e-33
0.0003576978
0.00034807077
0.00035176701
0.00036964352
0.00036443335
0.00034048012
0.00032536358
0.00032894759
0.00034011559
0.00033543981
0.00030613569
0.00026797439
0.00023591045
0.00035251002
0.00033744842
0.0003298891
0.00031146708
0.00025102178
0.00017835212
0.00015853899
0.00018997415
0.00023413549
0.00024402701
0.00021188661
0.00013216404
4.6488658e-05
7.2955313e-06
4.2656194e-07
9.4141611e-09
8.0552431e-11
9.9672642e-13
1.798233e-13
4.1575071e-14
9.6922554e-15
2.287059e-15
5.4183616e-16
1.2583025e-16
2.7793695e-17
5.687515e-18
1.057416e-18
1.7599625e-19
2.591426e-20
3.3397899e-21
3.7259272e-22
3.5527694e-23
2.843789e-24
1.8717759e-25
9.8553917e-27
3.9871181e-28
1.1623927e-29
2.1710213e-31
1.17645e-35
0.00034537086
0.00035304286
0.00034740634
0.00035495638
0.00036989491
0.00035866659
0.00032954221
0.00031115044
0.00031408217
0.00032272457
0.00031216662
0.000275814
0.0002322317
0.00019308953
0.00033112182
0.00032991634
0.00032104587
0.00027158981
0.00020198112
0.00018041986
0.0002141774
0.00026385544
0.00029094511
0.00027279075
0.00020803936
0.00010292633
2.5301646e-05
2.5588156e-06
1.0336889e-07
1.6566203e-09
1.1981242e-11
5.6084672e-13
1.3745983e-13
3.6407904e-14
9.9174475e-15
2.7046188e-15
7.1406803e-16
1.7713656e-16
4.0387428e-17
8.3406579e-18
1.5444533e-18
2.5422955e-19
3.6899358e-20
4.6822015e-21
5.1435181e-22
4.8304996e-23
3.8109714e-24
2.4758483e-25
1.2885774e-26
5.160427e-28
1.4912849e-29
1.8898185e-33
4.2031917e-38
0.00032383166
0.00033616412
0.00034596997
0.00034555908
0.00035672466
0.0003679685
0.00035051411
0.00031589828
0.00029411213
0.00029546713
0.00030069242
0.00028382341
0.00024017113
0.00018973534
0.0001425461
0.00032908646
0.00032933885
0.00028978379
0.00022423568
0.00020068564
0.00023477442
0.00028840321
0.00032025408
0.00031315219
0.00026667147
0.00017143289
6.1959875e-05
1.0215548e-05
7.2195126e-07
2.1171311e-08
2.5255552e-10
2.6286848e-12
4.4367337e-13
1.3376342e-13
4.1772895e-14
1.2896263e-14
3.7978895e-15
1.0403879e-15
2.6079334e-16
5.917629e-17
1.2066568e-17
2.1980495e-18
3.5546541e-19
5.0689479e-20
6.3244284e-21
6.840057e-22
6.3279388e-23
4.9254473e-24
3.1623257e-25
1.6292003e-26
6.4684851e-28
1.4472912e-31
7.5693512e-36
6.2480583e-41
0.00032738438
0.00031536778
0.00032508053
0.00033741687
0.00034310043
0.00035666449
0.00036369165
0.00033957748
0.00029933824
0.00027371504
0.00027261887
0.000273574
0.00024924152
0.00019708413
0.00013926889
8.9674763e-05
0.00033714618
0.0003060486
0.00024512791
0.00021951679
0.00025276555
0.00030803225
0.00034322261
0.00033950616
0.00030234195
0.00023056556
0.00011446411
2.8601598e-05
3.3209459e-06
1.7029388e-07
3.6915741e-09
3.5953533e-11
1.4873092e-12
4.792426e-13
1.6924673e-13
5.810218e-14
1.8777648e-14
5.6067922e-15
1.5291108e-15
3.7802746e-16
8.4233956e-17
1.6841183e-17
3.0076993e-18
4.7722278e-19
6.6850087e-20
8.2056947e-21
8.744474e-22
7.9783742e-23
6.1359978e-24
3.8995469e-25
1.9920007e-26
7.01811e-30
6.5600367e-34
1.2460242e-38
3.7803208e-44
0.00034387197
0.00032434318
0.00030537386
0.000312617
0.00032889311
0.0003393327
0.00035440144
0.00035651234
0.00032576852
0.0002792381
0.00024937806
0.00024505519
0.00024053687
0.00020656971
0.00014491549
8.7815245e-05
4.6186441e-05
0.00032165844
0.00026462983
0.00023698345
0.00026852244
0.00032453739
0.00036042909
0.00035819241
0.00032601641
0.00027070062
0.00016981924
5.9800397e-05
1.0602928e-05
8.9280106e-07
3.3902342e-08
5.5696013e-10
7.7030959e-12
1.6692949e-12
6.5355773e-13
2.4558067e-13
8.5983564e-14
2.7703972e-14
8.1533861e-15
2.1802322e-15
5.2743789e-16
1.1498253e-16
2.2507003e-17
3.9398476e-18
6.1362783e-19
8.4519511e-20
1.0219476e-20
1.0742814e-21
9.6826024e-23
7.3706121e-24
4.6449052e-25
2.4199366e-28
3.6159169e-32
1.2239776e-36
7.8515424e-42
1.1488664e-47
0.00033602033
0.00034842248
0.0003196529
0.00029412884
0.00029900348
0.00031827044
0.00033370901
0.00034931296
0.00034640443
0.00030826992
0.00025516263
0.00022092708
0.00021288093
0.00019973471
0.00015367655
9.1852482e-05
4.5100818e-05
1.8490154e-05
0.00028281141
0.00025313422
0.00028204077
0.00033811898
0.00037412486
0.0003704695
0.00034043701
0.00029740017
0.00022124862
9.954522e-05
2.4958327e-05
3.2181532e-06
2.0092494e-07
5.7554097e-09
8.1696263e-11
5.8584737e-12
2.3904855e-12
9.7058042e-13
3.6448302e-13
1.2570679e-13
3.9651034e-14
1.1397043e-14
2.9750942e-15
7.0301665e-16
1.4987927e-16
2.8733371e-17
4.9341943e-18
7.5524408e-19
1.0242701e-19
1.2219034e-20
1.2688133e-21
1.1317855e-22
8.5435025e-24
6.3239301e-27
1.4204642e-30
7.7348139e-35
8.447009e-40
2.2336738e-45
2.3331452e-51
0.0002996105
0.00034808708
0.00035037959
0.00031334917
0.000281474
0.00028360471
0.0003056978
0.00032545085
0.00034096273
0.00033248139
0.0002865066
0.00022661677
0.00018851019
0.00017392596
0.00014923243
9.7799208e-05
4.7513557e-05
1.7856287e-05
5.4571553e-06
0.00026794269
0.00029329481
0.00034840278
0.00038442613
0.0003780277
0.00034730435
0.0003124674
0.00025860908
0.00015191233
4.6294597e-05
8.4636033e-06
8.1101269e-07
3.8295489e-08
8.630163e-10
2.5138934e-11
8.2880413e-12
3.5868185e-12
1.4328543e-12
5.2538811e-13
1.7652803e-13
5.4229633e-14
1.518977e-14
3.8681726e-15
8.9298304e-16
1.8631073e-16
3.5018418e-17
5.9069108e-18
8.8986766e-19
1.1902488e-19
1.4032291e-20
1.441811e-21
1.2753421e-22
1.3042091e-25
4.2338337e-29
3.5040048e-33
6.015932e-38
2.413059e-43
3.9438026e-49
3.6402234e-55
0.00028152307
0.00031487792
0.00035713253
0.00034999559
0.00030522564
0.000267259
0.00026634998
0.00029039248
0.00031384728
0.0003286456
0.00031402564
0.00025906386
0.00019293906
0.00015018313
0.00012746016
9.4745923e-05
5.115793e-05
1.8892525e-05
5.161602e-06
1.1464969e-06
0.00030200475
0.00035491173
0.00039063137
0.00038107913
0.0003480182
0.00031874765
0.00028333904
0.00020020425
8.3365609e-05
1.7356997e-05
2.3658655e-06
1.7203043e-07
6.3117676e-09
1.5668516e-10
2.7806933e-11
1.246492e-11
5.2468618e-12
2.0306955e-12
7.2259779e-13
2.3593653e-13
7.0529914e-14
1.9251457e-14
4.7850514e-15
1.0801232e-15
2.2079078e-16
4.0742536e-17
6.7612672e-18
1.0042332e-18
1.3271749e-19
1.5487898e-20
1.5779321e-21
2.1829349e-24
9.9630726e-28
1.2083064e-31
3.1203371e-36
1.8194933e-41
3.8701871e-47
5.3934745e-53
4.5205502e-59
0.00030839249
0.00029358077
0.00032828258
0.00036329195
0.00034723316
0.00029529171
0.00025124565
0.00024670313
0.00027184061
0.00029823201
0.00031177528
0.00028996956
0.00022489311
0.00015253183
0.00010659826
7.9097697e-05
4.9282749e-05
2.0659958e-05
5.4735395e-06
1.0527903e-06
1.708541e-07
0.0003570778
0.00039154443
0.00037918517
0.00034314507
0.00031814088
0.00029760988
0.00024028461
0.00012646777
3.7241456e-05
5.3135902e-06
5.5353439e-07
3.1464587e-08
1.0499759e-09
9.7583569e-11
4.1247976e-11
1.8113589e-11
7.3186116e-12
2.7327859e-12
9.4307527e-13
2.9925967e-13
8.7091145e-14
2.3181604e-14
5.6292128e-15
1.2439275e-15
2.4946934e-16
4.5267057e-17
7.4037311e-18
1.0862587e-18
1.4213055e-19
1.6447477e-20
3.0270405e-23
1.902572e-26
3.2956155e-30
1.2435182e-34
1.0318073e-39
2.8325169e-45
4.5354714e-51
6.2007076e-57
4.5259235e-63
0.00035495755
0.00031242578
0.0003045432
0.00033960516
0.00036665831
0.00034213259
0.00028319645
0.00023314123
0.00022450649
0.00024971174
0.0002781618
0.00028965668
0.0002579153
0.00018087373
0.00010692535
6.3861859e-05
3.9759528e-05
1.9912887e-05
6.0973486e-06
1.1164027e-06
1.5069003e-07
1.8295041e-08
0.00038640001
0.00037152501
0.00033300726
0.00031194066
0.00030442119
0.00027016504
0.00017235636
6.5058774e-05
1.3680261e-05
1.3596856e-06
1.1421813e-07
6.1114084e-09
4.6205748e-10
1.3854466e-10
6.0047383e-11
2.5081709e-11
9.686781e-12
3.4817568e-12
1.1660613e-12
3.5988834e-13
1.0204569e-13
2.6513764e-14
6.2975141e-15
1.3642056e-15
2.6884619e-16
4.805493e-17
7.7614611e-18
1.1272535e-18
1.4633556e-19
3.5331467e-22
3.0082202e-25
7.3012303e-29
3.944122e-33
4.5853121e-38
1.6413119e-43
2.9539171e-49
4.5473323e-55
6.0205316e-61
4.1953274e-67
0.00037491289
0.00034867066
0.00031516464
0.0003146515
0.00034853313
0.00036715384
0.00033439184
0.00026860798
0.00021266332
0.00019966359
0.00022371726
0.0002528847
0.00026005023
0.00021255253
0.00012891528
6.2946192e-05
3.0553149e-05
1.5479666e-05
5.9053421e-06
1.2680616e-06
1.5937757e-07
1.5418787e-08
1.4378766e-09
0.00035791385
0.00031826944
0.00030138488
0.00030585361
0.00029235699
0.00021631755
0.00010039877
2.7563454e-05
4.229171e-06
3.39708e-07
3.5708576e-08
4.5098086e-09
7.9062362e-10
2.193745e-10
8.384582e-11
3.2748045e-11
1.2069221e-11
4.1941439e-12
1.3652562e-12
4.1020675e-13
1.1343831e-13
2.8803617e-14
6.7008688e-15
1.425248e-15
2.7649451e-16
4.8779351e-17
7.7964898e-18
1.123489e-18
3.515299e-21
3.9992832e-24
1.3396671e-27
1.0206787e-31
1.6440377e-36
7.6893046e-42
1.6226644e-47
2.5148242e-53
4.0776666e-59
5.5567872e-65
3.8186877e-71
0.00033852265
0.00035769308
0.00033984972
0.00031727738
0.00032343732
0.00035468111
0.00036471364
0.00032368929
0.00025115996
0.00018964221
0.00017234161
0.0001934988
0.00022303649
0.00021751857
0.00015545547
7.6853774e-05
2.9168046e-05
1.1121194e-05
4.4331965e-06
1.2364812e-06
1.8398067e-07
1.5982177e-08
1.162991e-09
8.5025828e-11
0.00029979864
0.00028763413
0.00030367994
0.00030935267
0.00025625015
0.00014166642
4.8051018e-05
9.8908743e-06
1.3283622e-06
2.2722721e-07
5.7813752e-08
1.1801121e-08
1.939047e-09
3.6240326e-10
1.0932278e-10
3.9833689e-11
1.4123357e-11
4.7794114e-12
1.5133956e-12
4.4310062e-13
1.1964016e-13
2.9726831e-14
6.7840904e-15
1.4192814e-15
2.715731e-16
4.738894e-17
7.512546e-18
3.0125467e-20
4.5253862e-23
2.066161e-26
2.194865e-30
4.8617178e-35
2.9613829e-40
7.5787142e-46
1.2118701e-51
1.9625612e-57
3.649652e-63
5.0934723e-69
3.3948811e-75
0.00027832619
0.00031442325
0.00033726616
0.0003300787
0.0003186352
0.00033030367
0.0003577175
0.00035885513
0.00030980017
0.0002303326
0.00016424026
0.00014324973
0.00016346255
0.00018364991
0.00016131683
9.5735155e-05
3.5896842e-05
1.0051487e-05
2.944083e-06
9.0125992e-07
1.8020288e-07
1.8560676e-08
1.1612636e-09
6.6186612e-11
3.8293817e-12
0.000271686
0.00029924781
0.00032316069
0.00029270311
0.00018654867
7.5643047e-05
1.9678618e-05
3.8161994e-06
1.1495519e-06
5.3490917e-07
1.654822e-07
3.5077061e-08
4.8070175e-09
5.434019e-10
1.299953e-10
4.5154257e-11
1.5570225e-11
5.1510702e-12
1.5881637e-12
4.5359797e-13
1.197332e-13
2.9155507e-14
6.5385114e-15
1.3481089e-15
2.5497584e-16
4.4109976e-17
2.243364e-19
4.4018576e-22
2.7098027e-25
3.9766372e-29
1.2057998e-33
9.5300088e-39
2.9985851e-44
5.2770962e-50
7.9864121e-56
1.6248425e-61
3.3296681e-67
4.5777003e-73
2.9432909e-79
0.00025445268
0.00025450365
0.00028803362
0.00031560381
0.00031976858
0.00031865226
0.00033440322
0.00035709688
0.000349616
0.00029181097
0.00020607347
0.00013657767
0.00011380414
0.00012763392
0.00013429349
0.00010109022
4.6393447e-05
1.2343936e-05