/*--------------------------------*- C++ -*----------------------------------*\
| =========                 |                                                 |
| \\      /  F ield         | OpenFOAM: The Open Source CFD Toolbox           |
|  \\    /   O peration     | Version:  5.0                                   |
|   \\  /    A nd           | Web:      www.OpenFOAM.org                      |
|    \\/     M anipulation  |                                                 |
\*---------------------------------------------------------------------------*/
FoamFile
{
    version     2.0;
    format      ascii;
    class       volScalarField;
    location    "200";
    object      nuTilda_0;
}
// * * * * * * * * * * * * * * * * * * * * * * * * * * * * * * * * * * * * * //

dimensions      [0 2 -1 0 0 0 0];

internalField   nonuniform List<scalar> 
9520
(
4.8434229e-33
5.1407782e-31
4.6817445e-33
2.6698729e-29
4.9707609e-31
4.5232004e-33
9.0112085e-28
2.5820403e-29
4.8037155e-31
4.3779649e-33
2.2249758e-26
8.7163052e-28
2.4957437e-29
4.6518545e-31
4.2547088e-33
4.2954963e-25
2.1525394e-26
8.4271205e-28
2.417931e-29
4.525365e-31
4.1551296e-33
6.7771972e-24
4.1561774e-25
2.0817822e-26
8.168379e-28
2.3541456e-29
4.4251531e-31
4.0721958e-33
9.0034935e-23
6.5583298e-24
4.0207871e-25
2.018937e-26
7.9587425e-28
2.3042019e-29
4.3405964e-31
3.9917275e-33
1.0261277e-21
8.7155289e-23
6.3468379e-24
3.901426e-25
1.9683724e-26
7.7950831e-28
2.2609567e-29
4.2531121e-31
3.8962864e-33
1.0179174e-20
9.9384032e-22
8.4387394e-23
6.1617717e-24
3.8057013e-25
1.9286428e-26
7.6483118e-28
2.2132349e-29
4.1431391e-31
3.7729777e-33
8.9092276e-20
9.8664081e-21
9.6291012e-22
8.1981528e-23
6.013415e-24
3.7293522e-25
1.8914925e-26
7.4768803e-28
2.1508292e-29
4.0002103e-31
3.6220543e-33
7.0871948e-19
8.6400344e-20
9.5668281e-21
9.3610223e-22
8.0049872e-23
5.8924911e-24
3.6545483e-25
1.8460863e-26
7.247544e-28
2.0704531e-29
3.8312426e-31
3.4620481e-33
6.0789799e-18
6.8427604e-19
8.3820977e-20
9.3055718e-21
9.1449107e-22
7.8436056e-23
5.7680343e-24
3.5599009e-25
1.784868e-26
6.9573362e-28
1.9792394e-29
3.6629401e-31
3.3267254e-33
1.0277879e-16
5.6543523e-18
6.6130455e-19
8.1518017e-20
9.0934582e-21
8.9601868e-22
7.6693252e-23
5.6063206e-24
3.4328002e-25
1.7092292e-26
6.642072e-28
1.8941875e-29
3.5346138e-31
3.2527463e-33
3.5727283e-15
8.8582834e-17
5.2656282e-18
6.3999206e-19
7.9633175e-20
8.9097756e-21
8.7523131e-22
7.4377381e-23
5.3915748e-24
3.2803555e-25
1.630682e-26
6.3678178e-28
1.8365634e-29
3.482283e-31
3.2622474e-33
1.2939703e-13
3.104398e-15
7.358195e-17
4.882449e-18
6.2281905e-19
7.8027093e-20
8.6970241e-21
8.4703119e-22
7.1341161e-23
5.1426615e-24
3.1294058e-25
1.5671305e-26
6.2061573e-28
1.8226195e-29
3.5202605e-31
3.3487444e-33
3.8456013e-12
1.1745937e-13
2.4503778e-15
5.6970919e-17
4.5867256e-18
6.0945414e-19
7.6149531e-20
8.4013515e-21
8.1044514e-22
6.7944562e-23
4.9086143e-24
3.016338e-25
1.5354774e-26
6.2008833e-28
1.8545192e-29
3.6294282e-31
3.474171e-33
8.8830719e-11
3.6297278e-12
9.3202424e-14
1.6465789e-15
4.426426e-17
4.403687e-18
5.946852e-19
7.3449953e-20
8.0191227e-21
7.7090103e-22
6.4923388e-23
4.7478757e-24
2.9708624e-25
1.543264e-26
6.3406589e-28
1.9161949e-29
3.7591381e-31
3.5793956e-33
1.556824e-09
8.6369886e-11
2.905694e-12
6.0947293e-14
1.0439106e-15
3.7651901e-17
4.264934e-18
5.7272618e-19
6.993066e-20
7.6188736e-21
7.3773141e-22
6.304808e-23
4.7004998e-24
3.0003715e-25
1.5830898e-26
6.5523931e-28
1.9769818e-29
3.8428944e-31
3.6039578e-33
2.018807e-08
1.5446532e-09
6.9696447e-11
1.8938124e-12
3.7797434e-14
7.7530432e-16
3.4798338e-17
4.0836038e-18
5.4346665e-19
6.6341482e-20
7.3036116e-21
7.194452e-22
6.2736307e-23
4.7655221e-24
3.0820137e-25
1.6329406e-26
6.721858e-28
2.0019223e-29
3.8213156e-31
3.5070742e-33
1.8994673e-07
2.0283398e-08
1.2555754e-09
4.5632923e-11
1.217535e-12
2.9883641e-14
7.1096351e-16
3.2291278e-17
3.8387676e-18
5.1423176e-19
6.3699991e-20
7.1535155e-21
7.1926043e-22
6.3795327e-23
4.893826e-24
3.1672212e-25
1.6631498e-26
6.7343493e-28
1.964272e-29
3.6633011e-31
3.2823407e-33
1.2673506e-06
1.914096e-07
1.6744286e-08
8.3508669e-10
3.0961093e-11
1.0851949e-12
3.0693286e-14
6.4805254e-16
2.8451066e-17
3.5987063e-18
4.9423852e-19
6.2664447e-20
7.1829399e-21
7.3285762e-22
6.5407517e-23
5.0015841e-24
3.1982998e-25
1.6473874e-26
6.5174595e-28
1.8552533e-29
3.378046e-31
2.9616157e-33
5.9855627e-06
1.2739625e-06
1.6054665e-07
1.1596312e-08
6.0563158e-10
3.1001087e-11
1.2428391e-12
2.9448663e-14
4.7386411e-16
2.4621953e-17
3.4472463e-18
4.8829055e-19
6.31864e-20
7.3270076e-21
7.4921366e-22
6.6392728e-23
5.0006552e-24
3.1305392e-25
1.5728921e-26
6.0683289e-28
1.6879585e-29
3.0144953e-31
2.6075529e-33
2.0093686e-05
5.9922338e-06
1.0924312e-06
1.1703018e-07
9.1768993e-09
6.6589689e-10
3.8388127e-11
1.2429129e-12
2.0066597e-14
2.8412006e-16
2.2396649e-17
3.415474e-18
4.9447852e-19
6.4491664e-20
7.4608135e-21
7.5451212e-22
6.5657759e-23
4.8334871e-24
2.9502948e-25
1.445563e-26
5.4581039e-28
1.4946253e-29
2.6492067e-31
2.297853e-33
4.9640183e-05
2.0026367e-05
5.2410911e-06
8.4237336e-07
9.9879798e-08
1.0453399e-08
8.6126084e-10
3.9260112e-11
8.3574005e-13
9.3309399e-15
1.7790326e-16
2.1810655e-17
3.4743935e-18
5.0495508e-19
6.535453e-20
7.447287e-21
7.3762895e-22
6.2643637e-23
4.4975292e-24
2.6812146e-25
1.2889068e-26
4.8147198e-28
1.3185356e-29
2.3670905e-31
2.1064123e-33
9.5380645e-05
4.9417533e-05
1.7873515e-05
4.2527053e-06
7.6003415e-07
1.1569019e-07
1.364472e-08
8.8728916e-10
2.6170223e-11
3.6368173e-13
3.5415963e-15
1.409744e-16
2.2171233e-17
3.5516097e-18
5.0901203e-19
6.4602977e-20
7.1937859e-21
6.9482715e-22
5.7579491e-23
4.0486729e-24
2.378199e-25
1.138042e-26
4.290521e-28
1.2032016e-29
2.2409885e-31
2.0865604e-33
0.00015121325
9.5038696e-05
4.4962589e-05
1.5178013e-05
4.0079359e-06
8.8489601e-07
1.4944495e-07
1.4016355e-08
5.8892601e-10
1.1059548e-11
1.1929364e-13
1.5616047e-15
1.3436423e-16
2.2677043e-17
3.5609227e-18
4.9785724e-19
6.1622952e-20
6.6922176e-21
6.3168154e-22
5.1437751e-23
3.5856946e-24
2.1130814e-25
1.0307697e-26
4.0244761e-28
1.1819222e-29
2.3152482e-31
2.2598851e-33
0.00020461169
0.00015058389
8.7888851e-05
3.9494403e-05
1.4761046e-05
4.6657103e-06
1.1194843e-06
1.5211951e-07
9.3249518e-09
2.4845601e-10
3.50608e-12
4.1503528e-14
1.0909662e-15
1.3582424e-16
2.2611701e-17
3.4431739e-18
4.6858063e-19
5.6625641e-20
6.0265979e-21
5.6152706e-22
4.5654625e-23
3.2241982e-24
1.9563529e-25
9.9820188e-27
4.1088484e-28
1.2701609e-29
2.5962474e-31
2.6119992e-33
0.00024869692
0.00020244375
0.000140134
7.8836859e-05
3.9140754e-05
1.7096413e-05
5.7398034e-06
1.1267029e-06
1.0220919e-07
4.0388654e-09
8.3743358e-11
1.307175e-12
2.6802539e-14
1.0706056e-15
1.3433348e-16
2.1588282e-17
3.1940497e-18
4.2529855e-19
5.0589778e-20
5.3473936e-21
5.015934e-22
4.1750314e-23
3.0671869e-24
1.9595963e-25
1.0572202e-26
4.5673827e-28
1.4619945e-29
3.0507081e-31
3.0949973e-33
0.0002858012
0.00024538695
0.0001892031
0.0001271308
7.8606094e-05
4.4905098e-05
2.0414506e-05
5.6990315e-06
7.7009438e-07
4.659601e-08
1.5195103e-09
3.6669033e-11
1.118598e-12
3.1156709e-14
1.0605569e-15
1.2563208e-16
1.9701164e-17
2.8623831e-18
3.7749697e-19
4.4949836e-20
4.8282224e-21
4.6847185e-22
4.0942506e-23
3.1790617e-24
2.1426236e-25
1.2062159e-26
5.3482553e-28
1.7308346e-29
3.6112651e-31
3.635594e-33
0.00031726515
0.00028120136
0.00023033082
0.00017428953
0.00012688491
8.9101629e-05
5.2108873e-05
2.0012656e-05
3.9854737e-06
3.745055e-07
1.9681596e-08
7.975363e-10
3.9393087e-11
1.5623077e-12
3.3403645e-14
8.8883143e-16
1.1160303e-16
1.7412451e-17
2.5274802e-18
3.3694853e-19
4.1193598e-20
4.6208547e-21
4.7389552e-22
4.3832873e-23
3.5687014e-24
2.4876482e-25
1.424689e-26
6.3321107e-28
2.0340337e-29
4.1880662e-31
4.1476534e-33
0.00034371872
0.00031129992
0.00026474365
0.00021444324
0.00017503778
0.00014209137
0.00010089904
5.0626269e-05
1.4411349e-05
2.0864061e-06
1.7897628e-07
1.24803e-08
9.8555416e-10
5.9891042e-11
1.7621149e-12
2.3279341e-14
6.6153593e-16
9.6676869e-17
1.5308664e-17
2.2733965e-18
3.1457765e-19
4.0488418e-20
4.8165512e-21
5.21609e-22
5.0231989e-23
4.1847183e-24
2.9413401e-25
1.6767182e-26
7.3536365e-28
2.3205257e-29
4.6847908e-31
4.547326e-33
0.00036431168
0.00033607683
0.00029425405
0.00024828009
0.0002161808
0.00019399136
0.00015840532
9.7832152e-05
3.7752671e-05
8.178055e-06
1.1367245e-06
1.3525948e-07
1.6781414e-08
1.5520459e-09
6.8847479e-11
1.1999615e-12
1.0177114e-14
5.0978861e-16
8.4552001e-17
1.391524e-17
2.1688948e-18
3.1787299e-19
4.3382671e-20
5.4200704e-21
6.0598083e-22
5.9157276e-23
4.9238015e-24
3.4245532e-25
1.9177286e-26
8.2326358e-28
2.5402828e-29
5.0164159e-31
4.7681318e-33
0.00037938691
0.00035534298
0.0003184731
0.00027792991
0.00025031886
0.00023681433
0.00021259496
0.00015351507
7.5741845e-05
2.3262691e-05
5.0914451e-06
1.0029705e-06
1.912711e-07
2.656821e-08
1.7933674e-09
4.7229554e-11
4.525491e-13
3.8669612e-15
4.3112275e-16
7.7833869e-17
1.359796e-17
2.2528539e-18
3.4895883e-19
4.962733e-20
6.3424251e-21
7.1270915e-22
6.9010203e-23
5.6508373e-24
3.847996e-25
2.1032396e-26
8.8088625e-28
2.653968e-29
5.1250427e-31
4.7727695e-33
0.00038962883
0.00036937425
0.00033770204
0.00030283038
0.00027986811
0.00027088442
0.00025489694
0.00020488249
0.00012249374
5.0387724e-05
1.6396466e-05
5.0947613e-06
1.4536746e-06
2.9834121e-07
3.0579529e-08
1.2442045e-09
1.78619e-11
1.0346873e-13
2.225361e-15
4.0079583e-16
7.8029385e-17
1.4504141e-17
2.524129e-18
4.0362568e-19
5.8172733e-20
7.4154057e-21
8.2160074e-22
7.7901911e-23
6.2265419e-24
4.1307302e-25
2.1978795e-26
8.9737838e-28
2.6403896e-29
4.9900896e-31
4.5587887e-33
0.00039526442
0.00037892013
0.00035215961
0.0003231492
0.00030478155
0.00029918823
0.00028728826
0.00024502019
0.00016791312
8.7026747e-05
3.9269348e-05
1.7957548e-05
7.4144119e-06
2.2004986e-06
3.397292e-07
2.1513828e-08
4.842791e-10
4.0102879e-12
2.3305264e-14
1.9395832e-15
4.123401e-16
8.5337916e-17
1.6522064e-17
2.9376886e-18
4.7178667e-19
6.7362402e-20
8.4261568e-21
9.1076346e-22
8.4005027e-23
6.5324947e-24
4.2156395e-25
2.1825543e-26
8.6909366e-28
2.4998778e-29
4.6302677e-31
4.156585e-33
0.00039706374
0.00038444112
0.00036259585
0.00033914877
0.00032519233
0.00032239951
0.00031299643
0.00027590039
0.00020605035
0.00012649025
7.3129031e-05
4.5346165e-05
2.5808339e-05
1.0769522e-05
2.4644276e-06
2.4304136e-07
8.7421829e-09
1.178359e-10
7.5314709e-13
1.05712e-14
2.0228125e-15
4.6161107e-16
9.8493752e-17
1.9271014e-17
3.4111497e-18
5.3949951e-19
7.5292715e-20
9.1589332e-21
9.6053195e-22
8.5982018e-23
6.4999365e-24
4.0804992e-25
2.0574126e-26
7.999376e-28
2.2527685e-29
4.0964214e-31
3.6205679e-33
0.00039634231
0.00038691908
0.00036950864
0.00035151826
0.00034139184
0.00034099944
0.00033345656
0.00030080726
0.00023674223
0.00016302001
0.00011212706
8.6547584e-05
6.3567345e-05
3.5718363e-05
1.1810863e-05
1.7969703e-06
1.0428975e-07
2.3521138e-09
2.4401774e-11
1.5156511e-13
9.5101283e-15
2.3119582e-15
5.3850136e-16
1.1476576e-16
2.2163615e-17
3.8427086e-18
5.9216015e-19
8.0181256e-20
9.4440723e-21
9.5931392e-22
8.33109e-23
6.1250767e-24
3.7433949e-25
1.8407574e-26
6.9996584e-28
1.9334139e-29
3.4585677e-31
3.0163327e-33
0.00039366445
0.00038745996
0.00037390579
0.00036063048
0.00035418033
0.00035537671
0.00034928289
0.00032061675
0.00026386029
0.00019398358
0.0001497784
0.00013353768
0.00011759249
8.3715747e-05
3.8304522e-05
8.8030574e-06
8.217627e-07
3.1161796e-08
5.4578108e-10
4.603112e-12
5.7651438e-14
1.0879644e-14
2.7234695e-15
6.2546551e-16
1.3042987e-16
2.4546039e-17
4.1358526e-18
6.1741259e-19
8.0805234e-20
9.2040438e-21
9.0544313e-22
7.6339473e-23
5.4640957e-24
3.2550771e-25
1.5638214e-26
5.8271157e-28
1.5819814e-29
2.7904376e-31
2.4075139e-33
0.00038924771
0.00038670123
0.00037745268
0.0003672337
0.00036372362
0.00036639006
0.00036094895
0.00033608861
0.00028646527
0.00022262575
0.00018274077
0.00017722203
0.00017583496
0.00014765597
8.7974502e-05
2.9299639e-05
4.3204064e-06
2.7236498e-07
8.0397038e-09
1.1389499e-10
9.9250053e-13
5.4155028e-14
1.2962707e-14
3.1503424e-15
7.0102107e-16
1.417616e-16
2.5866549e-17
4.2199045e-18
6.079471e-19
7.6840305e-20
8.464673e-21
8.0704196e-22
6.6144692e-23
4.6156883e-24
2.6846231e-25
1.2627881e-26
4.6212033e-28
1.2362071e-29
2.1560537e-31
1.8456853e-33
0.00038572418
0.00038803553
0.00038052945
0.00037249959
0.00037044898
0.00037406562
0.00036912768
0.00034751037
0.00030521754
0.00024789362
0.00021097859
0.00021363935
0.00022596436
0.00021154545
0.00015226828
6.9301997e-05
1.5503008e-05
1.5825601e-06
7.759676e-08
1.8938605e-09
2.7479847e-11
6.7231831e-13
6.8767616e-14
1.4978272e-14
3.4765047e-15
7.4621708e-16
1.4606158e-16
2.5808113e-17
4.0590275e-18
5.6402501e-19
6.8862316e-20
7.3422849e-21
6.7934211e-22
5.4220682e-23
3.6952816e-24
2.1029632e-25
9.7108065e-27
3.4997168e-28
9.2541578e-30
1.6014271e-31
1.3651894e-33
0.00038307881
0.00038838018
0.0003899188
0.00037641813
0.00037525329
0.00037887474
0.00037403409
0.00035550599
0.00032043328
0.00026979462
0.0002358906
0.00024234557
0.00026384117
0.00026343961
0.00021446609
0.00012347245
3.9605666e-05
6.2365168e-06
4.9664928e-07
2.0999198e-08
6.096692e-10
2.4341775e-11
1.2214065e-12
8.5457891e-14
1.624517e-14
3.6150897e-15
7.5018195e-16
1.4227478e-16
2.4244748e-17
3.6737529e-18
4.9256004e-19
5.814182e-20
6.0083265e-21
5.4050324e-22
4.210866e-23
2.809538e-24
1.5691834e-25
7.1384705e-27
2.5437871e-28
6.6788354e-30
1.1522614e-31
9.8295234e-34
0.00037892847
0.00038778597
0.00038997324
0.00039035343
0.00037795536
0.00038142992
0.00037628497
0.00036051185
0.00033257544
0.00028862096
0.00025752297
0.00026526365
0.0002913445
0.00029849017
0.00026266764
0.00017773383
7.5963033e-05
1.7410843e-05
2.1645161e-06
1.5972051e-07
9.6647944e-09
7.5236785e-10
5.3074466e-11
1.9834379e-12
9.0731497e-14
1.6385722e-14
3.5353289e-15
7.1215836e-16
1.3050541e-16
2.1405951e-17
3.1265875e-18
4.048859e-19
4.6277108e-20
4.6446381e-21
4.0739387e-22
3.1088132e-23
2.0384971e-24
1.1229579e-25
5.0615002e-27
1.7952759e-28
4.7139379e-30
8.1673751e-32
7.0202916e-34
0.00037840867
0.00038139585
0.00039072062
0.00038965718
0.00038941762
0.00038171585
0.0003763268
0.00036320939
0.0003420638
0.00030473867
0.00027616647
0.00028442575
0.0003109909
0.00032107067
0.00029425088
0.00022161662
0.00011686335
3.6406255e-05
6.7774394e-06
8.6977711e-07
1.0742129e-07
1.502033e-08
1.6756001e-09
9.083868e-11
2.102915e-12
8.051973e-14
1.5469239e-14
3.2616139e-15
6.3737566e-16
1.1239139e-16
1.7756023e-17
2.5029353e-18
3.1363169e-19
3.4800647e-20
3.4046181e-21
2.9262754e-22
2.2009047e-23
1.4289222e-24
7.8376404e-26
3.5379064e-27
1.2640687e-28
3.3599143e-30
5.9125154e-32
5.1690058e-34
0.00037974014
0.00037647018
0.00038411553
0.00039139888
0.0003876699
0.00038625685
0.00037454073
0.00036425623
0.00034953911
0.00031837596
0.00029214975
0.00030029258
0.00032653469
0.00033720833
0.00031487693
0.00025340626
0.0001544878
6.1154574e-05
1.6221407e-05
3.5558273e-06
8.2574651e-07
1.8987206e-07
3.2637483e-08
2.8145891e-09
9.6962521e-11
1.3275231e-12
6.6267895e-14
1.379331e-14
2.8432961e-15
5.3531473e-16
9.0877775e-17
1.3850002e-17
1.8887216e-18
2.2983095e-19
2.4887703e-20
2.3912286e-21
2.0349117e-22
1.5281669e-23
9.9803553e-25
5.5537195e-26
2.5615376e-27
9.405292e-29
2.5758989e-30
4.6677499e-32
4.1874867e-34
0.00037129866
0.00037497965
0.0003756748
0.00038564008
0.00038993906
0.00038343525
0.00037935047
0.00036434617
0.00035575125
0.00032991069
0.0003057525
0.00031340007
0.00033833597
0.00034876051
0.00032972843
0.00027838452
0.00018574703
8.8101574e-05
3.1586797e-05
1.1138215e-05
4.3637818e-06
1.5351461e-06
3.9341384e-07
5.3057367e-08
2.9994386e-09
5.904055e-11
5.4828046e-13
5.4746259e-14
1.1671735e-14
2.3277622e-15
4.2201394e-16
6.9122389e-17
1.0197329e-17
1.3525722e-18
1.6115382e-19
1.7238391e-20
1.6548614e-21
1.4262633e-22
1.0985594e-23
7.4374945e-25
4.32856e-26
2.0969092e-27
8.0833617e-29
2.3125748e-30
4.3415208e-32
3.9951543e-34
0.00036442644
0.00036661155
0.00037029243
0.0003748059
0.00038528362
0.00038611863
0.00037545915
0.00036805085
0.00036065451
0.00034008985
0.00031730895
0.00032399071
0.00034738363
0.00035609489
0.00033956421
0.00029751178
0.00021865164
0.00011425966
5.2137038e-05
2.6956511e-05
1.5893943e-05
8.0884503e-06
2.9857251e-06
6.1402293e-07
5.6127658e-08
1.884789e-09
1.953088e-11
2.422576e-13
4.4515282e-14
9.3010412e-15
1.7895313e-15
3.1336407e-16
4.9781663e-17
7.1699654e-18
9.3748021e-19
1.1158455e-19
1.212885e-20
1.2066066e-21
1.0977683e-22
9.0319074e-24
6.5656621e-25
4.0951309e-26
2.1089961e-27
8.5425413e-29
2.5347739e-30
4.8740161e-32
4.5420951e-34
0.00036598943
0.00036307637
0.00036093516
0.00036507031
0.00037302257
0.00038259809
0.00037874636
0.00036333462
0.00035212606
0.00034903353
0.0003271012
0.00033236958
0.00035367576
0.00036047158
0.00034498352
0.00031140062
0.00024580705
0.00014602127
7.5769774e-05
5.1212194e-05
4.0974796e-05
2.8433236e-05
1.4596033e-05
4.4404472e-06
6.4235801e-07
3.6440857e-08
6.6858389e-10
3.7253557e-12
1.6270977e-13
3.4405374e-14
6.9736025e-15
1.2994951e-15
2.2162913e-16
3.4623873e-17
4.9761804e-18
6.6246955e-19
8.2282111e-20
9.5696089e-21
1.0384341e-21
1.0375682e-22
9.3148926e-24
7.2921912e-25
4.8140878e-26
2.5814095e-27
1.0732258e-28
3.2312751e-30
6.2484796e-32
5.8148948e-34
0.0003571999
0.00036870272
0.00036011965
0.00035449097
0.00035897382
0.00036936175
0.00037684471
0.00036731154
0.00034694529
0.00033083702
0.00033532617
0.00033886591
0.00035770829
0.00036193901
0.00034692346
0.00032067458
0.00026838949
0.00017640075
0.00010122322
8.07713e-05
7.8496456e-05
6.9460953e-05
4.7260732e-05
2.0539441e-05
4.5811731e-06
4.3058249e-07
1.4096097e-08
1.3188369e-10
8.7994074e-13
1.1916352e-13
2.5142344e-14
4.9649605e-15
9.0801231e-16
1.5421976e-16
2.4526048e-17
3.6924978e-18
5.3104121e-19
7.3009202e-20
9.4887367e-21
1.1418101e-21
1.2395933e-22
1.1810367e-23
9.6151353e-25
6.4932286e-26
3.5210871e-27
1.4687063e-28
4.4127403e-30
8.4840007e-32
7.8284563e-34
0.00034226494
0.00036343373
0.00036922715
0.00035535355
0.00034660594
0.00035135006
0.00036312561
0.00036732013
0.00035176154
0.00032554794
0.00030415275
0.00034346508
0.00035969851
0.00036117186
0.00034604775
0.00032623465
0.00028674616
0.00020466302
0.00012784003
0.00010704476
0.00012137603
0.0001254139
0.00010612655
6.2650587e-05
2.0868794e-05
3.1752685e-06
1.8146414e-07
3.2389478e-09
2.0124314e-11
4.2064656e-13
8.4553238e-14
1.7611708e-14
3.4579048e-15
6.4250978e-16
1.1436987e-16
1.9753581e-17
3.3265509e-18
5.4154423e-19
8.3475384e-20
1.187061e-20
1.5189811e-21
1.7103741e-22
1.6603458e-23
1.3606741e-24
9.1792074e-26
4.9510399e-27
2.0491108e-28
6.1007223e-30
1.1615002e-31
1.0608408e-33
0.0003463526
0.00034771291
0.00036765666
0.00036758985
0.00034854443
0.00033703841
0.00034161866
0.00035370371
0.00035376692
0.00033131049
0.00029905879
0.0002722323
0.00035963626
0.00035823327
0.00034297539
0.00032905464
0.00030124402
0.00023046315
0.00015408742
0.00013227707
0.00015740633
0.00018258772
0.00017729426
0.00013271309
6.284765e-05
1.5009408e-05
1.4603959e-06
4.8464543e-08
5.6572865e-10
3.4348274e-12
2.7031837e-13
5.8506463e-14
1.2377112e-14
2.541824e-15
5.1356528e-16
1.0294753e-16
2.0340697e-17
3.8790096e-18
6.9513314e-19
1.1412838e-19
1.6811514e-20
2.1846094e-21
2.4669086e-22
2.3847942e-23
1.936974e-24
1.2927616e-25
6.8946048e-27
2.8217622e-28
8.3113536e-30
1.5663724e-31
1.4169043e-33
0.00035750529
0.00034757299
0.00035206878
0.0003698626
0.00036377308
0.00033981872
0.00032534218
0.00032954689
0.00034067029
0.00033550155
0.00030575833
0.00026773924
0.00023598887
0.0003532626
0.00033803594
0.00033002998
0.00031258343
0.00025355926
0.00017923673
0.0001560564
0.00018544299
0.0002295169
0.00024066445
0.00021017511
0.00013225007
4.7213944e-05
7.5634903e-06
4.5121122e-07
1.0058593e-08
8.6598878e-11
1.0373837e-12
1.84039e-13
4.214158e-14
9.6870887e-15
2.2482542e-15
5.2444888e-16
1.2037548e-16
2.6394343e-17
5.3803009e-18
9.9873149e-19
1.6619596e-19
2.4484562e-20
3.1583716e-21
3.5271009e-22
3.3663735e-23
2.6966888e-24
1.7760691e-25
9.3556578e-27
3.7858907e-28
1.1037738e-29
2.0611905e-31
1.105695e-35
0.00034623542
0.00035307325
0.00034715859
0.00035536644
0.00036999567
0.00035788014
0.00032879967
0.00031113692
0.00031474609
0.00032330231
0.00031219097
0.00027541317
0.00023201162
0.00019316963
0.00033156948
0.00032971488
0.00032174193
0.00027387337
0.00020306312
0.00017808444
0.00020964185
0.00025934861
0.00028805861
0.00027157006
0.00020851356
0.00010448003
2.6176117e-05
2.6973619e-06
1.1021765e-07
1.7815242e-09
1.2854852e-11
5.7300643e-13
1.3812463e-13
3.5953343e-14
9.6309323e-15
2.5930777e-15
6.7920317e-16
1.6781426e-16
3.8207234e-17
7.8908439e-18
1.4624076e-18
2.4102274e-19
3.5030695e-20
4.4511576e-21
4.8958637e-22
4.6026549e-23
3.6341287e-24
2.3623547e-25
1.2299588e-26
4.9263311e-28
1.4234873e-29
1.7833621e-33
3.9338168e-38
0.00032407102
0.00033709709
0.00034623702
0.00034557479
0.0003572016
0.00036795076
0.00034960495
0.00031508168
0.00029411442
0.00029619051
0.00030128858
0.00028381234
0.00023977338
0.00018954545
0.00014262745
0.0003285249
0.00032963404
0.00029177565
0.00022550245
0.00019855198
0.00023033655
0.00028402691
0.00031761634
0.00031250517
0.00026748314
0.00017372155
6.3908742e-05
1.0729803e-05
7.681187e-07
2.2744907e-08
2.7303233e-10
2.7443441e-12
4.4154177e-13
1.3057179e-13
4.0181399e-14
1.2292844e-14
3.6040499e-15
9.8583088e-16
2.4717233e-16
5.614735e-17
1.1466304e-17
2.0922231e-18
3.3892694e-19
4.8409365e-20
6.0488495e-21
6.5504303e-22
6.0658098e-23
4.7248535e-24
3.035012e-25
1.5639796e-26
6.2094291e-28
1.3726839e-31
7.0992824e-36
5.852661e-41
0.00032646845
0.00031541046
0.00032604559
0.00033793211
0.00034335757
0.0003571923
0.00036355826
0.00033855491
0.00029845098
0.00027374206
0.00027339835
0.0002741906
0.00024920557
0.00019671099
0.00013913316
8.9723731e-05
0.00033701596
0.00030776737
0.00024652848
0.00021761978
0.00024847926
0.00030383801
0.00034091572
0.00033933335
0.00030344362
0.00023307801
0.00011760687
2.9927601e-05
3.5253767e-06
1.8275127e-07
3.9931145e-09
3.8783386e-11
1.4753638e-12
4.6325613e-13
1.617562e-13
5.5230985e-14
1.7819007e-14
5.3221496e-15
1.453399e-15
3.5995371e-16
8.0364453e-17
1.6099555e-17
2.8808283e-18
4.5792654e-19
6.4253429e-20
7.8984382e-21
8.4270945e-22
7.6954648e-23
5.922039e-24
3.764886e-25
1.9233688e-26
6.693185e-30
6.1791449e-34
1.1637254e-38
3.5878504e-44
0.00034333633
0.00032309035
0.0003052274
0.00031361544
0.00032964396
0.00033984378
0.00035497203
0.00035626787
0.00032463244
0.00027829311
0.00024943379
0.00024586892
0.00024113855
0.00020650041
0.00014461493
8.7715773e-05
4.6215974e-05
0.00032314941
0.00026612704
0.00023535379
0.00026443254
0.00032053393
0.0003584613
0.00035843692
0.00032730211
0.00027283853
0.00017369081
6.2333515e-05
1.1227224e-05
9.5704317e-07
3.6667135e-08
6.0535329e-10
7.9238031e-12
1.6027163e-12
6.2231897e-13
2.3329773e-13
8.1708051e-14
2.636689e-14
7.7759905e-15
2.0840503e-15
5.0533293e-16
1.1041072e-16
2.1658261e-17
3.7988619e-18
5.9275206e-19
8.1776535e-20
9.9015162e-21
1.0419573e-21
9.3982494e-23
7.1575191e-24
4.5114743e-25
2.3212476e-28
3.4239287e-32
1.1454959e-36
7.3525151e-42
1.1203199e-47
0.00033729616
0.00034752446
0.00031809341
0.00029378079
0.00030007642
0.00031929159
0.000334474
0.00034992094
0.00034606469
0.00030702881
0.00025417031
0.00022101263
0.00021369785
0.00020029374
0.00015357197
9.1650245e-05
4.5038609e-05
1.8507884e-05
0.00028440058
0.00025179956
0.00027820268
0.00033433383
0.00037253653
0.00037115102
0.00034197293
0.0002992484
0.0002246946
0.00010335671
2.6354924e-05
3.4449675e-06
2.1727548e-07
6.2655928e-09
8.7831162e-11
5.6377481e-12
2.2722742e-12
9.2266512e-13
3.4711405e-13
1.2000849e-13
3.7953511e-14
1.093807e-14
2.8626713e-15
6.7812504e-16
1.4490898e-16
2.7840666e-17
4.7904038e-18
7.3454322e-19
9.977374e-20
1.1917917e-20
1.2386393e-21
1.1055326e-22
8.3479044e-24
6.1020489e-27
1.3527501e-30
7.2705758e-35
7.8808707e-40
2.1234662e-45
2.3457842e-51
0.00030129132
0.00034910864
0.00034915586
0.00031150582
0.00028093559
0.00028472416
0.00030698894
0.00032647475
0.00034161804
0.0003320498
0.00028517416
0.0002256132
0.00018863289
0.00017472015
0.00014968412
9.7727668e-05
4.7388569e-05
1.7827922e-05
5.4645555e-06
0.00026694245
0.00028977218
0.00034488193
0.00038325571
0.00037924282
0.00034915497
0.00031410021
0.00026138464
0.00015644284
4.8732651e-05
9.0441281e-06
8.7669743e-07
4.1723316e-08
9.4062423e-10
2.5011297e-11
7.8747633e-12
3.4140683e-12
1.3680394e-12
5.0320594e-13
1.695998e-13
5.2256713e-14
1.4678774e-14
3.7481133e-15
8.6745541e-16
1.8140896e-16
3.4170339e-17
5.7750321e-18
8.7148493e-19
1.1673477e-19
1.3777874e-20
1.4167145e-21
1.2536899e-22
1.2660607e-25
4.0561052e-29
3.3115381e-33
5.622476e-38
2.2612948e-43
3.8541546e-49
3.7399098e-55
0.00028090409
0.0003166286
0.00035786733
0.00034847391
0.00030311939
0.0002665381
0.00026750873
0.00029195216
0.0003151297
0.00032935431
0.00031351262
0.00025766511
0.00019197527
0.00015034303
0.00012815463
9.5069531e-05
5.1110622e-05
1.8831515e-05
5.1526047e-06
1.1486288e-06
0.00029887557
0.00035172952
0.00038990934
0.00038293145
0.00035024086
0.00032023825
0.00028532497
0.00020457854
8.7031953e-05
1.8510717e-05
2.5555339e-06
1.8751953e-07
6.9058961e-09
1.6403972e-10
2.6483112e-11
1.1874265e-11
5.0209108e-12
1.9512848e-12
6.9680063e-13
2.2826488e-13
6.8448018e-14
1.8737651e-14
4.6700734e-15
1.0568489e-15
2.1653662e-16
4.004159e-17
6.6573205e-18
9.903773e-19
1.3106006e-19
1.5308882e-20
1.5605883e-21
2.1320829e-24
9.6034435e-28
1.1486868e-31
2.92882e-36
1.6975632e-41
3.6858741e-47
5.4313484e-53
4.6931138e-59
0.00030573433
0.00029334281
0.00033003426
0.00036372704
0.00034543004
0.00029293973
0.00025035314
0.00024787739
0.00027365002
0.00029975943
0.00031253055
0.00028934488
0.00022345988
0.00015167534
0.00010676464
7.9602735e-05
4.9480381e-05
2.0629359e-05
5.451566e-06
1.0508863e-06
1.712819e-07
0.00035431774
0.00039131174
0.00038172203
0.00034575287
0.00031948635
0.00029883397
0.00024374283
0.00013104477
3.9395085e-05
5.7337543e-06
6.0323272e-07
3.4430667e-08
1.1226586e-09
9.3695801e-11
3.9270953e-11
1.7347232e-11
7.0476009e-12
2.6445855e-12
9.1597911e-13
2.9164014e-13
8.5140807e-14
2.272929e-14
5.5345361e-15
1.2261021e-15
2.4645867e-16
4.4811942e-17
7.3422231e-18
1.0788168e-18
1.4132514e-19
1.6366064e-20
2.9748708e-23
1.8453838e-26
3.1523845e-30
1.1735819e-34
9.6400347e-40
2.6570335e-45
4.4418245e-51
6.375345e-57
4.7137849e-63
0.00035271979
0.00031031984
0.00030466937
0.00034128621
0.00036678359
0.00034006794
0.00028062699
0.00023208937
0.00022566588
0.00025173672
0.00027993161
0.00029045292
0.00025716369
0.00017952538
0.00010625718
6.39946e-05
4.0066429e-05
2.0000634e-05
6.0834766e-06
1.1108221e-06
1.504258e-07
1.8349905e-08
0.00038667787
0.00037468767
0.00033596071
0.00031308095
0.00030487242
0.00027258581
0.00017732716
6.8331152e-05
1.464959e-05
1.4787015e-06
1.2399953e-07
6.3737286e-09
4.3173117e-10
1.3010238e-10
5.7393143e-11
2.4150492e-11
9.3895017e-12
3.3939506e-12
1.140982e-12
3.5334427e-13
1.0050858e-13
2.6191797e-14
6.2380992e-15
1.3547163e-15
2.675739e-16
4.7920954e-17
7.7525639e-18
1.1274407e-18
1.4650167e-19
3.4940041e-22
2.9363797e-25
7.0284017e-29
3.7447595e-33
4.3019782e-38
1.5319268e-43
2.8184151e-49
4.5863816e-55
6.2516717e-61
4.3672631e-67
0.00037572256
0.00034703827
0.00031366003
0.00031512475
0.00035008149
0.00036697146
0.00033207914
0.00026585213
0.00021146963
0.00020077864
0.00022590682
0.00025486329
0.00026081037
0.00021170607
0.00012778229
6.2509504e-05
3.0644915e-05
1.562326e-05
5.9321899e-06
1.263998e-06
1.5840404e-07
1.539722e-08
1.4425489e-09
0.00036155572
0.00032147494
0.0003022148
0.00030548147
0.00029361583
0.00022100468
0.00010479433
2.9317531e-05
4.5646225e-06
3.5797386e-07
3.4116706e-08
3.7974605e-09
6.7203663e-10
2.0248492e-10
8.0385996e-11
3.1778925e-11
1.1793221e-11
4.1199263e-12
1.346025e-12
4.0581407e-13
1.1258241e-13
2.8671092e-14
6.68819e-15
1.4260434e-15
2.7724732e-16
4.9002539e-17
7.8439862e-18
1.1316362e-18
3.4982943e-21
3.9289927e-24
1.2980099e-27
9.7523711e-32
1.5509142e-36
7.184803e-42
1.5238166e-47
2.4680617e-53
4.1955862e-59
5.7866275e-65
3.9665988e-71
0.00034244646
0.00035902617
0.00033888891
0.0003163813
0.00032422648
0.00035603843
0.00036422048
0.00032114672
0.00024823763
0.00018833317
0.00017336843
0.00019574973
0.00022505153
0.00021811452
0.0001546731
7.6065352e-05
2.8949e-05
1.1172455e-05
4.4811486e-06
1.2419896e-06
1.8321108e-07
1.5871217e-08
1.161818e-09
8.5302339e-11
0.00030307583
0.00028804219
0.00030241953
0.00030936078
0.00026014896
0.00014694557
5.0797655e-05
1.0589663e-05
1.3801722e-06
1.9967569e-07
4.6966953e-08
9.34218e-09
1.5706907e-09
3.27255e-10
1.0554918e-10
3.9005013e-11
1.3916862e-11
4.7309739e-12
1.5035959e-12
4.4175039e-13
1.1965807e-13
2.9819136e-14
6.8234192e-15
1.4309183e-15
2.743656e-16
4.7958568e-17
7.6131253e-18
3.0170055e-20
4.4749281e-23
2.0152072e-26
2.1109011e-30
4.6143687e-35
2.7785314e-40
7.0773478e-46
1.1584217e-51
1.982392e-57
3.7902167e-63
5.3007123e-69
3.5162437e-75
0.00028144782
0.0003184365
0.00033908537
0.00032980857
0.00031832149
0.00033131413
0.0003588397
0.0003580646
0.00030703148
0.00022727712
0.00016285602
0.00014414261
0.00016568854
0.00018552083
0.00016169733
9.5088213e-05
3.5458991e-05
9.9745581e-06
2.964073e-06
9.1216823e-07
1.8095294e-07
1.8464261e-08
1.1529197e-09
6.6165109e-11
3.8412199e-12
0.00027158132
0.00029703161
0.00032187765
0.00029547365
0.00019230686
7.9510759e-05
2.089897e-05
3.8982707e-06
1.0115728e-06
4.4117085e-07
1.3337011e-07
2.7728317e-08
3.9084243e-09
4.909339e-10
1.2689287e-10
4.4627711e-11
1.5470884e-11
5.1387515e-12
1.5902684e-12
4.5577341e-13
1.2069298e-13
2.9475274e-14
6.6275965e-15
1.3696207e-15
2.5954908e-16
4.4971567e-17
2.2610049e-19
4.3815526e-22
2.6608208e-25
3.8502343e-29
1.1518485e-33
8.9912478e-39
2.8025198e-44
4.9613487e-50
7.8540001e-56
1.6729108e-61
3.4667744e-67
4.7533701e-73
3.0388668e-79
0.00025374627
0.00025732053
0.00029205229
0.00031791073
0.00032018173
0.00031888908
0.00033557234
0.00035797688
0.00034854193
0.00028883324
0.00020293055
0.00013524445
0.00011474427
0.00012969392
0.00013580168
0.0001012863