/*--------------------------------*- C++ -*----------------------------------*\
| =========                 |                                                 |
| \\      /  F ield         | OpenFOAM: The Open Source CFD Toolbox           |
|  \\    /   O peration     | Version:  5.0                                   |
|   \\  /    A nd           | Web:      www.OpenFOAM.org                      |
|    \\/     M anipulation  |                                                 |
\*---------------------------------------------------------------------------*/
FoamFile
{
    version     2.0;
    format      ascii;
    class       volScalarField;
    location    "200";
    object      p;
}
// * * * * * * * * * * * * * * * * * * * * * * * * * * * * * * * * * * * * * //

dimensions      [0 2 -2 0 0 0 0];

internalField   nonuniform List<scalar> 
9520
(
6.8478324e-05
6.8747605e-05
6.925113e-05
6.8957508e-05
7.0819989e-05
0.00010970084
6.8785478e-05
7.3442109e-05
0.00011273825
0.00013220272
6.8010739e-05
7.6473736e-05
0.00011778431
0.00013722034
0.00016034906
6.6453987e-05
7.9283778e-05
0.00012357763
0.00014563889
0.00016768415
0.00017884941
6.3989859e-05
8.1202274e-05
0.00012895913
0.00015553725
0.00018005849
0.00018930529
0.0001950936
6.041294e-05
8.1862651e-05
0.00013285666
0.00016522059
0.0001949093
0.00020708205
0.00020879334
0.00020304045
5.5682943e-05
8.1011167e-05
0.0001344968
0.00017317406
0.00020985457
0.00022894108
0.00023256343
0.00022029663
0.00020323368
5.037102e-05
7.8822707e-05
0.00013345758
0.00017806899
0.00022267981
0.00025170617
0.00026264076
0.00025073305
0.00022473859
0.00019358789
4.5507547e-05
7.562095e-05
0.0001299081
0.00017898159
0.00023135471
0.00027242933
0.0002954095
0.00029012767
0.00026302194
0.00021953248
0.00017357087
4.1361355e-05
7.1711215e-05
0.00012389571
0.00017551684
0.00023414984
0.00028858966
0.00032713121
0.00033457456
0.00031336151
0.00026616954
0.00020400967
0.00014223376
4.0574311e-05
7.1295908e-05
0.00011655498
0.00016773469
0.00022975666
0.00029767723
0.00035480963
0.00038023174
0.00037140637
0.00032841182
0.00025919503
0.00017707936
9.9154196e-05
4.546155e-05
7.9265228e-05
0.00010996028
0.00015731609
0.00021720708
0.00029688852
0.00037552942
0.00042321605
0.00043298926
0.00040156073
0.00033379865
0.00024070454
0.00013814773
4.4248883e-05
5.8235882e-05
8.8408163e-05
0.00010703413
0.00014081456
0.00019339024
0.00028316252
0.00038652451
0.00046020584
0.0004939668
0.00048101374
0.00042299139
0.00032762475
0.00020978329
8.6936112e-05
-2.2382499e-05
7.1642726e-05
9.9268863e-05
0.00010731607
0.00011225793
0.00015310158
0.00025327232
0.00038469141
0.00048854466
0.00055082573
0.00056288168
0.00052216954
0.00043301426
0.00030852409
0.00016584639
2.337673e-05
-0.00010028007
0.00010211982
0.00012210342
0.00012640782
7.3408283e-05
0.00010401919
0.00020613596
0.00036824244
0.00050714972
0.00060098493
0.00064335337
0.00062708813
0.00055223141
0.00042978786
0.00027578519
0.00010854712
-5.2249954e-05
-0.00018869606
0.00011093382
0.00015099635
0.00015870622
3.5184323e-05
4.7645901e-05
0.00014029141
0.00033787635
0.00051636849
0.00064307122
0.00071916868
0.00073352961
0.00068074091
0.00056910878
0.00041241138
0.00022844502
3.774737e-05
-0.00013931639
-0.0002866449
0.00015916585
0.00019327265
0.00019414986
-2.4011642e-06
-2.9276426e-05
5.0581104e-05
0.00029060076
0.00051632436
0.00067673457
0.00078733586
0.00083756767
0.00081393241
0.00072182469
0.00057151751
0.0003793995
0.0001655891
-4.6205531e-05
-0.00023691969
-0.00039296477
0.00016912577
0.00022678075
0.00027615299
-8.3552082e-06
-0.00012893642
-6.8161054e-05
0.00022224711
0.00050808707
0.00070199722
0.00084645266
0.00093553964
0.00094714318
0.00088312893
0.00074869435
0.00055714129
0.00032810959
8.7164742e-05
-0.00014247616
-0.00034396615
-0.00050639062
0.00022180708
0.00029015957
0.0003709753
2.8215999e-06
-0.00025357929
-0.00022728957
0.00013095486
0.0004960149
0.00072504626
0.00089589393
0.001023871
0.001075462
0.0010479964
0.00093934352
0.00075800327
0.00052224983
0.00025852816
-5.8712248e-06
-0.00025013251
-0.00045922174
-0.00062558528
0.00025053505
0.00032409472
0.00055331286
4.5939084e-05
-0.00041798203
-0.00043802981
8.2624819e-06
0.00047811159
0.00075057314
0.0009384299
0.0010989865
0.0011930873
0.0012110156
0.0011386463
0.00097781568
0.00074472313
0.00046598063
0.00017170124
-0.00011298235
-0.00036806601
-0.00058137757
-0.00074911335
0.00030038359
0.00038880376
0.00071226271
0.00012827649
-0.00060897026
-0.00071634725
-0.00015080457
0.00045628716
0.00078989092
0.00095549827
0.0011541533
0.0012937172
0.0013662366
0.0013415195
0.0012122066
0.00099176662
0.00070667634
0.00038893403
6.7598669e-05
-0.00023326444
-0.00049503964
-0.00070901933
-0.00087549372
0.00037218363
0.00039729902
0.0010621216
0.00017725308
-0.00086514757
-0.0010572884
-0.00035576584
0.00043750745
0.00085330878
0.00097030251
0.001179634
0.0013685642
0.0015075333
0.0015427698
0.0014566846
0.0012594415
0.00097757243
0.00064448898
0.00029154066
-5.3306068e-05
-0.00036555923
-0.00062963574
-0.00084059999
-0.0010033058
0.000445881
0.00052919425
0.0013676809
0.00029997026
-0.0011551907
-0.001509517
-0.00062282506
0.00042212158
0.00095072428
0.0010017142
0.0011684009
0.0014236351
0.0016286348
0.0017375252
0.0017070805
0.0015436975
0.0012751563
0.00093608109
0.00055848996
0.0001731633
-0.00018996629
-0.00050848756
-0.00077026702
-0.00097459274
-0.0011311746
0.00051952077
0.00057991026
0.0018168797
0.00051361917
-0.0015666335
-0.0020111527
-0.00095742619
0.00043017367
0.0011037352
0.0010623414
0.0011177026
0.0014416314
0.0017256245
0.0019216552
0.0019598476
0.001841031
0.0015958649
0.0012606387
0.00086694168
0.00044699557
3.4586824e-05
-0.00034109866
-0.00066055673
-0.0009153702
-0.0011095901
-0.0012577566
0.00061736731
0.00061292468
0.0022278317
0.00072455259
-0.0020357324
-0.0026793814
-0.0013951839
0.00046896102
0.0013426421
0.0011512886
0.0010438264
0.0013982868
0.0017879505
0.0020909719
0.0022139436
0.0021500451
0.0019371385
0.0016145469
0.0012142176
0.00076768716
0.0003104391
-0.0001230706
-0.00050534535
-0.00082012726
-0.0010632948
-0.0012441879
-0.0013818167
0.0007226469
0.0007591517
0.002951457
0.0010537419
-0.0027621183
-0.0034000268
-0.0019367153
0.00054398247
0.0016693248
0.0012848484
0.00093884495
0.0012827391
0.0017985816
0.0022388212
0.0024705664
0.0024719387
0.0022967509
0.0019938349
0.0015963944
0.0011332528
0.00063838615
0.00014961779
-0.00029855133
-0.00068095884
-0.00098501224
-0.0012123652
-0.0013770412
-0.0015022286
0.00071030477
0.0012271758
0.0034426478
0.0013329103
-0.0035829436
-0.0042939815
-0.0026599435
0.00066245029
0.0020983359
0.0014737247
0.00080961567
0.0010671548
0.0017388954
0.002353802
0.0027300522
0.0028081704
0.0026735264
0.0023943095
0.002008378
0.0015397952
0.00101742
0.00047935919
-3.4475875e-05
-0.00049016076
-0.00086563881
-0.0011534266
-0.001361079
-0.0015068674
-0.0016179874
0.00073177349
0.0017636282
0.0036468956
0.0017010032
-0.0046704155
-0.0050580764
-0.0035141477
0.00085752735
0.0026744591
0.0017813826
0.00063629867
0.00073924518
0.0015813792
0.0024305134
0.002988206
0.0031632182
0.0030675467
0.0028127953
0.0024440133
0.0019816183
0.0014441897
0.00086651242
0.00029119829
-0.00024033844
-0.00069581983
-0.0010578312
-0.0013242658
-0.0015082477
-0.0016325599
-0.0017282589
0.00070253659
0.0022364062
0.0038173105
0.0020228127
-0.0057204547
-0.0062085455
-0.0045462115
0.0011741191
0.0034078229
0.0021809175
0.0004234339
0.00024551822
0.0013044342
0.0024532288
0.0032528423
0.0035419382
0.0034829063
0.0032458285
0.0028957684
0.0024513459
0.0019140417
0.0013097024
0.00068088737
7.4875958e-05
-0.00046641822
-0.00091394514
-0.0012556496
-0.0014957662
-0.0016525213
-0.001753221
-0.0018322963
0.00064475271
0.0026555823
0.003694586
0.0019465697
-0.0071173244
-0.0077202295
-0.005941387
0.0015203915
0.004281469
0.0026741126
0.00013150736
-0.00037030126
0.00086741153
0.0024031117
0.0035226239
0.0039573782
0.0039251254
0.003696155
0.0033569422
0.0029418441
0.0024215347
0.0018059162
0.0011348599
0.00045986292
-0.00016877216
-0.00071062786
-0.0011420441
-0.0014564457
-0.0016659965
-0.0017925363
-0.0018679281
-0.0019293379
0.00054509505
0.0029621239
0.0037258521
0.0016624302
-0.0084367383
-0.0091475193
-0.0076391191
0.0018095611
0.0052177235
0.0032531385
-0.00024012721
-0.0013061564
0.00024671418
0.0022537755
0.0038043804
0.0044197733
0.0044074326
0.0041607825
0.0038280957
0.0034465144
0.0029591039
0.002348456
0.0016505386
0.00091652571
0.000203493
-0.00043720309
-0.00096993534
-0.0013770792
-0.0016586843
-0.0018331779
-0.0019270259
-0.0019756363
-0.0020188638
0.00040849134
0.0031518913
0.0035576955
0.0014215807
-0.0095940255
-0.010083585
-0.0090647114
0.0023078701
0.0065329185
0.0039257711
-0.00076064286
-0.0025304253
-0.00061833027
0.0019648352
0.0040934451
0.0049531147
0.0049380136
0.0046494596
0.0042948785
0.0039294495
0.0035110917
0.0029259395
0.0022209184
0.0014438881
0.00065439723
-8.5658261e-05
-0.00072755669
-0.0012413196
-0.0016167859
-0.0018605173
-0.0019961251
-0.00205502
-0.0020757223
-0.0021008571
0.00024194717
0.0031445067
0.0032708376
0.0010977074
-0.010715448
-0.010808756
-0.0099390295
0.0030336264
0.007911635
0.0046435304
-0.0014096528
-0.0041884785
-0.0017442446
0.001491892
0.0043863808
0.0055731944
0.0055395618
0.005162749
0.0047582533
0.0043938444
0.0040448868
0.0035215636
0.0028365636
0.0020372202
0.0011848731
0.0003502946
-0.00040494044
-0.0010376161
-0.001522784
-0.0018598716
-0.002059453
-0.0021541454
-0.0021762587
-0.0021685679
-0.0021751651
6.0400405e-05
0.0029186155
0.0028446846
0.00066780979
-0.011417995
-0.011751033
-0.010671382
0.0032533391
0.0088070528
0.0053716657
-0.0023046391
-0.0062768376
-0.0031608483
0.000750396
0.0046627411
0.006306513
0.00621832
0.0057180113
0.0052057793
0.0048329736
0.0045494886
0.0041289535
0.0034848897
0.0026904872
0.00179357
0.00087419002
6.171258e-06
-0.00075220214
-0.0013635436
-0.0018116398
-0.0021032532
-0.0022552817
-0.0023058977
-0.0022897472
-0.0022536065
-0.0022415899
-0.00011967769
0.0024396447
0.0022708185
0.00028010856
-0.011986689
-0.01264557
-0.011554568
0.00353799
0.0089117217
0.0060537765
-0.0031361145
-0.0090642886
-0.0048162469
-0.00035401727
0.0048945631
0.0071750913
0.0069922775
0.0063101084
0.0056435939
0.0052149595
0.0050011385
0.0047175031
0.0041643294
0.003394511
0.0024769279
0.0014875696
0.00051336233
-0.00037467504
-0.0011231945
-0.0017025271
-0.0021052995
-0.0023437809
-0.0024458227
-0.0024488062
-0.0023946813
-0.0023304587
-0.0023001184
-0.00028619341
0.0017125083
0.0015621141
-4.2065257e-05
-0.012510743
-0.013312729
-0.012545396
0.0031744323
0.0092837038
0.0066288342
-0.0045048559
-0.012454145
-0.0067531905
-0.0019768467
0.0050791351
0.0081793785
0.0078537944
0.0069623752
0.0060501982
0.0055253122
0.0053707148
0.0052619233
0.0048506026
0.0041487188
0.0032306532
0.002188459
0.0011192889
0.00010445418
-0.00078883264
-0.0015146404
-0.002051687
-0.0024000996
-0.0025812145
-0.0026289109
-0.002582793
-0.002491068
-0.0023989801
-0.0023507995
-0.00043127598
0.00076056903
0.00073918118
-0.0003317806
-0.012864302
-0.013854328
-0.013511954
0.0023037925
0.0091958558
0.0064382136
-0.0058777268
-0.016767835
-0.009293163
-0.0041543512
0.0050917076
0.0093192899
0.0087860132
0.0076522771
0.00644109
0.0057231333
0.0056344993
0.005730948
0.0055236913
0.0049358681
0.0040515562
0.0029781286
0.0018254694
0.00069055549
-0.00034899601
-0.0012327048
-0.0019232791
-0.0024070319
-0.0026938919
-0.0028130207
-0.0028024533
-0.0027078272
-0.0025785779
-0.0024591842
-0.002393779
-0.00056547739
-0.00036642301
-0.00018591684
-0.00074139381
-0.01301117
-0.014093007
-0.014298957
0.0012347781
0.0085928663
0.0058900809
-0.0081240931
-0.021056706
-0.013613098
-0.007275649
0.004739078
0.010502295
0.0097613372
0.0083834978
0.0067719507
0.0057949423
0.0057314725
0.0060966404
0.0061590876
0.005742802
0.004933517
0.0038506534
0.0026320451
0.0013877605
0.0002047242
-0.00084299937
-0.0017026881
-0.0023446808
-0.0027652438
-0.002983968
-0.0030363296
-0.0029660123
-0.0028233552
-0.002657075
-0.0025111939
-0.0024292842
-0.0015671036
-0.00070069279
-0.0011925563
-0.0013746346
-0.012732067
-0.014000663
-0.014787945
-0.00019703291
0.007148511
0.0057359644
-0.010177102
-0.025690191
-0.019096358
-0.011281101
0.0037810011
0.011794754
0.010641864
0.0090982681
0.0070562839
0.0056652689
0.0056341229
0.0063005558
0.0067306721
0.0065551337
0.0058682259
0.0048022927
0.0035389081
0.0021956178
0.0008773831
-0.00033485713
-0.0013740006
-0.0021937751
-0.0027745084
-0.0031229528
-0.0032671728
-0.0032494847
-0.0031193755
-0.0029291256
-0.0027266291
-0.002555239
-0.002457588
-0.0022233549
-0.002732201
-0.00086160137
-0.0021702555
-0.011896932
-0.013478374
-0.014837011
-0.001972908
0.0050456027
0.0050693035
-0.011115045
-0.030039734
-0.02448235
-0.015213504
0.002373258
0.013219649
0.011399629
0.0097578214
0.0072181989
0.0053225016
0.0052242223
0.0063070584
0.0072000807
0.0073622489
0.0068460807
0.0058342149
0.0045383936
0.0031143383
0.0016717047
0.00029924781
-0.00092362254
-0.0019362393
-0.0027007288
-0.003208622
-0.0034763456
-0.003540942
-0.0034516246
-0.0032619971
-0.0030248736
-0.0027873035
-0.0025915269
-0.0024789986
-0.0030656352
-0.0032519151
-0.0038235489
-0.0010327946
-0.010539507
-0.012510638
-0.014376371
-0.0040629537
0.0022150207
0.0036817527
-0.011902132
-0.034414562
-0.03047758
-0.018213181
0.0008545448
0.014612923
0.011699099
0.010236897
0.0072699258
0.0046467381
0.004467568
0.0060036224
0.0075247184
0.0081385624
0.0078674943
0.0069428177
0.0056287641
0.0041418493
0.002583749
0.0010629744
-0.0003417704
-0.0015558039
-0.0025236404
-0.003218702
-0.00364245
-0.0038220567
-0.0038034658
-0.003641874
-0.0033933927
-0.0031105246
-0.0028392046
-0.0026203661
-0.0024938784
-0.00878789
-0.0040380169
-0.0041998143
-0.0047559919
-0.0012050054
-0.011207301
-0.013415745
-0.0064215237
-0.0012961779
0.0016836419
-0.013142505
-0.038409426
-0.037333903
-0.021694759
-0.00037109107
0.01477376
0.011762914
0.010433714
0.0070627484
0.0036371102
0.0031559426
0.005336678
0.0076387183
0.0088680715
0.0089193054
0.0081276735
0.0068106479
0.005266924
0.0036114294
0.0019553265
0.00037708293
-0.0010394766
-0.0022244187
-0.0031308682
-0.0037423756
-0.0040717347
-0.0041573391
-0.0040534274
-0.00381954
-0.0035132032
-0.0031860738
-0.0028826825
-0.0026421498
-0.0025026015
-0.0096706869
-0.0067687901
-0.0049000757
-0.0050139036
-0.0054742492
-0.0013778219
-0.011880012
-0.0090574341
-0.0054377374
-0.0010623203
-0.014524001
-0.042319004
-0.042890708
-0.026564745
-0.0037462859
0.014444707
0.0108766
0.01008625
0.0066719669
0.0020923796
0.0012540052
0.0040878292
0.0074749957
0.0095126801
0.01001448
0.0093841861
0.008084345
0.0064812564
0.004747044
0.0029682419
0.0012329016
-0.00037898284
-0.0017866639
-0.0029235339
-0.0037520737
-0.0042664764
-0.0044927057
-0.0044800078
-0.004289649
-0.0039840287
-0.0036212416
-0.0032517399
-0.0029180755
-0.0026572384
-0.0025055543
-0.0095868343
-0.0078900275
-0.0046534494
-0.0056177511
-0.0056814463
-0.0059363909
-0.0015369053
-0.011776913
-0.01009099
-0.0045430094
-0.015972715
-0.045520008
-0.047913604
-0.03160366
-0.008150348
0.011180503
0.010282831
0.0092479567
0.0057447539
5.3478356e-05
-0.0015854081
0.0021703651
0.0069475635
0.010032099
0.011128467
0.010718893
0.00943952
0.0077851935
0.0059727037
0.0040920587
0.0022188784
0.00042734128
-0.001198584
-0.002577217
-0.0036471381
-0.0043809816
-0.0047861543
-0.0049021421
-0.0047881827
-0.0045108941
-0.0041347665
-0.0037176187
-0.0033079596
-0.0029457631
-0.0026660306
-0.0025030908
-0.014389286
-0.0069027209
-0.0059459081
-0.0025306217
-0.0061068787
-0.0061890559
-0.0061200135
-0.0016644199
-0.015029234
-0.0085017554
-0.017510492
-0.047612555
-0.051938383
-0.036838681
-0.013155349
0.0068948141
0.0080427536
0.0074303737
0.0045985658
-0.0029420656
-0.0053477622
-0.00074928144
0.0059292332
0.010328193
0.012254462
0.012109318
0.010877688
0.0091572129
0.0072784143
0.0053077293
0.0033205726
0.0013742645
-0.0004546605
-0.0020754429
-0.0034045989
-0.0043885225
-0.005011652
-0.0052970251
-0.0052972347
-0.0050800535
-0.0047162921
-0.0042717088
-0.0038027424
-0.0033550072
-0.002966038
-0.0026687449
-0.0024956013
-0.019769922
-0.016753272
-0.0043869868
-0.003867682
-0.00066895903
-0.0063196284
-0.0065130898
-0.0060679629
-0.0017607091
-0.012886094
-0.018967871
-0.048376732
-0.054900752
-0.041467427
-0.018556646
0.0010768744
0.0054603577
0.0047235147
0.0024764265
-0.0063459721
-0.010611713
-0.004617312
0.0043002505
0.010278297
0.01331498
0.01355517
0.012360849
0.010603115
0.0086355874
0.0065941023
0.0045169898
0.0024472421
0.00044241475
-0.0014079596
-0.0030037
-0.0042622118
-0.0051407033
-0.0056384954
-0.0057951117
-0.0056753087
-0.0053540299
-0.0049054986
-0.0043952118
-0.0038767551
-0.0033927565
-0.0029788403
-0.0026657826
-0.0024836721
-0.017332029
-0.023787012
-0.018595424
-0.0022391701
-0.0018418765
0.00079391853
-0.0062525534
-0.0066912823
-0.005799268
-0.0018126369
-0.020265996
-0.047665509
-0.0563365
-0.045095683
-0.024044224
-0.0055405234
0.00013203669
0.002253715
0.00056399555
-0.011302138
-0.016770943
-0.010064734
0.0017965268
0.0096835908
0.014237225
0.015011294
0.013878115
0.012063866
0.010033876
0.0079163885
0.0057798947
0.0036230444
0.0014808374
-0.00057222664
-0.0024278096
-0.0039771633
-0.0051431495
-0.0058969357
-0.0062562306
-0.0062765911
-0.0060339032
-0.0056092991
-0.0050787266
-0.0045052086
-0.0039390041
-0.0034210037
-0.0029849053
-0.0026582249
-0.0024678284
-0.021368698
-0.021340484
-0.026929043
-0.019825416
-0.00043390349
-1.5115458e-05
0.0018353417
-0.0060714681
-0.0067280303
-0.0053461644
-0.0018218975
-0.045285902
-0.056024059
-0.047069884
-0.029275907
-0.0130337
-0.0068259347
-0.0021768612
-0.00064985557
-0.015482113
-0.025453513
-0.016835942
-0.0016935887
0.0082290197
0.014894193
0.016379752
0.015379855
0.013520477
0.011407399
0.0092521107
0.0070682299
0.004869456
0.0026381365
0.00042468338
-0.0016675779
-0.0035098302
-0.0049890099
-0.0060397092
-0.0066506174
-0.0068596189
-0.0067378791
-0.0063714387
-0.005845853
-0.0052356389
-0.0046004105
-0.003989
-0.003441115
-0.0029862625
-0.0026470256
-0.0024478404
-0.041305698
-0.022262704
-0.024586282
-0.029239863
-0.020421336
0.0010499542
0.0015322434
0.002572981
-0.0059591825
-0.0066455938
-0.0048228305
-0.0018128161
-0.053776465
-0.047063192
-0.033841675
-0.021147838
-0.015824872
-0.0093224764
-0.0025094873
-0.018753903
-0.03459412
-0.026799882
-0.0069227855
0.0057259187
0.015025231
0.017615933
0.016732383
0.01489264
0.012743743
0.010528952
0.0083488852
0.006140461
0.0038807044
0.0015647782
-0.00072261953
-0.0028426763
-0.0046491147
-0.0060317961
-0.0069439727
-0.0073949584
-0.0074436022
-0.0071764055
-0.0066873968
-0.0060629665
-0.005374126
-0.0046798479
-0.0040291229
-0.0034566884
-0.0029842785
-0.0026307647
-0.0024219534
-0.049753096
-0.03587814
-0.02223569
-0.026808365
-0.03058577
-0.020464205
0.0021391208
0.0027631332
0.0031654501
-0.005911268
-0.0065049402
-0.0041555465
-0.0017455626
-0.04504767
-0.037399851
-0.029870162
-0.026391358
-0.018245458
-0.0056993925
-0.02198415
-0.045089136
-0.038315308
-0.01507357
0.0013112227
0.014301005
0.018487881
0.017936836
0.016060203
0.013930506
0.011732651
0.0095436828
0.0073931749
0.0051609136
0.0028169112
0.00039683138
-0.0019656114
-0.0040963699
-0.0058389581
-0.0070979083
-0.0078477634
-0.0081231001
-0.0080042429
-0.007590908
-0.0069805721
-0.0062574664
-0.005492551
-0.0047471365
-0.0040650811
-0.0034691197
-0.002974873
-0.002605055
-0.0023907828
-0.041232092
-0.043700584
-0.029672286
-0.020976773
-0.027861002
-0.030976845
-0.020016366
0.0028813254
0.0036849234
0.0035766409
-0.0058503435
-0.0061316363
-0.0034781799
-0.0016846448
-0.039351866
-0.039238487
-0.038218732
-0.028179636
-0.010689659
-0.026490012
-0.053518023
-0.056043614
-0.025211133
-0.0054789636
0.012229383
0.018677443
0.018533442
0.017023857
0.014903191
0.012739198
0.010632636
0.0085428322
0.0064275172
0.0041361488
0.0016668309
-0.00087809651
-0.0033097502
-0.0054249412
-0.0070714778
-0.0081778169
-0.0087421307
-0.0088293083
-0.0085392557
-0.0079792834
-0.0072466032
-0.0064267775
-0.005595915
-0.0048108054
-0.004098031
-0.0034699071
-0.0029492053
-0.0025739531
-0.002354722
-0.03862211
-0.035906639
-0.035799256
-0.023012954
-0.019133683
-0.027788862
-0.030452245
-0.019117639
0.0033239434
0.0043136435
0.0038244619
-0.0057656281
-0.0058837964
-0.0027714208
-0.0014970242
-0.048609932
-0.050812891
-0.039395115
-0.01810284
-0.032110496
-0.062620159
-0.070735985
-0.043802838
-0.015820472
0.010157834
0.017942468
0.018622706
0.017286018
0.015569138
0.013522326
0.011480723
0.0095607196
0.0075909309
0.0054665149
0.0030500659
0.0004076455
-0.0022755781
-0.0047568546
-0.006821999
-0.0083389532
-0.009259944
-0.0096190532
-0.0095097705
-0.00904551
-0.0083355494
-0.0074815399
-0.0065773006
-0.0056962717
-0.0048717936
-0.0041130606
-0.0034443295
-0.0029175833
-0.0025377107
-0.0023137685
-0.056639335
-0.0358211
-0.02925409
-0.026939775
-0.016234611
-0.016951003
-0.026694735
-0.029156649
-0.017864201
0.0035241939
0.0045274586
0.0036886366
-0.005716525
-0.0054326334
-0.0022489322
-0.0013222107
-0.063419912
-0.051861552
-0.027027348
-0.038512833
-0.07204609
-0.087321886
-0.066161349
-0.028750165
0.0031507836
0.017919305
0.017553988
0.017106281
0.015666301
0.013943425
0.012085003
0.01029403
0.0086090582
0.0067187122
0.0044924512
0.0018669882
-0.00099067528
-0.0038066525
-0.0063046849
-0.0082828762
-0.0096287955
-0.010333436
-0.010472686
-0.010159943
-0.0095149866
-0.0086540114
-0.007693104
-0.0067254695
-0.0057943912
-0.0049062335
-0.0040879007
-0.0034116912
-0.0028804402
-0.0024962979
-0.0022678202
-0.075119381
-0.062808855
-0.032519651
-0.021806398
-0.018242104
-0.0097075594
-0.014465136
-0.024843676
-0.027147936
-0.016632084
0.0035433359
0.0045977637
0.0033040839
-0.0054992414
-0.0048836275
-0.0020559608
-0.0011284391
-0.064740881
-0.036445782
-0.045287223
-0.081388522
-0.10340295
-0.087996824
-0.043543534
-0.0056341581
0.012897551
0.016416475
0.015663612
0.015278738
0.0138919
0.012265027
0.010752908
0.0093087477
0.0078343973
0.0059122519
0.0034556764
0.00053799897
-0.0025577665
-0.0054772594
-0.0079579135
-0.0097947313
-0.010924448
-0.011389976
-0.011296556
-0.010769408
-0.0099391388
-0.0089438108
-0.007902907
-0.0068717562
-0.0058549215
-0.0048822796
-0.0040539037
-0.0033730077
-0.0028378184
-0.0024496263
-0.0022168135
-0.076545437
-0.084544386
-0.066263437
-0.029108547
-0.014942823
-0.010326959
-0.0036999642
-0.011759748
-0.022393365
-0.025051905
-0.015234089
0.0036486344
0.0045660874
0.002832027
-0.0048691534
-0.0043233026
-0.0017183517
-0.0009151071
-0.045849225
-0.051848184
-0.089666574
-0.11768729
-0.10792147
-0.062029899
-0.018041339
0.0069558801
0.012447097
0.013511727
0.013840916
0.013316259
0.012024014
0.010707543
0.0097025292
0.0086261336
0.0072383683
0.0051082109
0.0022823623
-0.00099119954
-0.0043114699
-0.0073087518
-0.009699177
-0.011334811
-0.012214186
-0.012420741
-0.012077307
-0.011326195
-0.010327884
-0.0092326335
-0.0081111882
-0.0069666649
-0.0058338987
-0.0048467295
-0.004013219
-0.0033285285
-0.0027897698
-0.0023977136
-0.0021607785
-0.054527234
-0.085525821
-0.090190038
-0.067031439
-0.025584166
-0.0089341878
-0.0035930757
0.0014731177
-0.0089610592
-0.019656637
-0.02216768
-0.013175706
0.0040205568
0.0057922746
0.0020629788
-0.0039279927
-0.0036165568
-0.0014716067
-0.00082456575
-0.057550882
-0.095546905
-0.1284532
-0.12589535
-0.081713356
-0.033106303
-0.0030966033
0.008927196
0.009354918
0.011707875
0.011950718
0.01112682
0.010217926
0.0094908758
0.0090934143
0.0082844103
0.0067512313
0.0042007038
0.00088514918
-0.002762489
-0.0062564982
-0.0092718806
-0.011496941
-0.01288741
-0.013487525
-0.013408902
-0.012798642
-0.011840522
-0.010716848
-0.0095208127
-0.0082517999
-0.0069515131
-0.0057968045
-0.0048037233
-0.0039663846
-0.0032783783
-0.0027362253
-0.0023405203
-0.0020996081
-0.060838584
-0.062040367
-0.090317297
-0.092034731
-0.065317608
-0.021970218
-0.0039234901
0.0017766123
0.0056616412
-0.0062934131
-0.016751523
-0.019180992
-0.011186402
0.0040032943
0.0053700992
0.0015175784
-0.0031273885
-0.0031482622
-0.0012542574
-0.00064625777
-0.097484813
-0.13401954
-0.13992768
-0.099361746
-0.05044541
-0.014879775
0.00083377552
0.0056529831
0.0077076334
0.0099379398
0.0096330148
0.0088607159
0.0087560276
0.0088597467
0.0090263195
0.008216265
0.0062312527
0.0030556112
-0.00081528767
-0.0047875384
-0.0084151745
-0.011330242
-0.01333851
-0.014440331
-0.014723901
-0.014332568
-0.013470107
-0.012356415
-0.011107542
-0.0097217653
-0.0082464576
-0.0069137245
-0.0057513876
-0.0047541251
-0.0039135726
-0.0032224063
-0.0026771668
-0.0022779234
-0.0020334342
-0.094674786
-0.061578325
-0.066201399
-0.090755917
-0.09003242
-0.061674332
-0.018517182
0.00010292747
0.005699726
0.008971341
-0.0038260885
-0.014241123
-0.016771725
-0.0093927464
0.003380933
0.0044595376
0.0011446595
-0.002518783
-0.002262341
-0.0011423782
-0.00053310992
-0.13304238
-0.14757149
-0.11318524
-0.068036179
-0.029413186
-0.010842503
-0.0010432488
0.0034559849
0.0066387154
0.0072441039
0.0070371815
0.0069702661
0.0080325886
0.0090374637
0.009456753
0.0082403627
0.0054783767
0.0015437165
-0.0028550296
-0.007094983
-0.010764517
-0.013487179
-0.015209752
-0.015969913
-0.015894035
-0.015198738
-0.014145283
-0.01287632
-0.011387606
-0.0097317965
-0.0082093374
-0.0068661338
-0.0056989338
-0.0046982247
-0.0038545707
-0.0031607118
-0.0026125742
-0.0022102808
-0.0019620987
-0.12547501
-0.086900431
-0.059121793
-0.066646107
-0.086826936
-0.084831071
-0.056466608
-0.015316076
0.0032477272
0.0081533106
0.011319298
-0.002063407
-0.011805827
-0.013810917
-0.0071532198
0.0027908719
0.0034794209
0.00079413962
-0.002012516
-0.0019116332
-0.00089094976
-0.00040247529
-0.14696137
-0.12261637
-0.082649378
-0.045396024
-0.026155707
-0.010918312
-0.0037484494
0.0030825875
0.004301674
0.0038288529
0.0047223983
0.0059633818
0.0084326586
0.010051698
0.010169326
0.0080744964
0.0042933965
-0.00041025944
-0.0052601744
-0.0097004165
-0.013256914
-0.015717531
-0.017081537
-0.01743712
-0.016999589
-0.016071619
-0.014829571
-0.013258375
-0.011421286
-0.0096971568
-0.0081606442
-0.0068109879
-0.0056396592
-0.0046357247
-0.0037896125
-0.0030933337
-0.0025428103
-0.0021372171
-0.0018857406
-0.13789305
-0.1114521
-0.075933095
-0.053307579
-0.063826412
-0.078925356
-0.077173004
-0.050180735
-0.01254978
0.0053136374
0.0087702896
0.013008771
-0.0014174454
-0.0091636565
-0.010603398
-0.0052493809
0.002291218
0.0029967108
0.00050668695
-0.0014704974
-0.0013213797
-0.0007471015
-0.00032690191
-0.12562088
-0.090933936
-0.061191895
-0.044052601
-0.025643296
-0.014403379
-0.0034066917
0.0014845476
0.000599397
0.00049142737
0.0032260942
0.006386733
0.010090648
0.011653871
0.010775651
0.0074020751
0.0025449749
-0.0028486693
-0.0080676525
-0.012546604
-0.015880962
-0.017983765
-0.018902989
-0.018834564
-0.018116331
-0.016962685
-0.015345891
-0.013328095
-0.011392095
-0.0096493491
-0.0081033437
-0.0067483941
-0.0055732901
-0.004566858
-0.0037187819
-0.0030206556
-0.0024674326
-0.0020589026
-0.0018043483
-0.12020827
-0.12163931
-0.09354186
-0.062553376
-0.045809038
-0.058714451
-0.068417088
-0.068031996
-0.043530434
-0.010636018
0.0069136441
0.0094420666
0.013130205
-0.00060731859
-0.006355371
-0.0089382825
-0.0037026763
0.0018540448
0.0025154642
0.00040711651
-0.0010651204
-0.0011002669
-0.00054796749
-0.00023182561
-0.092035974
-0.074746361
-0.063290935
-0.045481555
-0.02929828
-0.013880683
-0.0031747221
-0.0029088684
-0.0032543289
-0.0020884428
0.0033969929
0.008673307
0.012737421
0.013341762
0.010808874
0.006018075
0.00015818364
-0.0058145635
-0.011254843
-0.015593042
-0.018593478
-0.020221098
-0.02065314
-0.020250068
-0.01926651
-0.017653617
-0.01546782
-0.013309298
-0.011348567
-0.009591196
-0.0080377805
-0.0066779512
-0.0055000022
-0.0044919533
-0.0036425163
-0.0029421198
-0.0023862963
-0.0019754767
-0.001718109
-0.087099678
-0.10692838
-0.1018115
-0.074078004
-0.048295281
-0.037182109
-0.051597113
-0.057348803
-0.057994616
-0.037336178
-0.0086780501
0.0085339255
0.0099414714
0.01297122
0.00061366617
-0.0041839823
-0.0063037094
-0.0024570043
0.001548749
0.0020905012
0.00040254311
-0.00066905226
-0.00068562213
-0.00039626965
-0.00016134599
-0.084459337
-0.082142503
-0.069168074
-0.049712854
-0.028901604
-0.011313654
-0.0071091976
-0.0085787154
-0.0067115813
-0.0024874213
0.006145906
0.012709805
0.015727314
0.014350288
0.0099502517
0.003815376
-0.00289036
-0.0093021371
-0.014751602
-0.018800071
-0.021308075
-0.022392201
-0.022432233
-0.021723173
-0.020183816
-0.017851423
-0.015465912
-0.013275638
-0.011291857
-0.0095235655
-0.007963348
-0.006599842
-0.0054204198
-0.0044114441
-0.0035600236
-0.0028571031
-0.0022999534
-0.0018871859
-0.0016270108
-0.088315362
-0.077951937
-0.089343203
-0.080382788
-0.055213265
-0.0342654
-0.027716361
-0.042613988
-0.046411073
-0.048438062
-0.030729191
-0.005880516
0.0093340459
0.010333197
0.01173437
0.0020691195
-0.0027321257
-0.0044927695
-0.0013990741
0.0013614819
0.001747973
0.00046054418
-0.0003420377
-0.00043574263
-0.0002232781
-8.7955557e-05
-0.099021022
-0.095253508
-0.076336306
-0.049650406
-0.023485287
-0.013647366
-0.01397845
-0.014845979
-0.0085870437
0.00082948651
0.011496102
0.017454462
0.018020895
0.0142349
0.0080645425
0.00075429149
-0.0066270782
-0.013254622
-0.018491345
-0.0220633
-0.023975926
-0.024611252
-0.024305159
-0.022932211
-0.020488933
-0.017876476
-0.015450051
-0.01322419
-0.011223902
-0.0094456362
-0.0078802025
-0.0065150143
-0.0053349894
-0.0043241244
-0.0034700698
-0.0027667513
-0.0022086195
-0.0017941142
-0.0015312223
-0.1117867
-0.085928924
-0.066887443
-0.069758895
-0.059525561
-0.037590679
-0.021098748
-0.017795684
-0.032304594
-0.03648995
-0.037236584
-0.02446421
-0.002644497
0.0093662569
0.010298139
0.010251169
0.0028867331
-0.0014946421
-0.0027638834
-0.00060039599
0.0012774904
0.0015481751
0.00054560138
-5.3866586e-05
-0.00016060435
-7.2889752e-05
-1.9728379e-05
-0.12161309
-0.10696052
-0.076795047
-0.040416503