/*--------------------------------*- C++ -*----------------------------------*\
| =========                 |                                                 |
| \\      /  F ield         | OpenFOAM: The Open Source CFD Toolbox           |
|  \\    /   O peration     | Version:  5.0                                   |
|   \\  /    A nd           | Web:      www.OpenFOAM.org                      |
|    \\/     M anipulation  |                                                 |
\*---------------------------------------------------------------------------*/
FoamFile
{
    version     2.0;
    format      ascii;
    class       surfaceScalarField;
    location    "200";
    object      phi;
}
// * * * * * * * * * * * * * * * * * * * * * * * * * * * * * * * * * * * * * //

dimensions      [0 3 -1 0 0 0 0];

internalField   nonuniform List<scalar> 
18820
(
-0.00039686023
-1.3578913
-0.00076654197
-1.2698921
-0.00037810795
-1.3575131
-0.0011088805
-1.1876873
-0.00073157753
-1.2695386
-0.00036310202
-1.35715
-0.0014233667
-1.1108693
-0.0010605182
-1.1873583
-0.0007023045
-1.2691994
-0.00035788133
-1.3567922
-0.0017094703
-1.0390716
-0.0013649688
-1.1105649
-0.0010183452
-1.1870423
-0.00069173872
-1.2688656
-0.00035866088
-1.3564335
-0.0019669559
-0.97194675
-0.0016444951
-1.038792
-0.0013123604
-1.1102709
-0.0010032839
-1.1867307
-0.00069360952
-1.2685306
-0.00035747624
-1.356076
-0.002195456
-0.90917929
-0.0018985472
-0.9716927
-0.001584757
-1.0385196
-0.0012944202
-1.1099797
-0.0010072557
-1.1864171
-0.00069323881
-1.2681949
-0.00034630753
-1.3557297
-0.0023941693
-0.85047867
-0.0021270778
-0.90895076
-0.0018347857
-0.97144267
-0.0015665371
-1.0382475
-0.0013012372
-1.1096858
-0.0010102545
-1.1861001
-0.00067410707
-1.2678671
-0.00032620588
-1.3554035
-0.0025619384
-0.79557671
-0.002330787
-0.85027496
-0.0020620484
-0.90872349
-0.001819694
-0.97118951
-0.0015770757
-1.0379717
-0.001309736
-1.1093863
-0.00098665921
-1.1857875
-0.00063685753
-1.2675564
-0.00030288561
-1.3551006
-0.0026976161
-0.74422308
-0.0025120435
-0.79539545
-0.0022672318
-0.85006978
-0.0020536596
-0.90848953
-0.0018359156
-0.97093067
-0.0015931047
-1.0376883
-0.0012853196
-1.1090876
-0.0009355074
-1.1854889
-0.00059194201
-1.2672673
-0.00028257061
-1.3548181
-0.0028021691
-0.69618953
-0.0026750602
-0.74406006
-0.0024533753
-0.79520931
-0.0022681968
-0.84985524
-0.002078104
-0.90824734
-0.0018625112
-0.97066126
-0.001571105
-1.0374025
-0.0012247858
-1.1087983
-0.00087095389
-1.1852099
-0.00055195981
-1.266998
-0.00026811791
-1.3545499
-0.00287829
-0.65125994
-0.0028266569
-0.69603793
-0.0026274051
-0.74388603
-0.0024627213
-0.79501479
-0.0023029877
-0.84963036
-0.0021191571
-0.90799069
-0.0018460967
-0.97038627
-0.0015059214
-1.0371214
-0.0011436766
-1.1085256
-0.00081257738
-1.1849492
-0.00052302243
-1.2667431
-0.00025808063
-1.3542919
-0.0029429262
-0.60920939
-0.0029904606
-0.65109613
-0.0028025722
-0.69586276
-0.0026370007
-0.74371175
-0.0025079171
-0.79480986
-0.002362703
-0.84938681
-0.0021120618
-0.90772473
-0.0017800226
-0.97011217
-0.0014123664
-1.0368527
-0.0010683843
-1.1082698
-0.00077004757
-1.1847022
-0.00050300204
-1.2664981
-0.00024843813
-1.3540434
-0.0029998843
-0.56985298
-0.0031814452
-0.6090184
-0.002987003
-0.6509117
-0.0027886576
-0.69571111
-0.0026856829
-0.74353399
-0.0025899844
-0.79458258
-0.0023707036
-0.84912817
-0.0020486427
-0.90745611
-0.0016772054
-0.96984733
-0.0013222742
-1.0365988
-0.0010132997
-1.1080266
-0.00074044135
-1.1844648
-0.00048450459
-1.2662621
-0.00023524854
-1.3538082
-0.0030612674
-0.53302637
-0.0033817088
-0.56965271
-0.0031539735
-0.60885143
-0.0028934979
-0.65080686
-0.002818555
-0.69557824
-0.002794387
-0.74332958
-0.0026246045
-0.79432868
-0.0023141852
-0.84886263
-0.0019383274
-0.90719499
-0.0015748837
-0.96959472
-0.0012556371
-1.0363565
-0.00097469945
-1.1077923
-0.00071333083
-1.1842359
-0.00045969903
-1.2660376
-0.00021653683
-1.3535916
-0.0031343904
-0.49857263
-0.0036052363
-0.53280284
-0.0032876407
-0.56951904
-0.0029314264
-0.6088135
-0.0028882507
-0.65073717
-0.0029702308
-0.69540239
-0.0028790892
-0.7430751
-0.0025815595
-0.7940613
-0.0021962795
-0.84860468
-0.0018257048
-0.90694417
-0.0014985671
-0.96935179
-0.0012088496
-1.0361223
-0.00093906432
-1.1075666
-0.00067769358
-1.184018
-0.0004241253
-1.26583
-0.00019289022
-1.3533987
-0.0032413045
-0.46633315
-0.0038641029
-0.49831376
-0.0033893352
-0.53270115
-0.0029184832
-0.56953199
-0.0028970521
-0.6088047
-0.0031195957
-0.6505878
-0.0031436288
-0.69513785
-0.0028589175
-0.74279774
-0.0024524446
-0.79380514
-0.0020733973
-0.84835698
-0.0017423416
-0.90670039
-0.0014453333
-0.96911531
-0.0011653706
-1.035896
-0.00089253786
-1.1073517
-0.00062686874
-1.1838152
-0.00037837267
-1.2656445
-0.0001669434
-1.3532318
-0.0033663301
-0.43617548
-0.004200341
-0.46599691
-0.003487632
-0.49821546
-0.0028249469
-0.53279469
-0.0028589285
-0.56957011
-0.0032508874
-0.60867341
-0.0034347624
-0.65029667
-0.003158657
-0.69483811
-0.0027089894
-0.7425412
-0.0023149746
-0.79356356
-0.0019856657
-0.84811366
-0.0016858422
-0.90645988
-0.0013956366
-0.96888504
-0.0011082887
-1.0356803
-0.00082715495
-1.1071514
-0.00056053997
-1.183633
-0.00032747075
-1.265484
-0.00014205335
-1.3530897
-0.0035840312
-0.40792326
-0.004634949
-0.43574087
-0.0035792833
-0.46590526
-0.0026342248
-0.49840619
-0.002746858
-0.53290676
-0.0033698239
-0.56945118
-0.0037684341
-0.60833974
-0.0035000069
-0.64995532
-0.0029704468
-0.69457666
-0.0025457288
-0.74231044
-0.0022248715
-0.79332435
-0.0019306646
-0.84786884
-0.001632971
-0.90622255
-0.0013292863
-0.96866405
-0.0010284541
-1.035479
-0.00074197255
-1.10697
-0.00048483807
-1.1834757
-0.00027817985
-1.2653479
-0.0001208381
-1.3529689
-0.0037977172
-0.3815091
-0.0052199929
-0.40733821
-0.0036933879
-0.43562676
-0.0022961302
-0.46624336
-0.002506846
-0.4986462
-0.0034966821
-0.5327799
-0.0041580103
-0.5690616
-0.003902333
-0.60793741
-0.0032408688
-0.6496849
-0.0027587206
-0.69436366
-0.0024535549
-0.74208176
-0.0021781314
-0.79307689
-0.0018797385
-0.84762207
-0.0015595764
-0.90599226
-0.0012355204
-0.96845698
-0.00092487438
-1.0352961
-0.00064249177
-1.1068123
-0.00041013351
-1.1833437
-0.00023570181
-1.265233
-0.00010438258
-1.3528645
-0.0041638692
-0.35668257
-0.0059310114
-0.38079808
-0.0037843183
-0.40724728
-0.0017803276
-0.43614257
-0.0020897013
-0.4666605
-0.0036217626
-0.49852112
-0.0046375668
-0.53230034
-0.0043787847
-0.56858515
-0.0035284755
-0.60764981
-0.0029424246
-0.64950119
-0.0026603396
-0.69415688
-0.0024237285
-0.74183616
-0.0021377858
-0.79281884
-0.0018032342
-0.84737841
-0.0014524122
-0.90577537
-0.0011128737
-0.96826898
-0.00080259046
-1.035136
-0.00054137156
-1.1066811
-0.00034520785
-1.1832342
-0.00020210816
-1.2651353
-9.2346437e-05
-1.3527722
-0.0044573806
-0.33348426
-0.0068368526
-0.35577672
-0.0039559331
-0.38062647
-0.0010200551
-0.40800755
-0.001446805
-0.43678546
-0.0037574077
-0.46652486
-0.0052629364
-0.49789575
-0.0049541443
-0.53172498
-0.0038155613
-0.56829806
-0.0030798252
-0.60751241
-0.0028272505
-0.64933428
-0.0026577753
-0.69392283
-0.0024080213
-0.74156593
-0.002065258
-0.79255682
-0.0016835811
-0.84714724
-0.0013093699
-0.90557887
-0.00096684721
-0.96810472
-0.00067465217
-1.0350027
-0.00045210967
-1.1065742
-0.00029368846
-1.1831426
-0.0001768484
-1.2650508
-8.360708e-05
-1.3526886
-0.0050335713
-0.31143864
-0.0078206805
-0.33250043
-0.0041038703
-0.35562879
-1.8067572e-05
-0.38162845
-0.00053132982
-0.40892303
-0.0038850685
-0.4366578
-0.0061011358
-0.46568666
-0.0056871475
-0.49716275
-0.0041042776
-0.53143627
-0.0031367671
-0.56824112
-0.0029172844
-0.60742237
-0.002863368
-0.64912869
-0.0026899606
-0.69364089
-0.0023522231
-0.74127896
-0.0019348984
-0.7923055
-0.0015178787
-0.84693874
-0.0011372688
-0.90540845
-0.00081093683
-0.96796844
-0.00055954969
-1.0348952
-0.00038073059
-1.1064872
-0.00025455947
-1.1830649
-0.00015815907
-1.2649762
-7.6898917e-05
-1.3526117
-0.0057781589
-0.2906636
-0.0090865383
-0.31017278
-0.0044096625
-0.33219464
0.0013925781
-0.35703943
0.00072867115
-0.38288846
-0.0040348273
-0.40877327
-0.0072262766
-0.43553266
-0.006636321
-0.46473748
-0.0043959479
-0.49687108
-0.0030694494
-0.53150358
-0.0029049776
-0.56825343
-0.0030141215
-0.60727162
-0.0029821787
-0.64883647
-0.0026742592
-0.69331886
-0.002214876
-0.74099898
-0.0017425565
-0.79208082
-0.0013156412
-0.84676036
-0.00095140769
-0.90526798
-0.00066860891
-0.96785938
-0.00046612827
-1.0348099
-0.00032618664
-1.1064155
-0.00022480836
-1.1829983
-0.00014407848
-1.2649091
-7.1143364e-05
-1.3525405
-0.0066397489
-0.27175363
-0.010464736
-0.2892854
-0.0045690425
-0.3100134
0.0030372168
-0.33383928
0.0023799913
-0.35869075
-0.0041470899
-0.38277619
-0.0087213202
-0.40727823
-0.0078791037
-0.43428988
-0.0046966444
-0.46443679
-0.0028240358
-0.49711649
-0.0027370705
-0.53167149
-0.0031107497
-0.5681568
-0.0032863174
-0.60696748
-0.0030467018
-0.64846403
-0.0025371502
-0.69299658
-0.0019890276
-0.74075251
-0.0015030834
-0.79189338
-0.0010965268
-0.84661524
-0.00078035957
-0.90515623
-0.00055186528
-0.96777364
-0.00039361565
-1.0347424
-0.00028416465
-1.1063562
-0.00020158913
-1.1829408
-0.0001326218
-1.2648476
-6.5506444e-05
-1.352475
-0.0074603419
-0.25380475
-0.012101968
-0.27011639
-0.0046441915
-0.28921025
0.0052685089
-0.3122447
0.0044653187
-0.3359246
-0.0043546756
-0.35848317
-0.010684036
-0.38081348
-0.0094819309
-0.4056754
-0.0050178902
-0.43396863
-0.0023468881
-0.46491393
-0.0023379926
-0.49751557
-0.0031544527
-0.53162779
-0.003612633
-0.56783048
-0.0034962391
-0.60651794
-0.0029222191
-0.64807896
-0.0022655629
-0.69272005
-0.0017000316
-0.74055556
-0.0012451414
-0.79174476
-0.00089509485
-0.84650051
-0.00063935542
-0.90506874
-0.00045975859
-0.9677075
-0.000336991
-1.0346896
-0.00025031913
-1.1063074
-0.00018255092
-1.1828908
-0.00012171612
-1.2647914
-5.9415716e-05
-1.3524156
-0.0090776196
-0.23497166
-0.013747936
-0.25215878
-0.004890771
-0.26986981
0.007907364
-0.2918491
0.0069361221
-0.3147155
-0.0044436224
-0.33583566
-0.013226035
-0.35594117
-0.011557983
-0.37873743
-0.0053711703
-0.40532212
-0.0015654035
-0.43475012
-0.0016199536
-0.46563197
-0.0030922423
-0.49757778
-0.0039902624
-0.53125016
-0.0040473038
-0.56727942
-0.0034025939
-0.60603757
-0.0025842313
-0.64776029
-0.0019059862
-0.69251409
-0.0013936735
-0.74040703
-0.0010111323
-0.79162873
-0.00072952617
-0.84641034
-0.00052681895
-0.90500168
-0.00038626652
-0.96765823
-0.00029063911
-1.0346493
-0.00022134321
-1.1062687
-0.00016507503
-1.1828475
-0.00010970119
-1.2647411
-5.2684528e-05
-1.3523629
-0.010948561
-0.21640464
-0.015802715
-0.23291688
-0.0052570571
-0.25179249
0.011087169
-0.27304962
0.009858227
-0.29477121
-0.0047664033
-0.31439272
-0.016426193
-0.3326355
-0.014161034
-0.35333812
-0.0057767312
-0.37833186
-0.00040279898
-0.40648472
-0.00047467216
-0.4358954
-0.0028595417
-0.46586467
-0.0044441238
-0.49712392
-0.00473917
-0.53055829
-0.0040075945
-0.56667442
-0.002962853
-0.60565895
-0.0021198729
-0.64754641
-0.001534707
-0.69237306
-0.001123411
-0.74029475
-0.00082165916
-0.79153659
-0.00059691634
-0.84634024
-0.00043515436
-0.90495279
-0.00032479784
-0.96762407
-0.00024981822
-1.0346208
-0.00019452185
-1.1062392
-0.00014672966
-1.1828105
-9.611564e-05
-1.2646977
-4.563009e-05
-1.3523173
-0.012795936
-0.19952648
-0.017631395
-0.21457596
-0.0046568698
-0.23351707
0.01452043
-0.25522575
0.013427643
-0.27661904
-0.0052908862
-0.29424673
-0.0203343
-0.31048461
-0.017466375
-0.32933016
-0.0062242442
-0.35289061
0.0012462372
-0.3799809
0.0012139655
-0.40817336
-0.0023844434
-0.4363705
-0.00499491
-0.46531389
-0.0056465687
-0.49621652
-0.0047751278
-0.52979076
-0.0034212456
-0.56621603
-0.0023372396
-0.60544158
-0.0016559483
-0.64742517
-0.0012219698
-0.6922745
-0.00091219216
-0.74020422
-0.00067129275
-0.79146222
-0.00048715697
-0.84628824
-0.00035667158
-0.90492092
-0.0002697832
-0.9676041
-0.0002115377
-1.0346038
-0.00016793728
-1.106218
-0.00012649268
-1.1827801
-8.1850252e-05
-1.2646614
-3.8918013e-05
-1.3522784
-0.014620604
-0.18368398
-0.019258045
-0.19789983
-0.0029017958
-0.21633103
0.019063971
-0.23806061
0.017370229
-0.25916834
-0.0058887953
-0.27602113
-0.02512106
-0.28945997
-0.021424104
-0.30652688
-0.0067374878
-0.32881692
0.0034973178
-0.35514169
0.0035932662
-0.3823602
-0.0015863243
-0.40897148
-0.0056620333
-0.43570337
-0.0068570865
-0.46410337
-0.0057854002
-0.49520624
-0.0039765523
-0.52923545
-0.0025536098
-0.56599966
-0.0017371373
-0.60536039
-0.001290064
-0.64735707
-0.00099327065
-0.69219342
-0.0007497692
-0.74012574
-0.00054585521
-0.79140352
-0.00039090356
-0.84625401
-0.0002853429
-0.90490536
-0.00021820871
-0.96759743
-0.00017431521
-1.0345974
-0.00014022325
-1.1062043
-0.00010475
-1.1827572
-6.8479218e-05
-1.2646319
-3.3179032e-05
-1.3522452
-0.018307206
-0.19853042
-0.020639932
-0.1823021
-0.0005979768
-0.20020365
0.024426941
-0.221694
0.021673737
-0.24236412
-0.0055387063
-0.25951843
-0.030858516
-0.27028367
-0.026015925
-0.28486815
-0.0071994495
-0.30606492
0.0064934761
-0.33181307
0.0067973971
-0.35834582
-0.00037006949
-0.38357646
-0.0064691878
-0.40816433
-0.0084784138
-0.43408205
-0.0071358854
-0.46275289
-0.0046647543
-0.49451804
-0.0027590155
-0.52903005
-0.0017503348
-0.56598646
-0.0013020452
-0.60534841
-0.001051235
-0.64729911
-0.00082992643
-0.69211327
-0.00061525095
-0.74005635
-0.00043335576
-0.79136107
-0.00030175964
-0.84623759
-0.00021797809
-0.90490559
-0.0001677659
-0.96760398
-0.00013623107
-1.0346014
-0.00011058846
-1.1061984
-8.3837504e-05
-1.1827418
-5.7086164e-05
-1.264608
-2.8833209e-05
-1.3522164
-0.021508635
-0.19504972
-0.023799523
-0.19537083
0.0021984996
-0.18509857
0.029822521
-0.20559923
0.025704718
-0.22572498
-0.0056964823
-0.24220634
-0.036945319
-0.25343163
-0.031549303
-0.26475029
-0.0075874557
-0.28448014
0.010400887
-0.30997233
0.01099394
-0.33600962
0.0013464895
-0.36006238
-0.007439648
-0.382606
-0.010632321
-0.40601042
-0.0089503824
-0.43226755
-0.0055374213
-0.46188022
-0.002933146
-0.49434391
-0.0016572693
-0.52912311
-0.0012252316
-0.56606327
-0.0010658863
-0.60533376
-0.0009072262
-0.64722181
-0.00070021634
-0.6920283
-0.00049200775
-0.73999769
-0.00032615759
-0.79133667
-0.00021572837
-0.84623984
-0.00015096757
-0.90492239
-0.00011597645
-0.96762424
-9.6666637e-05
-1.0346153
-8.1560402e-05
-1.1062007
-6.6200241e-05
-1.1827327
-4.8412507e-05
-1.2645884
-2.6104631e-05
-1.3521903
-0.024203944
-0.19129043
-0.026464423
-0.19238483
0.003590025
-0.19676235
0.035089667
-0.19036572
0.029047706
-0.20894222
-0.0081941275
-0.22322734
-0.043883815
-0.23526785
-0.038940232
-0.2460407
-0.0081779716
-0.26415978
0.015325902
-0.28940515
0.016283824
-0.31526222
0.003685508
-0.33834864
-0.0086110313
-0.35889099
-0.013469235
-0.37976908
-0.011366765
-0.40359404
-0.0066589406
-0.43114603
-0.0030551702
-0.46175819
-0.0014033116
-0.49459787
-0.0010032758
-0.52934507
-0.001012742
-0.56611642
-0.00097535574
-0.60526563
-0.00080607726
-0.64711595
-0.00057712076
-0.69194319
-0.00036835632
-0.7399555
-0.00021861382
-0.79133378
-0.00012809279
-0.84626271
-8.1952714e-05
-0.90495641
-6.378829e-05
-0.96765711
-5.8815981e-05
-1.0346381
-5.6765795e-05
-1.1062101
-5.2562379e-05
-1.1827286
-4.2895868e-05
-1.2645716
-2.5020843e-05
-1.3521652
-0.026395877
-0.18749321
-0.028635785
-0.18911907
0.0058028441
-0.19459764
0.038992405
-0.20066509
0.031848169
-0.19316618
-0.011806202
-0.20533015
-0.052084803
-0.21502635
-0.046929462
-0.22727862
-0.0095383164
-0.24468035
0.021312106
-0.27014598
0.022778198
-0.29589953
0.0066845394
-0.31826125
-0.010014776
-0.33694489
-0.017153544
-0.35520668
-0.01455936
-0.37657649
-0.0081031612
-0.40214982
-0.0030995929
-0.43110161
-0.00091640866
-0.4622451
-0.00056814469
-0.495033
-0.00084442991
-0.52951338
-0.0010163086
-0.56607546
-0.00093571452
-0.60513599
-0.00070108084
-0.64699198
-0.0004412847
-0.69187026
-0.00023667837
-0.73993743
-0.00010568545
-0.79135619
-3.7489112e-05
-0.84630718
-1.3663558e-05
-0.90500653
-1.5071599e-05
-0.96770086
-2.5995556e-05
-1.0346688
-3.7559082e-05
-1.1062252
-4.3591919e-05
-1.1827279
-4.0447308e-05
-1.2645562
-2.536305e-05
-1.3521399
-0.028050831
-0.18376672
-0.030352101
-0.1857769
0.0086274638
-0.19194369
0.043548214
-0.19915345
0.033904456
-0.20272138
-0.015939452
-0.18903293
-0.06035904
-0.19705591
-0.053479248
-0.20847657
-0.010742376
-0.22607456
0.02847966
-0.25184791
0.030481061
-0.27784884
0.010400922
-0.29961591
-0.011742314
-0.31653371
-0.021883988
-0.33221445
-0.018699064
-0.35106698
-0.0099579571
-0.37472169
-0.0030388591
-0.40221055
-0.00010875744
-0.43190926
0.00016730904
-0.46298055
-0.00049623046
-0.4953812
-0.0010188026
-0.52951089
-0.0010851947
-0.56592598
-0.00087916339
-0.60495791
-0.00056238588
-0.64687088
-0.00028327803
-0.69182366
-9.2681287e-05
-0.73995043
1.2368274e-05
-0.79140605
5.2254918e-05
-0.84637309
5.0140953e-05
-0.90507175
2.7538008e-05
-0.96775439
-7.0595157e-07
-1.0347057
-2.4773905e-05
-1.106244
-3.9434822e-05
-1.1827289
-4.0360222e-05
-1.2645412
-2.7016889e-05
-1.3521129
-0.029148788
-0.18031433
-0.031584136
-0.18253468
0.011833772
-0.1889832
0.048492414
-0.19688789
0.036539823
-0.20178882
-0.020222897
-0.19843793
-0.068441964
-0.18095001
-0.059133297
-0.19140186
-0.010310615
-0.20890833
0.037074967
-0.23466986
0.039697761
-0.26106461
0.014836049
-0.28228397
-0.013920932
-0.29743729
-0.027878016
-0.31053968
-0.023995164
-0.32691835
-0.012307181
-0.34871776
-0.0028303378
-0.37493021
0.0011218965
-0.4034412
0.0013121516
-0.4330541
0.00010640931
-0.46358319
-0.00094635354
-0.49545365
-0.0012784433
-0.52931764
-0.0011286217
-0.56567652
-0.00075563374
-0.60476466
-0.00037701293
-0.64677715
-0.00010064632
-0.69181569
6.1787308e-05
-0.73999985
0.00013060506
-0.7914844
0.00013570645
-0.84645866
0.00010592139
-0.90515013
6.1331031e-05
-0.96781643
1.656607e-05
-1.034747
-1.8645202e-05
-1.1062648
-3.9382583e-05
-1.1827298
-4.3643326e-05
-1.2645246
-2.9794858e-05
-1.3520831
-0.029693623
-0.17734004
-0.032333664
-0.1795648
0.015218064
-0.18591897
0.05361913
-0.19410992
0.039542136
-0.1998902
-0.024159313
-0.1978524
-0.077094018
-0.18978588
-0.064242631
-0.17584067
-0.0087604668
-0.19295201
0.047045785
-0.21887915
0.050841657
-0.24581376
0.020486956
-0.26671551
-0.016612447
-0.27959246
-0.035372966
-0.28994234
-0.030591091
-0.30394375
-0.015252372
-0.32397316
-0.0024237602
-0.34912433
0.00289903
-0.37670735
0.0029917342
-0.40512079
0.001054727
-0.43400242
-0.00075524408
-0.4637743
-0.0015301062
-0.49520199
-0.001479973
-0.52896629
-0.0010534447
-0.56537871
-0.00054280408
-0.60459887
-0.00014556357
-0.64673223
0.00010112639
-0.69185503
0.00021696737
-0.74008622
0.00024000333
-0.79158869
0.00020844881
-0.84656119
0.00015009393
-0.90523889
8.4471882e-05
-0.96788433
2.5461532e-05
-1.0347911
-1.8618989e-05
-1.1062855
-4.4209195e-05
-1.1827293
-4.9099857e-05
-1.2645053
-3.3365739e-05
-1.3520497
-0.029736308
-0.17501067
-0.032573772
-0.17709993
0.018531188
-0.18287792
0.058646888
-0.19094673
0.04286781
-0.19743559
-0.027761796
-0.19628772
-0.085396591
-0.18954983
-0.07215612
-0.18187239
-0.0061924628
-0.17840868
0.057915497
-0.20382172
0.062802261
-0.23083975
0.027739825
-0.25306663
-0.01931631
-0.26401165
-0.044428091
-0.27053733
-0.038618873
-0.28191456
-0.018814598
-0.30038153
-0.001752562
-0.32464436
0.0053551902
-0.35158049
0.0053472619
-0.37906287
0.0024635108
-0.40652957
-0.0003917171
-0.43436595
-0.0018416525
-0.46346275
-0.0019871834
-0.49469478
-0.0014879548
-0.52853178
-0.00081766368
-0.56510385
-0.00024747966
-0.60449695
0.00011987748
-0.64675098
0.00030685171
-0.69194492
0.00036158726
-0.7402078
0.00033558115
-0.79171582
0.0002665878
-0.84667768
0.00018090836
-0.90533533
9.6896573e-05
-0.96795577
2.6269266e-05
-1.034836
-2.4249135e-05
-1.1063055
-5.2287472e-05
-1.1827261
-5.6157205e-05
-1.2644825
-3.7409079e-05
-1.3520123
-0.029260102
-0.17345199
-0.032339698
-0.17524474
0.021631858
-0.1802006
0.063299391
-0.18753042
0.046257052
-0.19433597
-0.030901929
-0.19429546
-0.093147211
-0.1885371
-0.079791411
-0.18191454
-0.0084779337
-0.17958692
0.069388471
-0.18988165
0.074814325
-0.21583379
0.035316209
-0.23841613
-0.021695009
-0.25068793
-0.05494343
-0.25349631
-0.048172134
-0.26098407
-0.022991087
-0.27773807
-0.00071171307
-0.30142238
0.0086474345
-0.3279366
0.0085311415
-0.35476437
0.0044579066
-0.38105727
0.00020449007
-0.40712578
-0.0022154309
-0.43399217
-0.0027051256
-0.46274481
-0.0021260352
-0.49405669
-0.0012343366
-0.5281151
-0.00043641725
-0.56491491
0.00010484845
-0.60448192
0.00039568227
-0.64683981
0.00049969735
-0.69208303
0.00048778486
-0.74036
0.00041216656
-0.7918614
0.00030774127
-0.84680451
0.0001981826
-0.90543661
9.9003955e-05
-0.9680285
1.9911661e-05
-1.0348802
-3.4759207e-05
-1.106323
-6.2892052e-05
-1.1827194
-6.4228606e-05
-1.2644556
-4.1624893e-05
-1.3519707
-0.17281596
-0.028400502
-0.031718247
-0.17407345
0.024423508
-0.17803639
0.067335958
-0.18423716
0.049555378
-0.19082875
-0.033607491
-0.19163041
-0.10027011
-0.18717256
-0.086964031
-0.18136448
-0.010369118
-0.18002336
0.077125393
-0.18732384
0.086276727
-0.20134405
0.042373426
-0.222891
-0.023328645
-0.2367825
-0.067198449
-0.23843291
-0.059733202
-0.24193524
-0.027896936
-0.25607822
0.000840407
-0.27929019
0.012934547
-0.30570949
0.012704404
-0.33210986
0.007178295
-0.35748476
0.0011192206
-0.381972
-0.0026570181
-0.40668419
-0.0036968469
-0.43300045
-0.0030522073
-0.46181864
-0.0018482222
-0.49344281
-0.00074524244
-0.52780628
3.980343e-05
-0.56484987
0.00047759932
-0.60456384
0.00065446637
-0.64699458
0.00066696062
-0.6922622
0.00058872603
-0.74053656
0.00046687582
-0.79202054
0.00033166334
-0.84693799
0.0002024669
-0.90554008
9.1946903e-05
-0.96810054
7.0014761e-06
-1.0349219
-4.8865803e-05
-1.106337
-7.5116515e-05
-1.1827085
-7.2659141e-05
-1.2644246
-4.5744348e-05
-1.3519249
-0.17363219
-0.030902013
-0.17330489
-0.027123741
0.026509135
-0.17615907
0.07064271
-0.18134315
0.05251167
-0.18719346
-0.035783319
-0.18865292
-0.106531
-0.18536952
-0.093615857
-0.18052074
-0.011892858
-0.17984074
0.085401932
-0.18829989
0.097252302
-0.19829942
0.048028737
-0.20699936
-0.02651925
-0.2197004
-0.080802162
-0.22317878
-0.073738132
-0.22442798
-0.034297835
-0.23553434
0.003052086
-0.2582899
0.018389458
-0.2847451
0.018010492
-0.31101558
0.010777293
-0.33570886
0.0024420419
-0.35880758
-0.0031644986
-0.38146452
-0.00503935
-0.40534169
-0.0043668967
-0.43168576
-0.0027446861
-0.46092217
-0.0012053037
-0.49298275
-9.8466405e-05
-0.52766801
0.00055021491
-0.56492249
0.00082877823
-0.60473815
0.00087720682
-0.64720483
0.0007997871
-0.69247326
0.00066094832
-0.74073063
0.00049957008
-0.79218844
0.00033923485
-0.84707476
0.0001951587
-0.90564329
7.6978094e-05
-0.96817051
-1.0450271e-05
-1.0349604
-6.5380069e-05
-1.1063468
-8.804923e-05
-1.1826931
-8.1041539e-05
-1.2643893
-4.9633097e-05
-1.3518753
-0.17496643
0.027843372
-0.17445747
-0.029749434
-0.17508727
-0.025459252
0.072967359
-0.17848372
0.05493854
-0.18377002
-0.03741399
-0.18556279
-0.11176314
-0.18342078
-0.09946722
-0.17951816
-0.013136564
-0.17927703
0.094093399
-0.18853221
0.10886568
-0.19991328
0.057199407
-0.20747009
-0.031873989
-0.20164463
-0.095325153
-0.20517741
-0.089807847
-0.20710907
-0.042471103
-0.21625471
0.0056660853
-0.23814834
0.025191374
-0.26509182
0.024596758
-0.29133137
0.015387625
-0.31562591
0.0042892353
-0.33755605
-0.0037432925
-0.35822879
-0.0068243488
-0.37967952
-0.0061892207
-0.40351936
-0.0040251812
-0.43040526
-0.0018733874
-0.46025409
-0.00032710045
-0.49275411
0.00060638555
-0.52772418
0.001028013
-0.56512172
0.0011267547
-0.6049877
0.0010516094
-0.64745665
0.00089408089
-0.6927064
0.00070471567
-0.74093578
0.0005116879
-0.7923609
0.0003322678
-0.84721187
0.00017794041
-0.90574425
5.5591902e-05
-0.96823656
-3.1559674e-05
-1.0349942
-8.3208238e-05
-1.1063516
-0.00010105818
-1.1826731
-8.9044344e-05
-1.2643499
-5.3128842e-05
-1.3518222
-0.17645161
0.074452538
-0.17503209
0.028417998
-0.17646243
-0.028374269
-0.17759965
-0.023429101
0.056890922
-0.1804361
-0.038490726
-0.18269328
-0.11579917
-0.18152675
-0.10432847
-0.17855954
-0.014119619
-0.1785351
0.10288282
-0.18806645
0.12086229
-0.20052881
0.067112455
-0.20982632
-0.031073982
-0.20827009
-0.10967958
-0.1872902
-0.10479031
-0.19019494
-0.051288269
-0.1982919
0.0085504702
-0.2191391
0.033523309
-0.24648028
0.03254349
-0.27303855
0.021163513
-0.29710726
0.0067652385
-0.31810191
-0.0043688236
-0.33693052
-0.0091597384
-0.3558934
-0.0086697555
-0.37719899
-0.005805592
-0.40173895
-0.0028234625
-0.42945519
-0.00066096542
-0.45992023
0.00064262424
-0.49279035
0.0012644147
-0.52796058
0.0014275501
-0.56542252
0.0013539808
-0.60529007
0.0011726514
-0.64773522
0.00095093393
-0.69295261
0.00072239687
-0.74114649
0.00050564811
-0.79253428
0.00031293597
-0.84734687
0.0001526786
-0.90584134
2.955253e-05
-0.96829767
-5.467053e-05
-1.0350227
-0.00010136301
-1.1063513
-0.00011360463
-1.1826485
-9.628381e-05
-1.2643067
-5.6166191e-05
-1.351766
-0.17783144
0.058270754
-0.17542445
0.074844896
-0.17620972
0.028165283
-0.17927916
-0.026694759
-0.18057427
-0.021170393
-0.038686888
-0.18023994
-0.11853881
-0.17995364
-0.10804784
-0.17780737
-0.01474316
-0.177936
0.11138869
-0.18704097
0.13280472
-0.20000889
0.077317898
-0.21073426
-0.029473075
-0.21142723
-0.12035431
-0.19759536
-0.11746095
-0.17461956
-0.059435861
-0.18204735
0.011613416
-0.20135485
0.043415874
-0.22903166
0.042011679
-0.25594847
0.028176459
-0.28005149
0.010021312
-0.30036333
-0.0050451274
-0.31742561
-0.012172715
-0.33391755
-0.011979241
-0.35258391
-0.0082330518
-0.37477153
-0.0041364964
-0.40042592
-0.0011275576
-0.42898859
0.00067057559
-0.45994818
0.0015544927
-0.49308043
0.0018008217
-0.52833385
0.0017232222
-0.56579176
0.0015067464
-0.60562416
0.0012436899
-0.64802798
0.00097432756
-0.69320454
0.00071740263
-0.74135824
0.00048429115
-0.79270563
0.00028359183
-0.84747778
0.00012139699
-0.90593318
7.0101809e-07
-0.96835304
-7.8527198e-05
-1.0350456
-0.00011909954
-1.1063458
-0.00012517867
-1.1826196
-0.00010272243
-1.2642602
-5.8736192e-05
-1.3517073
-0.17845789
-0.038060439
-0.17607448
0.058920785
-0.17587663
0.074511813
-0.17830852
0.027194635
-0.1824877
-0.024781334
-0.18418302
-0.018761249
-0.11992358
-0.17885518
-0.11052649
-0.17747499
-0.015062281
-0.17748825
0.11929793
-0.18584523
0.14418644
-0.19842269
0.08782058
-0.21051157
-0.028024529
-0.2121828
-0.1308096
-0.20097195
-0.13268333
-0.18237298
-0.066580222
-0.16747519
0.014788166
-0.1852221
0.054677197
-0.21261617
0.053023001
-0.24004298
0.036544049
-0.26431606
0.014155013
-0.28418519
-0.0057127589
-0.2996957
-0.016005203
-0.31359312
-0.016338246
-0.32955854
-0.011462008
-0.34935496
-0.0059057113
-0.37300231
-0.0017593067
-0.39979417
0.00070738548
-0.4290254
0.0019210862
-0.46031477
0.0022766715
-0.49355628
0.002182943
-0.52879357
0.0019119917
-0.566197
0.0015912146
-0.60597169
0.0012713037
-0.64832495
0.0009693964
-0.69345654
0.000693616
-0.74156757
0.00045060404
-0.79287264
0.00024666223
-0.84760304
8.6164059e-05
-0.90601864
-2.9506075e-05
-0.96840206
-0.00010216059
-1.0350625
-0.000135803
-1.1063352
-0.0001356188
-1.1825867
-0.00010822331
-1.2642107
-6.0802845e-05
-1.3516465
-0.17856194
-0.11981952
-0.17765876
-0.036476159
-0.17586778
0.058911926
-0.17692204
0.073125339
-0.18097311
0.025680045
-0.18621352
-0.02275084
-0.18812567
-0.016352941
-0.11187169
-0.17750999
-0.015230064
-0.17730721
0.12629767
-0.18448799
0.15443853
-0.19609731
0.098066029
-0.20866814
-0.026152815
-0.21238328
-0.14081135
-0.20218105
-0.14779268
-0.1858626
-0.082736569
-0.16621664
0.017868374
-0.1705554
0.066645314
-0.19719022
0.065563426
-0.2251566
0.046205969
-0.2497049
0.019255908
-0.26941695
-0.0064052875
-0.28349267
-0.020819565
-0.29488134
-0.02196194
-0.30796943
-0.015689231
-0.32533132
-0.0082233396
-0.34703733
-0.002583096
-0.37217852
0.00077009455
-0.39985688
0.0024042444
-0.42950856
0.0028941848
-0.46093228
0.0027667797
-0.49414012
0.0024110025
-0.52929258
0.0020058266
-0.56661161
0.0016184231
-0.60631881
0.0012634095
-0.64861897
0.00094168244
-0.6937046
0.00065494869
-0.74177191
0.00040755224
-0.79303353
0.00020452716
-0.84772141
4.8817481e-05
-0.90609697
-5.9853407e-05
-0.96844437
-0.00012483589
-1.0350735
-0.00015112265
-1.1063197
-0.00014473433
-1.1825502
-0.0001127436
-1.2641588
-6.2425591e-05
-1.351584
-0.17870911
-0.11172451
-0.17963605
-0.11784224
-0.17782748
-0.034516453
-0.17632508
0.058314965
-0.17862668
0.070778912
-0.18412718
0.023593705
-0.19012267
-0.020753838
-0.19211636
-0.014121906
-0.014743678
-0.17799637
0.13202558
-0.18303512
0.16312588
-0.19317535
0.10765265
-0.20568394
-0.024249074
-0.21057188
-0.15045208
-0.20274255
-0.1619906
-0.18798314
-0.098628171
-0.169971
0.0093549727
-0.15770324
0.079506257
-0.18341635
0.079353058
-0.21097985
0.057219671
-0.2361703
0.025237882
-0.25568688
-0.0071156985
-0.26870654
-0.026806878
-0.27750535
-0.02912919
-0.28771409
-0.021085218
-0.30257344
-0.011184617
-0.32237004
-0.0036229715
-0.34599745
0.00088890648
-0.37229733
0.0030547022
-0.40050734
0.003703197
-0.43031757
0.003521727
-0.46168723
0.0030358055
-0.49476492
0.002505782
-0.52979254
0.0020233939
-0.56701658
0.0016012167
-0.60665662
0.0012282426
-0.64890553
0.00089649924
-0.69394615
0.00060509818
-0.74196946
0.00035793943
-0.79318695
0.00015934079
-0.84783193
1.0841612e-05
-0.90616766
-8.9454414e-05
-0.96847975
-0.00014605139
-1.0350785
-0.0001648699
-1.1062995
-0.00015245529
-1.1825105
-0.00011641949
-1.2641048
-6.3621283e-05
-1.3515204
-0.17989022
-0.013562568
-0.18149066
-0.1098699
-0.18129231
-0.11437741
-0.17907525
-0.031766288
-0.17739492
0.057083205
-0.18084465
0.06749638
-0.18749952
0.020970555
-0.19393113
-0.018939069
-0.19600153
-0.012253427
0.13638724
-0.18235803
0.17010997
-0.1900192
0.11602697
-0.20154966
-0.022216528
-0.20771649
-0.15934144
-0.20168252
-0.17548444
-0.1892487
-0.11418414
-0.17242716
-0.00015167456
-0.16046435
0.085371933
-0.16356891
0.094262118
-0.19832541
0.069583885
-0.22334407
0.032317645
-0.24325006
-0.0079719067
-0.25483067
-0.034351954
-0.26116146