/*--------------------------------*- C++ -*----------------------------------*\
| =========                 |                                                 |
| \\      /  F ield         | OpenFOAM: The Open Source CFD Toolbox           |
|  \\    /   O peration     | Version:  5.0                                   |
|   \\  /    A nd           | Web:      www.OpenFOAM.org                      |
|    \\/     M anipulation  |                                                 |
\*---------------------------------------------------------------------------*/
FoamFile
{
    version     2.0;
    format      ascii;
    class       surfaceScalarField;
    location    "200";
    object      phi_0;
}
// * * * * * * * * * * * * * * * * * * * * * * * * * * * * * * * * * * * * * //

dimensions      [0 3 -1 0 0 0 0];

internalField   nonuniform List<scalar> 
18820
(
-0.0003969416
-1.3579018
-0.00076667682
-1.2699019
-0.0003781969
-1.3575236
-0.0011090437
-1.1876963
-0.00073175073
-1.2695483
-0.00036290855
-1.3571607
-0.0014235282
-1.1108775
-0.0010607618
-1.1873672
-0.0007019633
-1.2692093
-0.00035731091
-1.3568034
-0.0017096025
-1.039079
-0.0013652373
-1.1105731
-0.0010178841
-1.1870513
-0.00069066205
-1.2688759
-0.00035798207
-1.3564454
-0.0019670403
-0.97195337
-0.0016447223
-1.0387995
-0.0013117827
-1.1102792
-0.0010017496
-1.1867402
-0.00069227714
-1.2685416
-0.00035697583
-1.3560884
-0.0021954669
-0.90918514
-0.001898677
-0.97169942
-0.0015840367
-1.0385272
-0.0012924799
-1.1099884
-0.001005291
-1.1864272
-0.00069220912
-1.2682064
-0.00034612662
-1.3557423
-0.0023940457
-0.85048379
-0.0021270567
-0.90895676
-0.0018338812
-0.97144957
-0.0015642276
-1.0382555
-0.0012986877
-1.109695
-0.0010086675
-1.1861108
-0.00067369866
-1.2678788
-0.00032622452
-1.355416
-0.0025615313
-0.79558114
-0.0023305414
-0.8502803
-0.0020609116
-0.90872973
-0.0018170149
-0.97119678
-0.0015739985
-1.0379802
-0.0013075872
-1.1093961
-0.00098598026
-1.1857985
-0.00063687709
-1.2675682
-0.00030284362
-1.3551132
-0.002696608
-0.74422689
-0.0025114273
-0.79540025
-0.0022658149
-0.8500754
-0.0020505892
-0.90849616
-0.0018323357
-0.97093845
-0.0015904147
-1.0376973
-0.0012843083
-1.1090978
-0.0009355179
-1.1854998
-0.00059188482
-1.2672791
-0.00028226801
-1.3548309
-0.0027999641
-0.69619286
-0.0026737502
-0.74406457
-0.0024516656
-0.7952144
-0.0022647271
-0.84986126
-0.0020740269
-0.90825447
-0.0018592897
-0.97066957
-0.0015697216
-1.0374119
-0.0012247361
-1.1088086
-0.00087090011
-1.1852208
-0.00055141782
-1.26701
-0.0002675217
-1.3545634
-0.0028738961
-0.65126326
-0.0028239355
-0.69604268
-0.0026254819
-0.74389076
-0.0024589426
-0.79502019
-0.0022984239
-0.84963686
-0.002115396
-0.90799836
-0.0018443301
-0.97039496
-0.0015057384
-1.0371309
-0.0011436333
-1.1085358
-0.00081182223
-1.1849604
-0.00052190194
-1.2667556
-0.00025732212
-1.3543061
-0.0029352232
-0.6092135
-0.0029855137
-0.65110168
-0.0028008203
-0.69586734
-0.002633228
-0.74371647
-0.0025029087
-0.7948157
-0.0023583547
-0.84939391
-0.0021099068
-0.90773278
-0.0017797062
-0.970121
-0.0014123103
-1.0368623
-0.0010674422
-1.1082802
-0.00076844033
-1.1847139
-0.0005015294
-1.2665114
-0.00024772335
-1.3540584
-0.0029880344
-0.56985759
-0.0031747476
-0.60902427
-0.0029867001
-0.6509158
-0.002785734
-0.69571483
-0.0026803951
-0.74353898
-0.0025849097
-0.79458915
-0.0023681163
-0.8491357
-0.002048238
-0.90746425
-0.0016771398
-0.96985617
-0.0013211802
-1.0366085
-0.0010112345
-1.1080374
-0.00073829836
-1.1844771
-0.00048307167
-1.266276
-0.00023475372
-1.3538236
-0.0030443182
-0.53303206
-0.0033740354
-0.5696583
-0.0031569606
-0.60885401
-0.002892663
-0.65080887
-0.0028132331
-0.695582
-0.0027882303
-0.74333566
-0.0026214195
-0.79433584
-0.0023137705
-0.84887016
-0.0019383089
-0.90720308
-0.0015736455
-0.9696037
-0.0012531467
-1.0363666
-0.00097192255
-1.1078038
-0.00071119835
-1.184249
-0.00045866668
-1.2660521
-0.00021633771
-1.3536073
-0.0031115165
-0.49857947
-0.0035978278
-0.53280827
-0.0032946599
-0.5695206
-0.0029332666
-0.6088134
-0.0028826412
-0.65073946
-0.0029621326
-0.69540809
-0.0028748412
-0.74308224
-0.002581235
-0.79406838
-0.0021964553
-0.84861202
-0.0018243373
-0.90695239
-0.0014956542
-0.96936119
-0.001205458
-1.0361331
-0.00093627076
-1.1075787
-0.00067607901
-1.1840316
-0.00042367232
-1.2658448
-0.00019294192
-1.3534143
-0.0032107426
-0.46634238
-0.003857535
-0.49831976
-0.0034020455
-0.53270088
-0.0029236612
-0.56953021
-0.0028900715
-0.60880597
-0.0031080066
-0.65059359
-0.0031374697
-0.69514547
-0.0028588841
-0.74280459
-0.0024531179
-0.79381172
-0.0020719569
-0.8483644
-0.0017389741
-0.90670907
-0.0014413186
-0.96912533
-0.0011619278
-1.0359074
-0.00089034455
-1.1073645
-0.00062606758
-1.1838292
-0.00037843034
-1.2656593
-0.00016711202
-1.3532472
-0.003325876
-0.43618733
-0.0041954503
-0.46600446
-0.0035080888
-0.49821371
-0.0028343077
-0.53279024
-0.0028495359
-0.56957075
-0.0032341216
-0.60867986
-0.0034255138
-0.65030554
-0.0031592188
-0.69484513
-0.0027107482
-0.74254696
-0.0023136239
-0.79357005
-0.0019817823
-0.84812159
-0.0016811477
-0.90646924
-0.0013915205
-0.96889574
-0.0011055225
-1.0356922
-0.00082592027
-1.1071646
-0.00056053588
-1.1836471
-0.00032777506
-1.2654986
-0.00014218719
-1.353105
-0.0035303972
-0.40794015
-0.0046324014
-0.43575038
-0.0036119288
-0.46590062
-0.0026503685
-0.49839765
-0.0027326265
-0.53290715
-0.0033461608
-0.56945871
-0.0037546891
-0.60835068
-0.0035017719
-0.64996299
-0.0029742798
-0.6945816
-0.0025447597
-0.74231583
-0.0022203878
-0.79333144
-0.0019251748
-0.84787756
-0.0016281191
-0.90623264
-0.0013259179
-0.96867534
-0.0010267686
-1.0354914
-0.00074176517
-1.1069834
-0.00048527288
-1.1834896
-0.00027842887
-1.2653624
-0.00012083593
-1.3529842
-0.003729275
-0.38152912
-0.0052223645
-0.40735019
-0.0037434093
-0.4356189
-0.0023219209
-0.46622907
-0.002484994
-0.49864529
-0.0034636973
-0.53278961
-0.0041380831
-0.56907531
-0.0039060719
-0.60794638
-0.0032483617
-0.64968891
-0.0027587228
-0.69436763
-0.0024483804
-0.74208783
-0.0021716396
-0.79308498
-0.0018740231
-0.84763166
-0.0015555685
-0.90600299
-0.0012333733
-0.96846874
-0.00092436899
-1.0353088
-0.00064299895
-1.1068257
-0.00041050878
-1.1833575
-0.00023570339
-1.2652475
-0.00010422136
-1.35288
-0.004075227
-0.35670957
-0.0059393004
-0.38081218
-0.0038595299
-0.40723407
-0.0018195925
-0.43612123
-0.0020564635
-0.4666576
-0.0035746524
-0.49853433
-0.0046099042
-0.53231779
-0.0043861922
-0.56859519
-0.0035418443
-0.6076529
-0.0029443715
-0.64950326
-0.0026544429
-0.69416157
-0.0024159089
-0.74184356
-0.0021309537
-0.79282805
-0.0017985187
-0.84738871
-0.0014498244
-0.90578654
-0.0011120888
-0.96828102
-0.0008030515
-1.0351487
-0.00054187061
-1.1066943
-0.00034519342
-1.183248
-0.00020182177
-1.2651499
-9.2066716e-05
-1.3527879
-0.0043479757
-0.33351292
-0.0068537864
-0.35579509
-0.0040625289
-0.38060918
-0.0010767183
-0.40797694
-0.0013981382
-0.43677955
-0.0036888361
-0.46654342
-0.0052250087
-0.49791923
-0.0049672814
-0.5317367
-0.0038383255
-0.56829871
-0.003085863
-0.60751141
-0.0028207844
-0.64933692
-0.0026481337
-0.69392935
-0.0023995951
-0.74157492
-0.0020596898
-0.79256688
-0.0016806041
-0.84715793
-0.0013083756
-0.90559025
-0.00096723063
-0.96811684
-0.00067522711
-1.0350154
-0.00045208213
-1.1065874
-0.00029322265
-1.1831566
-0.00017633823
-1.2650656
-8.327939e-05
-1.3527046
-0.0048957019
-0.31147873
-0.0078463969
-0.3325203
-0.0042547171
-0.3556029
-9.8454155e-05
-0.38158745
-0.00046143862
-0.40891364
-0.0037850535
-0.43668333
-0.0060498399
-0.46571859
-0.0057094784
-0.49717703
-0.0041411432
-0.53143388
-0.0031488795
-0.56823569
-0.0029106951
-0.6074215
-0.0028511248
-0.64913393
-0.0026790354
-0.69364991
-0.0023454928
-0.74128912
-0.0019316202
-0.79231586
-0.0015168262
-0.84694948
-0.0011376288
-0.90541985
-0.00081155171
-0.96798052
-0.00055948443
-1.034908
-0.00038005771
-1.1065006
-0.00025376714
-1.1830792
-0.00015752857
-1.2649914
-7.6596799e-05
-1.352628
-0.0056165347
-0.29070783
-0.0091280155
-0.31019711
-0.0046087969
-0.33216623
0.0012825593
-0.35698391
0.00082503156
-0.38287392
-0.0038902539
-0.40880844
-0.0071572221
-0.43557595
-0.0066726697
-0.46475539
-0.0044535542
-0.49686462
-0.0030912814
-0.53149148
-0.0028973358
-0.56824905
-0.0029974993
-0.60727512
-0.0029671073
-0.64884585
-0.0026657268
-0.69332967
-0.0022114227
-0.74100932
-0.001741733
-0.79209095
-0.0013161423
-0.84677096
-0.00095206087
-0.90527934
-0.00066843818
-0.96787156
-0.00046523906
-1.0348228
-0.00032504057
-1.1064293
-0.00022386024
-1.1830128
-0.00014344556
-1.2649245
-7.0933084e-05
-1.3525571
-0.0064443747
-0.2718062
-0.010529294
-0.28930656
-0.004836805
-0.3099691
0.002887876
-0.33377154
0.0025126542
-0.35867154
-0.0039414414
-0.38282273
-0.0086299388
-0.40733573
-0.007935975
-0.43431265
-0.0047839657
-0.46442498
-0.0028606196
-0.49709528
-0.0027263346
-0.53166248
-0.0030875475
-0.56815901
-0.0032642407
-0.60697799
-0.0030351849
-0.6484764
-0.0025336988
-0.6930074
-0.0019889414
-0.74076211
-0.0015040607
-0.79190304
-0.0010972711
-0.84662575
-0.00078002055
-0.90516776
-0.00055067488
-0.96778613
-0.00039209126
-1.0347557
-0.0002828126
-1.1063703
-0.00020063541
-1.1829557
-0.00013212915
-1.2648633
-6.544466e-05
-1.3524917
-0.0072321983
-0.25386029
-0.01218656
-0.27014893
-0.0049867437
-0.28915662
0.0050814232
-0.31216265
0.0046382016
-0.33589709
-0.0040669186
-0.35854606
-0.010563716
-0.38088895
-0.0095675854
-0.40570412
-0.005146431
-0.43395018
-0.0024048754
-0.46488073
-0.0023227609
-0.49749885
-0.0031202717
-0.53162976
-0.0035801254
-0.56784312
-0.0034798101
-0.60653336
-0.002919017
-0.64809108
-0.0022671177
-0.69272922
-0.00170208
-0.74056409
-0.0012461263
-0.79175418
-0.00089453282
-0.84651124
-0.00063775052
-0.90508069
-0.00045778484
-0.96772043
-0.000335165
-1.0347034
-0.00024900319
-1.106322
-0.00018176676
-1.182906
-0.0001215174
-1.2648073
-5.9540218e-05
-1.3524321
-0.0088218427
-0.23504684
-0.013856358
-0.2521905
-0.0053306905
-0.26980498
0.0076783236
-0.29175352
0.0071606263
-0.31468508
-0.0040495509
-0.33591446
-0.013071971
-0.3560378
-0.011682259
-0.37877428
-0.0055549753
-0.40529557
-0.0016538273
-0.43470123
-0.0015989509
-0.46560454
-0.0030398219
-0.4975793
-0.0039433773
-0.53126651
-0.0040235653
-0.56729937
-0.0034001394
-0.60605224
-0.0025889055
-0.64776929
-0.0019100724
-0.69252123
-0.0013952277
-0.74041499
-0.0010103115
-0.7916384
-0.0007273607
-0.84642163
-0.00052426733
-0.9050142
-0.00038391128
-0.96767169
-0.0002888683
-1.0346635
-0.00022028387
-1.1062835
-0.00016468439
-1.1828628
-0.00010989219
-1.2647569
-5.2997664e-05
-1.3523791
-0.010686891
-0.21647509
-0.015960596
-0.2329426
-0.0057979083
-0.25172328
0.010807183
-0.27293384
0.010144719
-0.29473761
-0.0042406288
-0.314494
-0.016228447
-0.33275798
-0.014336055
-0.35338401
-0.0060341943
-0.37829506
-0.00053329691
-0.4064161
-0.00044651117
-0.43585367
-0.0027793511
-0.46586501
-0.0043762294
-0.49714645
-0.0047054405
-0.53058463
-0.0040065388
-0.56669297
-0.0029730293
-0.60566812
-0.0021276219
-0.64755174
-0.0015374622
-0.692379
-0.0011223347
-0.74030297
-0.00081873598
-0.79154703
-0.00059359499
-0.8463523
-0.0004321501
-0.90496597
-0.00032250003
-0.96763805
-0.00024841112
-1.0346354
-0.00019393594
-1.1062542
-0.00014687433
-1.1828259
-9.6693653e-05
-1.2647132
-4.6093678e-05
-1.352333
-0.012537861
-0.19958889
-0.017859165
-0.21457652
-0.0053301027
-0.23341041
0.014191792
-0.25510789
0.01378295
-0.27657207
-0.0046032312
-0.29437501
-0.02008798
-0.31063446
-0.017705575
-0.32938846
-0.0065780093
-0.35284019
0.0010591061
-0.37988746
0.0012508197
-0.40811343
-0.0022644098
-0.43636861
-0.0048957012
-0.46534554
-0.0055988586
-0.49625303
-0.0047765811
-0.52981459
-0.0034401462
-0.56622585
-0.0023512857
-0.60544446
-0.001660982
-0.64742822
-0.0012207164
-0.69228061
-0.00090821907
-0.74021348
-0.00066691088
-0.79147371
-0.00048331104
-0.84630114
-0.00035373164
-0.90493473
-0.00026790815
-0.96761856
-0.00021068584
-1.0346186
-0.00016795283
-1.1062331
-0.00012720619
-1.1827954
-8.2717844e-05
-1.2646766
-3.9475318e-05
-1.3522935
-0.014374897
-0.1837404
-0.019558506
-0.19788955
-0.003722405
-0.21618422
0.018707018
-0.23792563
0.017773491
-0.25909843
-0.0050014794
-0.27617383
-0.024829282
-0.28963371
-0.021745187
-0.30659485
-0.0072170339
-0.32874944
0.0032374197
-0.35501851
0.0036407555
-0.3822774
-0.0014115267
-0.40896632
-0.0055168851
-0.43574743
-0.0067897658
-0.46415463
-0.0057913879
-0.49523823
-0.0040085271
-0.52924621
-0.0025779485
-0.56599919
-0.0017461258
-0.60535931
-0.0012888135
-0.64736013
-0.00098779912
-0.69220103
-0.00074386573
-0.74013653
-0.0005408565
-0.79141617
-0.00038714197
-0.84626773
-0.00028286117
-0.90491978
-0.00021696176
-0.96761228
-0.00017416231
-1.0346124
-0.00014093917
-1.1062194
-0.00010594929
-1.1827721
-6.9526683e-05
-1.2646465
-3.3776996e-05
-1.3522598
-0.018078899
-0.19859469
-0.021019238
-0.18227967
-0.0015600297
-0.20005192
0.024077004
-0.2215542
0.022145803
-0.24229795
-0.0044328082
-0.2596671
-0.030517672
-0.27048544
-0.026433682
-0.28494521
-0.0078369445
-0.30597494
0.0061423152
-0.33165433
0.0068570528
-0.3582348
-0.00012239256
-0.38356653
-0.0062585386
-0.40822466
-0.0083834603
-0.43415373
-0.0071493602
-0.46279666
-0.0047167272
-0.49453003
-0.002799053
-0.5290251
-0.0017656743
-0.56597964
-0.0013010663
-0.60534706
-0.0010435092
-0.64730442
-0.0008217064
-0.69212319
-0.00060854136
-0.74006884
-0.00042846152
-0.79137485
-0.00029851096
-0.84625208
-0.00021623713
-0.90492051
-0.00016737717
-0.96761907
-0.00013691482
-1.0346165
-0.0001119789
-1.1062134
-8.5323756e-05
-1.1827563
-5.821986e-05
-1.2646221
-2.9428086e-05
-1.3522303
-0.021301328
-0.19511583
-0.024264756
-0.19534917
0.0011045554
-0.18494425
0.029498929
-0.20547385
0.026309066
-0.22571746
-0.0043372987
-0.24239345
-0.036499911
-0.25368486
-0.032071348
-0.26484777
-0.0084171908
-0.28436496
0.0099395007
-0.30977213
0.011068098
-0.33586538
0.0016905326
-0.36004773
-0.0071378128
-0.38268726
-0.010499235
-0.40610889
-0.008975328
-0.43232776
-0.0056193084
-0.46189408
-0.0029964455
-0.49433263
-0.0016828327
-0.52910795
-0.001224359
-0.56605635
-0.0010544868
-0.60533608
-0.00089529653
-0.64723082
-0.00069083887
-0.6920409
-0.00048549381
-0.74001181
-0.00032194243
-0.79135142
-0.00021340543
-0.84625491
-0.00015027956
-0.9049376
-0.00011657448
-0.96763941
-9.8140508e-05
-1.0346303
-8.3396634e-05
-1.1062153
-6.7829582e-05
-1.1827467
-4.9547772e-05
-1.264602
-2.6663896e-05
-1.3522037
-0.024019907
-0.19135554
-0.027019691
-0.19236089
0.0023534419
-0.19659806
0.034809388
-0.19025471
0.029803175
-0.20896796
-0.0065600497
-0.22349471
-0.043328363
-0.235565
-0.039563178
-0.24619303
-0.0092444389
-0.26402052
0.014733883
-0.28915935
0.016377879
-0.31508191
0.0041517466
-0.33832659
-0.0081866447
-0.3589989
-0.013284208
-0.37990228
-0.011408378
-0.40367584
-0.0067844217
-0.43116265
-0.0031524423
-0.46173808
-0.0014441717
-0.4945713
-0.0010032015
-0.5293291
-0.00099611551
-0.56611472
-0.00095770979
-0.60527367
-0.00079267354
-0.64712899
-0.00056829881
-0.69195809
-0.000362921
-0.73997083
-0.00021563231
-0.79134919
-0.00012706608
-0.84627813
-8.242238e-05
-0.90497176
-6.5268316e-05
-0.96767228
-6.086405e-05
-1.0346528
-5.8810788e-05
-1.1062243
-5.4218454e-05
-1.182742
-4.3976921e-05
-1.2645847
-2.5525831e-05
-1.3521781
-0.026235532
-0.18755592
-0.029281233
-0.189094
0.0044184269
-0.19442588
0.03874685
-0.20053552
0.032757127
-0.19320867
-0.0099143937
-0.20561361
-0.051516161
-0.21530692
-0.047681128
-0.22744705
-0.010914833
-0.24452264
0.02056695
-0.26985359
0.022899066
-0.29568053
0.0073030121
-0.31823317
-0.0094271353
-0.3370861
-0.016900336
-0.35538277
-0.014624386
-0.37668628
-0.008290012
-0.40217025
-0.0032454972
-0.4310696
-0.00097927269
-0.46220298
-0.00056984438
-0.49500465
-0.00081964877
-0.52950557
-0.00099101719
-0.56608141
-0.00091657859
-0.60514976
-0.0006889622
-0.64700833
-0.00043430177
-0.69188671
-0.00023300041
-0.73995346
-0.0001043366
-0.79137192
-3.781052e-05
-0.84632274
-1.5112648e-05
-0.90502191
-1.7199292e-05
-0.96771594
-2.8336188e-05
-1.0346833
-3.9658371e-05
-1.1062389
-4.5177234e-05
-1.1827408
-4.1455958e-05
-1.2645687
-2.581483e-05
-1.3521523
-0.027913492
-0.18382364
-0.031083893
-0.18575326
0.0070950345
-0.19177061
0.043339106
-0.19901813
0.034946573
-0.20272496
-0.013802431
-0.18932063
-0.059825879
-0.1973039
-0.054398081
-0.20858996
-0.012477055
-0.22588483
0.027546373
-0.25150206
0.030637469
-0.27759199
0.011205386
-0.29958291
-0.010942072
-0.31671824
-0.021543094
-0.33244334
-0.018796434
-0.35121072
-0.010229423
-0.37474687
-0.0032525621
-0.40216318
-0.00020242074
-0.43184645
0.00016265205
-0.46293547
-0.00046012175
-0.49536418
-0.00098093377
-0.52951565
-0.001057356
-0.56594063
-0.00086210412
-0.60497662
-0.00055334625
-0.64688928
-0.00027891336
-0.6918408
-9.1139459e-05
-0.73996666
1.2112972e-05
-0.79142184
5.0807837e-05
-0.84638866
4.7914554e-05
-0.90508703
2.4961008e-05
-0.96776924
-3.069962e-06
-1.0347199
-2.6810148e-05
-1.1062572
-4.0898843e-05
-1.1827414
-4.1286328e-05
-1.2645533
-2.7411722e-05
-1.3521249
-0.029031991
-0.18036297
-0.032394826
-0.18251271
0.010156044
-0.18881427
0.04832035
-0.19675185
0.037722876
-0.20179444
-0.017820734
-0.19870666
-0.067965157
-0.18118135
-0.060224344
-0.19147763
-0.012400828
-0.20866619
0.035911866
-0.23425032
0.039886962
-0.26075155
0.015859032
-0.28224564
-0.012847318
-0.29767766
-0.027430132
-0.3108312
-0.024136258
-0.32710352
-0.012691719
-0.34874843
-0.0031364399
-0.37486299
0.00098613117
-0.40335174
0.0013033032
-0.4329871
0.0001584094
-0.46355401
-0.00088883871
-0.49545627
-0.0012380143
-0.529335
-0.0011037853
-0.56569895
-0.00074368504
-0.60478628
-0.0003720293
-0.64679617
-9.9202264e-05
-0.69183273
6.1352658e-05
-0.7400159
0.0001290705
-0.7915001
0.00013342974
-0.84647418
0.00010323081
-0.9051653
5.8640837e-05
-0.96783095
1.4135327e-05
-1.0347608
-2.0535199e-05
-1.1062776
-4.0715811e-05
-1.182742
-4.4428323e-05
-1.2645363
-3.013698e-05
-1.3520948
-0.02959452
-0.17737805
-0.033211749
-0.17954604
0.013403564
-0.18576023
0.053482002
-0.19397592
0.0408694
-0.19989838
-0.021487264
-0.19812791
-0.07662044
-0.19005138
-0.065522795
-0.1758829
-0.011212482
-0.19266598
0.045661478
-0.2184158
0.051064165
-0.24542753
0.021749699
-0.26664222
-0.015203675
-0.27988928
-0.034802577
-0.29030522
-0.030793199
-0.30417426
-0.015785043
-0.32401019
-0.0028526915
-0.34903217
0.0027076702
-0.37658453
0.0029770142
-0.40502545
0.0011283637
-0.43395705
-0.00066945423
-0.46377339
-0.0014700765
-0.49522421
-0.0014443303
-0.52899445
-0.0010370921
-0.56540554
-0.0005373854
-0.60462093
-0.00014478829
-0.64675058
0.0001000083
-0.69187139
0.00021505892
-0.74010189
0.00023757921
-0.79160425
0.0002056706
-0.84657662
0.00014723884
-0.90525389
8.179905e-05
-0.96789862
2.3180865e-05
-1.0348046
-2.033181e-05
-1.106298
-4.5366833e-05
-1.182741
-4.9784128e-05
-1.2645166
-3.3668773e-05
-1.3520611
-0.029651928
-0.17503821
-0.033506601
-0.1770832
0.016593568
-0.18273605
0.058544818
-0.19082304
0.044335228
-0.19744175
-0.024821436
-0.1965642
-0.084926767
-0.18982158
-0.073546334
-0.18202784
-0.0090036024
-0.17809178
0.056331248
-0.20333575
0.063116169
-0.23046781
0.029269167
-0.252947
-0.017498697
-0.2643472
-0.043725896
-0.27096596
-0.03890513
-0.28219328
-0.019536494
-0.30042281
-0.0023418942
-0.32452099
0.005092434
-0.35141694
0.0053247304
-0.37893224
0.0025662103
-0.40646329
-0.00026652255
-0.43435998
-0.0017519116
-0.46349156
-0.0019361344
-0.49473241
-0.0014656073
-0.52856594
-0.00081204297
-0.56513089
-0.00024837581
-0.60451734
0.00011714678
-0.64676772
0.00030399145
-0.69196032
0.00035878431
-0.7402231
0.00033269029
-0.79173127
0.00026364463
-0.84669302
0.00017807863
-0.90535017
9.4359129e-05
-0.96796979
2.4191349e-05
-1.0348491
-2.5776293e-05
-1.1063176
-5.3311832e-05
-1.1827375
-5.6764053e-05
-1.2644935
-3.7689983e-05
-1.3520234
-0.029184718
-0.17346794
-0.03331596
-0.17522885
0.019590629
-0.18008026
0.063232576
-0.18742381
0.047854107
-0.19434192
-0.027697167
-0.19456601
-0.092687882
-0.18880309
-0.081293673
-0.18207424
-0.011649063
-0.17938238
0.067630894
-0.18939142
0.075269673
-0.21548925
0.037071227
-0.23826987
-0.019375809
-0.25106988
-0.054081563
-0.25399153
-0.048558147
-0.26131294
-0.023949862
-0.27777992
-0.0015043197
-0.30126038
0.0082956876
-0.32772424
0.0084985922
-0.3545908
0.0045980622
-0.3809641
0.00038337101
-0.40711319
-0.0020824044
-0.43402949
-0.0026313419
-0.46279635
-0.0020959417
-0.49410208
-0.0012287673
-0.52814921
-0.00044066149
-0.5649386
9.9038054e-05
-0.60449923
0.0003908678
-0.6468546
0.00049602712
-0.69209757
0.00048466058
-0.74037507
0.00040920641
-0.79187684
0.00030487555
-0.84681982
0.00019549877
-0.90545131
9.666335e-05
-0.96804227
1.8045573e-05
-1.0348929
-3.6122544e-05
-1.1063348
-6.3808604e-05
-1.1827305
-6.479254e-05
-1.2644664
-4.1902453e-05
-1.3519815
-0.17282066
-0.028326325
-0.032719787
-0.17406411
0.022302116
-0.17794034
0.06730763
-0.18415531
0.051262753
-0.19083245
-0.03015328
-0.19188581
-0.099824297
-0.1874296
-0.08857179
-0.18152497
-0.013905168
-0.17981814
0.075097491
-0.18684898
0.086912309
-0.20103406
0.044392602
-0.22281063
-0.020426937
-0.23721874
-0.066120115
-0.23903133
-0.060205403
-0.24234427
-0.029144413
-0.25611839
-0.00020277661
-0.27908146
0.012476036
-0.30544073
0.012659843
-0.3318855
0.007365571
-0.35735831
0.0013695319
-0.38195026
-0.0024629732
-0.40673262
-0.0035896792
-0.43307116
-0.0030114557
-0.46188083
-0.0018439927
-0.49348685
-0.00075487597
-0.527835
2.8438004e-05
-0.564868
0.00046919541
-0.60457756
0.0006490871
-0.64700766
0.00066331356
-0.69227622
0.00058577179
-0.74055163
0.00046412153
-0.79203608
0.00032899219
-0.84695331
0.00019999078
-0.90555464
8.9815223e-05
-0.96811404
5.3001884e-06
-1.0349343
-5.0102734e-05
-1.1063485
-7.5972166e-05
-1.1827193
-7.3213382e-05
-1.2644351
-4.603275e-05
-1.3519355
-0.17363046
-0.031909986
-0.17330054
-0.02704505
0.024337008
-0.176099
0.070652834
-0.18128555
0.05430617
-0.18719873
-0.03210169
-0.18888404
-0.1061054
-0.18560471
-0.095321272
-0.18068012
-0.015794699
-0.17963544
0.083100657
-0.18782131
0.097911732
-0.1978484
0.050416685
-0.20705814
-0.023011553
-0.22022601
-0.079397303
-0.22394155
-0.074291896
-0.22494484
-0.035889921
-0.23559877
0.0017028046
-0.25802397
0.017806691
-0.28441211
0.017952551
-0.31073344
0.011021811
-0.33554174
0.0027855084
-0.35877429
-0.002886454
-0.38152678
-0.0048843873
-0.40543791
-0.0043111263
-0.43177148
-0.0027438624
-0.46098097
-0.0012236345
-0.49301809
-0.00011877379
-0.52768779
0.0005357328
-0.56493454
0.00082023453
-0.60474871
0.00087245507
-0.6472168
0.00079678375
-0.69248723
0.00065847099
-0.74074598
0.00049712346
-0.79220421
0.00033680267
-0.84709013
0.00019289398
-0.90565772
7.5036294e-05
-0.96818377
-1.1981273e-05
-1.0349724
-6.6540953e-05
-1.1063579
-8.8889319e-05
-1.1827036
-8.1610374e-05
-1.2643995
-4.994396e-05
-1.3518855
-0.17494418
0.025650728
-0.17446252
-0.03074801
-0.17507262
-0.025368409
0.073002429
-0.1784486
0.056798674
-0.18377805
-0.033539495
-0.18576092
-0.11136333
-0.18362611
-0.10125598
-0.17967
-0.017396351
-0.17907847
0.091517832
-0.18805261
0.10953997
-0.19944954
0.059820314
-0.20725203
-0.027857012
-0.20221268
-0.093656229
-0.20596709
-0.090542068
-0.20769138
-0.044479369
-0.21635539
0.003926365
-0.23782233
0.024471532
-0.26468882
0.02452471
-0.29098427
0.015700133
-0.31541176
0.0047503781
-0.33750661
-0.0033523247
-0.35830841
-0.0066020609
-0.3798091
-0.0061125127
-0.40363652
-0.0040305049
-0.43048484
-0.0019061854
-0.46029841
-0.0003608202
-0.49277605
0.00058177955
-0.52773383
0.0010141408
-0.56512845
0.0011199972
-0.60499625
0.0010484133
-0.64746843
0.00089207755
-0.69272084
0.00070278151
-0.74095164
0.00050955398
-0.79237697
0.0003300547
-0.84722729
0.00017585248
-0.90575854
5.3790138e-05
-0.96824954
-3.3022868e-05
-1.035006
-8.4349268e-05
-1.1063624
-0.00010191953
-1.1826833
-8.9656217e-05
-1.2643598
-5.3471839e-05
-1.3518321
-0.17644109
0.074499346
-0.17505064
0.026238847
-0.17647587
-0.029344756
-0.17757307
-0.023321164
0.05878749
-0.18043741
-0.034470512
-0.18284703
-0.11543224
-0.18169202
-0.10618832
-0.17869378
-0.018715771
-0.17835058
0.10003861
-0.18759925
0.12155241
-0.20006505
0.069959631
-0.20958886
-0.026539661
-0.20856938
-0.10790938
-0.18795953
-0.10577465
-0.19073451
-0.053773754
-0.19839699
0.0063231228
-0.21875215
0.032646722
-0.24599752
0.032459198
-0.2726233
0.021553488
-0.29683763
0.0073719281
-0.31803331
-0.003828045
-0.33703089
-0.0088449761
-0.3560655
-0.0085638963
-0.37735772
-0.0058208291
-0.4018462
-0.0028788702
-0.42951216
-0.00071503049
-0.4599442
0.00060247542
-0.49279674
0.0012418055
-0.5279615
0.0014172943
-0.56542574
0.0013502979
-0.60529813
0.0011713623
-0.64774771
0.00094991024
-0.69296797
0.00072093621
-0.74116302
0.00050376315
-0.79255067
0.00031088167
-0.84736232
0.00015070452
-0.90585545
2.7809287e-05
-0.96831038
-5.6125576e-05
-1.0350342
-0.00010253581
-1.1063618
-0.00011452577
-1.1826584
-9.6955209e-05
-1.2643163
-5.6544246e-05
-1.3517755
-0.17783373
0.060180125
-0.17544093
0.074889634
-0.17626472
0.026027694
-0.17929708
-0.027620741
-0.18053645
-0.021043017
-0.034571948
-0.18033598
-0.11820674
-0.18007253
-0.10996113
-0.1779192
-0.019640108
-0.17776944
0.10829266
-0.18660462
0.13350593
-0.19955277
0.080418336
-0.21052376
-0.02440923
-0.21171929
-0.11822974
-0.19824902
-0.11864051
-0.17509367
-0.062354182
-0.18215408
0.0088471758
-0.20092105
0.042361961
-0.22846739
0.041920639
-0.25545896
0.028652612
-0.27972243
0.010803085
-0.30026879
-0.0043104691
-0.31755089
-0.011731749
-0.33414411
-0.011834003
-0.35279539
-0.0082636539
-0.37491489
-0.004225338
-0.40049973
-0.0012122656
-0.42901492
0.00060809112
-0.45994982
0.001518202
-0.49307314
0.0017850624
-0.52832927
0.0017185275
-0.56579397
0.0015064449
-0.60563322
0.0012441336
-0.64804194
0.00097408739
-0.69322112
0.00071626925
-0.74137553
0.00048254841
-0.79272234
0.00028160875
-0.84749322
0.00011945183
-0.90594709
-1.0505055e-06
-0.96836545
-8.0033007e-05
-1.0350567
-0.00012034821
-1.106356
-0.00012618417
-1.1826292
-0.00010346042
-1.2642694
-5.9151565e-05
-1.3517164
-0.17848893
-0.033916744
-0.1760711
0.0608103
-0.17590749
0.074532401
-0.17840058
0.025131191
-0.18250586
-0.02565133
-0.18413452
-0.018611497
-0.11960662
-0.1789361
-0.11246678
-0.17756689
-0.02021448
-0.17734483
0.11598348
-0.18546026
0.14489351
-0.1979922
0.091160411
-0.21029484
-0.02245593
-0.21247706
-0.12829532
-0.20165371
-0.13376346
-0.18312607
-0.069851543
-0.16759631
0.011462366
-0.18476927
0.053414444
-0.21197353
0.052934628
-0.23948138
0.03711498
-0.26392133
0.015144075
-0.28406342
-0.0047305052
-0.29984875
-0.015396309
-0.31388633
-0.016140944
-0.32983717
-0.011515728
-0.34954332
-0.0060427845
-0.37309745
-0.001888494
-0.3998235
0.00061307001
-0.4290199
0.0018648517
-0.46029647
0.0022525253
-0.4935406
0.002176441
-0.52878718
0.0019130474
-0.56620058
0.0015939102
-0.60598299
0.0012730771
-0.64834093
0.0009696482
-0.6934745
0.0006926167
-0.7415856
0.00044887278
-0.7928896
0.0002446468
-0.84761841
8.4158129e-05
-0.9060323
-3.1347291e-05
-0.96841414
-0.00010376417
-1.0350733
-0.00013715941
-1.106345
-0.00013672165
-1.1825959
-0.0001090365
-1.2642195
-6.125398e-05
-1.3516551
-0.17859421
-0.11950134
-0.17761629
-0.032371555
-0.17587315
0.060775965
-0.17698084
0.073112662
-0.1810936
0.02371893
-0.18623397
-0.02355188
-0.18806883
-0.016178969
-0.11383584
-0.17756704
-0.020579426
-0.17720194
0.12280166
-0.18416301
0.15514316
-0.19570991
0.10163145
-0.20846324
-0.020073828
-0.21267694
-0.13794044
-0.20283193
-0.14879115
-0.18662601
-0.086139531
-0.16683808
0.013947923
-0.17008187
0.06513668
-0.19649151
0.065484339
-0.22452324
0.046885366
-0.24925176
0.020487369
-0.26926462
-0.0051139775
-0.28367995
-0.01998796
-0.2952571
-0.02169878
-0.30832849
-0.01577809
-0.32557481
-0.0084280466
-0.34715806
-0.0027749784
-0.37221096
0.00063118635
-0.39984162
0.0023204865
-0.42947554
0.0028573951
-0.46090134
0.0027573241
-0.49412149
0.0024138195
-0.52928795
0.0020118434
-0.56661851
0.001623345
-0.60633326
0.0012659713
-0.64863725
0.00094208314
-0.69372396
0.00065387591
-0.7417906
0.00040569371
-0.79305065
0.00020237488
-0.84773663
4.6673716e-05
-0.90611032
-6.1827074e-05
-0.96845607
-0.00012657127
-1.0350839
-0.00015260247
-1.1063292
-0.0001459453
-1.182559
-0.00011362612
-1.2641672
-6.290835e-05
-1.3515922
-0.17871933
-0.11371071
-0.17961238
-0.11750525
-0.17773293
-0.030511779
-0.17632633
0.060121457
-0.17870967
0.070728735
-0.18426998
0.021754946
-0.19014542
-0.021475286
-0.19205378
-0.013923673
-0.020227505
-0.17791896
0.12838275
-0.18278304
0.1638279
-0.19284775
0.11141175
-0.20549021
-0.017683207
-0.21085386
-0.14723532
-0.20338206
-0.16288783
-0.18873526
-0.10215164
-0.17061391
0.0047560844
-0.15764625
0.077717979
-0.18266317
0.079273487
-0.21028066
0.058014126
-0.235652
0.026746409
-0.2555108
-0.005432519
-0.26894608
-0.025684875
-0.27798303
-0.028784581
-0.2881713
-0.021225304
-0.30288128
-0.011482933
-0.32251992
-0.0039000195
-0.34603302
0.00068920245
-0.37226898
0.0029337477
-0.40045488
0.0036483635
-0.4302665
0.0035077677
-0.46165178
0.0030409026
-0.49474857
0.002516591
-0.5297927
0.0020330687
-0.56702823
0.0016074271
-0.60667472
0.0012310105
-0.64892618
0.00089670925
-0.6939668
0.00060375282
-0.74198866
0.00035582285
-0.7932041
0.00015696304
-0.84784692
8.5067301e-06
-0.90618066
-9.1595256e-05
-0.96849105
-0.00014793784
-1.0350885
-0.00016648634
-1.1063086
-0.00015376929
-1.1825189
-0.00011736572
-1.2641127
-6.4131019e-05
-1.3515281
-0.1798499
-0.019096939
-0.18146609
-0.111857
-0.18120849
-0.11402969
-0.1789187
-0.027919419
-0.17739322
0.058805008
-0.18094987
0.067408619
-0.18765764
0.019267163
-0.19395462
-0.019574444
-0.19593634
-0.012031951
0.13266929
-0.1822055
0.17080764
-0.18976277
0.11994484
-0.20138084
-0.015197737
-0.20797568
-0.15582076
-0.20226842
-0.17629867
-0.18997122
-0.1177848
-0.17310209
-0.0053632877
-0.16049454
0.082981693
-0.16290996
0.094176758
-0.19756644
0.070484631
-0.22275116
0.034115623
-0.24302121
-0.005818449
-0.25512487
-0.032858549
-0.26177241
-0.03764445