/*--------------------------------*- C++ -*----------------------------------*\
| =========                 |                                                 |
| \\      /  F ield         | OpenFOAM: The Open Source CFD Toolbox           |
|  \\    /   O peration     | Version:  5.0                                   |
|   \\  /    A nd           | Web:      www.OpenFOAM.org                      |
|    \\/     M anipulation  |                                                 |
\*---------------------------------------------------------------------------*/
FoamFile
{
    version     2.0;
    format      ascii;
    class       volScalarField;
    location    "200";
    object      pMean;
}
// * * * * * * * * * * * * * * * * * * * * * * * * * * * * * * * * * * * * * //

dimensions      [0 2 -2 0 0 0 0];

internalField   nonuniform List<scalar> 
9520
(
3.7445039e-05
3.795063e-05
0.0001134983
3.8739494e-05
0.00011504835
0.00018496052
3.95102e-05
0.00011756788
0.00018763974
0.0002519483
4.0039801e-05
0.00012040408
0.00019214941
0.00025618143
0.00031376126
4.0080686e-05
0.00012296088
0.00019741272
0.00026333464
0.00031982359
0.00036934999
3.9467478e-05
0.0001246147
0.00020243433
0.00027194285
0.00033022571
0.00037758962
0.00041847839
3.797772e-05
0.0001248753
0.00020621904
0.00028061167
0.00034307713
0.00039192259
0.00042921574
0.00046000371
3.5545035e-05
0.00012334094
0.00020796404
0.00028796858
0.00035659131
0.00041005797
0.00044810978
0.00047345415
0.00049354692
3.2092525e-05
0.00011984624
0.0002068899
0.00029286497
0.00036902806
0.00042985211
0.00047248618
0.00049739279
0.0005099078
0.00051822498
2.811792e-05
0.00011386632
0.00020257463
0.00029429682
0.00037890083
0.00044920845
0.0004998672
0.0005288339
0.0005392938
0.00053752538
0.00053374002
2.2594617e-05
0.00010539543
0.00019455817
0.00029155955
0.00038489513
0.00046628359
0.00052783146
0.00056502405
0.00057844602
0.00057248902
0.00055594505
0.00053977396
1.6280138e-05
9.3438654e-05
0.00018290872
0.00028381674
0.00038601627
0.00047938437
0.00055421469
0.00060325552
0.00062439708
0.00061968955
0.00059648889
0.00056467463
0.00053625676
6.3042387e-06
7.9727464e-05
0.00016667955
0.00027087946
0.00038132631
0.00048714625
0.00057702432
0.00064103425
0.00067422187
0.0006760518
0.00065186792
0.00061047923
0.00056354985
0.000523351
-1.6983875e-06
6.2114924e-05
0.00014684076
0.00025225753
0.00037037165
0.00048831441
0.00059459946
0.00067602694
0.00072520924
0.00073851822
0.00071899814
0.00067373072
0.00061412077
0.00055257539
0.00050135591
-1.4917018e-05
4.5669451e-05
0.00012127256
0.00022921954
0.00035227364
0.00048256754
0.00060548075
0.00070626189
0.00077478283
0.00080419709
0.00079478641
0.00075147324
0.00068469397
0.00060712621
0.00053194309
0.00047087122
-2.2602272e-05
2.281374e-05
9.4997401e-05
0.00019962167
0.00032831703
0.00046899334
0.0006086705
0.00073007766
0.00082065621
0.00087027608
0.00087624797
0.00084071083
0.00077257496
0.00068405283
0.00058948843
0.00050213858
0.00043252934
-3.846366e-05
5.5697438e-06
6.173235e-05
0.00016772605
0.00029659846
0.00044830736
0.0006031837
0.00074622657
0.00086074141
0.00093420028
0.0009604098
0.00093848249
0.00087499562
0.00078106928
0.00067152504
0.00056145759
0.00046374232
0.00038729253
-4.6351811e-05
-2.2362719e-05
3.1760957e-05
0.00012743944
0.00026107571
0.00041848051
0.0005895225
0.00075332451
0.00089345744
0.0009935791
0.0010444419
0.0010417453
0.00098912139
0.00089579017
0.00077631999
0.00064699716
0.00052346848
0.00041763245
0.00033612064
-6.3413507e-05
-3.7923234e-05
-8.1272126e-06
8.8803308e-05
0.00021589806
0.00038303358
0.00056547603
0.00075154582
0.00091725005
0.0010464879
0.0011256447
0.001147482
0.001111923
0.0010256694
0.00090201783
0.00075774182
0.00061066364
0.0004762377
0.00036469167
0.00028021426
-7.1939272e-05
-7.0422051e-05
-3.9138923e-05
4.0004547e-05
0.00017071229
0.00033656964
0.00053406672
0.00073858737
0.00093197162
0.0010910648
0.0012018186
0.0012527158
0.0012402714
0.001167828
0.0010465057
0.00089252495
0.00072517864
0.00056299325
0.00042056599
0.00030608722
0.00022063546
-8.7363705e-05
-8.8101793e-05
-8.5925552e-05
-3.0293578e-06
0.00011334463
0.00028804494
0.00049040222
0.00071681141
0.00093524952
0.0011267415
0.0012707645
0.0013548802
0.0013710209
0.0013191398
0.0012071862
0.0010498334
0.00086670167
0.00067875011
0.00050463829
0.00035753723
0.00024289788
0.00015862905
-9.8256865e-05
-0.00012326367
-0.00011676412
-5.9414665e-05
6.0314583e-05
0.00022521265
0.00044297555
0.00068166234
0.00092875788
0.001151096
0.0013313878
0.0014513947
0.0015012336
0.0014762966
0.0013810498
0.0012275143
0.0010344817
0.00082419086
0.00061886571
0.00043653462
0.00028822476
0.00017642182
9.5311827e-05
-0.00010712132
-0.00014626078
-0.00016859226
-0.00010462728
-7.0208691e-06
0.00016502968
0.00037932208
0.00064137375
0.0009082028
0.0011654652
0.001381053
0.001540649
0.0016279494
0.0016360157
0.0015647384
0.0014228171
0.0012269688
0.00099948791
0.00076505302
0.00054623769
0.00035971404
0.00021394089
0.00010780394
3.1903302e-05
-0.00012001448
-0.00018530778
-0.00020136866
-0.00016922778
-6.5560658e-05
8.7847321e-05
0.00031633261
0.00058334863
0.00088157395
0.001165447
0.0014209387
0.0016198643
0.0017490314
0.0017950327
0.0017547204
0.0016324279
0.0014418263
0.0012038863
0.00094445498
0.00068967618
0.00046177536
0.00027547617
0.00013589457
3.8323301e-05
-3.0549528e-05
-0.00012816077
-0.0002119526
-0.00026028088
-0.00021745327
-0.00014432016
1.6448451e-05
0.00023360959
0.00052415319
0.00083625756
0.0011585818
0.0014463276
0.0016895624
0.0018614267
0.0019506521
0.0019474052
0.0018526647
0.001675934
0.0014356496
0.0011572787
0.00086930877
0.00059874839
0.00036671015
0.00018510671
5.5489235e-05
-3.0884968e-05
-9.1014159e-05
-0.00013623795
-0.00025439768
-0.00030600207
-0.00029345307
-0.00021121779
-7.8668747e-05
0.00015340084
0.00044264026
0.00078841489
0.0011323921
0.0014641757
0.0017448284
0.0019648182
0.0020993924
0.0021395564
0.0020796408
0.0019255851
0.001692019
0.0014025637
0.0010864848
0.00077441837
0.00049333384
0.00026236354
9.0110152e-05
-2.60158e-05
-9.868352e-05
-0.0001486042
-0.00014539403
-0.00028836704
-0.00036392364
-0.00036032123
-0.00030395099
-0.00016643159
4.5747323e-05
0.00036064209
0.00071633085
0.001102521
0.0014621078
0.0017918508
0.0020541653
0.0022400953
0.0023273108
0.0023096472
0.0021866775
0.0019694103
0.0016781123
0.0013412178
0.00099140926
0.00066053182
0.00037470534
0.00015031268
-8.1167822e-06
-0.000107302
-0.00016411383
-0.00020250877
-0.00015439707
-0.0003142656
-0.00042463722
-0.00044480125
-0.00039648199
-0.00028258355
-6.0963117e-05
0.00024760346
0.00064198095
0.0010463376
0.0014556318
0.0018179686
0.0021347047
0.0023675853
0.0025085841
0.0025384508
0.0024550258
0.0022635635
0.0019806526
0.0016320823
0.0012509004
0.00087234024
0.0005287677
0.00024444495
3.2085714e-05
-0.00010804374
-0.00018726345
-0.00022626944
-0.00025202787
-0.0001594387
-0.0003506792
-0.00047883565
-0.00054163015
-0.00051574595
-0.00040763249
-0.00020146737
0.00012926613
0.00053391831
0.00098587833
0.0014201829
0.0018389987
0.0021936086
0.0024860777
0.0026779749
0.0027630852
0.0027260844
0.0025699237
0.0023059301
0.0019562933
0.0015524449
0.0011312962
0.0007300978
0.00038059329
0.00010421072
-9.0577404e-05
-0.00020830917
-0.00026478706
-0.00028433624
-0.0002965723
-0.00016174645
-0.00038003984
-0.0005426884
-0.00063495178
-0.00065436201
-0.00056912747
-0.00035728776
-3.1060746e-05
0.00041465315
0.00088873706
0.0013780854
0.001828901
0.0022459826
0.0025826714
0.002838638
0.0029777043
0.002996085
0.0028836548
0.0026491611
0.0023098214
0.001893996
0.0014381653
0.00098274375
0.00056589956
0.00021774654
-4.4061757e-05
-0.00021596562
-0.00030744448
-0.00033885732
-0.00033760258
-0.00033566817
-0.00015897065
-0.00042129992
-0.00060122398
-0.00073670599
-0.00079933207
-0.00076120444
-0.00056276748
-0.00021374247
0.0002456108
0.00077446623
0.0012949172
0.0018090292
0.002264844
0.0026716948
0.0029777495
0.003184491
0.003258544
0.003200237
0.0030050918
0.0026878068
0.0022719566
0.0017918682
0.0012888975
0.00080603083
0.00038141143
4.2285573e-05
-0.00019836097
-0.00034222177
-0.00040416433
-0.0004085361
-0.00038547626
-0.00036896176
-0.00015603461
-0.00045750335
-0.00067575055
-0.00083359795
-0.00095187486
-0.00097226149
-0.00081713815
-0.00046397121
4.7404145e-05
0.00060349216
0.0011889235
0.0017425833
0.0022720143
0.0027243827
0.0031084532
0.0033706284
0.0035146642
0.0035124695
0.0033685767
0.0030846606
0.0026816115
0.0021894983
0.0016487167
0.0011048162
0.00060254255
0.00017866205
-0.00014355661
-0.00035650751
-0.00046777394
-0.00049727782
-0.00047303765
-0.0004275085
-0.00039622765
-0.00014878561
-0.000506848
-0.00074895427
-0.00095273479
-0.0011041901
-0.0011931603
-0.0011061226
-0.00077733397
-0.00023937248
0.00039080527
0.0010169145
0.0016459304
0.0022266069
0.0027640575
0.0032012051
0.0035479186
0.0037515252
0.0038204608
0.0037318194
0.0034945821
0.0031172375
0.0026267037
0.0020602913
0.00146386
0.00088676549
0.00037413495
-3.9969587e-05
-0.00033732149
-0.0005165549
-0.00059108439
-0.00058576766
-0.00053169468
-0.00046338602
-0.00041734184
-0.00014022074
-0.00056010985
-0.0008365053
-0.0010725072
-0.0012870804
-0.0014163599
-0.0014134475
-0.0011544962
-0.00060559458
7.4436991e-05
0.0007882913
0.0014719607
0.0021448548
0.0027459342
0.0032799482
0.0036865561
0.0039796174
0.0041110093
0.0040935122
0.003909317
0.0035723356
0.0030978424
0.0025198837
0.001882631
0.0012374777
0.00063624339
0.00012313485
-0.00027187183
-0.00053663329
-0.00067644736
-0.00071076892
-0.00066870639
-0.00058397442
-0.00049290891
-0.00043226781
-0.00013167659
-0.00061264099
-0.00093032545
-0.0012110756
-0.0014716753
-0.0016869442
-0.0017212576
-0.0015602255
-0.0010732258
-0.00034147878
0.00044410819
0.0012240094
0.0019748773
0.002686739
0.0032957464
0.0038110713
0.0041688055
0.0043933155
0.0044400193
0.0043259506
0.004038127
0.0035960274
0.0030221028
0.0023583254
0.001655732
0.00097038474
0.00035537984
-0.00014759301
-0.00051413889
-0.00073895208
-0.00083436288
-0.00082549172
-0.00074524085
-0.0006295678
-0.0005159552
-0.00044104834
-0.00012055384
-0.00066435137
-0.001022371
-0.0013642647
-0.001678043
-0.0019596708
-0.0021032195
-0.0019617925
-0.0015856752
-0.00090452027
-2.4367157e-05
0.00084859898
0.0017153672
0.0025289742
0.0032666941
0.0038683502
0.004343611
0.004636769
0.0047794264
0.0047305455
0.004510515
0.0041118234
0.003560118
0.0028860553
0.0021400834
0.0013795063
0.00066425033
4.6935081e-05
-0.00043495357
-0.00076376558
-0.00094189701
-0.00098846723
-0.00093407628
-0.00081463021
-0.00066825221
-0.00053251235
-0.00044379444
-0.00010811563
-0.00070849981
-0.0011134666
-0.0015155469
-0.0019059911
-0.0022558811
-0.0024892675
-0.0024751279
-0.0020949225
-0.0015411973
-0.00068670069
0.0003119301
0.0013079215
0.0022674584
0.0031293176
0.0038789823
0.0044479477
0.0048654592
0.0050804089
0.0051293677
0.0049747566
0.0046400864
0.0041241279
0.0034595502
0.0026864755
0.0018638452
0.0010548262
0.00032141906
-0.00028591204
-0.00073559279
-0.001017831
-0.0011430439
-0.0011371616
-0.0010354
-0.00087648674
-0.00069984751
-0.0005426365
-0.00044067488
-9.5181956e-05
-0.00074329316
-0.0011922699
-0.0016654505
-0.0021300304
-0.0025855759
-0.0029010162
-0.0030006389
-0.0027630269
-0.0021815808
-0.0014547438
-0.00046032919
0.00071075855
0.0018363238
0.0028750719
0.0037725894
0.0045046295
0.00502035
0.0053662835
0.0054907781
0.0054351924
0.0051654113
0.0047075747
0.0040686618
0.0032896165
0.0024207524
0.001529364
0.000683305
-5.5064969e-05
-0.00063955078
-0.0010460009
-0.0012733196
-0.0013402227
-0.0012788436
-0.0011286139
-0.00093051054
-0.00072429472
-0.00054646693
-0.00043191846
-8.2537514e-05
-0.00076574967
-0.0012553506
-0.0017993352
-0.0023492062
-0.0029085805
-0.0033611287
-0.0035552624
-0.0034588247
-0.0030193073
-0.0022420165
-0.0013714795
-0.00016904188
0.0011955846
0.0024287213
0.0035393504
0.0044363644
0.0051267613
0.005575138
0.005836782
0.0058598273
0.005689751
0.0052948
0.0047056694
0.0039394049
0.0030460627
0.0020872647
0.0011372688
0.00026754539
-0.00046155889
-0.0010100203
-0.0013625252
-0.0015273559
-0.0015312292
-0.0014122185
-0.0012131017
-0.0009764637
-0.00074165166
-0.00054419203
-0.00041780261
-0.00077154275
-7.9956274e-05
-0.0012996394
-0.0019110714
-0.0025442296
-0.0032204312
-0.0038120199
-0.0041796377
-0.004189046
-0.0039076363
-0.0032660201
-0.0023264873
-0.0012375728
0.00022663383
0.0017547802
0.0030933642
0.0042343505
0.0051005021
0.0057352136
0.0061030283
0.0062689716
0.006180707
0.0058855339
0.0053549569
0.0046270646
0.0037304066
0.0027253937
0.0016850462
0.00068927298
-0.00018910513
-0.00089383667
-0.0013930798
-0.0016815267
-0.0017770394
-0.0017142201
-0.0015361609
-0.0012884459
-0.0010142472
-0.00075204451
-0.00053606889
-0.00039864007
-0.0013180916
-0.000767826
-8.7850566e-05
-0.0019946182
-0.0027072086
-0.003498051
-0.0042439475
-0.0047952861
-0.0050140254
-0.0048414363
-0.0043668447
-0.0035629263
-0.0023801262
-0.001004262
0.00070617921
0.0024042851
0.0038034272
0.0049364891
0.0057546326
0.0063203064
0.0065960619
0.0066569715
0.0064466613
0.0060138777
0.0053372979
0.0044642055
0.0034362618
0.0023251122
0.0012145005
0.00018803987
-0.00068244218
-0.0013472086
-0.0017843335
-0.0019993156
-0.0020197885
-0.0018874525
-0.0016498651
-0.0013543303
-0.0010438688
-0.00075566661
-0.00052238302
-0.00037475149
-0.0020376014
-0.0013193932
-0.00075443183
-9.79784e-05
-0.0028287163
-0.0037288077
-0.0046298703
-0.0053853914
-0.0058378769
-0.0059001845
-0.0055289076
-0.00490567
-0.0038539897
-0.0023393427
-0.00066730851
0.001310243
0.0031082188
0.0045274004
0.0056320226
0.0063883694
0.0068738644
0.0070493166
0.0069947041
0.006648737
0.0060652023
0.005232769
0.0042098045
0.0030523305
0.0018438816
0.00067715264
-0.00036267165
-0.0012075746
-0.0018166
-0.002179248
-0.0023124189
-0.0022531365
-0.0020496059
-0.0017526742
-0.0014105757
-0.0010654167
-0.00075276175
-0.00050346463
-0.00034648132
-0.0028889319
-0.0020483701
-0.0013028817
-0.00072344537
-0.00010860651
-0.0038958416
-0.0049489655
-0.0059190422
-0.006633966
-0.006969018
-0.006848376
-0.0063278367
-0.0054686777
-0.0040539644
-0.0021862445
-0.00018096034
0.0019945824
0.0038299768
0.0052491018
0.0063124592
0.0069941425
0.0073923919
0.0074582398
0.0072740962
0.0067769895
0.0060290051
0.0050321375
0.0038570328
0.0025751976
0.0012818084
7.5919649e-05
-0.00095813064
-0.0017589384
-0.0022966661
-0.0025733503
-0.0026175005
-0.0024750584
-0.0021995119
-0.0018441594
-0.0014570902
-0.0010790575
-0.00074366125
-0.00047968104
-0.00031418452
-0.0039751286
-0.0028978303
-0.0020260166
-0.0012599934
-0.00068026627
-0.00011826956
-0.0051762611
-0.0063656017
-0.0073635991
-0.0080106416
-0.0081935649
-0.0079466051
-0.007181245
-0.0059543307
-0.0041407339
-0.0018737918
0.00040526866
0.0027026904
0.0045570872
0.0059628734
0.0069690748
0.0075699094
0.0078734809
0.0078161603
0.0074845228
0.0068194534
0.0058942145
0.0047263279
0.0034000988
0.0020027669
0.00064034891
-0.000585088
-0.0015925963
-0.0023304839
-0.0027818924
-0.0029622786
-0.002911617
-0.0026837167
-0.0023363529
-0.0019239555
-0.0014939231
-0.0010851147
-0.00072878169
-0.00045141817
-0.00027820699
-0.005281583
-0.0039729262
-0.0028540514
-0.0019605306
-0.0011984476
-0.00062976359
-0.000125724
-0.0066891698
-0.007982621
-0.0089744242
-0.0095141363
-0.0096051159
-0.0091362818
-0.0079824572
-0.0063322404
-0.0040685073
-0.0014545591
0.0010384487
0.0034252722
0.0052873133
0.0066578298
0.0076017112
0.0081174403
0.0083128924
0.0081126965
0.0076134954
0.0067635767
0.0056493759
0.0043066611
0.0028341388
0.0013345111
-7.7651878e-05
-0.0013003935
-0.0022595253
-0.0029157384
-0.0032667671
-0.0033419832
-0.0031920932
-0.0028776809
-0.0024593292
-0.0019919417
-0.0015213622
-0.0010840683
-0.00070852554
-0.00041898439
-0.00023886618
-0.0068440383
-0.005265913
-0.0038894089
-0.0027477257
-0.0018626876
-0.0011215529
-0.00057308021
-0.00013279959
-0.0084415686
-0.009801487
-0.010742092
-0.011238823
-0.01114767
-0.010303511
-0.0086874861
-0.006550219
-0.0038796733
-0.00097030991
0.0017106496
0.004153456
0.0060079136
0.0073355567
0.0082160274
0.0086338583
0.0087006752
0.0083339421
0.0076464349
0.0065956027
0.0052834982
0.0037655435
0.0021559342
0.00057144173
-0.00086769742
-0.0020634247
-0.0029516569
-0.0035079924
-0.0037459699
-0.0037087257
-0.0034566805
-0.0030555928
-0.0025680114
-0.002048276
-0.0015399455
-0.0010762998
-0.0006830735
-0.00038259896
-0.00019650821
-0.008675555
-0.0068236723
-0.0051290221
-0.0037177239
-0.0025974376
-0.0017392761
-0.0010322795
-0.00051720188
-0.00013815564
-0.010426791
-0.011802983
-0.012759263
-0.013133205
-0.012700668
-0.01139672
-0.0092487512
-0.0066513333
-0.0036159814
-0.00041966747
0.0024123878
0.004878737
0.0067201924
0.0080054849
0.0088121553
0.0091102338
0.0090220325
0.0084643963
0.0075674905
0.0063016784
0.0047857015
0.0030967166
0.0013640174
-0.00028350677
-0.0017237181
-0.0028664473
-0.0036612116
-0.0041005315
-0.0042144696
-0.0040591823
-0.0037032581
-0.0032165252
-0.0026624233
-0.0020935551
-0.0015499896
-0.0010617443
-0.00065246607
-0.00034266861
-0.00015161999
-0.010759173
-0.0086707695
-0.0066329015
-0.0048722465
-0.0034828294
-0.0024124933
-0.0015962428
-0.00094154966
-0.00046240294
-0.00013904592
-0.01261663
-0.014075847
-0.014979881
-0.015072651
-0.014205783
-0.012363309
-0.0096948198
-0.0066745689
-0.0032666673
0.0001900153
0.0031286105
0.0056022541
0.0074415946
0.0086730365
0.0093836482
0.0095310676
0.0092594403
0.008486541
0.0073603373
0.0058680968
0.0041463564
0.0022955707
0.00045911645
-0.0012252112
-0.0026379612
-0.0037007941
-0.004380069
-0.0046868349
-0.004667611
-0.0043902173
-0.0039301647
-0.0033601505
-0.0027431289
-0.0021279814
-0.0015510615
-0.001040203
-0.0006173902
-0.00030017372
-0.00010467639
-0.013059239
-0.010771937
-0.0084281576
-0.0062775206
-0.0045289326
-0.0032019655
-0.0022006222
-0.00144864
-0.00084806464
-0.00041265398
-0.00014005781
-0.015084438
-0.016576423
-0.017279938
-0.016993236
-0.015611829
-0.013232396
-0.010055698
-0.006602238
-0.0028552594
0.00082720789
0.0038562797
0.0063548701
0.0081810132
0.0093326491
0.009914143
0.0098773296
0.009394091
0.0083817571
0.007007831
0.005281418
0.0033572117
0.0013596632
-0.000555653
-0.0022464523
-0.0036012425
-0.0045570838
-0.0051000646
-0.0052606598
-0.0051009351
-0.0046991623
-0.0041365473
-0.0034870139
-0.0028101502
-0.0021506253
-0.0015426543
-0.001012939
-0.00057986346
-0.00025599315
-5.5545998e-05
-0.01562589
-0.013091129
-0.010464787
-0.0079627143
-0.0058042441
-0.0041251897
-0.0028883621
-0.0019808989
-0.0012958409
-0.00076021741
-0.00037669858
-0.00013769373
-0.017796458
-0.019187882
-0.019590568
-0.018847054
-0.016948631
-0.014018421
-0.010311609
-0.0064538922
-0.0023891869
0.0014999953
0.0046290315
0.0071477992
0.0089368087
0.0099670638
0.010381917
0.010128941
0.0094063731
0.008130647
0.0064933202
0.004529194
0.0024120791
0.00028917611
-0.0016747639
-0.0033384108
-0.0046032547
-0.0054255586
-0.0058131523
-0.0058159029
-0.0055104439
-0.0049843959
-0.0043226793
-0.0035968643
-0.0028619012
-0.0021605317
-0.0015268711
-0.0009835359
-0.00054120111
-0.00020876014
-1.1499502e-06
-0.018440825
-0.015647126
-0.012707159
-0.0098638697
-0.0073390804
-0.00525102
-0.0036823135
-0.0025641457
-0.0017540952
-0.0011550737
-0.0006860557
-0.00033640595
-0.00013286233
-0.020640105
-0.021837539
-0.021874113
-0.020667902
-0.018218033
-0.014694206
-0.010479494
-0.0062617128
-0.0018553462
0.0022518434
0.0054596055
0.0079819827
0.0096899032
0.010552955
0.010767109
0.010265165
0.0092737676
0.0077125363
0.0058004892
0.0036008486
0.0013072879
-0.00091294066
-0.0028904995
-0.0044904333
-0.0056327979
-0.0062962411
-0.006511286
-0.0063468628
-0.0058934153
-0.0052457394
-0.0044880222
-0.0036872412
-0.0028967834
-0.0021608974
-0.0015094417
-0.00095363329
-0.00049727475
-0.00015316573
5.8635159e-05
-0.02139917
-0.018436871
-0.015144968
-0.011942355
-0.0090586587
-0.0066070969
-0.0046498061
-0.0032258859
-0.0022338522
-0.0015476539
-0.0010309483
-0.00060736719
-0.00030650932
-0.00012502085
-0.023543474
-0.024503603
-0.024163703
-0.022445678
-0.019385017
-0.015277828
-0.010600597
-0.0059867305
-0.0012110958
0.0030967173
0.0063611281
0.0088407489
0.010406264
0.01106679
0.011046962
0.010261663
0.0089723225
0.0071067312
0.0049137478
0.0024881052
4.2191978e-05
-0.0022407693
-0.0041922929
-0.0056903097
-0.0066780065
-0.0071588631
-0.0071866628
-0.0068493189
-0.0062489434
-0.0054821202
-0.0046289217
-0.0037556286
-0.0029193113
-0.0021602658
-0.0014922479
-0.00091474556
-0.00043867126
-9.2557574e-05
0.00012244091
-0.024427298
-0.021373327
-0.017786881
-0.014168399
-0.010918997
-0.0081111046
-0.005812605
-0.0040299494
-0.002766238
-0.0019376832
-0.0013600336
-0.00090487409
-0.000545741
-0.00027177384
-0.00011788174
-0.026503559
-0.027212586
-0.02644255
-0.024139807
-0.020462657
-0.015813108
-0.01066072
-0.005581118
-0.00044652626
0.0040581857
0.0073229603
0.0096877186
0.011068276
0.01148827
0.011196913
0.010091922
0.0084768122
0.0062927174
0.003819711
0.0011856812
-0.0013803857
-0.0036850997
-0.005567201
-0.0069244244
-0.007726288
-0.0080031367
-0.0078331043
-0.0073213128
-0.0065751824
-0.0056883975
-0.0047416411
-0.0038080555
-0.0029416408
-0.0021607839
-0.0014606415
-0.00085158519
-0.00037546315
-2.7486515e-05
0.00019027191
-0.027548537
-0.024378084
-0.0205648
-0.016558642
-0.012875877
-0.0097171443
-0.0070824655
-0.0049924656
-0.0034086961
-0.0023576947
-0.0016639878
-0.0011727465
-0.00080115048
-0.00047796001
-0.00025002553
-0.00011092372
-0.029542176
-0.029938891
-0.028656991
-0.025752379
-0.021509051
-0.016296058
-0.010590413
-0.0049905298
0.00048648539
0.0051197578
0.0082962733
0.010500688
0.011655013
0.011791035
0.011187494
0.0097277795
0.0077612845
0.0052517259
0.002507715
-0.00030789347
-0.0029537956
-0.0052338409
-0.0070006014
-0.0081779145
-0.0087645824
-0.0088204588
-0.0084471888
-0.0077599088
-0.0068650832
-0.0058590948
-0.0048339178
-0.0038612662
-0.002966293
-0.0021394705
-0.0013914858
-0.00078418168
-0.00030722698
4.1924651e-05
0.00026213947
-0.030778341
-0.027503734
-0.023402715
-0.019064891
-0.014951986
-0.011369956
-0.008412371
-0.0060227157
-0.0041733117
-0.0028594964
-0.0019766012
-0.0013944303
-0.0010182069
-0.00069104241
-0.00042067946
-0.00022001429
-0.00010333223
-0.032620193
-0.032617625
-0.030803694
-0.027360415
-0.02252062
-0.016660505
-0.01032498
-0.0042087325
0.0015824287
0.00620689
0.009252886
0.011253167
0.012139525
0.01194305
0.010986788
0.0091388679
0.0068012232
0.0039668904
0.00097064978
-0.0019899333
-0.0046679082
-0.0068721716
-0.0084757848
-0.0094347894
-0.0097814235
-0.0096054853
-0.0090245304
-0.0081555218
-0.0071107945
-0.0060038187
-0.0049282141
-0.0039182889
-0.0029593577
-0.0020629684
-0.0013183409
-0.00071095215
-0.00023443648
0.00011569655
0.00033804006
-0.034058681
-0.030761381
-0.026378952
-0.021617965
-0.017114825
-0.013094897
-0.0097433041
-0.0070748473
-0.0049695007
-0.0034490236
-0.0023432187
-0.0016034194
-0.0011758666
-0.00086045794
-0.00058902335
-0.00035873072
-0.0001849812
-9.1782445e-05
-0.035656125
-0.035235021
-0.032973585
-0.028963985
-0.023429356
-0.01681756
-0.0098394253
-0.0032168467
0.0027601215
0.0072970252
0.010186413
0.011921425
0.01249055
0.011909961
0.010560744
0.0082942562
0.0055733903
0.0024240522
-0.00079412606
-0.0038535443
-0.006508521
-0.008581361
-0.0099739493
-0.010680471
-0.010769046
-0.010351926
-0.0095523726
-0.0084972456
-0.0073239213
-0.00615215
-0.0050282127
-0.003931231
-0.0028743306
-0.0019824588
-0.0012383291
-0.00063296609
-0.0001569996
0.00019380005
0.00041795365
-0.03729936
-0.034072408
-0.029494019
-0.024311649
-0.019308921
-0.014874676
-0.011100155
-0.0080860756
-0.0057532334
-0.0040364121
-0.0027584697
-0.0018389136
-0.0013069635
-0.00095794232
-0.00070821585
-0.00048289685
-0.00030005916
-0.00016250445
-8.5061965e-05
-0.038629333
-0.037896717
-0.035170267
-0.030496237
-0.024136953
-0.016726545
-0.0091183624
-0.002055316
0.0039654775
0.0083844467
0.011073971
0.012472984
0.012671135
0.011653332
0.0098721259
0.0071644165
0.0040563056
0.00061348636
-0.0027841834
-0.0058865964
-0.0084567958
-0.010339914
-0.011477137
-0.011904387
-0.01171877
-0.011043092
-0.010015571
-0.0087986264
-0.0075427448
-0.006308671
-0.0050682767
-0.0038367373
-0.0027847793
-0.0018937866
-0.0011533881
-0.00054998418
-7.4986037e-05
0.0002761983
0.00050184003
-0.040472747
-0.037341819
-0.032662812
-0.02714172
-0.021632367
-0.016670163
-0.012483174
-0.0090827525
-0.0064618543
-0.0045818893
-0.0031412176
-0.0020916199
-0.0014445952
-0.0010113495
-0.00074895479
-0.00055944522
-0.00038893628
-0.00025389623
-0.00012843649
-7.53969e-05
-0.041648187
-0.040604768
-0.037332001
-0.031842765
-0.024582255
-0.016376847
-0.0081929904
-0.0008059521
0.0051976382
0.0094541942
0.011864556
0.01286508
0.012641865
0.011132276
0.0088824649
0.0057204304
0.0022326063
-0.0014692936
-0.004991728
-0.008071283
-0.010489686
-0.012126994
-0.01297181
-0.013094836
-0.012609041
-0.011658354
-0.010429671
-0.0091085327
-0.0077730095
-0.0063854678
-0.00496376
-0.0037364343
-0.002685491
-0.0017999905
-0.0010630514
-0.00046216113
1.156786e-05
0.00036278699
0.0005896531
-0.043675423
-0.040538324
-0.035777216
-0.030008463
-0.02407471
-0.018573764
-0.013864151
-0.010078956
-0.0071208703
-0.0050266622
-0.0034604247
-0.0022939136
-0.0015784867
-0.0010490655
-0.00073679466
-0.00055624569
-0.00042943297
-0.000316056
-0.00019421748
-0.00010833746
-6.1914198e-05
-0.04471875
-0.043304885
-0.039341318
-0.032930762
-0.024754721
-0.015808314
-0.0071008649
0.00049842465
0.0064603781
0.0104661
0.012516505
0.013053759
0.012355127
0.010302043
0.0075544075
0.0039358054
9.0050862e-05
-0.0038223037
-0.007401664
-0.010383916
-0.012583409
-0.013926162
-0.014442769
-0.014224468
-0.013412313
-0.012214796
-0.010856213
-0.0094343928
-0.0078991372
-0.0062709943
-0.0048510561
-0.0036244917
-0.0025808525
-0.0017003629
-0.0009675765
-0.00036951482
0.00010249743
0.0004534706
0.00068136135
-0.046919255
-0.043733126
-0.038810067
-0.03280562
-0.026530483
-0.020569462
-0.015328542
-0.011055927
-0.0077558768
-0.005397452
-0.0036616025
-0.0024196646
-0.0016381398
-0.0010650789
-0.00068741841
-0.00049565787
-0.00039745958
-0.00032936975
-0.00023257254
-0.00016248604
-7.6987067e-05
-5.4943908e-05
-0.047793069
-0.045888299
-0.041108456
-0.033745877
-0.024690562
-0.015044454
-0.0058773294
0.0018858042
0.0077016223
0.011373549
0.012983974
0.012990887
0.011762678
0.0091187685
0.0058531568
0.0017890099
-0.0023772391
-0.0064347119
-0.0099910851
-0.012799284
-0.014718185
-0.015718444
-0.015855925
-0.015257151
-0.014146608
-0.01278931
-0.011305012
-0.0096263879
-0.0077756579
-0.0061444163
-0.0047244184
-0.0035069032
-0.0024698647
-0.0015952374
-0.00086696013
-0.00027231399
0.00019764758
0.00054821724
0.00077693205
-0.05016441
-0.046950148
-0.041808082
-0.035504867
-0.028892393
-0.022548335
-0.016854763
-0.012089952
-0.0083573693
-0.0057290845
-0.0037759542
-0.0024109266
-0.0016132991
-0.00098758463
-0.00059819736
-0.00039012555
-0.00030316656
-0.00027316998
-0.00022901965
-0.00018063088
-0.00011006608
-6.213872e-05
-4.008104e-05
-0.050776434
-0.048254712
-0.042627425
-0.034319174
-0.024414463
-0.01410215
-0.0045268812
0.0033384344
0.0088764471
0.012135048
0.013221467
0.012622783
0.010811165
0.0075395779
0.0037444504
-0.00073611085
-0.0051652958
-0.0092868264
-0.012734443
-0.015296038
-0.016871749
-0.017462011
-0.017164576
-0.016210952
-0.014906782
-0.01339495
-0.011584227
-0.0094962504
-0.0076340805
-0.006001123
-0.0045916801
-0.0033823296
-0.0023529362
-0.0014846244
-0.00076158987
-0.00017077018
0.000297079
0.00064707025
0.00087620345
-0.053329391
-0.0501518
-0.044799293
-0.038132211
-0.031129484
-0.02440525
-0.018332132
-0.013154409
-0.008996319
-0.0060219336
-0.0038441906
-0.0023043984
-0.0014486331
-0.0008232414
-0.00040895296
-0.00023339229
-0.00015433073
-0.00015644292
-0.00015801826
-0.00015632919
-0.00011064816
-7.9743185e-05
-3.0979342e-05
-3.3876337e-05
-0.053564318
-0.050409695
-0.043928666
-0.034670741
-0.023931946
-0.012973255
-0.0030465478
0.0047917208
0.0099468057
0.01269406
0.013173896
0.011887186
0.0094456142
0.0055205509
0.0012003934
-0.003645675
-0.0082589946
-0.012354615
-0.015610347
-0.017848273
-0.018993727
-0.019097602
-0.01838574
-0.017201697
-0.015710874
-0.013788741
-0.011451851
-0.0093391879
-0.0074724615
-0.0058510252
-0.0044511595
-0.0032512537
-0.0022300899
-0.0013690268
-0.00065173497
-6.4676432e-05
0.00040104864
0.00074965718
0.00097908229
-0.056317451
-0.05327065
-0.04775101
-0.040715796
-0.033252001
-0.026104783
-0.019665275
-0.014143245
-0.0096352196
-0.0063299957
-0.0038665858
-0.0021448154
-0.0011756925
-0.00052491477
-0.00013200631
1.9123819e-05
5.4982494e-05
1.7320474e-05
-2.4805356e-05
-7.0089655e-05
-7.1882423e-05
-6.3114684e-05
-3.2694384e-05
-1.6220361e-05
-1.8878328e-05
-0.056176975
-0.052388202
-0.045034373
-0.034804814
-0.023239651
-0.011663916
-0.0014983817
0.0061850362
0.010850789
0.012979639
0.0127749
0.010718981
0.0076096775
0.0030205009
-0.0017974302
-0.0069336416
-0.011637703
-0.015617713
-0.018591461
-0.020395652
-0.0210103
-0.020639859
-0.01965947
-0.018254389
-0.016253961
-0.013661512
-0.0112799
-0.0091581295
-0.0073029204
-0.0056921078
-0.0043033857
-0.0031136927
-0.0021019805
-0.0012487616
-0.00053696275
4.6565809e-05
0.00050885361
0.00085584189
0.0010854484
-0.059151801
-0.056224613
-0.050609814
-0.043231207
-0.035290277
-0.027650171
-0.020814742
-0.014975626
-0.010183169
-0.0066154448
-0.0038890755
-0.0019412029
-0.00084072598
-0.00011237394
0.00026364721
0.00036087219
0.00034948611
0.00025320524
0.00016803939
7.5134311e-05
2.506265e-05
-9.5640562e-06
-3.2706973e-06
-2.299908e-06
1.1332412e-05
-1.1933264e-05
-0.058665809
-0.054218233
-0.045937298
-0.034713743
-0.022328286
-0.010202037
7.9149811e-05
0.0074740279
0.011518684
0.012908009
0.011955291
0.0090516126
0.0052472958
9.1208155e-06
-0.0052520733
-0.010586753
-0.015285189
-0.01904861
-0.021608055
-0.02284867
-0.022932428
-0.022256346
-0.021020491
-0.018990561
-0.016143349
-0.013476943
-0.011079284