/*--------------------------------*- C++ -*----------------------------------*\
| =========                 |                                                 |
| \\      /  F ield         | OpenFOAM: The Open Source CFD Toolbox           |
|  \\    /   O peration     | Version:  5.0                                   |
|   \\  /    A nd           | Web:      www.OpenFOAM.org                      |
|    \\/     M anipulation  |                                                 |
\*---------------------------------------------------------------------------*/
FoamFile
{
    version     2.0;
    format      ascii;
    class       volScalarField;
    location    "200";
    object      pPrime2Mean;
}
// * * * * * * * * * * * * * * * * * * * * * * * * * * * * * * * * * * * * * //

dimensions      [0 4 -4 0 0 0 0];

internalField   nonuniform List<scalar> 
9520
(
3.0349117e-07
2.8146153e-07
2.0513683e-06
2.4434494e-07
1.9014043e-06
5.5512662e-06
1.9937471e-07
1.6485384e-06
5.1472293e-06
1.0916912e-05
1.528846e-07
1.3418579e-06
4.4656611e-06
1.012497e-05
1.8437074e-05
1.0975904e-07
1.024464e-06
3.6384291e-06
8.7883082e-06
1.7107131e-05
2.8466704e-05
7.3300259e-08
7.2961429e-07
2.7814879e-06
7.1645973e-06
1.486066e-05
2.6426898e-05
4.1483313e-05
4.5370814e-08
4.7970407e-07
1.9844599e-06
5.4807914e-06
1.2128542e-05
2.297822e-05
3.8534873e-05
5.8043315e-05
2.6703433e-08
2.8716087e-07
1.3079612e-06
3.9127647e-06
9.2910854e-06
1.8777984e-05
3.3544165e-05
5.3956984e-05
7.8798382e-05
1.7209024e-08
1.5632113e-07
7.8584877e-07
2.5800123e-06
6.6441497e-06
1.4407837e-05
2.7455167e-05
4.703085e-05
7.3311448e-05
0.00010448113
1.6343957e-08
8.559565e-08
4.2990147e-07
1.5496963e-06
4.390011e-06
1.0322442e-05
2.1105754e-05
3.8563103e-05
6.3997218e-05
9.7296518e-05
0.00013590519
2.3513873e-08
6.9586814e-08
2.3572108e-07
8.4586792e-07
2.6436444e-06
6.8349211e-06
1.515466e-05
2.9710039e-05
5.2583324e-05
8.5079688e-05
0.00012669146
0.00017394978
3.8332789e-08
1.0071793e-07
1.8817047e-07
4.6014099e-07
1.4476444e-06
4.1257256e-06
1.0059506e-05
2.1386723e-05
4.0614298e-05
7.0069842e-05
0.00011099487
0.00016234323
0.00021955247
6.1134839e-08
1.7062696e-07
2.6551308e-07
3.6215938e-07
7.9033444e-07
2.264492e-06
6.0881027e-06
1.4235206e-05
2.9321181e-05
5.4277002e-05
9.1653848e-05
0.00014252945
0.00020516071
0.00027369278
9.3032322e-08
2.7225016e-07
4.4435432e-07
5.1020455e-07
6.2300532e-07
1.2369462e-06
3.3481459e-06
8.6374886e-06
1.9577633e-05
3.9315819e-05
7.1227768e-05
0.00011803772
0.00018053743
0.00025610032
0.00033737709
1.3647636e-07
3.9976651e-07
7.0208389e-07
8.5824005e-07
8.7676348e-07
9.7266794e-07
1.8246874e-06
4.7538752e-06
1.1913297e-05
2.6346513e-05
5.1790272e-05
9.2065584e-05
0.00014999598
0.00022592885
0.0003161526
0.00041161733
1.9376807e-07
5.5079021e-07
1.018468e-06
1.3592707e-06
1.4724032e-06
1.3668448e-06
1.4186679e-06
2.5728871e-06
6.5610535e-06
1.6087175e-05
3.4851798e-05
6.7227855e-05
0.00011746348
0.00018836727
0.00027965956
0.00038632306
0.00049741187
2.6984188e-07
7.1801546e-07
1.3766964e-06
1.9674415e-06
2.3310368e-06
2.2976212e-06
1.9794627e-06
1.9617815e-06
3.5200536e-06
8.8697478e-06
2.1368451e-05
4.5457172e-05
8.6183499e-05
0.00014816393
0.00023404916
0.0003427157
0.00046761399
0.00059572139
3.6809628e-07
9.1967593e-07
1.766641e-06
2.6477577e-06
3.3778515e-06
3.6439271e-06
3.3321995e-06
2.7132177e-06
2.6223419e-06
4.7179222e-06
1.1805501e-05
2.8006132e-05
5.8590405e-05
0.00010928204
0.0001849798
0.00028798687
0.00041609759
0.00056100183
0.0007074499
4.9364795e-07
1.1219935e-06
2.1840998e-06
3.3708169e-06
4.5496059e-06
5.2948455e-06
5.2981558e-06
4.5844749e-06
3.5940399e-06
3.4297671e-06
6.2298689e-06
1.5516217e-05
3.6300954e-05
7.474425e-05
0.00013722571
0.00022878703
0.00035116064
0.0005008
0.00066741677
0.0008334206
6.4403429e-07
1.4171207e-06
2.6189101e-06
4.1151557e-06
5.7929076e-06
7.1526699e-06
7.7160925e-06
7.3227169e-06
6.1081321e-06
4.6575034e-06
4.4118544e-06
8.1240022e-06
2.0185176e-05
4.6608863e-05
9.448927e-05
0.00017079042
0.00028051719
0.00042457035
0.0005977927
0.00078772103
0.00097435784
8.2254005e-07
1.664379e-06
3.1166795e-06
4.8765147e-06
7.0772418e-06
9.1383106e-06
1.0447403e-05
1.0694528e-05
9.8229387e-06
7.9751449e-06
5.9250756e-06
5.5829359e-06
1.0484592e-05
2.6037753e-05
5.9356595e-05
0.00011847374
0.00021082447
0.00034114715
0.00050921864
0.00070799694
0.00092268983
0.0011308647
1.0196799e-06
2.1306504e-06
3.6143151e-06
5.663879e-06
8.3777082e-06
1.1201496e-05
1.3373239e-05
1.4498946e-05
1.4408843e-05
1.2934567e-05
1.0231586e-05
7.3844449e-06
6.952887e-06
1.3422602e-05
3.3356536e-05
7.5045616e-05
0.0001474279
0.00025824356
0.00041168578
0.00060608759
0.0008322704
0.0010729884
0.001303411
1.2389387e-06
2.4368766e-06
4.3180469e-06
6.4793206e-06
9.7106966e-06
1.3302509e-05
1.6409605e-05
1.8560774e-05
1.9574549e-05
1.9089709e-05
1.6755111e-05
1.2865303e-05
8.9992171e-06
8.5429066e-06
1.7089604e-05
4.248943e-05
9.4259625e-05
0.00018216447
0.00031402263
0.00049315765
0.00071612388
0.00097138166
0.0012391581
0.001492318
1.4372448e-06
3.1446591e-06
4.9696583e-06
7.4421846e-06
1.1066851e-05
1.5460855e-05
1.95041e-05
2.2751461e-05
2.5070646e-05
2.6040128e-05
2.4916159e-05
2.1297672e-05
1.5821244e-05
1.073147e-05
1.0398847e-05
2.1687684e-05
5.3857244e-05
0.00011767029
0.00022357627
0.00037918548
0.00058658198
0.0008402162
0.0011259942
0.0014215992
0.0016977526
1.6618567e-06
3.6797264e-06
6.0538587e-06
8.4470501e-06
1.2590776e-05
1.766044e-05
2.2659607e-05
2.6988176e-05
3.0711093e-05
3.3441429e-05
3.419011e-05
3.1949455e-05
2.651367e-05
1.9035272e-05
1.2557537e-05
1.2600251e-05
2.747474e-05
6.7963246e-05
0.00014604014
0.00027263331
0.00045479173
0.00069295763
0.00097917586
0.0012966457
0.0016205634
0.0019197204
1.9003947e-06
4.6169159e-06
7.0833172e-06
9.8500868e-06
1.4195006e-05
2.0082934e-05
2.5879885e-05
3.1245712e-05
3.6359503e-05
4.1032228e-05
4.4116717e-05
4.4146884e-05
4.0163234e-05
3.2346432e-05
2.2456045e-05
1.4471835e-05
1.5260583e-05
3.4774644e-05
8.5399966e-05
0.00018022787
0.00033037531
0.0005419145
0.00081324297
0.0011337139
0.0014837382
0.0018361445
0.0021580668
2.2701687e-06
5.5294735e-06
8.6864151e-06
1.1354975e-05
1.6271901e-05
2.2652897e-05
2.9337484e-05
3.5548054e-05
4.1959412e-05
4.8606455e-05
5.4340474e-05
5.7292352e-05
5.5912887e-05
4.9531209e-05
3.8763371e-05
2.6041785e-05
1.6478495e-05
1.8533119e-05
4.3985919e-05
0.00010686162
0.00022118733
0.00039790097
0.00064163006
0.00094833126
0.0013044266
0.0016875236
0.0020682767
0.0024124797
2.6575431e-06
6.4649257e-06
1.0319289e-05
1.3562809e-05
1.8571984e-05
2.5825233e-05
3.3028726e-05
4.0039422e-05
4.7527063e-05
5.6071711e-05
6.4569589e-05
7.0914444e-05
7.2995074e-05
6.9508162e-05
6.0082471e-05
4.5744523e-05
2.9740326e-05
1.8589752e-05
2.2618918e-05
5.5598862e-05
0.00013315068
0.0002699663
0.00047634905
0.00075499362
0.0010990321
0.0014917752
0.001908099
0.0023167349
0.0026824962
3.0488515e-06
7.3917254e-06
1.1896469e-05
1.5952209e-05
2.1822754e-05
2.9375699e-05
3.7425405e-05
4.4811808e-05
5.3192439e-05
6.3406687e-05
7.4665771e-05
8.4618634e-05
9.0788737e-05
9.1294363e-05
8.5061086e-05
7.1882741e-05
5.3244782e-05
3.3472446e-05
2.0828896e-05
2.7785347e-05
7.020931e-05
0.00016518641
0.00032769783
0.00056688668
0.00088301845
0.0012660468
0.0016960776
0.0021454003
0.0025811389
0.0029675133
3.4296675e-06
7.9647586e-06
1.348486e-05
1.8421514e-05
2.5430755e-05
3.421203e-05
4.2339134e-05
5.0337349e-05
5.9126646e-05
7.0741354e-05
8.4552968e-05
9.8200827e-05
0.00010877291
0.00011407261
0.00011244783
0.00010278448
8.4971443e-05
6.1155876e-05
3.7124657e-05
2.3246828e-05
3.4385682e-05
8.8536168e-05
0.00020400473
0.00039558702
0.00067068921
0.0010266484
0.0014499536
0.0019174959
0.0023992037
0.0028609629
0.0032668006
3.6750542e-06
8.7359305e-06
1.4630646e-05
2.0796689e-05
2.9334039e-05
3.9691067e-05
4.8939651e-05
5.651731e-05
6.5803008e-05
7.8276818e-05
9.4361869e-05
0.00011151313
0.00012664974
0.00013715633
0.00014117353
0.00013687577
0.00012288048
9.9289921e-05
6.9286742e-05
4.056147e-05
2.5943984e-05
4.2883757e-05
0.00011143085
0.0002507584
0.00047489705
0.00078891196
0.0011867367
0.0016511887
0.0021560319
0.0026691318
0.0031555459
0.0035795146
3.7998935e-06
9.0702034e-06
1.604103e-05
2.2769581e-05
3.2943272e-05
4.5677085e-05
5.6628235e-05
6.4743331e-05
7.3267898e-05
8.6515236e-05
0.00010428113
0.00012467287
0.000144184
0.00016011257
0.0001703365
0.00017277815
0.00016502281
0.00014542722
0.00011463986
7.7367995e-05
4.36475e-05
2.9100267e-05
5.3872232e-05
0.00013988897
0.0003067053
0.00056692917
0.00092266545
0.0013640209
0.001870036
0.0024115232
0.00295466
0.0034641044
0.0039047156
3.6921155e-06
9.2684521e-06
1.6893338e-05
2.4976723e-05
3.6201726e-05
5.1008414e-05
6.5160343e-05
7.4455406e-05
8.3069179e-05
9.5635193e-05
0.00011484592
0.0001378411
0.00016145332
0.00018259602
0.00019931507
0.00020931573
0.00020965381
0.00019719147
0.00017030391
0.000130683
8.5073817e-05
4.6281778e-05
3.3000428e-05
6.8095339e-05
0.00017505017
0.00037319445
0.00067299934
0.0010729901
0.0015591083
0.0021066137
0.002683648
0.0032551254
0.0037857492
0.0042413851
3.3667717e-06
9.0639571e-06
1.7414117e-05
2.6514635e-05
3.9613799e-05
5.6064811e-05
7.2725526e-05
8.583713e-05
9.4820892e-05
0.00010720302
0.00012633638
0.00015156196
0.00017857368
0.00020461205
0.00022761752
0.00024562666
0.00025526016
0.00025241377
0.00023342557
0.00019718091
0.00014696772
9.2058383e-05
4.8426375e-05
3.8065035e-05
8.6460009e-05
0.00021819833
0.00045165402
0.00079441095
0.0012408315
0.0017724525
0.0023608729
0.0029719295
0.0035697402
0.0041195009
0.0045884422
2.8594403e-06
8.4420894e-06
1.7316811e-05
2.7532632e-05
4.2154094e-05
6.1168984e-05
8.0091645e-05
9.6115435e-05
0.00010927931
0.00012105066
0.00014028461
0.000166213
0.00019611006
0.0002262127
0.00025513784
0.00028101888
0.00030068705
0.00030917726
0.0003013493
0.00027348668
0.00022555842
0.00016296612
9.7985188e-05
5.0142101e-05
4.4871093e-05
0.00011004865
0.00027074708
0.0005435684
0.0009324254
0.0014270096
0.0020043422
0.002632594
0.0032757443
0.0038976075
0.0044643068
0.0049447616
2.2512465e-06
7.4283497e-06
1.648795e-05
2.776763e-05
4.3834671e-05
6.5181084e-05
8.7456135e-05
0.0001062466
0.00012268536
0.00013877624
0.00015680999
0.00018321965
0.00021448164
0.00024795312
0.00028184925
0.00031524172
0.0003449855
0.00036597674
0.00037168472
0.00035638983
0.00031690718
0.00025480939
0.00017810578
0.00010256306
5.1614336e-05
5.4177493e-05
0.00014012401
0.0003342382
0.00065044901
0.0010882285
0.0016321994
0.0022548873
0.0029213904
0.0035943337
0.0042377381
0.004819059
0.0053091901
1.6606115e-06
6.1168183e-06
1.4969424e-05
2.6941446e-05
4.4451661e-05
6.7790464e-05
9.3706135e-05
0.00011651895
0.00013622389
0.00015586735
0.00017836828
0.0002032559
0.00023506892
0.00027028893
0.00030826884
0.00034815407
0.00038771808
0.00042154052
0.00044250379
0.00044294765
0.00041717684
0.00036305522
0.00028421682
0.00019179817
0.00010556758
5.3183555e-05
6.6942241e-05
0.00017813002
0.00041031835
0.00077380154
0.0012629017
0.0018569057
0.0025240175
0.0032267135
0.0039268207
0.0045890674
0.0051826112
0.0056805625
1.1919948e-06
4.7373653e-06
1.2922988e-05
2.5103311e-05
4.3502903e-05
6.8953589e-05
9.7872696e-05
0.00012590901
0.00015001067
0.00017376801
0.00019967887
0.00022932705
0.00025891597
0.00029455134
0.00033485824
0.00038019593
0.00042856807
0.00047520244
0.00051214306
0.0005307216
0.00052278562
0.0004831658
0.00041118094
0.00031299261
0.00020345399
0.00010687575
5.5373999e-05
8.4344884e-05
0.00022568833
0.00050071272
0.0009150909
0.0014573882
0.0021014525
0.0028114759
0.003547864
0.0042722254
0.0049504724
0.0055537954
0.0060577157
9.2865912e-07
3.566536e-06
1.0724883e-05
2.2460716e-05
4.1049071e-05
6.7805667e-05
0.00010020919
0.00013253504
0.00016346951
0.00019147975
0.00022272412
0.0002554908
0.00028959063
0.00032199864
0.00036299186
0.00041184439
0.00046789127
0.00052639687
0.00057964435
0.00061757481
0.00063067559
0.00061082287
0.00055369687
0.00046042935
0.00034027672
0.0002125025
0.0001064946
5.8932519e-05
0.00010779633
0.00028458791
0.00060719075
0.001075702
0.0016724687
0.0023659639
0.0031168265
0.0038840065
0.0046294813
0.0053207899
0.0059314371
0.0064395026
2.8959113e-06
9.1612064e-07
8.8329177e-06
1.9534973e-05
3.7381236e-05
6.4431398e-05
9.9396404e-05
0.00013711942
0.00017346628
0.00020979521
0.00024467168
0.00028481501
0.00032154593
0.00035676669
0.00039395526
0.00044447254
0.00050608668
0.00057537205
0.00064412394
0.00070217927
0.00073814099
0.00074222413
0.00070660059
0.0006280022
0.00050981499
0.00036513147
0.00021840932
0.00010460985
6.4860826e-05
0.00013894626
0.0003567606
0.000731527
0.0012569041
0.0019087323
0.0026503634
0.0034394595
0.004234185
0.0049974538
0.0056988335
0.0063143694
0.0068248028
7.7425439e-06
2.9093088e-06
1.1555796e-06
1.6989621e-05
3.3245541e-05
5.9242115e-05
9.5473017e-05
0.00013777265
0.00018138691
0.00022394701
0.00026853368
0.00031188206
0.00035844877
0.00039451341
0.000432414
0.00047933801
0.00054453161
0.00062237467
0.0007056843
0.00078324833
0.00084337729
0.00087397401
0.00086521466
0.00080960411
0.00070515713
0.00055818106
0.00038653926
0.00022072187
0.00010163173
7.4449631e-05
0.00017968531
0.00044424933
0.00087545827
0.0014598101
0.0021665603
0.002954368
0.0037786063
0.0045973388
0.0053749588
0.0060834074
0.0067014457
0.0072125322
1.5528803e-05
7.7632563e-06
3.6003124e-06
1.5999945e-06
2.9630695e-05
5.3310248e-05
8.8938686e-05
0.00013437946
0.00018473877
0.0002362724
0.00028762997
0.00034243144
0.00039169937
0.00043907628
0.0004754671
0.00052139872
0.00058448015
0.00066876146
0.00076432669
0.00086069614
0.00094462668
0.001003662
0.0010253042
0.00099953816
0.00091917597
0.00078398663
0.00060415708
0.0004034272
0.00021913225
9.8256251e-05
8.9294833e-05
0.00023212924
0.00054916705
0.0010406357
0.001685345
0.0024461092
0.0032774974
0.0041333508
0.0049723226
0.0057607796
0.0064733236
0.0070915506
0.0076016519
2.7521842e-05
1.5586308e-05
8.8896998e-06
4.781722e-06
2.1706809e-06
4.8083405e-05
8.1253873e-05
0.00012743632
0.00018313667
0.00024354587
0.0003053961
0.00036770186
0.00043123434
0.00047893755
0.00052743044
0.00056929709
0.00063060797
0.00071570547
0.00082137659
0.00093416565
0.0010415498
0.0011289661
0.0011836892
0.0011925682
0.001145024
0.001034369
0.00086297445
0.00064615257
0.00041472225
0.00021355987
9.5523661e-05
0.00011132267
0.00029859178
0.00067364789
0.0012285777
0.0019342138
0.0027473068
0.0036190779
0.0045026495
0.005357925
0.006153684
0.006867413
0.0074836088
0.0079911742
4.4953026e-05
2.7574953e-05
1.714989e-05
1.0810307e-05
6.1631276e-06
2.7680212e-06
7.4355495e-05
0.0001187603
0.00017696227
0.00024499462
0.00031785968
0.00039261921
0.0004648113
0.00052851196
0.00057400838
0.00062857448
0.0006832766
0.0007675573
0.0008777979
0.0010049789
0.0011333481
0.0012491844
0.0013373679
0.0013845547
0.0013762905
0.0013012182
0.001153784
0.00094020265
0.00068238536
0.00041944345
0.00020423103
9.4867023e-05
0.00014278744
0.00038154602
0.00081979144
0.0014406227
0.0022068809
0.0030698464
0.00397826
0.0048853483
0.005752888
0.0065524412
0.0072645378
0.0078765933
0.0083801681
7.0115129e-05
4.4885097e-05
2.9778881e-05
1.9775815e-05
1.302499e-05
7.4683642e-06
3.2752024e-06
0.00011071276
0.00016837205
0.00024079819
0.00032377694
0.00041215419
0.00049967007
0.00057245365
0.00063430701
0.00068169961
0.0007505604
0.00082605541
0.0009379394
0.001073709
0.0012213517
0.001363039
0.0014851205
0.0015716574
0.0016076694
0.0015767781
0.0014671377
0.0012754415
0.0010133347
0.00071096013
0.00041680045
0.00019176921
9.8149859e-05
0.00018625745
0.0004835707
0.00098960232
0.001677889
0.0025035495
0.0034131958
0.0043540307
0.0052802061
0.0061559267
0.0069558351
0.0076636002
0.0082695304
0.0087677626
0.00010564961
6.9904322e-05
4.7889675e-05
3.3474502e-05
2.2755244e-05
1.5078266e-05
8.4720969e-06
3.6098143e-06
0.00016003754
0.00023331326
0.00032290663
0.00042456505
0.00052941313
0.00062002931
0.00068990737
0.00075320157
0.00081018163
0.00090174217
0.0010040282
0.0011448683
0.0013056661
0.0014718423
0.0016251262
0.0017519427
0.0018342903
0.0018543723
0.0017937813
0.0016410714
0.0013967121
0.0010796708
0.00072997748
0.00040632166
0.00017727934
0.00010769429
0.00024457793
0.00060728592
0.0011849317
0.0019412351
0.0028241551
0.0037766019
0.0047452385
0.0056859143
0.0065657468
0.0073626767
0.0080635501
0.0086615049
0.0091531492
0.00015482338
0.00010534783
7.3747325e-05
5.3017518e-05
3.7661766e-05
2.5423165e-05
1.6597484e-05
9.0807089e-06
3.7325944e-06
0.00022547467
0.00031764966
0.00042890976
0.00055149855
0.00066324744
0.00075292833
0.00082163774
0.0008928225
0.00096738979
0.0010889901
0.0012201347
0.0013911209
0.0015752391
0.0017585211
0.0019229594
0.0020532742
0.0021278551
0.0021254591
0.0020262114
0.0018204332
0.0015143189
0.0011362403
0.00073768499
0.00038798881
0.00016242181
0.00012628069
0.00032081841
0.00075528066
0.0014074162
0.0022312322
0.0031683594
0.0041591131
0.0051506137
0.0061011213
0.0069810596
0.0077718127
0.0084633915
0.0090516648
0.0095355844
0.00022065969
0.00015487828
0.00010987125
8.0318764e-05
5.88881e-05
4.1353385e-05
2.7261044e-05
1.7419254e-05
9.2736748e-06
3.6249673e-06
0.00031109121
0.00042736999
0.00056374836
0.00069887579
0.00081308725
0.00090246624
0.00097458224
0.0010599939
0.0011606226
0.0013155287
0.0014785513
0.0016783548
0.0018846368
0.0020855148
0.0022614373
0.0023931978
0.002454484
0.0024208115
0.0022719129
0.0020017062
0.0016243949
0.0011799503
0.00073264253
0.00036238237
0.00014947848
0.00015712682
0.00041820049
0.00093003497
0.0016584248
0.0025481388
0.0035355611
0.0045595968
0.0055687945
0.0065244471
0.0074005928
0.0081821364
0.0088621923
0.009439225
0.0099143895
0.00030708377
0.00022120817
0.00016017425
0.0001174784
8.7792531e-05
6.4045906e-05
4.380564e-05
2.8063421e-05
1.7502522e-05
9.0743152e-06
3.3964418e-06
0.00042307663
0.00056794342
0.00072289224
0.00086641203
0.00098307856
0.0010754654
0.0011551756
0.001262223
0.00139368
0.0015869008
0.0017813337
0.0020085958
0.0022385995
0.0024589432
0.0026462513
0.0027754182
0.0028153643
0.0027391156
0.0025275468
0.0021804424
0.0017226109
0.0012077671
0.00071391787
0.00033078365
0.00014137905
0.00020383582
0.00054001111
0.0011338392
0.0019390083
0.0028918949
0.0039249087
0.0049767674
0.0059983442
0.0069544999
0.0078231068
0.0085926037
0.0092590903
0.0098234645
0.010288948
0.00042012633
0.0003081124
0.00022700482
0.0001685724
0.00012586887
9.4231433e-05
6.7415144e-05
4.4729718e-05
2.7794191e-05
1.6966516e-05
8.7322661e-06
3.0305293e-06
0.0005670402
0.00073629697
0.00090662411
0.0010586114
0.0011798003
0.0012777774
0.0013705861
0.001505455
0.0016724386
0.0019053151
0.0021302381
0.0023871956
0.0026444344
0.0028862938
0.0030828651
0.0032027325
0.0032104264
0.0030776711
0.0027885235
0.0023513486
0.0018043448
0.0012169454
0.00068126595
0.00029526994
0.00014169064
0.00027032021
0.0006895019
0.0013687142
0.002249867
0.0032621212
0.0043353229
0.0054091996
0.0064377712
0.0073898967
0.0082474207
0.0090022438
0.0096532838
0.010203717
0.010676651
0.00056532092
0.00042098903
0.00031389961
0.00023558498
0.00017718651
0.00013268955
9.8156185e-05
6.8574088e-05
4.4071059e-05
2.6739713e-05
1.610144e-05
7.9574688e-06
2.6516685e-06
0.00074141973
0.0009333885
0.0011200492
0.0012820583
0.0014085175
0.001515882
0.0016268743
0.0017958505
0.0019995141
0.0022713701
0.0025311794
0.0028225265
0.0031114905
0.0033750127
0.0035758846
0.003676657
0.003638062
0.00343226
0.0030490243
0.0025084142
0.0018649047
0.0012052608
0.00063530977
0.00025879456
0.00015458635
0.00036069652
0.00086978132
0.0016363466
0.0025913301
0.0036581298
0.0047655066
0.005855354
0.006885558
0.0078293039
0.0086724271
0.0094101384
0.010044011
0.010595562
0.011086001
0.00074229077
0.00056489112
0.00042544932
0.00032171899
0.00024346807
0.00018335541
0.00013610299
9.9038976e-05
6.7441959e-05
4.2348974e-05
2.5158543e-05
1.4675235e-05
7.377097e-06
2.2712228e-06
0.00094788069
0.0011651216
0.0013697716
0.0015413214
0.0016751264
0.0017961218
0.0019313743
0.0021378228
0.0023753837
0.0026916332
0.0029929751
0.0033257948
0.0036492601
0.0039316771
0.0041287238
0.0041971391
0.0040949975
0.0037970907
0.0033020492
0.002645099
0.0018997977
0.0011712805
0.00057771383
0.00022523174
0.0001847621
0.00047915957
0.0010837134
0.0019380366
0.0029633413
0.0040789212
0.0052139662
0.0063136151
0.0073402172
0.0082714571
0.0090970585
0.0098153882
0.010445975
0.011007867
0.011505921
0.00095331283
0.00074065586
0.0005659664
0.00043078432
0.00032761555
0.00024773263
0.00018493135
0.00013556859
9.6835338e-05
6.4866892e-05
3.9777603e-05
2.2909175e-05
1.3513064e-05
6.453577e-06
1.9061221e-06
0.00119312
0.0014381379
0.00165996
0.0018418264
0.0019863988
0.0021269752
0.0022916943
0.0025283373
0.0028063123
0.0031749731
0.0035289592
0.0039087687
0.0042663235
0.0045618675
0.0047432705
0.004762362
0.0045761115
0.0041647633
0.0035395471
0.0027545851
0.0019050529
0.001114628
0.00051131259
0.00019934645
0.00023731577
0.00062985155
0.0013338293
0.0022746508
0.0033654346
0.0045231998
0.0056790634
0.0067823656
0.0078003176
0.0087151088
0.0095202329
0.010232658
0.010868276
0.011432445
0.011936264
0.0012058665
0.00095074633
0.00073688735
0.00056622558
0.00043276115
0.00032853062
0.0002460757
0.00018152471
0.00013119336
9.2801218e-05
6.0895725e-05
3.632683e-05
2.0899566e-05
1.1909984e-05
5.525532e-06
1.6704639e-06
0.001484112
0.0017559123
0.0019947792
0.0021902571
0.002352316
0.0025182031
0.0027048373
0.0029679493
0.0032991073
0.0037373039
0.00415311
0.0045819439
0.0049706029
0.0052697191
0.0054196992
0.0053685619
0.0050743376
0.004526297
0.0037525993
0.0028301043
0.001877566
0.0010362289
0.00044017864
0.00018670811
0.0003176048
0.00081673612
0.0016222332
0.0026465564
0.0037967322
0.0049894362
0.0061591112
0.0072600186
0.0082644082
0.00915895
0.0099574148
0.010671161
0.011304639
0.011869084
0.012376844
0.0015077209
0.0012031796
0.0009408175
0.00072948186
0.00056149543
0.00042829829
0.00032217251
0.00023843232
0.0001735566
0.00012475973
8.6705367e-05
5.5845232e-05
3.3042513e-05
1.8493158e-05
1.0326934e-05
4.6092313e-06
1.4505704e-06
0.0018233119
0.0021209567
0.0023816089
0.0025987034
0.0027853684
0.0029677429
0.0031638363
0.0034655958
0.0038711163
0.0043956613
0.0048776667
0.0053558713
0.0057686654
0.0060578122
0.0061562124
0.006009772
0.005580545
0.0048712114
0.0039316942
0.00286533
0.0018154686
0.00093852081
0.00036964526
0.00019358689
0.00043109647
0.0010434518
0.00195048
0.0030535902
0.0042560153
0.0054759854
0.0066524083
0.0077449078
0.0087309085
0.0096201462
0.010417788
0.01112566
0.011754808
0.012317516
0.012827439
0.0018598622
0.0015072494
0.0011859952
0.00092306177
0.00071466786
0.00054886118
0.00041535714
0.00030903197
0.00022566992
0.00016350494
0.00011559979
7.9494256e-05
5.0826477e-05
2.9403329e-05
1.6000643e-05
8.6903338e-06
3.6700824e-06
1.2527008e-06
0.0022106543
0.0025407068
0.0028341175
0.0030823214
0.0032845878
0.0034650213
0.0036772535
0.0040367367
0.004543036
0.0051634535
0.0057157282
0.0062397069
0.0066658311
0.0069269529
0.0069488016
0.0066776263
0.0060834805
0.0051876662
0.0040670955
0.0028548272
0.0017184939
0.00082562366
0.00030627734
0.0002268003
0.00058316976
0.0013131152
0.0023194947
0.0034951351
0.0047418656
0.0059811199
0.0071570856
0.0082351462
0.009219688
0.010107697
0.0108963
0.011595875
0.012218454
0.012777408
0.013287791
0.002260077
0.0018626499
0.001482938
0.0011548521
0.00089452816
0.00069023828
0.00052657054
0.00039508988
0.00029041196
0.00021106672
0.00015001818
0.00010552202
7.2252737e-05
4.5550564e-05
2.5472615e-05
1.3592361e-05
7.0804961e-06
3.1393642e-06
1.0317691e-06
0.0026534108
0.0030304651
0.0033697702
0.0036426433
0.0038368878
0.004014778
0.0042608391
0.0047039931
0.0053275718
0.0060570619
0.0066789532
0.0072418856
0.0076660589
0.0078758118
0.0077908553
0.0073611191
0.0065697603
0.0054627407
0.004149328
0.0027945732
0.0015883136
0.00070341846
0.00025776745
0.00029348811
0.00077883546
0.001628169
0.0027296431
0.0039702751
0.0052526856
0.0065028148
0.007670927
0.0087544093
0.0097393925
0.010615804
0.011392662
0.01208144
0.012695165
0.013248372
0.013757606
0.0027150588
0.0022653025
0.0018310583
0.0014366883
0.0011082157
0.00085401171
0.00065496945
0.00049685249
0.00036946447
0.00027058263
0.0001923431
0.00013616444
9.5534713e-05
6.4818398e-05
3.9584153e-05
2.1845493e-05
1.1370631e-05
6.0594194e-06
2.4357257e-06
8.3432734e-07
0.0031678723
0.0036082862
0.003992797
0.0042636315
0.0044425846
0.0046297563
0.0049370225
0.0054788259
0.0062451546
0.0070902847
0.007779211
0.008369885
0.0087714276
0.0089004514
0.0086727827
0.0080464318
0.0070239681
0.0056828418
0.0041697459
0.0026824701
0.0014288273
0.00057959492
0.000232732
0.00040075314
0.0010224938
0.0019904369
0.0031809033
0.0044777908
0.0057864047
0.007038529
0.0082226509
0.0093108092
0.010282429
0.01114419
0.011906495
0.012581884
0.013184448
0.013729953
0.014236555
0.0032413063
0.0027221269
0.0022249618
0.0017673904
0.0013680837
0.0010467129
0.00080159136
0.00061266782
0.00046225588
0.00034362677
0.00024606307
0.00017428008
0.00012258867
8.5429013e-05
5.6396763e-05
3.4109366e-05
1.8582065e-05
9.8639167e-06
4.9729052e-06
2.1275328e-06
6.5325654e-07
0.0037713672
0.0042806082
0.0046872111
0.0049433775
0.0051145262
0.0053279471
0.0057151556
0.0063893648
0.00730947
0.0082781719
0.0090277744
0.0096296883
0.0099815397
0.0099938716
0.0095817124
0.0087167692
0.0074288679
0.0058342629
0.0041212246
0.0025188689
0.0012464126
0.00046354443
0.00024030965
0.00055532222
0.0013179637
0.0024012969
0.003672796
0.005015754
0.0063402042
0.0076234018
0.0088197018
0.009893792
0.010848553
0.011692485
0.012437295
0.013096639
0.013685727
0.014221646
0.014724274
0.0038544441
0.0032484344
0.0026723416
0.0021415374
0.0016728464
0.0012802911
0.00097216463
0.00074304721
0.0005664268
0.00042901404
0.00031246223
0.00022356646
0.00015616901
0.00010915887
7.418512e-05
4.8754718e-05
2.9298418e-05
1.6281017e-05
8.4561773e-06
4.3224743e-06
1.6652877e-06
5.0007857e-07
0.0044708754
0.0050344587
0.0054486227
0.0056956967
0.0058687044
0.0061415309
0.0066233128
0.0074468436
0.0085387804
0.0096366001
0.010434953
0.011025227
0.011293123
0.011145549
0.010501
0.0093523185
0.0077658017
0.0059039448
0.0039989385
0.002307104
0.0010500115
0.00036597088
0.00028972478
0.00076354196
0.0016686415
0.0028615167
0.0042038357
0.0055811879
0.006957102
0.0082641784
0.0094472322
0.010503177
0.011437435
0.012260177
0.012984443
0.013625033
0.014198352
0.014722885
0.015220363
0.0045610404
0.0038587463
0.0031875478
0.0025672879
0.0020176386
0.0015538312
0.001178109
0.00089326028
0.00068210427
0.00052389691
0.00039001307
0.0002851484
0.00020014742
0.00013885516
9.4727056e-05
6.4524475e-05
4.2209866e-05
2.5771643e-05
1.4198447e-05
7.4498566e-06
3.6196077e-06
1.4152896e-06
3.7275796e-07
0.0052575102
0.0058639205
0.0062931227
0.0065390614
0.0067375172
0.0070785637
0.0076744342
0.0086702511
0.0099525103
0.011180972
0.012009589
0.012557863
0.012699419
0.012340722
0.011409838
0.0099303225
0.0080153717
0.0058803722
0.003801173
0.0020538909
0.00085086975
0.00029841768
0.00039027012
0.0010315153
0.0020771895
0.003370492
0.0047711067
0.0062264461
0.0076432917
0.008940212
0.010105156
0.011138708
0.012048581
0.012846622
0.013547196
0.014166299
0.014721589
0.015233078
0.015724467
0.0053560173
0.004558803
0.003783252
0.0030579332
0.0024106679
0.0018635137
0.001418988
0.0010739512
0.00081465288
0.00062856134
0.00047576755
0.0003572163
0.00025562156
0.00017854844
0.00012103625
8.300605e-05
5.6370138e-05
3.7342223e-05
2.2619704e-05
1.2592366e-05
6.4846502e-06
3.1205623e-06
1.1224711e-06
2.7304368e-07
0.006126006
0.0067890379
0.0072416609
0.0074949474
0.0077282478
0.0081536926
0.0088879834
0.010083038
0.011570427
0.012925612
0.013758573
0.014225901
0.014189408
0.013559612
0.012282932
0.010425483
0.0081583841
0.0057547163
0.0035301329
0.001769344
0.0006621323
0.00027326049
0.00055142484
0.0013645834
0.0025444992
0.0039257279
0.0054376055
0.0069576532
0.0083707297
0.0096515352
0.010793327
0.01179995
0.012681356
0.013451036
0.014124697
0.014719568
0.01525469
0.015751673
0.016236134
0.006236768
0.0053464675
0.0044646481
0.0036244555
0.0028638762
0.0022173431
0.0016932301
0.001285867
0.00097345929
0.00074830799
0.00057021772
0.00043697616
0.00032072026
0.00022926097
0.00015678795
0.00010716418
7.3204715e-05
5.0247749e-05
3.297285e-05
2.0057321e-05
1.1065974e-05
5.668429e-06
2.6224346e-06
9.1966682e-07
1.9603605e-07
0.0070986982
0.0078333577
0.0083150102
0.0085781722
0.0088655741
0.0093816043
0.010292908
0.011708527
0.013411591
0.014883017
0.015686208
0.016023777
0.015746716
0.014776543
0.013090361
0.010810684
0.0081771266
0.0055220986
0.0031924175
0.0014667516
0.00049889516
0.00030385291
0.00078207161
0.0017659176
0.0030690275
0.004601713
0.0062103824
0.0077377797
0.009139576
0.010398143
0.011511403
0.012486307
0.013334962
0.014072499
0.014715967
0.015283959
0.015796927
0.016278002
0.016754891
0.0072250821
0.006223456
0.0052324961
0.0042716493
0.0033865241
0.0026258562
0.0020083419
0.0015296011
0.0011610025
0.00089221152
0.00067864016
0.00052502988
0.00039332583
0.00028905803
0.00020309782
0.00014020234
9.5566355e-05
6.5756327e-05
4.4756378e-05
2.929938e-05
1.7643638e-05
9.7094326e-06
4.8802446e-06
2.1872546e-06
7.1867861e-07
1.3814985e-07
0.0082020825
0.0090193425
0.009526358
0.0098049945
0.010150072
0.010793254
0.011913956
0.013569059
0.01549453
0.017064095
0.017794024
0.017940897
0.017348183
0.015959263
0.013797899
0.011058224
0.0080570074
0.0051825911
0.0027991496
0.0011628392
0.00037850027
0.00040344702
0.0010886007
0.0022356671
0.0037367113
0.005408207
0.0070420635
0.0085670984
0.0099499923
0.011179825
0.012258867
0.013197003
0.014008446
0.014709948
0.015320019
0.015858584
0.016347455
0.016811333
0.01728025
0.0083489352
0.0072090581
0.006090814
0.0050008647
0.0039822578
0.0030964691
0.0023735945
0.0018122553
0.0013802434
0.0010639751
0.00080990413
0.00062660474
0.00047417772
0.00035620734
0.00025858715
0.00018306489
0.00012624788
8.6462041e-05
5.9090563e-05
4.0005092e-05
2.5856806e-05
1.5450534e-05
8.3768919e-06
4.1184936e-06
1.7695292e-06
5.5163521e-07