/*--------------------------------*- C++ -*----------------------------------*\
| =========                 |                                                 |
| \\      /  F ield         | OpenFOAM: The Open Source CFD Toolbox           |
|  \\    /   O peration     | Version:  5.0                                   |
|   \\  /    A nd           | Web:      www.OpenFOAM.org                      |
|    \\/     M anipulation  |                                                 |
\*---------------------------------------------------------------------------*/
FoamFile
{
    version     2.0;
    format      ascii;
    class       volVectorField;
    location    "200";
    object      U;
}
// * * * * * * * * * * * * * * * * * * * * * * * * * * * * * * * * * * * * * //

dimensions      [0 1 -1 0 0 0 0];

internalField   nonuniform List<vector> 
9520
(
(1.0142521 0.00016648124 0)
(1.0143515 0.00048812211 0)
(1.0137569 0.00016428438 0)
(1.0145268 0.00078709177 0)
(1.0138579 0.00048251119 0)
(1.013568 0.00016379244 0)
(1.0147618 0.0010629425 0)
(1.0140377 0.00077969788 0)
(1.0136684 0.00048039222 0)
(1.0132568 0.00016770692 0)
(1.0150421 0.0013151843 0)
(1.0142809 0.001055254 0)
(1.0138484 0.00077624086 0)
(1.013358 0.00049085414 0)
(1.0130127 0.00017429205 0)
(1.0153547 0.0015434208 0)
(1.0145736 0.0013098031 0)
(1.0140923 0.0010511221 0)
(1.0135389 0.00079286134 0)
(1.0131147 0.0005102314 0)
(1.0127317 0.00017972317 0)
(1.0156885 0.0017475766 0)
(1.0149031 0.0015422244 0)
(1.0143872 0.0013071357 0)
(1.0137835 0.0010743857 0)
(1.0132962 0.00082481799 0)
(1.0128332 0.00052785331 0)
(1.0124733 0.00018000338 0)
(1.0160341 0.001927235 0)
(1.0152588 0.0017523793 0)
(1.0147209 0.0015431811 0)
(1.0140793 0.0013380824 0)
(1.0135412 0.0011194918 0)
(1.0130129 0.00085606992 0)
(1.0125732 0.00053101464 0)
(1.0122175 0.00017549195 0)
(1.0163847 0.0020817256 0)
(1.0156324 0.0019405267 0)
(1.0150825 0.0017588364 0)
(1.014416 0.0015840444 0)
(1.0138374 0.0013958339 0)
(1.0132558 0.0011664881 0)
(1.0127498 0.00086480313 0)
(1.0123128 0.00051927671 0)
(1.0119838 0.00016901991 0)
(1.0167366 0.0022100996 0)
(1.0160182 0.0021072033 0)
(1.0154624 0.0019540382 0)
(1.014783 0.0018123121 0)
(1.0141754 0.0016552829 0)
(1.0135494 0.0014593902 0)
(1.0129893 0.0011839444 0)
(1.0124823 0.00084858638 0)
(1.0120745 0.00050017668 0)
(1.0117658 0.00016387837 0)
(1.0170914 0.0023080829 0)
(1.0164136 0.0022550832 0)
(1.015851 0.002129606 0)
(1.01517 0.002022499 0)
(1.0145453 0.0018987061 0)
(1.0138836 0.0017372602 0)
(1.013279 0.00148868 0)
(1.0127136 0.0011663234 0)
(1.0122368 0.00081863805 0)
(1.0118519 0.00048381189 0)
(1.0115614 0.00016170975 0)
(1.0174517 0.0023849506 0)
(1.0168203 0.0023917217 0)
(1.0162389 0.0022907321 0)
(1.0155657 0.0022144112 0)
(1.0149374 0.002125943 0)
(1.0142495 0.0020019493 0)
(1.0136079 0.00178094 0)
(1.012994 0.001475042 0)
(1.012458 0.0011271918 0)
(1.0120067 0.0007918688 0)
(1.0116438 0.00047591437 0)
(1.0113654 0.00016169587 0)
(1.0178006 0.002438792 0)
(1.0172339 0.0025251852 0)
(1.0166119 0.0024445914 0)
(1.0159565 0.0023886487 0)
(1.0153427 0.002335789 0)
(1.01464 0.002253984 0)
(1.0139675 0.0020629258 0)
(1.0133114 0.0017753303 0)
(1.0127273 0.0014311528 0)
(1.0122164 0.0010912967 0)
(1.0117911 0.00077815675 0)
(1.0114448 0.00047509184 0)
(1.0111759 0.00016137966 0)
(1.0181166 0.0024985025 0)
(1.0175764 0.0026685702 0)
(1.0169175 0.0026069389 0)
(1.0163229 0.0025417072 0)
(1.0157505 0.002523915 0)
(1.0150509 0.002492334 0)
(1.0143514 0.0023362953 0)
(1.0136569 0.0020687128 0)
(1.0130331 0.0017307764 0)
(1.0124705 0.0013878555 0)
(1.0119899 0.0010731804 0)
(1.0115848 0.00077616747 0)
(1.0112526 0.00047460657 0)
(1.0109944 0.00015819058 0)
(1.0184302 0.0025239396 0)
(1.0178668 0.0028538436 0)
(1.0171712 0.0027758111 0)
(1.0166656 0.0026685634 0)
(1.0161574 0.0026795006 0)
(1.0154848 0.0027115681 0)
(1.0147569 0.0026027301 0)
(1.0140229 0.0023570889 0)
(1.0133653 0.0020261019 0)
(1.0127598 0.0016828263 0)
(1.0122299 0.0013659966 0)
(1.0117722 0.0010706184 0)
(1.0113855 0.00077578219 0)
(1.0110678 0.00046660913 0)
(1.0108245 0.00015066311 0)
(1.0187458 0.0026218986 0)
(1.0181215 0.003020873 0)
(1.0174481 0.0029148124 0)
(1.0170188 0.0027420185 0)
(1.0165911 0.0027884847 0)
(1.0159542 0.0029038899 0)
(1.0151839 0.0028657356 0)
(1.0144026 0.0026438897 0)
(1.0137148 0.0023174894 0)
(1.0130756 0.0019763204 0)
(1.0125032 0.0016587752 0)
(1.0119975 0.001363391 0)
(1.011562 0.0010700162 0)
(1.011194 0.00076420314 0)
(1.010894 0.00044602314 0)
(1.0106709 0.00013896045 0)
(1.0190857 0.002597129 0)
(1.0183449 0.0032509457 0)
(1.0176436 0.0030145848 0)
(1.0173881 0.0027580545 0)
(1.0170536 0.002813735 0)
(1.0164647 0.003069532 0)
(1.015633 0.0031348929 0)
(1.0147892 0.0029364463 0)
(1.0140706 0.0026058692 0)
(1.013409 0.0022673287 0)
(1.0128023 0.0019528793 0)
(1.012253 0.0016574371 0)
(1.0117725 0.0013627633 0)
(1.01136 0.0010550663 0)
(1.0110131 0.00073215398 0)
(1.0107361 0.00041256359 0)
(1.0105363 0.00012472014 0)
(1.0193936 0.0028850916 0)
(1.0185006 0.0034454112 0)
(1.0177659 0.0030908139 0)
(1.0177255 0.0027014635 0)
(1.017506 0.0028066824 0)
(1.0170088 0.0032022881 0)
(1.0161128 0.0034167102 0)
(1.0151759 0.0032438336 0)
(1.0144217 0.0028935995 0)
(1.0137513 0.002553642 0)
(1.0131199 0.0022477912 0)
(1.0125319 0.0019558263 0)
(1.0120093 0.0016582236 0)
(1.0115555 0.0013437478 0)
(1.0111693 0.0010137019 0)
(1.0108475 0.00067802379 0)
(1.0105976 0.00037062375 0)
(1.0104213 0.00011031186 0)
(1.0197817 0.0026826238 0)
(1.0186624 0.0038700811 0)
(1.0177088 0.0032250668 0)
(1.0179392 0.0026061941 0)
(1.0180433 0.0027450121 0)
(1.0175491 0.0033278979 0)
(1.0166038 0.0037389904 0)
(1.015544 0.0035841171 0)
(1.014754 0.0031825187 0)
(1.014093 0.0028309804 0)
(1.0134501 0.0025409316 0)
(1.0128289 0.0022599217 0)
(1.0122653 0.0019609715 0)
(1.011772 0.001636666 0)
(1.0113505 0.0012925759 0)
(1.010994 0.00094164824 0)
(1.0107019 0.00060880596 0)
(1.0104795 0.00032713612 0)
(1.0103239 9.7835318e-05 0)
(1.0199681 0.0034049865 0)
(1.0185513 0.004151252 0)
(1.0174533 0.003211919 0)
(1.0180488 0.0023440538 0)
(1.0186172 0.0025992308 0)
(1.0181712 0.003441995 0)
(1.017076 0.0041102293 0)
(1.0158725 0.0039812665 0)
(1.0150432 0.0034823455 0)
(1.0144191 0.0030922076 0)
(1.0137873 0.0028262696 0)
(1.0131416 0.0025690664 0)
(1.0125357 0.0022746337 0)
(1.0120017 0.0019392209 0)
(1.0115469 0.0015766361 0)
(1.0111621 0.0012045817 0)
(1.0108379 0.0008448347 0)
(1.0105785 0.00053629086 0)
(1.01038 0.00028841418 0)
(1.0102407 8.837591e-05 0)
(1.0202505 0.0028678022 0)
(1.0186597 0.0049177552 0)
(1.0169395 0.0035086959 0)
(1.0180501 0.0019672593 0)
(1.0193286 0.0022651058 0)
(1.0189426 0.0035809162 0)
(1.0175595 0.0045462601 0)
(1.0161166 0.0044517951 0)
(1.0152538 0.003791548 0)
(1.014711 0.0033314232 0)
(1.0141259 0.0030942879 0)
(1.0134702 0.0028796361 0)
(1.0128192 0.0026016582 0)
(1.0122391 0.0022569212 0)
(1.0117498 0.0018712993 0)
(1.0113393 0.0014722891 0)
(1.0109935 0.0010834215 0)
(1.0107059 0.00073983286 0)
(1.0104763 0.0004708695 0)
(1.0102959 0.00025795867 0)
(1.010168 8.1869733e-05 0)
(1.019948 0.0041828139 0)
(1.0180604 0.0053551025 0)
(1.0161943 0.0032563797 0)
(1.0179277 0.0014185414 0)
(1.0200992 0.0018210869 0)
(1.0199164 0.0036814747 0)
(1.0181027 0.0051053222 0)
(1.016275 0.0050063198 0)
(1.0153568 0.0041240909 0)
(1.0149299 0.0035176502 0)
(1.0144593 0.0033270245 0)
(1.0138189 0.003184278 0)
(1.0131188 0.0029442746 0)
(1.0124817 0.0025951816 0)
(1.0119523 0.0021825736 0)
(1.0115168 0.0017496685 0)
(1.0111546 0.0013266547 0)
(1.0108494 0.00094624598 0)
(1.0105979 0.00064400682 0)
(1.0103913 0.00041780847 0)
(1.0102238 0.00023615274 0)
(1.0101028 7.7518547e-05 0)
(1.0196156 0.0032385169 0)
(1.0180897 0.006492156 0)
(1.0149649 0.0039903792 0)
(1.0175583 0.00047548711 0)
(1.0211007 0.00099480806 0)
(1.021128 0.003873197 0)
(1.0187067 0.0058405593 0)
(1.0163016 0.0056990426 0)
(1.0153309 0.0044414167 0)
(1.0151255 0.003661992 0)
(1.0147854 0.0034906376 0)
(1.0141986 0.0034652234 0)
(1.0134456 0.0033029373 0)
(1.0127303 0.0029619862 0)
(1.0121481 0.0025168508 0)
(1.0116864 0.0020417989 0)
(1.0113114 0.0015775085 0)
(1.0109963 0.0011559914 0)
(1.0107325 0.00081740957 0)
(1.0105104 0.00056671757 0)
(1.0103197 0.00037761929 0)
(1.0101609 0.00022129157 0)
(1.0100431 7.4330989e-05 0)
(1.0183662 0.0052171661 0)
(1.0159439 0.0071494777 0)
(1.013633 0.0032802065 0)
(1.0169896 -0.0003765539 0)
(1.0220548 7.8691007e-05 0)
(1.0226423 0.003891056 0)
(1.0194211 0.0068461975 0)
(1.0161429 0.0065788574 0)
(1.015054 0.0047790196 0)
(1.0152192 0.0036593183 0)
(1.0151615 0.0035647627 0)
(1.0146432 0.0037021732 0)
(1.01382 0.0036752015 0)
(1.0129922 0.0033672274 0)
(1.0123324 0.0028841836 0)
(1.0118389 0.0023537916 0)
(1.0114549 0.0018391025 0)
(1.0111364 0.0013714971 0)
(1.0108689 0.00099214895 0)
(1.0106393 0.00071076675 0)
(1.0104388 0.00050813128 0)
(1.0102586 0.00034845585 0)
(1.0101047 0.00021085425 0)
(1.0099878 7.1424054e-05 0)
(1.0188097 0.004391788 0)
(1.0134195 0.0084772564 0)
(1.0107313 0.0048129762 0)
(1.015994 -0.0021777989 0)
(1.023645 -0.0014880438 0)
(1.0245176 0.0042590009 0)
(1.020198 0.0081630468 0)
(1.0157456 0.0077511313 0)
(1.0144735 0.0050953868 0)
(1.0151652 0.0035129991 0)
(1.0156292 0.0034682944 0)
(1.0151607 0.0038437405 0)
(1.0142816 0.0040650671 0)
(1.0132806 0.0038279004 0)
(1.0125016 0.0032982482 0)
(1.0119646 0.002692814 0)
(1.0115751 0.002113819 0)
(1.0112606 0.0015942055 0)
(1.0109964 0.001170465 0)
(1.0107683 0.00085392353 0)
(1.0105656 0.0006280317 0)
(1.0103795 0.00046346984 0)
(1.0102059 0.0003277906 0)
(1.0100535 0.00020229094 0)
(1.0099368 6.8125202e-05 0)
(1.0176185 0.0067725755 0)
(1.0129128 0.009672002 0)
(1.0076782 0.0032927763 0)
(1.0146597 -0.0034033773 0)
(1.0245541 -0.0030365987 0)
(1.0268147 0.0039904529 0)
(1.0211713 0.0099717543 0)
(1.0150228 0.0092518247 0)
(1.0134717 0.0054685863 0)
(1.0148917 0.0030951338 0)
(1.0161437 0.0031669552 0)
(1.0158246 0.0039406051 0)
(1.0148262 0.004458314 0)
(1.0136195 0.0043690897 0)
(1.0126524 0.0037833009 0)
(1.0120498 0.0030678981 0)
(1.0116605 0.0024029888 0)
(1.0113602 0.0018242339 0)
(1.0111067 0.0013537643 0)
(1.0108864 0.00099875324 0)
(1.0106898 0.00074361134 0)
(1.0105075 0.00056401241 0)
(1.0103303 0.00042796057 0)
(1.0101602 0.00031216645 0)
(1.0100065 0.00019328266 0)
(1.00989 6.404149e-05 0)
(1.0111572 0.0058558458 0)
(1.0119696 0.011515133 0)
(1.004986 0.0052869157 0)
(1.0127363 -0.0063343242 0)
(1.0263858 -0.0056381271 0)
(1.0292875 0.0048549198 0)
(1.0220608 0.012191892 0)
(1.0138817 0.01120155 0)
(1.0119559 0.005814633 0)
(1.0143214 0.0024222777 0)
(1.0166997 0.0025073422 0)
(1.0167493 0.0039620279 0)
(1.0154798 0.0049044966 0)
(1.0139885 0.0050320666 0)
(1.0127767 0.0043729978 0)
(1.0120769 0.0034946703 0)
(1.0116951 0.0027064425 0)
(1.0114262 0.0020580545 0)
(1.0111938 0.0015416628 0)
(1.0109861 0.0011475753 0)
(1.0108009 0.00085861641 0)
(1.01063 0.00065521771 0)
(1.0104623 0.00051161913 0)
(1.0102905 0.00039825647 0)
(1.0101205 0.00029662381 0)
(1.0099637 0.00018190195 0)
(1.009848 5.9078317e-05 0)
(0.99763358 0.009113153 0)
(0.99861648 0.012590525 0)
(1.0020729 0.0033755124 0)
(1.0109194 -0.0084410043 0)
(1.0274728 -0.0076928329 0)
(1.0314889 0.0039805694 0)
(1.0233398 0.015282719 0)
(1.0121062 0.013718781 0)
(1.0097024 0.0062633256 0)
(1.0133774 0.0012813459 0)
(1.0173293 0.0014593223 0)
(1.0179942 0.0037794063 0)
(1.0164043 0.0054379829 0)
(1.0143802 0.0058451539 0)
(1.0128482 0.0051201765 0)
(1.0120119 0.003991373 0)
(1.0116574 0.0030235942 0)
(1.0114474 0.0022882163 0)
(1.0112532 0.0017292504 0)
(1.0110634 0.0013011465 0)
(1.0108913 0.0009770903 0)
(1.0107364 0.00074241339 0)
(1.0105866 0.00058023376 0)
(1.0104288 0.00046431269 0)
(1.0102595 0.00037015382 0)
(1.0100862 0.00027631926 0)
(1.0099261 0.00016719055 0)
(1.0098112 5.3450775e-05 0)
(0.98426667 0.0093377121 0)
(0.98188217 0.014599237 0)
(0.99038916 0.0059936111 0)
(1.0090127 -0.012315537 0)
(1.0304107 -0.0115424 0)
(1.0341052 0.005715349 0)
(1.0236348 0.018870214 0)
(1.0096163 0.016830874 0)
(1.0065989 0.0067301492 0)
(1.0119198 -0.00025496339 0)
(1.0180312 -0.00025952316 0)
(1.0196694 0.0033951689 0)
(1.0176975 0.0060677625 0)
(1.0148993 0.0068894117 0)
(1.0128144 0.0060543525 0)
(1.0118219 0.004590529 0)
(1.0115118 0.003350564 0)
(1.0114083 0.002499624 0)
(1.0112821 0.0019054536 0)
(1.0111191 0.0014564865 0)
(1.0109583 0.0011022295 0)
(1.0108184 0.00083182968 0)
(1.0106914 0.00064027145 0)
(1.0105585 0.00051031148 0)
(1.0104066 0.00041699815 0)
(1.0102364 0.00033867237 0)
(1.0100572 0.00024944528 0)
(1.0098943 0.00014989732 0)
(1.0097797 4.7705506e-05 0)
(0.96965452 0.011848353 0)
(0.96750936 0.016117377 0)
(0.97732877 0.0024139032 0)
(1.0038835 -0.014712985 0)
(1.0317927 -0.014171924 0)
(1.0388579 0.0047233985 0)
(1.0228736 0.02361733 0)
(1.0056269 0.020882635 0)
(1.0022492 0.0072493947 0)
(1.0098976 -0.0025556099 0)
(1.0188308 -0.0025794573 0)
(1.0218727 0.0025730129 0)
(1.019499 0.0068675497 0)
(1.0155931 0.0082708834 0)
(1.0126636 0.0072629107 0)
(1.0114398 0.0053156139 0)
(1.0112125 0.0036799418 0)
(1.0112865 0.0026685873 0)
(1.0112785 0.0020492325 0)
(1.011159 0.0016048068 0)
(1.0110057 0.0012354311 0)
(1.0108732 0.00092979795 0)
(1.0107667 0.00069985194 0)
(1.0106651 0.00054290961 0)
(1.0105448 0.00044026964 0)
(1.0103954 0.00036716593 0)
(1.0102206 0.00030075766 0)
(1.0100342 0.00021830565 0)
(1.0098681 0.00013222508 0)
(1.009753 4.2579664e-05 0)
(0.95326585 0.01288643 8.2933999e-24)
(0.95174876 0.017167592 0)
(0.96466572 0.0027347168 0)
(0.9980875 -0.020733968 0)
(1.0319372 -0.019613578 0)
(1.0417983 0.0072872971 0)
(1.0245537 0.028251862 0)
(1.000266 0.02530984 0)
(0.99655704 0.0079016452 0)
(1.0070434 -0.0054749664 0)
(1.0198118 -0.005993385 0)
(1.0247809 0.0014304705 0)
(1.0219356 0.0077677215 0)
(1.016544 0.01013521 0)
(1.0123625 0.0088605854 0)
(1.0107548 0.0062036309 0)
(1.0106994 0.0040030646 0)
(1.0110502 0.0027579124 0)
(1.0112419 0.0021281211 0)
(1.0111957 0.001728719 0)
(1.0110452 0.0013748022 0)
(1.0109045 0.0010431465 0)
(1.0108078 0.00076825442 0)
(1.0107364 0.00057117873 0)
(1.0106567 0.00044522207 0)
(1.0105447 0.00036702618 0)
(1.0103942 0.0003115777 0)
(1.0102115 0.00025490525 0)
(1.010018 0.00018753747 0)
(1.009847 0.0001165452 0)
(1.0097301 3.8764697e-05 0)
(0.93457524 0.015076521 -5.8352767e-24)
(0.93419937 0.018781038 -8.6634982e-24)
(0.95162902 -0.0012439038 0)
(0.98999116 -0.024976118 0)
(1.0294298 -0.022438675 0)
(1.041775 0.0038539269 0)
(1.0326903 0.035638886 0)
(0.99582885 0.030505766 0)
(0.98921424 0.0082269383 0)
(1.0034711 -0.0094959521 0)
(1.0208952 -0.010262593 0)
(1.0284996 -0.00048765252 0)
(1.0252222 0.0089683284 0)
(1.0178009 0.012605674 0)
(1.0118651 0.01102246 0)
(1.009663 0.0073026905 0)
(1.009865 0.0043053028 0)
(1.0106576 0.0027148457 0)
(1.0111693 0.0020940761 0)
(1.0112485 0.0018011613 0)
(1.0110964 0.001514137 0)
(1.0109238 0.0011790523 0)
(1.0108151 0.00085797427 0)
(1.0107643 0.00060654475 0)
(1.0107278 0.00043992709 0)
(1.0106658 0.00034139876 0)
(1.0105586 0.00028541131 0)
(1.0104029 0.00024705114 0)
(1.0102099 0.00020606338 0)
(1.0100079 0.00016017675 0)
(1.00983 0.00010466459 0)
(1.0097098 3.6752768e-05 0)
(0.91447268 0.016814443 5.8583063e-24)
(0.91478404 0.020172504 3.1244729e-23)
(0.93492644 -0.0028841981 0)
(0.98055129 -0.030393215 0)
(1.021222 -0.027353178 0)
(1.0362845 0.0076597568 0)
(1.0293516 0.041799342 0)
(0.99360923 0.037803686 0)
(0.980997 0.0090057711 0)
(0.99873959 -0.014611153 0)
(1.022336 -0.016137999 0)
(1.0332251 -0.0028474218 0)
(1.029483 0.010240947 0)
(1.0194907 0.015912455 0)
(1.0110974 0.013901726 0)
(1.0080186 0.008733536 0)
(1.0085733 0.0045292228 0)
(1.0100497 0.0024800506 0)
(1.0110578 0.0018824448 0)
(1.0113283 0.0017784553 0)
(1.0111858 0.0016423516 0)
(1.0109517 0.001347738 0)
(1.0107959 0.00098580487 0)
(1.010744 0.00066507175 0)
(1.0107459 0.00043620019 0)
(1.0107418 0.00029745908 0)
(1.010694 0.00022544672 0)
(1.0105867 0.00019471417 0)
(1.0104211 0.00017917246 0)
(1.0102154 0.00016280623 0)
(1.0100025 0.00013886895 0)
(1.0098156 9.7865713e-05 0)
(1.0096909 3.6790711e-05 0)
(0.89420346 0.018715413 0)
(0.89478262 0.021792286 -3.1297705e-23)
(0.91670059 -0.0062024488 0)
(0.96649777 -0.035663813 0)
(1.0113825 -0.028638657 0)
(1.0237317 0.0085464953 0)
(1.0057781 0.050182234 0)
(0.98221437 0.04677727 0)
(0.97022023 0.0091575357 0)
(0.99315529 -0.020844519 0)
(1.0237301 -0.02299081 0)
(1.0389786 -0.0064155346 0)
(1.0349907 0.012027725 0)
(1.0216066 0.020204028 0)
(1.0099767 0.017744205 0)
(1.0056521 0.010538995 0)
(1.006664 0.0046863923 0)
(1.0091395 0.0019302206 0)
(1.0109039 0.0013902762 0)
(1.0115142 0.0016266639 0)
(1.0113436 0.0017427188 0)
(1.011021 0.0015576043 0)
(1.0107663 0.0011737595 0)
(1.0106754 0.00076826957 0)
(1.0107004 0.00045088472 0)
(1.0107568 0.00024611612 0)
(1.0107816 0.0001385586 0)
(1.0107413 0.00010055327 0)
(1.0106268 0.00010258492 0)
(1.0104476 0.00011689173 0)
(1.0102268 0.00012770907 0)
(1.0100005 0.00012581611 0)
(1.0098027 9.6833988e-05 0)
(1.0096725 3.8890087e-05 0)
(0.87410796 0.020456201 -3.9771567e-24)
(0.8753032 0.023259005 0)
(0.89761046 -0.0090884163 -3.2628931e-23)
(0.94952181 -0.040876248 0)
(0.9980881 -0.032937794 0)
(1.0103615 0.014797849 0)
(0.98540965 0.05804519 0)
(0.95973578 0.054367271 0)
(0.95686122 0.011794064 0)
(0.98552657 -0.028714581 0)
(1.0253712 -0.031835514 0)
(1.0456352 -0.010269969 0)
(1.0416073 0.013836653 0)
(1.024298 0.025792768 0)
(1.0083382 0.022775432 0)
(1.0023109 0.012911293 0)
(1.0039481 0.004663794 0)
(1.0078231 0.00098495101 0)
(1.0107013 0.00048047999 0)
(1.0118402 0.0012231328 0)
(1.011688 0.0017930361 0)
(1.0111874 0.0018091088 0)
(1.0107553 0.0014448795 0)
(1.0105649 0.00094544027 0)
(1.0105834 0.00050729226 0)
(1.0106944 0.00020331445 0)
(1.0108024 3.2640975e-05 0)
(1.0108481 -3.0602038e-05 0)
(1.0108058 -2.4133764e-05 0)
(1.0106781 1.6353049e-05 0)
(1.0104808 6.5839635e-05 0)
(1.0102429 0.00010415194 0)
(1.010001 0.00012166995 0)
(1.0097912 0.00010141249 0)
(1.0096531 4.3027302e-05 0)
(0.8552082 0.021957684 -5.8952704e-25)
(0.85700619 0.024704867 5.9147423e-23)
(0.87862255 -0.012347919 3.2613612e-23)
(0.93057722 -0.046405821 5.2404755e-24)
(0.98146552 -0.036660174 -1.3501827e-22)
(0.99500817 0.017825447 0)
(0.96805041 0.067359754 0)
(0.94029903 0.061385137 0)
(0.94185256 0.01184587 0)
(0.97597078 -0.037394533 0)
(1.0264311 -0.041469336 0)
(1.053134 -0.015904822 0)
(1.0491376 0.016560125 0)
(1.0271641 0.032864006 0)
(1.006037 0.02924602 0)
(0.99774902 0.015891567 0)
(1.0001765 0.0045185275 0)
(1.0059693 -0.00058287783 0)
(1.0104421 -0.00096747799 0)
(1.0123707 0.00046020045 0)
(1.0123217 0.0017520668 0)
(1.0115002 0.0020956666 0)
(1.0108153 0.0018380674 0)
(1.0104259 0.0012331535 0)
(1.0103879 0.00063605068 0)
(1.0105391 0.00019040692 0)
(1.0107357 -7.8802659e-05 0)
(1.0108846 -0.00019352499 0)
(1.010939 -0.00019911426 0)
(1.0108869 -0.00014156456 0)
(1.0107388 -5.5811018e-05 0)
(1.0105194 2.9667637e-05 0)
(1.0102619 9.4458769e-05 0)
(1.0100025 0.00012462229 0)
(1.0097788 0.00011182742 0)
(1.0096321 4.8984984e-05 0)
(0.83857797 0.023142335 4.6371028e-24)
(0.840806 0.025903585 -8.6691397e-23)
(0.86065187 -0.015408366 0)
(0.91042679 -0.051794867 1.3211142e-22)
(0.96175424 -0.039944381 1.3436645e-22)
(0.978073 0.020081883 1.4701696e-22)
(0.94995962 0.075990347 7.5829149e-23)
(0.92246896 0.065583493 0)
(0.92662374 0.012096151 0)
(0.96812147 -0.048916259 0)
(1.028244 -0.054435682 0)
(1.0626697 -0.020926492 0)
(1.0575527 0.019315517 0)
(1.0297066 0.041921498 0)
(1.0024912 0.037520758 0)
(0.99158211 0.019685891 0)
(0.99510333 0.0040384121 0)
(1.0034432 -0.0028219525 0)
(1.0100977 -0.0032122793 0)
(1.0131913 -0.00077753925 0)
(1.0133391 0.0015364395 0)
(1.0121192 0.0025003273 0)
(1.0109591 0.0023675431 0)
(1.0102937 0.0016944572 0)
(1.0101086 0.00088048343 0)
(1.0102719 0.00023454041 0)
(1.0105591 -0.00017984883 0)
(1.0108285 -0.00038047473 0)
(1.0110017 -0.00041986262 0)
(1.011052 -0.00035801801 0)
(1.010981 -0.00024211685 0)
(1.0108072 -0.00010939508 0)
(1.010562 1.0833575e-05 0)
(1.0102799 9.8537516e-05 0)
(1.0100027 0.0001413597 0)
(1.0097646 0.00012801161 0)
(1.0096086 5.6459941e-05 0)
(0.82522557 0.024042491 1.5548734e-24)
(0.82752678 0.026869553 1.9279431e-23)
(0.84436973 -0.018402956 4.2451323e-24)
(0.89008483 -0.056873234 -7.2215095e-23)
(0.94062379 -0.043952402 -1.4255834e-22)
(0.95765994 0.024186674 1.5515559e-22)
(0.93286143 0.083603316 2.1550905e-23)
(0.9040069 0.074025397 1.8031346e-23)
(0.91162953 0.0067506966 0)
(0.95968698 -0.060411427 0)
(1.0303313 -0.06806571 0)
(1.0758558 -0.031002877 0)
(1.0701429 0.023583572 0)
(1.0321484 0.053023991 0)
(0.9969653 0.047567837 0)
(0.98343315 0.024418101 0)
(0.98835305 0.0032891573 0)
(1.0000893 -0.0061155495 0)
(1.0096586 -0.0063525582 0)
(1.0143971 -0.0027235912 0)
(1.0148934 0.0010999218 0)
(1.0131802 0.0029945923 0)
(1.0113039 0.0031451611 0)
(1.0101578 0.0023750899 0)
(1.0097495 0.0013015038 0)
(1.0098728 0.00037640705 0)
(1.0102463 -0.00024966133 0)
(1.0106532 -0.00058103373 0)
(1.0109712 -0.00068316196 0)
(1.0111507 -0.00063434069 0)
(1.0111839 -0.0004968766 0)
(1.011085 -0.00031960109 0)
(1.0108809 -0.00014146187 0)
(1.0106057 1.038902e-05 0)
(1.0102996 0.00011733486 0)
(1.0100014 0.00016695485 0)
(1.009748 0.00014898969 0)
(1.0095823 6.5046063e-05 0)
(0.8154249 0.024529513 -3.5844469e-24)
(0.81768244 0.027466291 -7.1845232e-25)
(0.83103752 -0.020954126 0)
(0.87004835 -0.061508221 6.5622084e-24)
(0.9181191 -0.047367119 -7.2548727e-23)
(0.93685341 0.026941998 0)
(0.91337163 0.092203718 -3.3230206e-22)
(0.88737342 0.081103748 -2.9938808e-22)
(0.89379046 0.0075544273 0)
(0.95326466 -0.07411841 0)
(1.029925 -0.083778083 0)
(1.0836078 -0.037299414 0)
(1.0885164 0.026150431 0)
(1.039742 0.065980639 0)
(0.99032635 0.059861026 0)
(0.97254575 0.029891317 0)
(0.97974184 0.002021935 0)
(0.99570238 -0.010452774 0)
(1.0090956 -0.010831891 0)
(1.0160883 -0.005461628 0)
(1.017165 0.0002689698 0)
(1.0148573 0.0036215681 0)
(1.0119815 0.0042520346 0)
(1.0100525 0.0033730879 0)
(1.0092961 0.0019759992 0)
(1.0093115 0.00065589863 0)
(1.0097661 -0.00026236616 0)
(1.0103295 -0.00078395875 0)
(1.0108211 -0.00098524377 0)
(1.01116 -0.00097024035 0)
(1.0113264 -0.00082319929 0)
(1.0113302 -0.00060700588 0)
(1.0111964 -0.00037056354 0)
(1.0109567 -0.00015043106 0)
(1.0106491 2.7992094e-05 0)
(1.0103168 0.00014934992 0)
(1.0099973 0.00020045418 0)
(1.0097282 0.00017374452 0)
(1.0095528 7.4360647e-05 0)
(0.81061124 0.024640557 0)
(0.81211441 0.027776047 0)
(0.82106229 -0.023242062 7.427494e-25)
(0.85218877 -0.065397656 0)
(0.89499906 -0.050627073 7.4561712e-25)
(0.91432705 0.030262881 1.6610115e-22)
(0.89458115 0.10011173 5.2239055e-22)
(0.87002271 0.089236978 -1.9530944e-22)
(0.87688568 0.0089463156 0)
(0.93906861 -0.087361117 0)
(1.0287096 -0.095662518 0)
(1.0843607 -0.051607721 0)
(1.0971492 0.030400165 0)
(1.0534852 0.080851398 0)
(0.98730974 0.07399146 0)
(0.95905754 0.036484162 0)
(0.96867668 7.335111e-05 0)
(0.99025104 -0.0163754 0)
(1.0083696 -0.016594611 0)
(1.0183815 -0.0094306274 0)
(1.0203693 -0.00096210459 0)
(1.0173479 0.0043211653 0)
(1.0131388 0.0058171063 0)
(1.0100572 0.0048362889 0)
(1.0086914 0.0029700507 0)
(1.008567 0.0011607182 0)
(1.0090732 -0.00018874336 0)
(1.0098202 -0.0009810783 0)
(1.0105223 -0.0013259003 0)
(1.0110556 -0.0013681928 0)
(1.0113869 -0.0012241163 0)
(1.0115225 -0.00097595667 0)
(1.0114869 -0.00068393553 0)
(1.0113115 -0.0003928862 0)
(1.0110325 -0.00013655215 0)
(1.0106917 6.3927291e-05 0)
(1.0103315 0.00019312163 0)
(1.0099899 0.0002403559 0)
(1.0097051 0.00020110372 0)
(1.0095201 8.4024391e-05 0)
(0.8107903 0.027796937 -6.1250536e-25)
(0.81094195 0.024481643 0)
(0.81426268 -0.0249221 -9.0922785e-24)
(0.83743872 -0.068462824 -9.6964589e-24)
(0.87280572 -0.053510084 -2.7197658e-24)
(0.89171093 0.033142175 1.2548804e-23)
(0.87517838 0.10775075 3.2826175e-24)
(0.85378418 0.096956109 -2.4380429e-22)
(0.85980528 0.010202915 2.286256e-22)
(0.92157377 -0.097339786 0)
(1.0186604 -0.11260927 -1.2052397e-21)
(1.080997 -0.053716929 0)
(1.0962194 0.030172083 0)
(1.0659763 0.10008585 0)
(0.98618992 0.09197067 0)
(0.94468874 0.044077307 0)
(0.95513858 -0.0025271284 0)
(0.98336473 -0.023835382 0)
(1.0075488 -0.02434431 0)
(1.0213642 -0.014526276 0)
(1.0247321 -0.0029537236 0)
(1.0209403 0.0052208861 0)
(1.0149305 0.0079333731 0)
(1.0102441 0.006950462 0)
(1.0079298 0.0044347702 0)
(1.0075465 0.0019377899 0)
(1.0081149 1.2822047e-05 0)
(1.009078 -0.0011521254 0)
(1.0100386 -0.0017058095 0)
(1.0108118 -0.0018347484 0)
(1.0113443 -0.0017060099 0)
(1.0116423 -0.0014315993 0)
(1.0117329 -0.0010870974 0)
(1.0116493 -0.00072535404 0)
(1.0114275 -0.00038669919 0)
(1.011107 -0.00010035087 0)
(1.0107311 0.0001155123 0)
(1.0103425 0.00024636027 0)
(1.0099788 0.00028443638 0)
(1.0096787 0.00022986301 0)
(1.0094845 9.3761582e-05 0)
(0.81105826 -0.025787493 7.9588865e-24)
(0.81517959 0.027708876 0)
(0.81751027 0.023909012 -9.4660996e-24)
(0.82385677 -0.07062498 9.6898506e-24)
(0.85307136 -0.055595366 5.602548e-24)
(0.86993825 0.035613557 3.1523221e-22)
(0.8569886 0.11450828 -5.2772444e-22)
(0.83891142 0.1043611 -3.7981409e-23)
(0.84386852 0.011549317 1.1426859e-22)
(0.9032103 -0.10854469 6.0666589e-23)
(1.0014275 -0.12827635 -1.3384085e-21)
(1.0710191 -0.066072029 1.2605325e-21)
(1.0853245 0.038584243 0)
(1.0505121 0.11820635 0)
(0.97662874 0.11443849 0)
(0.92955637 0.054864356 0)
(0.9383121 -0.0066904375 0)
(0.97541981 -0.033362854 0)
(1.0064332 -0.033704387 0)
(1.0251812 -0.02154389 0)
(1.0305063 -0.0055204141 0)
(1.0258869 0.0061019834 0)
(1.0176037 0.010822667 0)
(1.0106642 0.0099085419 0)
(1.0069972 0.0065652965 0)
(1.0061393 0.0030722222 0)
(1.0068121 0.00040983215 0)
(1.0080333 -0.0013085272 0)
(1.0093275 -0.0021379435 0)
(1.0104003 -0.0023828455 0)
(1.0111786 -0.0022800741 0)
(1.0116721 -0.0019823464 0)
(1.011917 -0.0015863834 0)
(1.0119516 -0.0011544208 0)
(1.0118136 -0.0007315392 0)
(1.0115418 -0.00035306494 0)
(1.0111785 -4.3492086e-05 0)
(1.0107666 0.00017994393 0)
(1.0103493 0.00030657412 0)
(1.0099637 0.00033155758 0)
(1.0096488 0.00025939789 0)
(1.009446 0.00010335371 0)
(0.81464161 -0.071722864 5.8958835e-24)
(0.81470067 -0.025984768 2.2260254e-23)
(0.82593469 0.027249324 0)
(0.82762582 0.022936068 -1.7142029e-24)
(0.83426411 -0.057296041 1.9191881e-24)
(0.85043869 0.03772873 -1.4096395e-22)
(0.84073578 0.12019959 0)
(0.82637528 0.11086613 3.7719295e-23)
(0.83002811 0.012945731 3.2984236e-24)
(0.88444762 -0.11993271 -5.986935e-23)
(0.9817753 -0.14353561 1.453831e-21)
(1.0565129 -0.081930445 1.3971576e-21)
(1.0708295 0.043761978 0)
(1.0218489 0.13783305 0)
(0.95742006 0.13675842 0)
(0.91276069 0.067261671 0)
(0.91965281 -0.010078596 0)
(0.96532288 -0.045154322 0)
(1.0053891 -0.045701418 0)
(1.0297746 -0.029906562 0)
(1.0379041 -0.0094606807 0)
(1.032598 0.0073368907 0)
(1.0213498 0.014553892 0)
(1.0114324 0.013995033 0)
(1.0058344 0.0095599641 0)
(1.004255 0.0047188706 0)
(1.0050151 0.0010007402 0)
(1.0066013 -0.0014093364 0)
(1.0083262 -0.0026326495 0)
(1.0097876 -0.0030395962 0)
(1.010871 -0.0029666261 0)
(1.0115983 -0.0026413525 0)
(1.0120252 -0.0021904931 0)
(1.0122029 -0.0016867176 0)
(1.0121735 -0.00117854 0)
(1.0119767 -0.00070412278 0)
(1.0116528 -0.00029408402 0)
(1.0112452 3.0494776e-05 0)
(1.0107973 0.00025454302 0)
(1.0103514 0.00037140606 0)
(1.0099445 0.00038017555 0)
(1.0096158 0.00028867371 0)
(1.0094052 0.00011262765 0)
(0.82048624 -0.058313544 -1.0743116e-23)
(0.81203571 -0.071793452 -6.2032402e-24)
(0.8238089 -0.025388014 -1.9828224e-23)
(0.8404628 0.02649545 -1.2588378e-23)
(0.84056886 0.021603918 4.5316448e-23)
(0.83347985 0.039168747 1.329999e-22)
(0.82780406 0.12469123 7.5849567e-23)
(0.81705829 0.11633723 0)
(0.81911675 0.014107117 -1.3145951e-23)
(0.86598278 -0.13083447 -2.3003364e-22)
(0.95993979 -0.15952807 0)
(1.0379517 -0.094336316 -1.8160436e-21)
(1.0589002 0.03570796 0)
(1.0030199 0.15744791 0)
(0.93755038 0.15366422 0)
(0.8971697 0.081770175 0)
(0.90074783 -0.016249922 0)
(0.95387235 -0.05918472 0)
(1.0039278 -0.059331249 0)
(1.0353757 -0.04102344 0)
(1.0471401 -0.014046115 0)
(1.0412787 0.0082735984 0)
(1.0265456 0.019542879 0)
(1.0125713 0.019483107 0)
(1.0043717 0.013714939 0)
(1.0017607 0.007020221 0)
(1.002563 0.0018511243 0)
(1.0046679 -0.0014727793 0)
(1.0069573 -0.0032401168 0)
(1.0089305 -0.0038350772 0)
(1.0104004 -0.0037937628 0)
(1.0114105 -0.0034285323 0)
(1.0120488 -0.0029114847 0)
(1.0123916 -0.0023298707 0)
(1.0124928 -0.0017340096 0)
(1.0123946 -0.0011617111 0)
(1.012136 -0.00064584531 0)
(1.0117588 -0.00021307018 0)
(1.0113063 0.00011791775 0)
(1.0108224 0.00033626696 0)
(1.0103487 0.00043897626 0)
(1.0099217 0.00042845582 0)
(1.0095799 0.00031717973 0)
(1.0093622 0.0001215108 0)
(0.82078851 0.039731281 6.7505349e-24)
(0.81167276 -0.05848998 9.0152675e-24)
(0.81499853 -0.071194503 2.8751259e-23)
(0.83777344 -0.024116028 1.3003126e-23)
(0.85701327 0.025478912 -6.7432737e-23)
(0.85687209 0.020005967 -2.5691489e-23)
(0.81944602 0.1278034 -1.4647608e-22)
(0.81176484 0.1207232 -6.4569857e-23)
(0.81149551 0.01515396 -8.5932631e-23)
(0.84983579 -0.14078463 2.0009478e-22)
(0.93618341 -0.17484156 -1.7157689e-21)
(1.0157445 -0.10868917 9.3996125e-22)
(1.0383332 0.035821565 0)
(0.99201653 0.16799809 -8.8228978e-22)
(0.91710423 0.17575253 -5.3647534e-22)
(0.88333338 0.087752483 0)
(0.88415112 -0.017798374 0)
(0.94090708 -0.076253863 0)
(1.0024569 -0.076482941 0)
(1.0417908 -0.053252627 0)
(1.0583377 -0.02096804 0)
(1.0524673 0.0099173901 0)
(1.0333066 0.025727413 0)
(1.014225 0.026795428 0)
(1.002469 0.019278923 0)
(0.99845198 0.010192339 0)
(0.9992771 0.0030122492 0)
(1.0020645 -0.0015319289 0)
(1.005126 -0.0039833064 0)
(1.0077786 -0.0048404543 0)
(1.00975 -0.0048159597 0)
(1.0111056 -0.0043766974 0)
(1.0119867 -0.0037669847 0)
(1.0125129 -0.0030931035 0)
(1.0127615 -0.0024037149 0)
(1.0127815 -0.0017317094 0)
(1.0126113 -0.0011074566 0)
(1.0122895 -0.00056048272 0)
(1.0118581 -0.00011435121 0)
(1.0113609 0.00021525271 0)