/*--------------------------------*- C++ -*----------------------------------*\
| =========                 |                                                 |
| \\      /  F ield         | OpenFOAM: The Open Source CFD Toolbox           |
|  \\    /   O peration     | Version:  5.0                                   |
|   \\  /    A nd           | Web:      www.OpenFOAM.org                      |
|    \\/     M anipulation  |                                                 |
\*---------------------------------------------------------------------------*/
FoamFile
{
    version     2.0;
    format      ascii;
    class       volVectorField;
    location    "200";
    object      U_0;
}
// * * * * * * * * * * * * * * * * * * * * * * * * * * * * * * * * * * * * * //

dimensions      [0 1 -1 0 0 0 0];

internalField   nonuniform List<vector> 
9520
(
(1.01426 0.00016652047 0)
(1.0143593 0.00048821799 0)
(1.0137647 0.00016431899 0)
(1.0145345 0.00078722013 0)
(1.0138657 0.00048262535 0)
(1.0135757 0.00016369392 0)
(1.0147693 0.0010630851 0)
(1.0140454 0.00077987935 0)
(1.0136761 0.00048014385 0)
(1.0132649 0.00016743234 0)
(1.0150493 0.0013153092 0)
(1.0142884 0.001055489 0)
(1.013856 0.00077587408 0)
(1.013366 0.00049007692 0)
(1.0130212 0.00017396823 0)
(1.0153616 0.0015435117 0)
(1.0145809 0.0013100285 0)
(1.0140998 0.0010506546 0)
(1.0135468 0.00079163614 0)
(1.0131231 0.00050925901 0)
(1.0127408 0.00017948852 0)
(1.015695 0.0017476186 0)
(1.01491 0.0015423875 0)
(1.0143945 0.001306556 0)
(1.0137912 0.0010727484 0)
(1.0133045 0.00082322345 0)
(1.0128423 0.00052709776 0)
(1.0124827 0.00017992502 0)
(1.0160401 0.0019271959 0)
(1.0152654 0.0017524346 0)
(1.014728 0.0015424551 0)
(1.0140868 0.0013360925 0)
(1.0135494 0.0011172902 0)
(1.0130219 0.00085476923 0)
(1.0125826 0.000530722 0)
(1.0122269 0.00017550516 0)
(1.01639 0.0020815332 0)
(1.0156387 0.0019404233 0)
(1.0150893 0.0017579207 0)
(1.0144233 0.0015817142 0)
(1.0138454 0.0013931004 0)
(1.0132646 0.0011646136 0)
(1.0127591 0.00086425083 0)
(1.0123222 0.00051930367 0)
(1.0119932 0.00016898514 0)
(1.016741 0.002209595 0)
(1.0160241 0.0021068601 0)
(1.0154689 0.0019528895 0)
(1.0147901 0.0018096263 0)
(1.0141832 0.0016520561 0)
(1.013558 0.0014569582 0)
(1.0129985 0.0011830881 0)
(1.0124917 0.00084860384 0)
(1.0120838 0.00050011883 0)
(1.0117752 0.00016368374 0)
(1.0170946 0.0023068448 0)
(1.0164194 0.0022542986 0)
(1.0158574 0.0021281871 0)
(1.0151769 0.0020194327 0)
(1.0145529 0.0018949982 0)
(1.0138921 0.0017342919 0)
(1.013288 0.0014874408 0)
(1.0127229 0.0011663292 0)
(1.0122462 0.00081857034 0)
(1.0118613 0.00048331228 0)
(1.0115712 0.00016133598 0)
(1.0174535 0.0023823543 0)
(1.0168264 0.0023900958 0)
(1.0162456 0.0022890409 0)
(1.0155723 0.0022109718 0)
(1.0149448 0.0021217534 0)
(1.0142578 0.0019984498 0)
(1.0136168 0.0017793008 0)
(1.0130033 0.0014749281 0)
(1.0124674 0.001127141 0)
(1.012016 0.00079111601 0)
(1.0116535 0.00047487039 0)
(1.0113757 0.00016122149 0)
(1.017802 0.0024339701 0)
(1.017242 0.0025221167 0)
(1.0166196 0.0024427754 0)
(1.0159629 0.0023850096 0)
(1.0153497 0.002331138 0)
(1.0146481 0.0022499368 0)
(1.0139763 0.0020608864 0)
(1.0133206 0.0017750567 0)
(1.0127366 0.0014311055 0)
(1.0122258 0.0010903013 0)
(1.0118008 0.00077651533 0)
(1.011455 0.00047369684 0)
(1.0111868 0.000160932 0)
(1.0181175 0.0024905311 0)
(1.0175878 0.0026631914 0)
(1.0169267 0.0026055129 0)
(1.0163288 0.0025384057 0)
(1.0157567 0.0025189042 0)
(1.0150588 0.0024876652 0)
(1.0143603 0.0023338464 0)
(1.013666 0.0020683053 0)
(1.0130423 0.0017307043 0)
(1.0124798 0.0013866685 0)
(1.0119996 0.0010709608 0)
(1.011595 0.00077390352 0)
(1.0112634 0.000473229 0)
(1.0110058 0.00015788325 0)
(1.0184314 0.0025121348 0)
(1.0178803 0.0028474216 0)
(1.0171794 0.0027765902 0)
(1.0166695 0.0026664276 0)
(1.0161618 0.0026742967 0)
(1.0154922 0.0027060701 0)
(1.0147659 0.0025997968 0)
(1.0140319 0.0023566157 0)
(1.0133744 0.0020260296 0)
(1.0127691 0.0016814714 0)
(1.0122395 0.0013632471 0)
(1.0117824 0.0010675422 0)
(1.0113964 0.00077347026 0)
(1.0110792 0.00046560772 0)
(1.0108362 0.00015054948 0)
(1.0187479 0.0026053463 0)
(1.0181384 0.003013564 0)
(1.0174549 0.0029189398 0)
(1.017019 0.0027424686 0)
(1.0165927 0.0027832521 0)
(1.0159606 0.002896999 0)
(1.0151934 0.002862005 0)
(1.0144119 0.0026434362 0)
(1.0137237 0.0023175146 0)
(1.0130846 0.0019748011 0)
(1.0125128 0.0016555273 0)
(1.0120076 0.001359538 0)
(1.0115728 0.0010668174 0)
(1.0112054 0.00076244897 0)
(1.0109058 0.00044559255 0)
(1.0106825 0.00013901498 0)
(1.0190893 0.0025753977 0)
(1.0183659 0.0032456418 0)
(1.0176489 0.0030230687 0)
(1.017386 0.0027612155 0)
(1.0170524 0.0028079941 0)
(1.0164702 0.003060296 0)
(1.0156436 0.0031297474 0)
(1.0147993 0.0029361532 0)
(1.0140793 0.002606218 0)
(1.0134177 0.0022656746 0)
(1.0128116 0.0019491135 0)
(1.0122631 0.0016528226 0)
(1.0117833 0.0013587329 0)
(1.0113714 0.0010525003 0)
(1.011025 0.00073133439 0)
(1.0107479 0.00041266018 0)
(1.0105479 0.0001248522 0)
(1.0193985 0.0028559019 0)
(1.0185307 0.0034384092 0)
(1.0177716 0.0031051952 0)
(1.0177168 0.0027077536 0)
(1.017502 0.0027993129 0)
(1.0170138 0.0031884537 0)
(1.0161259 0.0034090947 0)
(1.0151877 0.0032439958 0)
(1.0144302 0.0028947342 0)
(1.0137594 0.0025519592 0)
(1.013129 0.0022434504 0)
(1.0125419 0.001950415 0)
(1.0120201 0.0016533416 0)
(1.0115669 0.0013404322 0)
(1.0111812 0.0010123053 0)
(1.0108596 0.00067810112 0)
(1.0106094 0.00037099451 0)
(1.0104328 0.00011040943 0)
(1.0197914 0.0026431299 0)
(1.0187053 0.0038701813 0)
(1.0177147 0.0032466095 0)
(1.0179223 0.0026168069 0)
(1.0180361 0.0027344871 0)
(1.0175539 0.0033081034 0)
(1.0166212 0.0037274143 0)
(1.0155588 0.0035850615 0)
(1.0147625 0.0031852851 0)
(1.0141003 0.0028295233 0)
(1.0134585 0.0025359292 0)
(1.0128387 0.0022536124 0)
(1.0122761 0.0019551925 0)
(1.0117836 0.001632557 0)
(1.0113624 0.0012905553 0)
(1.0110062 0.00094157426 0)
(1.0107138 0.00060935323 0)
(1.0104911 0.00032745238 0)
(1.0103353 9.7816499e-05 0)
(1.0199825 0.0033568796 0)
(1.0186152 0.004143898 0)
(1.0174586 0.0032489533 0)
(1.018018 0.0023640772 0)
(1.0186012 0.0025828633 0)
(1.0181773 0.0034146071 0)
(1.0170994 0.0040931884 0)
(1.0158922 0.0039838987 0)
(1.0150519 0.0034879895 0)
(1.0144251 0.0030914036 0)
(1.0137947 0.002820502 0)
(1.0131511 0.0025616783 0)
(1.0125466 0.0022678456 0)
(1.0120134 0.0019342818 0)
(1.011559 0.0015739687 0)
(1.0111744 0.0012040749 0)
(1.0108502 0.00084559848 0)
(1.0105903 0.00053675449 0)
(1.0103916 0.00028842806 0)
(1.0102521 8.8219427e-05 0)
(1.0202706 0.0027983252 0)
(1.0187397 0.0049318046 0)
(1.0169422 0.0035608072 0)
(1.018002 0.0019945424 0)
(1.0192984 0.0022396895 0)
(1.0189512 0.0035425221 0)
(1.0175923 0.0045219043 0)
(1.0161432 0.0044571011 0)
(1.0152635 0.0038025204 0)
(1.0147149 0.0033322412 0)
(1.0141316 0.0030876448 0)
(1.0134791 0.002870846 0)
(1.0128303 0.0025936454 0)
(1.0122511 0.002251089 0)
(1.0117621 0.0018679893 0)
(1.0113517 0.0014713537 0)
(1.011006 0.001084188 0)
(1.010718 0.00074054019 0)
(1.010488 0.00047086829 0)
(1.0103075 0.00025758409 0)
(1.0101796 8.1610751e-05 0)
(1.0199729 0.0041077206 0)
(1.0181789 0.0053520228 0)
(1.0161984 0.0033403817 0)
(1.0178518 0.0014655093 0)
(1.020048 0.0017827822 0)
(1.0199297 0.0036256138 0)
(1.0181505 0.0050720957 0)
(1.0163104 0.0050165666 0)
(1.0153655 0.004142508 0)
(1.0149306 0.0035217814 0)
(1.014462 0.0033196225 0)
(1.0138265 0.0031735976 0)
(1.01313 0.0029345985 0)
(1.0124942 0.0025883345 0)
(1.011965 0.0021786691 0)
(1.0115295 0.0017483502 0)
(1.0111673 0.0013272963 0)
(1.0108618 0.00094710505 0)
(1.0106099 0.00064396951 0)
(1.0104031 0.00041723419 0)
(1.0102355 0.00023545471 0)
(1.0101146 7.7221782e-05 0)
(1.0196543 0.0031268861 0)
(1.0182212 0.006527918 0)
(1.0149645 0.004095269 0)
(1.0174527 0.0005337575 0)
(1.0210214 0.00094035427 0)
(1.0211472 0.0037920947 0)
(1.0187776 0.005794898 0)
(1.0163522 0.0057166443 0)
(1.0153401 0.0044733902 0)
(1.0151181 0.0036714096 0)
(1.0147814 0.003482356 0)
(1.0142036 0.0034519214 0)
(1.0134569 0.0032908041 0)
(1.0127438 0.0029538535 0)
(1.0121613 0.0025124423 0)
(1.0116993 0.0020402466 0)
(1.0113242 0.001578036 0)
(1.011009 0.0011569331 0)
(1.0107448 0.00081736909 0)
(1.0105225 0.00056574788 0)
(1.0103317 0.00037655724 0)
(1.0101729 0.00022042548 0)
(1.0100552 7.4066497e-05 0)
(1.0184385 0.0051023952 0)
(1.0161437 0.0071514709 0)
(1.0136419 0.0034461591 0)
(1.0168307 -0.00027238048 0)
(1.021936 -1.9728277e-06 0)
(1.0226706 0.003772258 0)
(1.0195248 0.0067855733 0)
(1.0162151 0.0066087312 0)
(1.0150626 0.0048290687 0)
(1.0151984 0.0036776441 0)
(1.0151503 0.003557735 0)
(1.0146436 0.0036846831 0)
(1.0138314 0.0036590432 0)
(1.0130072 0.0033572499 0)
(1.0123469 0.0028794186 0)
(1.0118521 0.0023522891 0)
(1.0114677 0.0018396672 0)
(1.0111491 0.0013724842 0)
(1.0108815 0.00099199257 0)
(1.0106518 0.00070949581 0)
(1.0104512 0.00050646059 0)
(1.0102709 0.00034706536 0)
(1.010117 0.00021000865 0)
(1.0100002 7.1255938e-05 0)
(1.0188805 0.0042318529 0)
(1.0136321 0.0085509728 0)
(1.0107166 0.0050066566 0)
(1.0157938 -0.0020776233 0)
(1.0234773 -0.0015921644 0)
(1.0245558 0.0040882059 0)
(1.0203487 0.008079582 0)
(1.0158493 0.0077983016 0)
(1.0144815 0.0051730132 0)
(1.0151263 0.0035451725 0)
(1.0156046 0.0034576436 0)
(1.0151556 0.0038201391 0)
(1.0142932 0.0040423472 0)
(1.0132987 0.0038149124 0)
(1.0125182 0.0032933257 0)
(1.0119784 0.0026918994 0)
(1.0115878 0.0021147537 0)
(1.0112731 0.0015952672 0)
(1.0110091 0.0011700886 0)
(1.0107811 0.0008522323 0)
(1.0105783 0.00062573913 0)
(1.0103922 0.00046146163 0)
(1.0102184 0.00032628962 0)
(1.010066 0.00020166151 0)
(1.0099492 6.8105e-05 0)
(1.0177096 0.0066080359 0)
(1.0132087 0.0097080315 0)
(1.0076435 0.0035777508 0)
(1.0143679 -0.0032186858 0)
(1.024326 -0.0031885316 0)
(1.0268721 0.0037502476 0)
(1.0213839 0.0098669751 0)
(1.0151682 0.0093258433 0)
(1.0134785 0.0055851126 0)
(1.0148269 0.0031478752 0)
(1.0160952 0.0031518811 0)
(1.0158148 0.0039069098 0)
(1.0148391 0.0044239981 0)
(1.0136432 0.0043511587 0)
(1.012673 0.0037784704 0)
(1.0120647 0.0030684616 0)
(1.0116729 0.002404952 0)
(1.0113723 0.0018255037 0)
(1.0111193 0.0013530691 0)
(1.0108995 0.00099647778 0)
(1.010703 0.00074062493 0)
(1.0105207 0.00056117018 0)
(1.0103434 0.00042591097 0)
(1.0101731 0.00031090375 0)
(1.0100191 0.00019306385 0)
(1.0099024 6.4203003e-05 0)
(1.0113601 0.0056438039 0)
(1.0122939 0.011623015 0)
(1.0049669 0.0056154842 0)
(1.0123771 -0.0061768932 0)
(1.0261128 -0.0058125488 0)
(1.0293536 0.0045203695 0)
(1.0223604 0.012044918 0)
(1.0140861 0.011310512 0)
(1.0119607 0.0059848056 0)
(1.0142207 0.0025039259 0)
(1.0166163 0.0024863585 0)
(1.0167309 0.0039112078 0)
(1.0154965 0.0048547485 0)
(1.0140212 0.0050058411 0)
(1.0128046 0.0043687288 0)
(1.0120941 0.0034984338 0)
(1.0117069 0.0027105662 0)
(1.0114372 0.0020598646 0)
(1.0112057 0.001540574 0)
(1.0109992 0.0011445014 0)
(1.0108145 0.00085476496 0)
(1.0106437 0.00065149825 0)
(1.010476 0.00050876776 0)
(1.0103039 0.00039649188 0)
(1.0101336 0.00029605337 0)
(1.0099765 0.00018225588 0)
(1.0098602 5.9433572e-05 0)
(0.99792727 0.0089012514 0)
(0.99902943 0.01266472 0)
(1.002047 0.003856258 0)
(1.0104422 -0.0081656537 0)
(1.0271172 -0.0079549453 0)
(1.0315773 0.0035262784 0)
(1.0237452 0.015112865 0)
(1.0123824 0.013875441 0)
(1.009704 0.0065030033 0)
(1.0132287 0.0014045246 0)
(1.0171961 0.0014305662 0)
(1.0179603 0.0037005912 0)
(1.0164278 0.0053667647 0)
(1.0144267 0.0058075657 0)
(1.012887 0.0051173224 0)
(1.012033 0.0040009224 0)
(1.0116683 0.0030316593 0)
(1.0114564 0.0022912568 0)
(1.0112639 0.0017277291 0)
(1.0110761 0.0012970046 0)
(1.0109052 0.00097210232 0)
(1.0107508 0.0007376627 0)
(1.010601 0.00057648501 0)
(1.0104429 0.00046198242 0)
(1.0102731 0.00036917073 0)
(1.0100994 0.0002767644 0)
(1.0099387 0.00016817308 0)
(1.0098231 5.3981716e-05 0)
(0.98458767 0.0091034349 0)
(0.98222037 0.014800494 0)
(0.99024049 0.0064930298 0)
(1.0084657 -0.012080069 0)
(1.0299426 -0.011834249 0)
(1.0342598 0.0051076753 0)
(1.024188 0.018626684 0)
(1.0099956 0.017048267 0)
(1.0065943 0.0070645403 0)
(1.0117062 -7.6333098e-05 0)
(1.0178293 -0.00029760193 0)
(1.0196107 0.0032753423 0)
(1.0177318 0.0059636307 0)
(1.0149684 0.0068362202 0)
(1.0128692 0.0060538623 0)
(1.0118495 0.004610024 0)
(1.0115214 0.0033656003 0)
(1.011414 0.0025051565 0)
(1.0112904 0.0019035612 0)
(1.0111308 0.0014508901 0)
(1.0109722 0.0010957133 0)
(1.0108333 0.00082577525 0)
(1.0107065 0.00063544632 0)
(1.0105734 0.00050720235 0)
(1.010421 0.00041563712 0)
(1.0102502 0.00033885216 0)
(1.0100703 0.00025096208 0)
(1.0099066 0.00015142167 0)
(1.0097913 4.8366086e-05 0)
(0.97001303 0.011647305 0)
(0.96780847 0.016326222 0)
(0.97701722 0.003100496 0)
(1.0031147 -0.014326051 0)
(1.0312911 -0.014571236 0)
(1.0390487 0.0039690889 0)
(1.0235765 0.02336153 0)
(1.0061103 0.021177662 0)
(1.0022348 0.0077038447 0)
(1.0095966 -0.0023007761 0)
(1.0185347 -0.002628996 0)
(1.0217777 0.002395341 0)
(1.0195489 0.0067156619 0)
(1.0156976 0.0081957263 0)
(1.012745 0.0072668013 0)
(1.0114762 0.0053501403 0)
(1.01122 0.0037067641 0)
(1.0112865 0.0026787073 0)
(1.0112823 0.0020471751 0)
(1.0111686 0.0015971721 0)
(1.0110193 0.0012267573 0)
(1.0108886 0.00092200659 0)
(1.0107826 0.00069369997 0)
(1.0106809 0.000538767 0)
(1.0105602 0.00043822303 0)
(1.01041 0.0003670644 0)
(1.0102345 0.0003023365 0)
(1.0100471 0.00022066495 0)
(1.00988 0.00013412735 0)
(1.0097641 4.3311885e-05 0)
(0.95365049 0.012679855 7.4371688e-24)
(0.95200983 0.01747431 0)
(0.96426806 0.0035443932 0)
(0.9970847 -0.020419816 0)
(1.0314134 -0.019979402 0)
(1.0418562 0.0062877333 0)
(1.0254211 0.027893024 0)
(1.0008623 0.02570858 0)
(0.99652176 0.0085183459 0)
(1.0066277 -0.0051276639 0)
(1.0193915 -0.0060558199 0)
(1.0246343 0.0011712229 0)
(1.0220068 0.007544401 0)
(1.0167005 0.010029573 0)
(1.0124842 0.0088725541 0)
(1.0108044 0.0062607936 0)
(1.0107039 0.0040487867 0)
(1.011041 0.0027756246 0)
(1.0112379 0.0021262369 0)
(1.0112013 0.0017180934 0)
(1.0110578 0.0013629942 0)
(1.0109204 0.00103294 0)
(1.0108247 0.00076035953 0)
(1.0107533 0.00056571537 0)
(1.0106731 0.00044227447 0)
(1.0105604 0.00036650734 0)
(1.010409 0.00031311907 0)
(1.0102253 0.00025791987 0)
(1.0100306 0.00019049469 0)
(1.0098585 0.00011866333 0)
(1.0097408 3.9513726e-05 0)
(0.93498591 0.014893679 -5.0512821e-24)
(0.93446024 0.019142403 -7.7686132e-24)
(0.95111511 -0.00035538133 0)
(0.98894257 -0.024653897 0)
(1.0289578 -0.023014584 0)
(1.0418584 0.0025970263 0)
(1.0336903 0.035272047 0)
(0.99659921 0.030996139 0)
(0.98915272 0.0090376121 0)
(1.0029022 -0.0090272196 0)
(1.0203145 -0.010341275 0)
(1.0282856 -0.00085071869 0)
(1.0253223 0.0086474735 0)
(1.0180314 0.01245605 0)
(1.012047 0.011046796 0)
(1.0097329 0.007394641 0)
(1.0098638 0.0043790712 0)
(1.0106342 0.0027448257 0)
(1.0111535 0.0020928096 0)
(1.0112479 0.0017859914 0)
(1.0111074 0.0014974708 0)
(1.0109402 0.0011651478 0)
(1.0108334 0.00084760744 0)
(1.0107826 0.00059942889 0)
(1.0107455 0.00043588921 0)
(1.0106827 0.000340321 0)
(1.0105744 0.00028684378 0)
(1.0104176 0.00025031107 0)
(1.0102234 0.00021001248 0)
(1.0100201 0.00016351323 0)
(1.009841 0.0001068543 0)
(1.0097201 3.7474632e-05 0)
(0.91488962 0.016645882 5.0712085e-24)
(0.91504699 0.020625428 2.9010134e-23)
(0.93435176 -0.0018513543 0)
(0.97949462 -0.030118314 0)
(1.0208173 -0.027960071 0)
(1.0368442 0.0061621745 0)
(1.0307166 0.041231678 0)
(0.99481084 0.038430041 0)
(0.98093518 0.010040504 0)
(0.99798317 -0.014012783 0)
(1.0215567 -0.01623381 0)
(1.0329194 -0.0033430514 0)
(1.0296228 0.0097816135 0)
(1.019824 0.015705252 0)
(1.0113642 0.01394537 0)
(1.0081188 0.0088766521 0)
(1.008563 0.0046445154 0)
(1.0100048 0.0025293582 0)
(1.0110228 0.0018812729 0)
(1.0113199 0.0017564023 0)
(1.0111946 0.0016178802 0)
(1.010969 0.0013280147 0)
(1.0108161 0.00097189354 0)
(1.0107642 0.00065586612 0)
(1.0107653 0.00043090213 0)
(1.0107601 0.00029568016 0)
(1.0107111 0.00022664288 0)
(1.0106026 0.00019808614 0)
(1.0104356 0.00018379458 0)
(1.0102285 0.0001673234 0)
(1.0100142 0.00014234823 0)
(1.0098263 0.00010001044 0)
(1.0097007 3.7457046e-05 0)
(0.89461117 0.018566475 0)
(0.89503989 0.022321578 -2.9059078e-23)
(0.91608497 -0.0050132294 0)
(0.96538993 -0.035412633 0)
(1.0110355 -0.029470262 0)
(1.0245755 0.006764008 0)
(1.0074911 0.049596625 0)
(0.9836246 0.047517531 0)
(0.97020231 0.010515205 0)
(0.99217695 -0.020066098 0)
(1.0227124 -0.023120573 0)
(1.0385686 -0.0070798511 0)
(1.0351823 0.011389978 0)
(1.0220805 0.019914772 0)
(1.0103632 0.017814521 0)
(1.0057951 0.010756407 0)
(1.00664 0.0048617221 0)
(1.0090619 0.0020077836 0)
(1.0108399 0.0013914 0)
(1.0114879 0.001593043 0)
(1.0113463 0.0017063077 0)
(1.011039 0.0015292962 0)
(1.0107896 0.0011547805 0)
(1.0106986 0.00075641996 0)
(1.010722 0.00044419793 0)
(1.0107768 0.00024360973 0)
(1.0108002 0.00013940628 0)
(1.0107585 0.00010389369 0)
(1.0106426 0.00010753658 0)
(1.0104619 0.00012227501 0)
(1.0102395 0.00013249788 0)
(1.0100118 0.00012926746 0)
(1.0098129 9.8858677e-05 0)
(1.0096819 3.949052e-05 0)
(0.87448524 0.02032764 -3.6909509e-24)
(0.87555388 0.023872408 0)
(0.89697786 -0.0077507687 -3.5632719e-23)
(0.94839366 -0.040663632 0)
(0.99777045 -0.03389559 0)
(1.0113653 0.012800666 0)
(0.98715542 0.057456406 0)
(0.96088357 0.055295033 0)
(0.95682488 0.01353217 0)
(0.98429241 -0.027768471 0)
(1.0240816 -0.031989894 0)
(1.0451014 -0.011146197 0)
(1.0418714 0.012953357 0)
(1.0249593 0.025404436 0)
(1.0088835 0.022884056 0)
(1.0025128 0.013231043 0)
(1.0039047 0.0049247578 0)
(1.0076976 0.0011026638 0)
(1.0105943 0.00048512848 0)
(1.0117873 0.0011742371 0)
(1.0116854 0.0017419123 0)
(1.0112052 0.0017681853 0)
(1.0107831 0.0014186243 0)
(1.0105926 0.0009302071 0)
(1.0106082 0.00049915661 0)
(1.0107166 0.00020017683 0)
(1.0108226 3.3197253e-05 0)
(1.0108668 -2.7343571e-05 0)
(1.010823 -1.904123e-05 0)
(1.0106937 2.2324869e-05 0)
(1.0104948 7.1606539e-05 0)
(1.0102553 0.0001089139 0)
(1.0100119 0.00012503652 0)
(1.009801 0.00010330474 0)
(1.0096622 4.3560894e-05 0)
(0.8555348 0.021847176 -1.6338444e-24)
(0.85723585 0.025392745 5.5873039e-23)
(0.87800477 -0.010870125 3.561651e-23)
(0.92946519 -0.046226513 1.2755045e-23)
(0.98113695 -0.037737192 -1.3318823e-22)
(0.99612552 0.015509704 0)
(0.96985925 0.066836351 0)
(0.94129416 0.062410298 0)
(0.94162953 0.013991131 0)
(0.97440901 -0.036171285 0)
(1.024794 -0.041706591 0)
(1.0524692 -0.017029937 0)
(1.0495077 0.015371211 0)
(1.0280807 0.032338612 0)
(1.0067951 0.029405328 0)
(0.99802817 0.016352485 0)
(1.0001044 0.0048968146 0)
(1.0057767 -0.00040952989 0)
(1.0102734 -0.0009570639 0)
(1.0122793 0.00038924967 0)
(1.0123065 0.0016727377 0)
(1.0115206 0.0020368913 0)
(1.0108496 0.0018004508 0)
(1.0104607 0.0012132753 0)
(1.0104177 0.00062657172 0)
(1.0105644 0.0001870365 0)
(1.0107578 -7.8238713e-05 0)
(1.0109048 -0.000190277 0)
(1.0109576 -0.00019389486 0)
(1.0109039 -0.00013520651 0)
(1.0107542 -4.9325367e-05 0)
(1.0105331 3.5490849e-05 0)
(1.0102738 9.8984001e-05 0)
(1.0100131 0.00012785989 0)
(1.0097883 0.00011354584 0)
(1.009641 4.9464133e-05 0)
(0.83884102 0.02304811 5.8801906e-24)
(0.84100566 0.026659997 -8.2492144e-23)
(0.86007174 -0.01379356 0)
(0.90935665 -0.051645519 1.149767e-22)
(0.96143115 -0.04118492 1.3254341e-22)
(0.97922446 0.017508946 1.5498565e-22)
(0.95180752 0.075521795 7.9918759e-23)
(0.92340785 0.066920053 0)
(0.92622671 0.01462079 0)
(0.96619179 -0.04744514 0)
(1.0260988 -0.054630346 0)
(1.0617461 -0.0223425 0)
(1.0580465 0.017719559 0)
(1.0309605 0.041252053 0)
(1.0035152 0.037749188 0)
(0.99196191 0.020332163 0)
(0.99499063 0.0045765914 0)
(1.0031579 -0.002574069 0)
(1.0098424 -0.003193716 0)
(1.0130448 -0.00087938746 0)
(1.0133037 0.0014170191 0)
(1.0121451 0.0024140806 0)
(1.0110043 0.0023125781 0)
(1.0103396 0.001667961 0)
(1.010146 0.00086975282 0)
(1.0103016 0.0002317845 0)
(1.0105837 -0.00017853888 0)
(1.0108502 -0.00037682828 0)
(1.0110217 -0.00041445206 0)
(1.0110705 -0.00035139506 0)
(1.0109978 -0.00023514408 0)
(1.0108222 -0.00010275097 0)
(1.0105753 1.6471344e-05 0)
(1.0102915 0.00010276011 0)
(1.0100129 0.00014416733 0)
(1.0097738 0.00012955383 0)
(1.0096172 5.690482e-05 0)
(0.82542524 0.023963245 1.3732703e-24)
(0.82768101 0.027680555 1.8312098e-23)
(0.84385896 -0.016661008 1.9359061e-24)
(0.88909938 -0.056752738 -6.7537793e-23)
(0.94029322 -0.045334964 -1.3253011e-22)
(0.95883043 0.02131901 1.5781999e-22)
(0.93470846 0.083074815 5.1368211e-23)
(0.90492468 0.075466213 1.2687176e-23)
(0.91098731 0.0096835136 0)
(0.95740568 -0.058616984 0)
(1.0278622 -0.068443751 0)
(1.0745922 -0.032771136 0)
(1.0706795 0.021551707 0)
(1.0337608 0.052164829 0)
(0.99831038 0.047900244 0)
(0.98392619 0.025307342 0)
(0.98818255 0.0040353129 0)
(0.99967995 -0.0057686664 0)
(1.0092864 -0.0063233189 0)
(1.014173 -0.0028669131 0)
(1.0148279 0.00092317115 0)
(1.0132124 0.0028654595 0)
(1.0113678 0.0030671482 0)
(1.0102203 0.002338153 0)
(1.0097995 0.0012903858 0)
(1.009909 0.00037574076 0)
(1.010274 -0.00024620333 0)
(1.0106764 -0.00057612356 0)
(1.0109924 -0.00067726196 0)
(1.0111704 -0.00062750716 0)
(1.0112023 -0.00048954028 0)
(1.0111016 -0.00031238886 0)
(1.0108957 -0.00013494147 0)
(1.0106186 1.5706598e-05 0)
(1.0103108 0.0001212219 0)
(1.0100113 0.00016950621 0)
(1.0097569 0.00015040151 0)
(1.0095907 6.5484036e-05 0)
(0.81554271 0.024462027 -3.7723446e-24)
(0.8177857 0.028323143 -6.3261125e-25)
(0.83061119 -0.019101296 0)
(0.86918612 -0.06141565 8.8628383e-24)
(0.91780293 -0.04889488 -7.2554003e-23)
(0.93799354 0.023785207 0)
(0.91514987 0.091714618 -3.4860698e-22)
(0.88830069 0.082694054 -3.2194224e-22)
(0.89308102 0.010971782 0)
(0.9507274 -0.072253923 0)
(1.0272434 -0.08411547 0)
(1.0825448 -0.039342231 0)
(1.0890663 0.0235431 0)
(1.0416797 0.0649622 0)
(0.99202764 0.060327901 0)
(0.9731612 0.031084484 0)
(0.97948766 0.0030410529 0)
(0.99512905 -0.0099837965 0)
(1.0085687 -0.010787349 0)
(1.0157579 -0.0056599704 0)
(1.0170569 1.3291408e-05 0)
(1.0148968 0.0034288506 0)
(1.0120739 0.0041396507 0)
(1.0101424 0.003323302 0)
(1.009364 0.0019641813 0)
(1.0093581 0.00066012206 0)
(1.0097981 -0.00025412187 0)
(1.0103541 -0.00077609019 0)
(1.0108429 -0.0009780851 0)
(1.0111806 -0.00096307112 0)
(1.0113461 -0.00081574302 0)
(1.0113485 -0.00059949239 0)
(1.0112129 -0.0003634349 0)
(1.0109713 -0.00014421146 0)
(1.0106616 3.2924881e-05 0)
(1.0103277 0.00015293766 0)
(1.0100069 0.00020280726 0)
(1.0097369 0.00017509301 0)
(1.009561 7.4820402e-05 0)
(0.81063873 0.024577028 0)
(0.81216764 0.028664035 0)
(0.82072692 -0.021301298 6.5420366e-25)
(0.85147704 -0.065345583 0)
(0.89470783 -0.052287829 1.0980041e-24)
(0.91541632 0.026826029 1.6912236e-22)
(0.89627718 0.09961672 5.5469288e-22)
(0.87091606 0.09094672 -1.7356305e-22)
(0.87620266 0.01272829 0)
(0.93633269 -0.085153594 0)
(1.0258759 -0.096435442 0)
(1.0835236 -0.053975165 0)
(1.0972623 0.026998445 0)
(1.0558648 0.079512479 0)
(0.98949932 0.074594512 0)
(0.95982529 0.038047938 0)
(0.96830392 0.0014274724 0)
(0.98946648 -0.015750077 0)
(1.007643 -0.016534033 0)
(1.0179091 -0.0096988357 0)
(1.0201998 -0.0013251383 0)
(1.0173962 0.0040367232 0)
(1.0132726 0.005654457 0)
(1.0101896 0.0047692187 0)
(1.008787 0.0029590748 0)
(1.0086293 0.0011739114 0)
(1.0091112 -0.00017225916 0)
(1.0098462 -0.00096745699 0)
(1.0105439 -0.0013159882 0)
(1.0110763 -0.00136023 0)
(1.0114073 -0.001216683 0)
(1.0115423 -0.00096852222 0)
(1.0115052 -0.00067657242 0)
(1.0113278 -0.00038604602 0)
(1.0110468 -0.00013070232 0)
(1.0107039 6.8498334e-05 0)
(1.0103421 0.00019646067 0)
(1.0099992 0.00024263372 0)
(1.0097136 0.00020247655 0)
(1.0095281 8.4532228e-05 0)
(0.81080158 0.028699824 -6.2193624e-25)
(0.81089895 0.024417138 0)
(0.81408038 -0.022916232 -9.4073405e-24)
(0.83688647 -0.0684561 -8.5681522e-24)
(0.87258229 -0.055264687 -6.9021371e-24)
(0.89270079 0.029446911 1.6253322e-23)
(0.87672158 0.10727857 2.7333729e-24)
(0.8546359 0.09878929 -2.463003e-22)
(0.85915554 0.014448341 1.9521537e-22)
(0.91885627 -0.094757884 0)
(1.0158598 -0.11342364 -1.2109341e-21)
(1.0804263 -0.056415563 0)
(1.0966537 0.025964033 0)
(1.0694118 0.098480335 0)
(0.98916832 0.092648307 0)
(0.94578906 0.046106042 0)
(0.95459432 -0.00075563958 0)
(0.98231269 -0.02303686 0)
(1.0065738 -0.024259711 0)
(1.020708 -0.014882338 0)
(1.0244793 -0.0034571698 0)
(1.0209979 0.0048093117 0)
(1.0151233 0.0076962497 0)
(1.0104396 0.0068592812 0)
(1.0080695 0.0044282054 0)
(1.0076305 0.0019640966 0)
(1.0081625 4.4908073e-05 0)
(1.009105 -0.0011282402 0)
(1.0100586 -0.0016907572 0)
(1.0108311 -0.0018250745 0)
(1.0113645 -0.0016985783 0)
(1.011663 -0.0014246449 0)
(1.0117529 -0.0010800018 0)
(1.0116676 -0.00071832491 0)
(1.0114437 -0.00038021589 0)
(1.011121 -9.4869064e-05 0)
(1.0107431 0.00011985923 0)
(1.0103528 0.00024959228 0)
(1.0099879 0.00028675734 0)
(1.009687 0.0002313315 0)
(1.0094923 9.4337899e-05 0)
(0.81103793 -0.023745731 8.2938014e-24)
(0.81514952 0.028611956 0)
(0.81738211 0.023835632 -8.870988e-24)
(0.82350089 -0.070648805 8.5622613e-24)
(0.85291622 -0.057424579 6.8404649e-24)
(0.87079421 0.031689115 3.1732099e-22)
(0.85834526 0.11406145 -5.447166e-22)
(0.83967035 0.10629816 -4.4640047e-23)
(0.84328682 0.016224948 9.3340716e-23)
(0.90056162 -0.10566104 6.1510359e-23)
(0.99860393 -0.12905215 -1.3394982e-21)
(1.0704057 -0.069302818 1.2661233e-21)
(1.0868764 0.033741023 0)
(1.0548021 0.11602735 0)
(0.98049306 0.1153396 0)
(0.93104821 0.057433849 0)
(0.93760585 -0.0044132313 0)
(0.97403362 -0.03234595 0)
(1.0051545 -0.033603419 0)
(1.0242942 -0.022002756 0)
(1.0301367 -0.0062058332 0)
(1.0259552 0.0055159509 0)
(1.0178784 0.010482492 0)
(1.0109505 0.0097833703 0)
(1.0072027 0.0065676453 0)
(1.006256 0.0031214728 0)
(1.0068729 0.00046507519 0)
(1.0080613 -0.0012678117 0)
(1.0093437 -0.0021133103 0)
(1.0104156 -0.0023695672 0)
(1.0111967 -0.0022723754 0)
(1.0116927 -0.0019763322 0)
(1.0119383 -0.0015802046 0)
(1.0119719 -0.0011477896 0)
(1.011832 -0.00072486581 0)
(1.0115579 -0.0003469002 0)
(1.0111922 -3.8252495e-05 0)
(1.0107783 0.00018419768 0)
(1.0103593 0.00030986493 0)
(1.0099725 0.00033402086 0)
(1.0096568 0.00026103262 0)
(1.0094536 0.00010401493 0)
(0.81448234 -0.071765187 5.8296941e-24)
(0.81482525 -0.023943456 2.2380832e-23)
(0.82587061 0.028134703 0)
(0.82741803 0.022850108 -1.568847e-24)
(0.83414067 -0.059180413 3.4532382e-25)
(0.85113753 0.033625708 -1.4238682e-22)
(0.84186495 0.11978142 0)
(0.82699979 0.11289611 4.4331817e-23)
(0.82954488 0.018044655 2.480876e-24)
(0.88193202 -0.11669726 -6.0703804e-23)
(0.97896394 -0.14437259 1.4491676e-21)
(1.0557823 -0.085378807 1.3978606e-21)
(1.0727139 0.038101309 0)
(1.0259095 0.13559057 0)
(0.9612131 0.13791537 0)
(0.91430093 0.070550771 0)
(0.91880758 -0.0071452706 0)
(0.96351384 -0.043936305 0)
(1.0037583 -0.045568066 0)
(1.0286012 -0.030491612 0)
(1.037385 -0.010370789 0)
(1.0326743 0.0065206041 0)
(1.0217366 0.014064656 0)
(1.0118476 0.013822495 0)
(1.0061337 0.0095777991 0)
(1.0044213 0.0048052815 0)
(1.0050921 0.0010905367 0)
(1.0066305 -0.0013402298 0)
(1.0083353 -0.0025929427 0)
(1.0097955 -0.0030202858 0)
(1.0108842 -0.0029582387 0)
(1.0116169 -0.002636837 0)
(1.0120468 -0.0021861277 0)
(1.0122249 -0.0016813269 0)
(1.0121943 -0.0011723186 0)
(1.0119952 -0.00069770968 0)
(1.0116687 -0.00028810532 0)
(1.0112586 3.571003e-05 0)
(1.0108086 0.00025888425 0)
(1.0103612 0.00037491033 0)
(1.0099531 0.00038292659 0)
(1.0096235 0.0002905438 0)
(1.0094124 0.00011338332 0)
(0.82042543 -0.060224795 -1.0720503e-23)
(0.81210238 -0.0718419 -6.2316263e-24)
(0.8240923 -0.023370492 -1.9931469e-23)
(0.84034915 0.027346571 -1.2639103e-23)
(0.84029715 0.021501697 4.2709788e-23)
(0.83393531 0.034922837 1.3476751e-22)
(0.8286324 0.12430493 7.7700123e-23)
(0.81749447 0.11844267 0)
(0.81872622 0.019589001 -9.4213847e-24)
(0.86368215 -0.1272737 -2.1618109e-22)
(0.95718443 -0.16038416 0)
(1.0372086 -0.098132696 -1.8122188e-21)
(1.0606435 0.029417739 0)
(1.00709 0.15492026 0)
(0.94082507 0.15528306 0)
(0.89871621 0.085671687 0)
(0.89983636 -0.012536849 0)
(0.95157286 -0.057661005 0)
(1.0018738 -0.059199752 0)
(1.0338655 -0.04173986 0)
(1.046417 -0.015237095 0)
(1.0413613 0.0071515414 0)
(1.0270829 0.018859354 0)
(1.0131651 0.019244806 0)
(1.0048044 0.013756349 0)
(1.0019977 0.0071631494 0)
(1.0026626 0.0019939905 0)
(1.0046967 -0.0013626495 0)
(1.0069542 -0.0031751368 0)
(1.0089251 -0.003804899 0)
(1.0104041 -0.003783597 0)
(1.0114242 -0.0034261893 0)
(1.0120692 -0.002910177 0)
(1.0124148 -0.0023269616 0)
(1.0125159 -0.0017292087 0)
(1.0124157 -0.0011557119 0)
(1.0121545 -0.00063949773 0)
(1.0117744 -0.0002070391 0)
(1.0113194 0.00012333413 0)
(1.0108335 0.00034089994 0)
(1.0103582 0.00044284654 0)
(1.0099301 0.00043157741 0)
(1.0095874 0.0003193183 0)
(1.0093691 0.00012236575 0)
(0.82101117 0.035420988 6.7917645e-24)
(0.8116909 -0.060391962 9.0346897e-24)
(0.81524666 -0.071228447 2.981607e-23)
(0.83818834 -0.02215525 1.3059338e-23)
(0.85684722 0.026283156 -6.6448626e-23)
(0.85653626 0.019885813 -2.4001333e-23)
(0.81995527 0.12745928 -1.4876105e-22)
(0.81202512 0.12287251 -6.4599179e-23)
(0.81125105 0.020974244 -9.1081348e-23)
(0.84782799 -0.13693194 1.8635979e-22)
(0.93358355 -0.17570778 -1.6985552e-21)
(1.0149647 -0.11280821 9.4286138e-22)
(1.040323 0.028797992 0)
(0.99627635 0.16476446 -9.2482442e-22)
(0.92046012 0.17738537 -4.5198347e-22)
(0.88507778 0.092296362 0)
(0.88325257 -0.013225619 0)
(0.93810285 -0.074519112 0)
(0.99992606 -0.076313028 0)
(1.0398812 -0.054127907 0)
(1.0573703 -0.02248352 0)
(1.0525467 0.0084114046 0)
(1.0340438 0.024764027 0)
(1.0150685 0.026470689 0)
(1.0030833 0.019358215 0)
(0.99878648 0.010417856 0)
(0.99940865 0.0032342511 0)
(1.0020891 -0.0013629953 0)
(1.0051047 -0.0038798681 0)
(1.0077525 -0.0047946756 0)
(1.0097378 -0.0048025374 0)
(1.0111097 -0.0043772784 0)
(1.0120032 -0.003770469 0)
(1.0125361 -0.0030944861 0)
(1.0127867 -0.002401807 0)
(1.0128056 -0.0017271386 0)
(1.0126328 -0.0011013843 0)
(1.0123079 -0.00055392215 0)
(1.0118736 -0.00010798187 0)
(1.0113737 0.00022108688 0)