/*--------------------------------*- C++ -*----------------------------------*\
| =========                 |                                                 |
| \\      /  F ield         | OpenFOAM: The Open Source CFD Toolbox           |
|  \\    /   O peration     | Version:  5.0                                   |
|   \\  /    A nd           | Web:      www.OpenFOAM.org                      |
|    \\/     M anipulation  |                                                 |
\*---------------------------------------------------------------------------*/
FoamFile
{
    version     2.0;
    format      ascii;
    class       volVectorField;
    location    "200";
    object      UMean;
}
// * * * * * * * * * * * * * * * * * * * * * * * * * * * * * * * * * * * * * //

dimensions      [0 1 -1 0 0 0 0];

internalField   nonuniform List<vector> 
9520
(
(1.0088932 -3.9859322e-06 0)
(1.0089793 -1.1800686e-05 0)
(1.0089055 -3.135055e-06 0)
(1.0091322 -1.8373714e-05 0)
(1.0089909 -9.0187647e-06 0)
(1.0089077 -3.1016776e-06 0)
(1.009338 -2.4348994e-05 0)
(1.009143 -1.3487771e-05 0)
(1.0089927 -9.035705e-06 0)
(1.0089148 -3.7418012e-06 0)
(1.0095838 -2.970433e-05 0)
(1.0093482 -1.7031976e-05 0)
(1.0091442 -1.3120533e-05 0)
(1.0089986 -1.0498836e-05 0)
(1.0089192 -4.6651935e-06 0)
(1.0098583 -3.5260014e-05 0)
(1.0095941 -1.954917e-05 0)
(1.0093487 -1.5803663e-05 0)
(1.0091481 -1.4751087e-05 0)
(1.0090021 -1.3148694e-05 0)
(1.0089288 -6.6406784e-06 0)
(1.0101515 -4.1588316e-05 0)
(1.00987 -2.1808648e-05 0)
(1.009594 -1.683874e-05 0)
(1.0093504 -1.6654276e-05 0)
(1.0091498 -1.8403645e-05 0)
(1.0090099 -1.8639862e-05 0)
(1.0089377 -8.9982878e-06 0)
(1.0104547 -4.9212905e-05 0)
(1.0101662 -2.43792e-05 0)
(1.0098698 -1.6906023e-05 0)
(1.0095935 -1.5795817e-05 0)
(1.0093497 -2.0315087e-05 0)
(1.0091545 -2.6460676e-05 0)
(1.0090171 -2.5388195e-05 0)
(1.008954 -1.2518301e-05 0)
(1.0107604 -5.9382426e-05 0)
(1.0104747 -2.8070433e-05 0)
(1.0101665 -1.6453045e-05 0)
(1.0098673 -1.275061e-05 0)
(1.0095902 -1.8232579e-05 0)
(1.0093501 -2.9693072e-05 0)
(1.0091586 -3.6668412e-05 0)
(1.0090311 -3.5524352e-05 0)
(1.0089712 -1.6586625e-05 0)
(1.0110626 -7.1343578e-05 0)
(1.0107876 -3.3665758e-05 0)
(1.0104758 -1.5912665e-05 0)
(1.0101627 -7.9396339e-06 0)
(1.0098614 -1.2615695e-05 0)
(1.0095855 -2.7423216e-05 0)
(1.0093498 -4.213123e-05 0)
(1.0091683 -5.2404451e-05 0)
(1.0090461 -4.7343089e-05 0)
(1.0089974 -2.1726436e-05 0)
(1.0113559 -8.8864183e-05 0)
(1.0110995 -4.0529971e-05 0)
(1.0107906 -1.6673758e-05 0)
(1.0104719 -2.0724762e-06 0)
(1.0101544 -3.76018e-06 0)
(1.0098513 -1.9856787e-05 0)
(1.00958 -4.0607866e-05 0)
(1.0093536 -6.215475e-05 0)
(1.009179 -7.1029423e-05 0)
(1.0090699 -6.2401422e-05 0)
(1.0090261 -2.7384468e-05 0)
(1.0116365 -0.00010450614 0)
(1.0114052 -5.2557734e-05 0)
(1.0111053 -1.8680046e-05 0)
(1.0107878 3.7234162e-06 0)
(1.0104615 7.7331635e-06 0)
(1.0101388 -7.1417552e-06 0)
(1.0098396 -3.2068024e-05 0)
(1.0095761 -6.3317307e-05 0)
(1.0093582 -8.6402983e-05 0)
(1.0091981 -9.5159087e-05 0)
(1.0090962 -7.9069302e-05 0)
(1.0090645 -3.386002e-05 0)
(1.0119017 -0.00013363865 0)
(1.0117027 -6.3975249e-05 0)
(1.0114142 -2.4106836e-05 0)
(1.011105 9.8302527e-06 0)
(1.010776 2.0967653e-05 0)
(1.0104406 1.0155206e-05 0)
(1.0101205 -1.6454804e-05 0)
(1.009827 -5.556863e-05 0)
(1.0095732 -9.1743644e-05 0)
(1.0093704 -0.0001185646 0)
(1.0092198 -0.00012213211 0)
(1.0091324 -9.8278825e-05 0)
(1.0091065 -4.0667611e-05 0)
(1.012149 -0.00014763322 0)
(1.0119863 -8.8796626e-05 0)
(1.0117134 -2.8851239e-05 0)
(1.0114196 1.2985031e-05 0)
(1.0110926 3.5661339e-05 0)
(1.0107507 3.1020622e-05 0)
(1.0104155 5.8220975e-06 0)
(1.010098 -3.8601129e-05 0)
(1.0098148 -8.6438398e-05 0)
(1.0095761 -0.00013061771 0)
(1.0093853 -0.00015503878 0)
(1.0092517 -0.00015361211 0)
(1.0091725 -0.00011856463 0)
(1.0091577 -4.7951853e-05 0)
(1.0123766 -0.00020106719 0)
(1.0122532 -9.8625334e-05 0)
(1.0119981 -4.2953102e-05 0)
(1.0117278 1.7146558e-05 0)
(1.0114053 4.9907873e-05 0)
(1.0110637 5.526993e-05 0)
(1.0107183 3.4103413e-05 0)
(1.0103826 -1.2637427e-05 0)
(1.0100753 -6.9901096e-05 0)
(1.0098065 -0.0001303769 0)
(1.0095822 -0.00017557696 0)
(1.0094106 -0.00019831777 0)
(1.0092878 -0.00018713615 0)
(1.0092223 -0.00014039851 0)
(1.0092131 -5.5301607e-05 0)
(1.0125824 -0.00020188649 0)
(1.0125006 -0.00014273779 0)
(1.0122695 -4.497036e-05 0)
(1.0120214 1.1966044e-05 0)
(1.0117118 6.607127e-05 0)
(1.0113762 8.0000445e-05 0)
(1.0110239 6.7789587e-05 0)
(1.0106751 2.1643634e-05 0)
(1.0103479 -4.2095558e-05 0)
(1.0100538 -0.0001169343 0)
(1.0098015 -0.00018250154 0)
(1.0095982 -0.00023000645 0)
(1.0094406 -0.00024495566 0)
(1.0093347 -0.00022361054 0)
(1.0092767 -0.00016253201 0)
(1.0092764 -6.2741411e-05 0)
(1.0127651 -0.00029050266 0)
(1.0127302 -0.0001372349 0)
(1.0125236 -7.8846818e-05 0)
(1.0123005 1.8484655e-05 0)
(1.0120061 7.5445698e-05 0)
(1.0116825 0.00010834833 0)
(1.0113281 0.00010520389 0)
(1.0109711 6.3688983e-05 0)
(1.0106269 -3.3574058e-06 0)
(1.0103117 -8.9966775e-05 0)
(1.0100354 -0.00017457024 0)
(1.0098054 -0.00024709748 0)
(1.0096196 -0.00028954029 0)
(1.0094823 -0.00029640707 0)
(1.0093867 -0.00026090558 0)
(1.0093398 -0.00018507992 0)
(1.0093434 -6.9925114e-05 0)
(1.0129188 -0.00026363951 0)
(1.0129327 -0.00021540952 0)
(1.0127615 -6.7683545e-05 0)
(1.0125623 -3.0664415e-06 0)
(1.0122883 9.4796298e-05 0)
(1.0119776 0.00013130585 0)
(1.0116285 0.00014738782 0)
(1.0112663 0.00011192691 0)
(1.0109082 4.5862761e-05 0)
(1.0105752 -4.9641159e-05 0)
(1.0102775 -0.00015111889 0)
(1.0100245 -0.00024795768 0)
(1.0098155 -0.00031902162 0)
(1.0096535 -0.00035628461 0)
(1.0095302 -0.00034963242 0)
(1.0094489 -0.00029931908 0)
(1.0094072 -0.00020698155 0)
(1.0094166 -7.678719e-05 0)
(1.0130426 -0.00039662773 0)
(1.0131131 -0.00017872378 0)
(1.0129744 -0.00013499244 0)
(1.0128086 1.6847861e-05 0)
(1.0125565 8.8342134e-05 0)
(1.0122612 0.00016465202 0)
(1.0119193 0.00018685022 0)
(1.0115573 0.00016727147 0)
(1.0111883 0.0001041654 0)
(1.0108401 3.8625861e-06 0)
(1.0105227 -0.00011189299 0)
(1.0102494 -0.00023149152 0)
(1.0100203 -0.00033138369 0)
(1.0098386 -0.00040109184 0)
(1.009695 -0.00042629891 0)
(1.0095901 -0.00040519638 0)
(1.0095165 -0.00033702328 0)
(1.0094817 -0.00022807713 0)
(1.0094924 -8.3049099e-05 0)
(1.0131098 -0.00033497822 0)
(1.0132539 -0.00030837889 0)
(1.0131621 -9.4882015e-05 0)
(1.0130296 -3.5710471e-05 0)
(1.0128083 0.00011867376 0)
(1.0125336 0.00017552244 0)
(1.0121999 0.00023681261 0)
(1.0118394 0.00022314062 0)
(1.0114647 0.00017207141 0)
(1.0111026 6.9134432e-05 0)
(1.0107675 -5.6904971e-05 0)
(1.0104752 -0.00019706861 0)
(1.0102277 -0.00032508454 0)
(1.0100292 -0.00042840249 0)
(1.0098706 -0.00048854561 0)
(1.0097502 -0.00050050193 0)
(1.0096569 -0.00046044754 0)
(1.0095929 -0.0003738172 0)
(1.0095596 -0.00024748386 0)
(1.009572 -8.8603807e-05 0)
(1.0131267 -0.00051188563 0)
(1.0133609 -0.00022061208 0)
(1.0133167 -0.00021256028 0)
(1.0132263 1.1626378e-05 0)
(1.0130382 8.0766911e-05 0)
(1.0127902 0.00022080327 0)
(1.0124706 0.00026822676 0)
(1.0121115 0.00029062809 0)
(1.0117328 0.00024385363 0)
(1.0113604 0.00014674353 0)
(1.0110087 1.270326e-05 0)
(1.0106983 -0.00014440525 0)
(1.0104328 -0.00029898782 0)
(1.0102189 -0.00043612929 0)
(1.0100483 -0.00053355963 0)
(1.0099182 -0.00058271923 0)
(1.0098143 -0.00057538749 0)
(1.0097347 -0.0005152481 0)
(1.0096741 -0.00040814863 0)
(1.0096424 -0.00026489241 0)
(1.0096529 -9.3229589e-05 0)
(1.012985 -0.00042166418 0)
(1.013385 -0.00040586874 0)
(1.0134189 -0.00012285854 0)
(1.0133908 -8.7439074e-05 0)
(1.0132447 0.00013715182 0)
(1.0130281 0.00020149635 0)
(1.0127295 0.00033227197 0)
(1.0123739 0.00034476182 0)
(1.0119908 0.00032854986 0)
(1.0116097 0.00023155409 0)
(1.0112443 9.7197297e-05 0)
(1.010916 -7.435899e-05 0)
(1.0106323 -0.00025244926 0)
(1.010403 -0.00042260154 0)
(1.0102213 -0.00055872747 0)
(1.0100846 -0.0006486644 0)
(1.0099768 -0.0006792914 0)
(1.0098921 -0.0006509141 0)
(1.0098192 -0.00056726199 0)
(1.0097619 -0.00043953022 0)
(1.0097271 -0.00027964113 0)
(1.0097351 -9.6837021e-05 0)
(1.0125823 -0.00061867647 0)
(1.0133069 -0.00027842365 0)
(1.0134665 -0.00030344764 0)
(1.0135039 4.9891069e-06 0)
(1.013418 4.8114372e-05 0)
(1.0132458 0.00027309393 0)
(1.0129697 0.000336657 0)
(1.012627 0.00043093745 0)
(1.0122378 0.00040458402 0)
(1.0118487 0.00033076196 0)
(1.0114711 0.00019198559 0)
(1.0111263 1.3219826e-05 0)
(1.0108242 -0.00018569525 0)
(1.0105782 -0.00038664593 0)
(1.0103846 -0.00056175572 0)
(1.0102421 -0.0006951609 0)
(1.0101342 -0.00076865795 0)
(1.0100519 -0.00077830816 0)
(1.0099789 -0.00072393987 0)
(1.009913 -0.00061586736 0)
(1.0098531 -0.00046676649 0)
(1.009814 -0.00029139715 0)
(1.0098167 -9.926588e-05 0)
(1.0118252 -0.00054993515 0)
(1.0129166 -0.00048894617 0)
(1.0133797 -0.00016246729 0)
(1.0135554 -0.00015645724 0)
(1.0135405 0.00014681173 0)
(1.01343 0.00020162194 0)
(1.0131949 0.00042954249 0)
(1.0128617 0.0004640058 0)
(1.0124772 0.00051203466 0)
(1.0120746 0.00042562913 0)
(1.0116867 0.00030293543 0)
(1.0113271 0.00011427774 0)
(1.0110069 -9.8820258e-05 0)
(1.0107426 -0.00032792875 0)
(1.010535 -0.00054084054 0)
(1.0103855 -0.00071926277 0)
(1.0102784 -0.00083978288 0)
(1.0102031 -0.00089373376 0)
(1.0101391 -0.00087588237 0)
(1.0100783 -0.00079370524 0)
(1.0100123 -0.00065920032 0)
(1.0099485 -0.00048931509 0)
(1.0099011 -0.00029973017 0)
(1.0098972 -0.00010045555 0)
(1.0110738 -0.00068143399 0)
(1.0121597 -0.0003857579 0)
(1.0130323 -0.00037141264 0)
(1.0134836 -1.1865531e-05 0)
(1.0136042 -8.7392775e-06 0)
(1.0135715 0.00031378902 0)
(1.0133875 0.0003849331 0)
(1.0130836 0.00058382365 0)
(1.012698 0.00057275957 0)
(1.012294 0.00055090496 0)
(1.0118894 0.00041266946 0)
(1.0115155 0.00023324995 0)
(1.011179 4.9112906e-06 0)
(1.0108953 -0.00024642512 0)
(1.010671 -0.0004949603 0)
(1.0105116 -0.00071843311 0)
(1.0104038 -0.00088904407 0)
(1.0103368 -0.00099298709 0)
(1.0102873 -0.0010192394 0)
(1.0102423 -0.0009710393 0)
(1.0101858 -0.00085760208 0)
(1.0101183 -0.00069650043 0)
(1.0100453 -0.00050637717 0)
(1.0099879 -0.00030442106 0)
(1.0099754 -0.0001003494 0)
(1.009201 -0.00068035913 0)
(1.0114706 -0.00057439913 0)
(1.0122718 -0.00024393171 0)
(1.0131518 -0.00021256504 0)
(1.0135416 0.00013886303 0)
(1.013652 0.00017158534 0)
(1.0135446 0.00051997035 0)
(1.0132734 0.00057400614 0)
(1.0129061 0.00071818545 0)
(1.0124938 0.00063523231 0)
(1.0120856 0.00055170064 0)
(1.0116924 0.0003547946 0)
(1.0113378 0.00012836943 0)
(1.0110357 -0.00014438695 0)
(1.0107921 -0.00042355962 0)
(1.0106187 -0.00069094435 0)
(1.0105069 -0.00091313773 0)
(1.0104467 -0.0010717639 0)
(1.0104138 -0.0011493893 0)
(1.0103914 -0.0011440536 0)
(1.0103571 -0.0010604356 0)
(1.0103036 -0.00091460223 0)
(1.0102279 -0.000726481 0)
(1.0101435 -0.00051753157 0)
(1.010073 -0.00030526245 0)
(1.0100504 -9.8929582e-05 0)
(1.0047834 -0.00079331868 0)
(1.0097293 -0.00045707862 0)
(1.0115871 -0.00043734788 0)
(1.0123926 -6.4359564e-05 0)
(1.0132306 -6.3809559e-05 0)
(1.0136116 0.00033032075 0)
(1.0136406 0.00040803303 0)
(1.013432 0.00074096684 0)
(1.0130812 0.00074157094 0)
(1.0126813 0.00080073778 0)
(1.012262 0.0006546373 0)
(1.0118622 0.00050502806 0)
(1.011485 0.00025888407 0)
(1.0111612 -1.9987248e-05 0)
(1.0108983 -0.00032817952 0)
(1.010707 -0.00063552177 0)
(1.0105859 -0.00090950625 0)
(1.0105288 -0.0011259389 0)
(1.0105115 -0.0012613631 0)
(1.0105148 -0.0013077919 0)
(1.0105111 -0.0012640009 0)
(1.0104861 -0.0011426629 0)
(1.0104276 -0.00096280485 0)
(1.0103414 -0.00074848473 0)
(1.0102411 -0.00052236204 0)
(1.0101556 -0.00030217266 0)
(1.0101215 -9.6199774e-05 0)
(0.99833419 -0.00079963416 0)
(1.0052169 -0.00072780526 0)
(1.0099793 -0.00029506636 0)
(1.0117145 -0.00028491891 0)
(1.0124951 9.4815006e-05 0)
(1.0133284 0.00012622957 0)
(1.0136247 0.00059464913 0)
(1.0135272 0.00067266523 0)
(1.0132257 0.00093859037 0)
(1.0128344 0.00084999584 0)
(1.0124276 0.00083397742 0)
(1.0120139 0.00062431419 0)
(1.0116252 0.00041845967 0)
(1.0112742 0.00011616689 0)
(1.0109878 -0.00020740696 0)
(1.0107767 -0.00055286819 0)
(1.0106413 -0.00087619575 0)
(1.0105813 -0.0011521071 0)
(1.0105757 -0.0013502421 0)
(1.0106042 -0.0014566829 0)
(1.0106357 -0.0014631401 0)
(1.0106496 -0.0013773143 0)
(1.0106251 -0.0012151652 0)
(1.0105589 -0.0010012408 0)
(1.010456 -0.00076178135 0)
(1.0103375 -0.00052067141 0)
(1.0102346 -0.00029515434 0)
(1.0101878 -9.2178597e-05 0)
(0.99078487 -0.00086648886 0)
(0.99878211 -0.00063650109 0)
(1.0054493 -0.00053314271 0)
(1.0102321 -0.00011124073 0)
(1.0118323 -0.00015581406 0)
(1.0126312 0.00030239954 0)
(1.0133738 0.00041262014 0)
(1.0135184 0.00089783325 0)
(1.0133049 0.00090957902 0)
(1.0129569 0.0010686517 0)
(1.0125587 0.00090153065 0)
(1.0121562 0.00081606153 0)
(1.0117497 0.00055331627 0)
(1.0113799 0.00028298887 0)
(1.0110621 -6.9853467e-05 0)
(1.0108269 -0.00044174522 0)
(1.0106738 -0.00081273622 0)
(1.0106045 -0.0011473843 0)
(1.0106043 -0.0014117394 0)
(1.0106542 -0.0015849616 0)
(1.0107214 -0.0016517696 0)
(1.0107804 -0.0016133406 0)
(1.0108023 -0.0014806421 0)
(1.0107752 -0.0012765123 0)
(1.0106938 -0.0010287283 0)
(1.0105715 -0.00076597326 0)
(1.0104313 -0.00051239584 0)
(1.0103093 -0.00028423256 0)
(1.0102488 -8.690897e-05 0)
(0.98244688 -0.00090049588 0)
(0.99120765 -0.00077382368 0)
(0.99896164 -0.00048344534 0)
(1.0057925 -0.00036526793 0)
(1.0105103 3.915844e-05 0)
(1.0119999 3.0756835e-05 0)
(1.0127069 0.00063002509 0)
(1.0132797 0.0007608111 0)
(1.0132807 0.0011697731 0)
(1.0130132 0.001063872 0)
(1.0126612 0.0011336374 0)
(1.0122683 0.00089898957 0)
(1.0118676 0.00075744011 0)
(1.0114714 0.0004326787 0)
(1.0111278 0.0001004782 0)
(1.0108583 -0.00030886487 0)
(1.0106832 -0.00071824981 0)
(1.0105997 -0.0011104232 0)
(1.0105975 -0.001441959 0)
(1.0106624 -0.001687227 0)
(1.0107619 -0.0018233639 0)
(1.0108676 -0.0018442749 0)
(1.0109443 -0.0017541535 0)
(1.0109712 -0.0015720624 0)
(1.0109326 -0.001324994 0)
(1.0108326 -0.0010445441 0)
(1.0106857 -0.00076086769 0)
(1.0105216 -0.00049753723 0)
(1.010379 -0.00026952622 0)
(1.0103041 -8.0450061e-05 0)
(0.97239361 -0.00094107509 -1.4739658e-24)
(0.98289321 -0.00077789662 0)
(0.99142827 -0.00058254741 0)
(0.99924882 -0.00037660304 0)
(1.0063253 -0.00024832487 0)
(1.010865 0.00025084868 0)
(1.0120917 0.00036984199 0)
(1.0126213 0.0010331002 0)
(1.0130342 0.0010758613 0)
(1.0129672 0.0013449853 0)
(1.0126995 0.0011401124 0)
(1.0123562 0.0011437626 0)
(1.0119582 0.00085961871 0)
(1.0115583 0.00065045934 0)
(1.0111794 0.00026203316 0)
(1.0108784 -0.00014074966 0)
(1.0106694 -0.00059759632 0)
(1.0105674 -0.0010401887 0)
(1.0105569 -0.0014386105 0)
(1.0106284 -0.0017587893 0)
(1.0107538 -0.0019715722 0)
(1.0109039 -0.0020628692 0)
(1.0110387 -0.0020290181 0)
(1.01113 -0.001883151 0)
(1.0111516 -0.0016491783 0)
(1.0110975 -0.0013594329 0)
(1.0109721 -0.0010481718 0)
(1.0107979 -0.00074614943 0)
(1.0106074 -0.00047616645 0)
(1.010443 -0.00025119403 0)
(1.0103531 -7.2875979e-05 0)
(0.96030637 -0.00098018035 1.5328624e-24)
(0.97280793 -0.00084683285 1.5382823e-24)
(0.98313506 -0.00061410025 0)
(0.99173793 -0.00049152932 0)
(0.9997281 -0.00030825495 0)
(1.0070223 -6.0855472e-05 0)
(1.0111625 0.00065391504 0)
(1.0119717 0.00080944078 0)
(1.0123659 0.0013923022 0)
(1.0127087 0.0012720083 0)
(1.0126418 0.0014276728 0)
(1.0123849 0.0011607592 0)
(1.0120329 0.0011198716 0)
(1.0116214 0.00077601479 0)
(1.0112264 0.00049133701 0)
(1.0108826 2.6494538e-05 0)
(1.0106404 -0.00043954197 0)
(1.0105072 -0.00093994202 0)
(1.0104839 -0.0013998807 0)
(1.010554 -0.0017961127 0)
(1.0106967 -0.002090296 0)
(1.0108847 -0.0022616919 0)
(1.0110766 -0.0022974178 0)
(1.0112377 -0.0022030856 0)
(1.0113324 -0.0019970917 0)
(1.0113443 -0.0017102398 0)
(1.0112661 -0.0013789613 0)
(1.0111118 -0.0010393718 0)
(1.0109066 -0.00072208169 0)
(1.010688 -0.000448533 0)
(1.0105009 -0.00022946519 0)
(1.0103956 -6.4283156e-05 0)
(0.94729056 -0.0009600297 -1.5408003e-24)
(0.96071397 -0.00090732373 -5.1028218e-24)
(0.97303268 -0.00065941059 0)
(0.98351701 -0.00056524827 0)
(0.99225138 -0.00047087158 0)
(1.0004149 -0.00014008185 0)
(1.0077073 0.00034960494 0)
(1.0112138 0.0011711433 0)
(1.0116446 0.001204933 0)
(1.0120317 0.0016019993 0)
(1.0123858 0.0013552188 0)
(1.0123289 0.0014559644 0)
(1.0120549 0.0011545867 0)
(1.0116739 0.0010592781 0)
(1.0112509 0.00064092261 0)
(1.0108803 0.00026155929 0)
(1.0105924 -0.00027564605 0)
(1.0104275 -0.00080051708 0)
(1.0103779 -0.0013282647 0)
(1.0104415 -0.0017966282 0)
(1.0105921 -0.0021750222 0)
(1.0108088 -0.0024336372 0)
(1.0110522 -0.0025510289 0)
(1.0112837 -0.0025236262 0)
(1.0114597 -0.0023622627 0)
(1.011553 -0.0020935606 0)
(1.0115447 -0.0017538514 0)
(1.0114382 -0.0013828388 0)
(1.0112496 -0.0010179918 0)
(1.0110109 -0.00068886286 0)
(1.0107626 -0.00041500427 0)
(1.0105523 -0.00020458294 0)
(1.0104316 -5.4779069e-05 0)
(0.93392882 -0.00097276225 0)
(0.94759417 -0.00088011745 5.109919e-24)
(0.96097091 -0.00075600165 0)
(0.97341139 -0.0006307053 0)
(0.9841368 -0.0005720821 0)
(0.99293536 -0.00036900478 0)
(1.0011774 0.00032845029 0)
(1.0081787 0.00092068244 0)
(1.0109579 0.0016207945 0)
(1.0112278 0.0014372922 0)
(1.0117222 0.0016760922 0)
(1.0120946 0.001382125 0)
(1.0120069 0.0014706576 0)
(1.0116792 0.0011224642 0)
(1.0112679 0.00094830756 0)
(1.0108544 0.00042947128 0)
(1.0105349 -4.4531298e-05 0)
(1.0103252 -0.00064937402 0)
(1.0102477 -0.0012159526 0)
(1.010291 -0.0017614684 0)
(1.0104428 -0.002221985 0)
(1.0106779 -0.0025724778 0)
(1.0109634 -0.0027813637 0)
(1.0112608 -0.0028355854 0)
(1.0115207 -0.0027362643 0)
(1.0117063 -0.0025034283 0)
(1.0117864 -0.0021703959 0)
(1.0117528 -0.0017785794 0)
(1.0116106 -0.0013707477 0)
(1.0113844 -0.00098406666 0)
(1.0111097 -0.00064688037 0)
(1.0108307 -0.0003759771 0)
(1.0105969 -0.00017681084 0)
(1.0104608 -4.441015e-05 0)
(0.92045412 -0.00088191285 9.6832852e-25)
(0.9340271 -0.00093308684 0)
(0.94779522 -0.00070805645 9.7961103e-24)
(0.96139446 -0.00080130707 0)
(0.97405163 -0.00066524473 0)
(0.98493813 -0.00045698186 0)
(0.9936225 2.9342657e-05 0)
(1.0018366 0.00099725052 0)
(1.0083788 0.0014379512 0)
(1.0105474 0.0018363037 0)
(1.0108675 0.0015115142 0)
(1.0114739 0.0016998159 0)
(1.0118002 0.0014098966 0)
(1.0116282 0.0014746415 0)
(1.0112394 0.0010445659 0)
(1.0108204 0.00075423543 0)
(1.0104515 0.00013056237 0)
(1.0102098 -0.00043276121 0)
(1.0100914 -0.001086624 0)
(1.0101112 -0.0016840647 0)
(1.0102496 -0.0022308806 0)
(1.0104949 -0.0026732992 0)
(1.0108111 -0.0029808544 0)
(1.0111654 -0.0031294689 0)
(1.0115066 -0.0031094112 0)
(1.0117898 -0.0029315568 0)
(1.0119722 -0.002623493 0)
(1.012033 -0.0022254485 0)
(1.0119644 -0.001783856 0)
(1.0117823 -0.0013423879 0)
(1.0115145 -0.00093806936 0)
(1.0112021 -0.00059661496 0)
(1.0108918 -0.00033189792 0)
(1.0106346 -0.0001464492 0)
(1.0104834 -3.3326355e-05 0)
(0.90738668 -0.0008303723 -2.3501378e-24)
(0.92026496 -0.00084732119 -1.4627745e-23)
(0.93413388 -0.00078450388 -9.7901469e-24)
(0.94815159 -0.00076690564 -1.4854856e-23)
(0.96209713 -0.0009198568 -1.8852347e-23)
(0.97487745 -0.00056686409 0)
(0.9857363 8.7669763e-06 0)
(0.99415701 0.00061133625 0)
(1.0023967 0.0015815858 0)
(1.0084755 0.0017012333 0)
(1.010173 0.0018509682 0)
(1.0105987 0.0015292314 0)
(1.0112339 0.0017486852 0)
(1.0114396 0.0014463733 0)
(1.0111634 0.001439623 0)
(1.0107391 0.00087800529 0)
(1.0103573 0.00045859227 0)
(1.0100661 -0.00026251341 0)
(1.0099188 -0.00089373865 0)
(1.0099018 -0.0015843594 0)
(1.010022 -0.0021956988 0)
(1.0102612 -0.0027341707 0)
(1.0105988 -0.0031426833 0)
(1.0109976 -0.003395981 0)
(1.0114122 -0.003471012 0)
(1.0117925 -0.0033678674 0)
(1.0120857 -0.00310529 0)
(1.0122579 -0.002719476 0)
(1.0122875 -0.0022576432 0)
(1.0121788 -0.0017687967 0)
(1.0119507 -0.0012981733 0)
(1.011639 -0.00088041244 0)
(1.0112875 -0.00053865701 0)
(1.0109457 -0.00028317213 0)
(1.0106653 -0.00011379152 0)
(1.0104993 -2.1597531e-05 0)
(0.89525126 -0.00069399558 2.3262439e-24)
(0.90685388 -0.00080432984 2.5767891e-23)
(0.92023058 -0.00069515716 0)
(0.93435959 -0.00090734385 5.2503283e-23)
(0.94879907 -0.00089838272 1.8755474e-23)
(0.96300157 -0.00090809075 2.933272e-23)
(0.97567334 -8.1071141e-05 1.5022316e-23)
(0.98638485 0.0006639799 0)
(0.99462857 0.0011206236 0)
(1.0029954 0.0018621916 0)
(1.0086086 0.0017352534 0)
(1.0098831 0.0018292941 0)
(1.0103615 0.0015842044 0)
(1.0109176 0.0018369103 0)
(1.0109644 0.001454028 0)
(1.0106139 0.0013091486 0)
(1.0102126 0.00059505147 0)
(1.0099095 5.4685544e-05 0)
(1.0097163 -0.00073865975 0)
(1.0096732 -0.0014226874 0)
(1.0097608 -0.0021328716 0)
(1.0099867 -0.0027486182 0)
(1.0103279 -0.0032634869 0)
(1.0107607 -0.0036263858 0)
(1.0112361 -0.0038103913 0)
(1.0117073 -0.0038009983 0)
(1.0121137 -0.0036057754 0)
(1.0124091 -0.0032536668 0)
(1.0125574 -0.0027895137 0)
(1.0125494 -0.0022653238 0)
(1.0123921 -0.0017337687 0)
(1.0121147 -0.0012383016 0)
(1.0117565 -0.00081184149 0)
(1.0113652 -0.00047364087 0)
(1.0109922 -0.00023021034 0)
(1.010689 -7.9158923e-05 0)
(1.0105087 -9.3317701e-06 0)
(0.88435569 -0.00056623618 -1.4550277e-25)
(0.8943116 -0.0006632826 -6.2417015e-24)
(0.90664323 -0.00065744526 1.0542657e-23)
(0.92024131 -0.00085751536 -2.0978982e-23)
(0.93490276 -0.0011070936 -3.9055387e-23)
(0.94965821 -0.00087741762 2.6088336e-23)
(0.96389174 -0.00048968265 1.0497683e-22)
(0.97630144 0.00061959454 -1.8648753e-23)
(0.98695319 0.0011802629 0)
(0.99524053 0.0013304989 0)
(1.0037532 0.0019078748 0)
(1.008734 0.0017085934 0)
(1.0096277 0.0019029928 0)
(1.0100479 0.0017055882 0)
(1.0104602 0.0019124235 0)
(1.0103742 0.0013586874 0)
(1.0100247 0.0010427974 0)
(1.0097004 0.00018756765 0)
(1.0094999 -0.00044361567 0)
(1.0094138 -0.001290095 0)
(1.0094774 -0.0020085595 0)
(1.0096744 -0.0027296984 0)
(1.010008 -0.0033359472 0)
(1.0104563 -0.003815673 0)
(1.0109807 -0.0041168408 0)
(1.0115311 -0.0042187263 0)
(1.0120469 -0.0041129405 0)
(1.0124713 -0.0038182379 0)
(1.0127539 -0.0033735633 0)
(1.0128703 -0.0028310571 0)
(1.0128136 -0.0022485644 0)
(1.0126034 -0.0016783886 0)
(1.0122723 -0.0011636598 0)
(1.0118661 -0.000733066 0)
(1.011435 -0.0004020479 0)
(1.011031 -0.00017376548 0)
(1.0107058 -4.2849302e-05 0)
(1.0105119 3.3471235e-06 0)
(0.87468102 -0.0003629138 -8.9831636e-25)
(0.88297416 -0.00051723194 2.6946138e-24)
(0.89390726 -0.00052711317 0)
(0.90639835 -0.00085817064 -1.6008363e-23)
(0.9205919 -0.001104818 -4.843401e-24)
(0.93565905 -0.0011394624 0)
(0.95051582 -0.00040874419 -7.5037197e-23)
(0.96463178 0.00014555401 -8.5684738e-23)
(0.97684841 0.0011902179 0)
(0.98765526 0.0012965788 0)
(0.9962102 0.0012780025 0)
(1.0046728 0.0019254149 0)
(1.0087818 0.0017632526 0)
(1.0092837 0.0021005803 0)
(1.0095709 0.0018304678 0)
(1.0098575 0.0018765376 0)
(1.0097269 0.0011042099 0)
(1.0094495 0.00063112822 0)
(1.0092307 -0.00032526538 0)
(1.0091409 -0.0010241145 0)
(1.0091628 -0.0019035981 0)
(1.009336 -0.0026483961 0)
(1.0096449 -0.0033684297 0)
(1.0100931 -0.0039548762 0)
(1.0106483 -0.0043832146 0)
(1.0112647 -0.0046087891 0)
(1.01188 -0.0046135814 0)
(1.0124327 -0.0044011551 0)
(1.0128594 -0.0040008843 0)
(1.0131196 -0.0034615407 0)
(1.0131905 -0.0028434869 0)
(1.0130793 -0.0022063018 0)
(1.0128093 -0.0016038102 0)
(1.0124224 -0.0010748846 0)
(1.0119672 -0.00064498383 0)
(1.0114964 -0.00032480174 0)
(1.0110623 -0.00011414131 0)
(1.010716 -5.2078704e-06 0)
(1.010509 1.6310622e-05 0)
(0.86676729 -0.0001655863 0)
(0.87280589 -0.00027921282 0)
(0.88233276 -0.00038868271 -2.780008e-24)
(0.89337277 -0.00076474371 0)
(0.90651043 -0.0011533491 -2.470459e-24)
(0.92113152 -0.0011748181 3.7665447e-23)
(0.93644159 -0.00069083847 1.8272207e-22)
(0.95124558 0.00028366307 1.6378671e-22)
(0.96531417 0.00064180421 0)
(0.97754459 0.0013182889 0)
(0.98873695 0.0011183961 0)
(0.99758846 0.0011906596 0)
(1.0056481 0.0020854352 0)
(1.0086481 0.0019586621 0)
(1.0087214 0.0023184791 0)
(1.0089295 0.0018340142 0)
(1.0091819 0.0016558527 0)
(1.0090929 0.0006804959 0)
(1.008924 0.00010013806 0)
(1.0088171 -0.00092560537 0)
(1.008836 -0.0016709328 0)
(1.0089653 -0.0025753842 0)
(1.0092504 -0.0033367889 0)
(1.0096788 -0.0040484058 0)
(1.0102452 -0.0045992408 0)
(1.0109106 -0.004961296 0)
(1.0116117 -0.0050940312 0)
(1.0122855 -0.0049884861 0)
(1.0128595 -0.0046597172 0)
(1.0132775 -0.0041490809 0)
(1.0134995 -0.0035158773 0)
(1.0135171 -0.0028249815 0)
(1.0133417 -0.0021396743 0)
(1.0130089 -0.0015101831 0)
(1.0125636 -0.0009731625 0)
(1.0120592 -0.00054841069 0)
(1.0115493 -0.00024252523 0)
(1.0110861 -5.2066716e-05 0)
(1.0107197 3.350011e-05 0)
(1.0105005 2.9573571e-05 0)
(0.86429028 -2.7592571e-05 -3.5217833e-25)
(0.86674539 0.00016107906 0)
(0.87185966 -0.00014987101 -7.2502189e-24)
(0.8814337 -0.00064925162 -1.1202382e-23)
(0.89321094 -0.0011064137 -6.928183e-24)
(0.9067864 -0.0012622968 1.3090591e-23)
(0.92171167 -0.00073785335 5.6971804e-24)
(0.93712118 -2.619468e-06 2.1981316e-23)
(0.9519426 0.00081863172 -2.1526577e-22)
(0.9661601 0.00066200074 0)
(0.97864355 0.0010945121 -2.1023615e-22)
(0.9902399 0.0009321073 0)
(0.99916641 0.0012928375 0)
(1.0064717 0.0024656805 0)
(1.0081815 0.0022088584 0)
(1.0079293 0.0024020615 0)
(1.0082135 0.0016208856 0)
(1.0085217 0.0012365279 0)
(1.0085168 0.00012316709 0)
(1.0084623 -0.00052532909 0)
(1.0084615 -0.0015937768 0)
(1.0085838 -0.0023780311 0)
(1.0088209 -0.0033008412 0)
(1.0092263 -0.0040747612 0)
(1.0097812 -0.0047644461 0)
(1.0104727 -0.0052646757 0)
(1.0112445 -0.0055415326 0)
(1.0120261 -0.0055652477 0)
(1.0127435 -0.0053359228 0)
(1.013327 -0.0048827675 0)
(1.0137186 -0.004259742 0)
(1.0138922 -0.003533873 0)
(1.0138441 -0.0027762712 0)
(1.0135999 -0.0020482616 0)
(1.0131994 -0.0013992212 0)
(1.0126949 -0.0008593904 0)
(1.0121415 -0.00044436706 0)
(1.0115936 -0.00015614339 0)
(1.0111025 1.2115108e-05 0)
(1.0107172 7.2987868e-05 0)
(1.0104866 4.2972038e-05 0)
(0.86305024 9.6813424e-05 6.4450653e-24)
(0.86430458 0.00038547152 0)
(0.87464071 0.00035183442 -8.1470178e-25)
(0.87051196 -0.00041816038 1.1196052e-23)
(0.88089736 -0.0010221234 2.7244433e-24)
(0.89316784 -0.0012438253 7.8005612e-23)
(0.9071198 -0.00083478171 -1.4592958e-22)
(0.9222025 -5.8275196e-05 -6.7042622e-23)
(0.93778834 0.0005240143 -2.0120605e-22)
(0.95281866 0.00081180409 -7.7750436e-23)
(0.96742495 0.00029994105 -2.8161389e-22)
(0.98016424 0.00085688432 2.1853781e-22)
(0.99197693 0.00098024467 0)
(1.0006881 0.0017458347 0)
(1.0067347 0.0029117891 0)
(1.0073351 0.0023356451 0)
(1.0070373 0.0022219598 0)
(1.0075357 0.0011701001 0)
(1.0079298 0.00066777692 0)
(1.008013 -0.00053351487 0)
(1.0080639 -0.0012200586 0)
(1.008158 -0.0023211682 0)
(1.0083803 -0.0031418462 0)
(1.0087336 -0.0040834496 0)
(1.0092689 -0.0048600621 0)
(1.0099615 -0.0055142211 0)
(1.0107795 -0.0059432674 0)
(1.0116555 -0.0061161211 0)
(1.0125053 -0.0060137154 0)
(1.0132545 -0.0056487201 0)
(1.0138284 -0.0050654599 0)
(1.014181 -0.0043289949 0)
(1.0142909 -0.0035153778 0)
(1.0141701 -0.0026963362 0)
(1.0138498 -0.0019341068 0)
(1.01338 -0.0012714676 0)
(1.0128156 -0.00073491051 0)
(1.012214 -0.00033385653 0)
(1.0116294 -6.6294319e-05 0)
(1.0111118 7.7777603e-05 0)
(1.0107088 0.00011298888 0)
(1.0104676 5.6455118e-05 0)
(0.86128661 -0.00017064407 2.9701978e-24)
(0.86307346 0.00049787163 8.4279385e-24)
(0.87282618 0.00062701774 0)
(0.88429139 0.0005525725 -1.2546742e-25)
(0.86950359 -0.00080533735 -3.581889e-24)
(0.88038327 -0.0011792495 -4.2917666e-23)
(0.89318113 -0.00081925099 0)
(0.90739284 -0.00015456279 6.659708e-23)
(0.92269924 0.00044606011 -1.0138402e-22)
(0.93863692 0.00046336358 7.674837e-23)
(0.95411759 0.00037311791 3.5526476e-22)
(0.96914576 -9.3500428e-05 2.922968e-22)
(0.98191924 0.00089856919 0)
(0.99367672 0.001435744 0)
(1.0017586 0.0023830845 0)
(1.006401 0.003166731 0)
(1.0063036 0.0021667881 0)
(1.006218 0.0017662086 0)
(1.0069576 0.00055103053 0)
(1.0074193 -2.1478454e-06 0)
(1.0075793 -0.0012566471 0)
(1.0077186 -0.0019713486 0)
(1.0078979 -0.0031041572 0)
(1.008226 -0.0039686417 0)
(1.0087088 -0.0049240107 0)
(1.0093894 -0.0056923371 0)
(1.0102266 -0.0062903623 0)
(1.0111731 -0.0066275591 0)
(1.0121433 -0.0066755751 0)
(1.0130508 -0.0064306959 0)
(1.0138123 -0.0059200653 0)
(1.0143617 -0.0052025917 0)
(1.0146571 -0.0043554315 0)
(1.0146934 -0.0034586836 0)
(1.0144898 -0.0025871442 0)
(1.0140904 -0.0017973243 0)
(1.0135488 -0.0011289728 0)
(1.012925 -0.00060085133 0)
(1.0122764 -0.00021796539 0)
(1.0116567 2.6210437e-05 0)
(1.0111143 0.0001445682 0)
(1.0106949 0.00015325255 0)
(1.010444 6.9915592e-05 0)
(0.85996766 -0.00057775746 -4.3579128e-24)
(0.86133218 0.00023101411 -2.9808363e-24)
(0.87196699 0.00073820815 -7.256932e-24)
(0.88296496 0.00084581782 -2.6710149e-24)
(0.89514948 0.00067261251 4.0829703e-24)
(0.86848453 -0.00096811153 4.3739994e-23)
(0.87992629 -0.00075944723 3.1958761e-23)
(0.89312092 -0.00013728904 0)
(0.90769495 0.00034779246 1.0425923e-22)
(0.9233603 0.00031989674 -3.3727407e-23)
(0.93989734 -7.5644772e-05 0)
(0.9558838 -0.00010221513 -4.235301e-22)
(0.971141 -0.00019635591 0)
(0.98364974 0.0014187249 0)
(0.99512779 0.0020881057 0)
(1.0023754 0.00286852 0)
(1.0056371 0.0029925481 0)
(1.0053113 0.001669088 0)
(1.005556 0.0011296816 0)
(1.0064854 -0.00016787304 0)
(1.0069843 -0.00073741287 0)
(1.0072001 -0.0020275112 0)
(1.0074101 -0.0027744821 0)
(1.0076768 -0.0039522304 0)
(1.0081264 -0.0048642667 0)
(1.008759 -0.0058264259 0)
(1.0095978 -0.0065663397 0)
(1.0105867 -0.007086148 0)
(1.0116559 -0.0073069322 0)
(1.0127112 -0.0072101121 0)
(1.0136575 -0.0068074051 0)
(1.0144147 -0.0061430718 0)
(1.0149188 -0.0052909709 0)
(1.015144 -0.0043363793 0)
(1.0150934 -0.0033651929 0)
(1.0148017 -0.0024484258 0)
(1.0143185 -0.0016405795 0)
(1.0137052 -0.00097258765 0)
(1.0130226 -0.00045868516 0)
(1.0123288 -9.766323e-05 0)
(1.0116758 0.00012072521 0)
(1.0111103 0.00021195503 0)
(1.0106758 0.00019355133 0)
(1.0104161 8.3311454e-05 0)
(0.85860684 -0.00076451728 2.6167905e-24)
(0.85998185 -0.00018983232 4.3677933e-24)
(0.87064549 0.00047988577 1.1409222e-23)