/*--------------------------------*- C++ -*----------------------------------*\
| =========                 |                                                 |
| \\      /  F ield         | OpenFOAM: The Open Source CFD Toolbox           |
|  \\    /   O peration     | Version:  5.0                                   |
|   \\  /    A nd           | Web:      www.OpenFOAM.org                      |
|    \\/     M anipulation  |                                                 |
\*---------------------------------------------------------------------------*/
FoamFile
{
    version     2.0;
    format      ascii;
    class       volSymmTensorField;
    location    "200";
    object      UPrime2Mean;
}
// * * * * * * * * * * * * * * * * * * * * * * * * * * * * * * * * * * * * * //

dimensions      [0 2 -2 0 0 0 0];

internalField   nonuniform List<symmTensor> 
9520
(
(3.041946e-05 6.7155433e-07 0 2.2536817e-08 0 0)
(3.0876468e-05 1.9733258e-06 0 1.9410867e-07 0 0)
(2.6572391e-05 6.3801684e-07 0 2.3325956e-08 0 0)
(3.1707258e-05 3.1957728e-06 0 5.0650095e-07 0 0)
(2.7038779e-05 1.8775615e-06 0 2.0096206e-07 0 0)
(2.5060807e-05 6.3035238e-07 0 2.3929416e-08 0 0)
(3.2859184e-05 4.3433837e-06 0 9.303109e-07 0 0)
(2.7892463e-05 3.0481448e-06 0 5.2463913e-07 0 0)
(2.5527579e-05 1.8565245e-06 0 2.0622648e-07 0 0)
(2.2725027e-05 6.1569506e-07 0 2.5119777e-08 0 0)
(3.4289027e-05 5.4188115e-06 0 1.4401773e-06 0 0)
(2.9084235e-05 4.1568513e-06 0 9.6444859e-07 0 0)
(2.6381808e-05 3.0186646e-06 0 5.3879207e-07 0 0)
(2.3188051e-05 1.8159694e-06 0 2.1668213e-07 0 0)
(2.0971681e-05 6.0513403e-07 0 2.6257297e-08 0 0)
(3.5957974e-05 6.4216723e-06 0 2.0145505e-06 0 0)
(3.0575429e-05 5.2079165e-06 0 1.494627e-06 0 0)
(2.7576745e-05 4.1252892e-06 0 9.9134915e-07 0 0)
(2.4039574e-05 2.9601258e-06 0 5.6687329e-07 0 0)
(2.1429171e-05 1.7866641e-06 0 2.2662687e-07 0 0)
(1.9066378e-05 5.9331129e-07 0 2.7778362e-08 0 0)
(3.7827553e-05 7.3507808e-06 0 2.6353972e-06 0 0)
(3.2331628e-05 6.2019401e-06 0 2.0932664e-06 0 0)
(2.9075987e-05 5.1816811e-06 0 1.5378678e-06 0 0)
(2.5235441e-05 4.0590394e-06 0 1.0448231e-06 0 0)
(2.2271609e-05 2.9183806e-06 0 5.9363879e-07 0 0)
(1.951166e-05 1.7540586e-06 0 2.4001604e-07 0 0)
(1.7412761e-05 5.8032061e-07 0 2.9216641e-08 0 0)
(3.9859599e-05 8.2041474e-06 0 3.2880583e-06 0 0)
(3.4318685e-05 7.138202e-06 0 2.7422363e-06 0 0)
(3.0847249e-05 6.1889891e-06 0 2.1560169e-06 0 0)
(2.6742575e-05 5.1199821e-06 0 1.6243099e-06 0 0)
(2.3457636e-05 4.0132365e-06 0 1.0959962e-06 0 0)
(2.0333735e-05 2.8721216e-06 0 6.2985917e-07 0 0)
(1.7845851e-05 1.7176816e-06 0 2.5267349e-07 0 0)
(1.5756186e-05 5.6561604e-07 0 3.0881246e-08 0 0)
(4.2015568e-05 8.9781345e-06 0 3.9609076e-06 0 0)
(3.6503394e-05 8.0140936e-06 0 3.4267599e-06 0 0)
(3.2858256e-05 7.1468097e-06 0 2.8269045e-06 0 0)
(2.8532017e-05 6.1454365e-06 0 2.2829823e-06 0 0)
(2.4957235e-05 5.0801922e-06 0 1.7072908e-06 0 0)
(2.1494689e-05 3.962856e-06 0 1.1656831e-06 0 0)
(1.8646544e-05 2.8186763e-06 0 6.6420243e-07 0 0)
(1.6170786e-05 1.6762859e-06 0 2.6736421e-07 0 0)
(1.427396e-05 5.4772505e-07 0 3.2414805e-08 0 0)
(4.4258403e-05 9.6727513e-06 0 4.6452261e-06 0 0)
(3.8847457e-05 8.8257617e-06 0 4.134137e-06 0 0)
(3.5075141e-05 8.0532959e-06 0 3.5348492e-06 0 0)
(3.0574815e-05 7.135756e-06 0 3.0019503e-06 0 0)
(2.6744375e-05 6.1227786e-06 0 2.4049912e-06 0 0)
(2.2967805e-05 5.0369817e-06 0 1.8211125e-06 0 0)
(1.9779675e-05 3.9008004e-06 0 1.2320318e-06 0 0)
(1.693848e-05 2.7568859e-06 0 7.0420572e-07 0 0)
(1.4670526e-05 1.625222e-06 0 2.809078e-07 0 0)
(1.2839823e-05 5.2705495e-07 0 3.4036684e-08 0 0)
(4.6551761e-05 1.02797e-05 0 5.3354542e-06 0 0)
(4.1318852e-05 9.5718691e-06 0 4.8549717e-06 0 0)
(3.7465326e-05 8.9053158e-06 0 4.2686801e-06 0 0)
(3.2841724e-05 8.0889133e-06 0 3.7652735e-06 0 0)
(2.8792206e-05 7.1420828e-06 0 3.1700417e-06 0 0)
(2.4730656e-05 6.0995208e-06 0 2.5737499e-06 0 0)
(2.1221322e-05 4.9763027e-06 0 1.9300066e-06 0 0)
(1.8028047e-05 3.8268693e-06 0 1.3096223e-06 0 0)
(1.5405986e-05 2.6783868e-06 0 7.4119978e-07 0 0)
(1.3213948e-05 1.5656463e-06 0 2.9528717e-07 0 0)
(1.1555616e-05 5.0319995e-07 0 3.5466749e-08 0 0)
(4.8864152e-05 1.0814086e-05 0 6.0279166e-06 0 0)
(4.3884556e-05 1.0243055e-05 0 5.5841848e-06 0 0)
(3.9996358e-05 9.7003912e-06 0 5.0183464e-06 0 0)
(3.5300603e-05 9.0006228e-06 0 4.5590629e-06 0 0)
(3.1072325e-05 8.1365073e-06 0 3.9864509e-06 0 0)
(2.6759919e-05 7.1526579e-06 0 3.4046006e-06 0 0)
(2.295177e-05 6.0515488e-06 0 2.7359378e-06 0 0)
(1.941885e-05 4.8999532e-06 0 2.0579261e-06 0 0)
(1.6452137e-05 3.7282676e-06 0 1.3817449e-06 0 0)
(1.3908944e-05 2.5852169e-06 0 7.8069122e-07 0 0)
(1.1908222e-05 1.496193e-06 0 3.0799659e-07 0 0)
(1.0343842e-05 4.768622e-07 0 3.6854932e-08 0 0)
(5.1171022e-05 1.1249765e-05 0 6.7381667e-06 0 0)
(4.6534661e-05 1.0851787e-05 0 6.317886e-06 0 0)
(4.2630689e-05 1.043278e-05 0 5.7779524e-06 0 0)
(3.7919399e-05 9.8697947e-06 0 5.3742121e-06 0 0)
(3.355343e-05 9.1030702e-06 0 4.8411268e-06 0 0)
(2.9030877e-05 8.1953305e-06 0 4.2973465e-06 0 0)
(2.4950271e-05 7.129622e-06 0 3.6310446e-06 0 0)
(2.1094347e-05 5.983949e-06 0 2.9274933e-06 0 0)
(1.7790949e-05 4.7899228e-06 0 2.1776052e-06 0 0)
(1.4900137e-05 3.6079015e-06 0 1.4591517e-06 0 0)
(1.2564513e-05 2.474727e-06 0 8.1575162e-07 0 0)
(1.0672826e-05 1.4189162e-06 0 3.2041482e-07 0 0)
(9.267812e-06 4.485099e-07 0 3.797337e-08 0 0)
(5.3450209e-05 1.1636849e-05 0 7.432335e-06 0 0)
(4.9222778e-05 1.1363352e-05 0 7.0584094e-06 0 0)
(4.5334685e-05 1.1104706e-05 0 6.54159e-06 0 0)
(4.0678415e-05 1.0690257e-05 0 6.2022984e-06 0 0)
(3.6206888e-05 1.0039672e-05 0 5.7240212e-06 0 0)
(3.1516562e-05 9.2242995e-06 0 5.2381267e-06 0 0)
(2.7194156e-05 8.2101716e-06 0 4.5992664e-06 0 0)
(2.3037091e-05 7.0832294e-06 0 3.8999149e-06 0 0)
(1.9408111e-05 5.8723261e-06 0 3.1078945e-06 0 0)
(1.6172587e-05 4.6499314e-06 0 2.3066602e-06 0 0)
(1.3502638e-05 3.4616626e-06 0 1.528386e-06 0 0)
(1.1286329e-05 2.3503227e-06 0 8.5032896e-07 0 0)
(9.5749875e-06 1.3352577e-06 0 3.3047702e-07 0 0)
(8.2732361e-06 4.1853967e-07 0 3.8938258e-08 0 0)
(5.5671472e-05 1.1865808e-05 0 8.1828498e-06 0 0)
(5.1898163e-05 1.1833349e-05 0 7.8070956e-06 0 0)
(4.8064866e-05 1.1701283e-05 0 7.3243345e-06 0 0)
(4.3546032e-05 1.146724e-05 0 7.03843e-06 0 0)
(3.8990205e-05 1.0939426e-05 0 6.6284364e-06 0 0)
(3.4190333e-05 1.0237154e-05 0 6.2163806e-06 0 0)
(2.9657728e-05 9.2907843e-06 0 5.6272591e-06 0 0)
(2.5228626e-05 8.1984943e-06 0 4.9591108e-06 0 0)
(2.1288041e-05 6.9807218e-06 0 4.1548293e-06 0 0)
(1.7714273e-05 5.7212874e-06 0 3.3033664e-06 0 0)
(1.4710088e-05 4.4742228e-06 0 2.4232155e-06 0 0)
(1.2165514e-05 3.294133e-06 0 1.59731e-06 0 0)
(1.0148766e-05 2.2142604e-06 0 8.7861431e-07 0 0)
(8.5581935e-06 1.2464264e-06 0 3.3925899e-07 0 0)
(7.3995195e-06 3.8763948e-07 0 3.9583941e-08 0 0)
(5.7829769e-05 1.213131e-05 0 8.8941345e-06 0 0)
(5.4578309e-05 1.2171675e-05 0 8.6117023e-06 0 0)
(5.0823992e-05 1.2259249e-05 0 8.1067365e-06 0 0)
(4.6448821e-05 1.2168901e-05 0 7.8876996e-06 0 0)
(4.1884944e-05 1.1804085e-05 0 7.5495093e-06 0 0)
(3.7031348e-05 1.1226367e-05 0 7.2219313e-06 0 0)
(3.2313459e-05 1.0366502e-05 0 6.7044275e-06 0 0)
(2.7648416e-05 9.3278952e-06 0 6.0911631e-06 0 0)
(2.3413136e-05 8.1165219e-06 0 5.3027792e-06 0 0)
(1.951265e-05 6.8284514e-06 0 4.432362e-06 0 0)
(1.617703e-05 5.5232187e-06 0 3.4817407e-06 0 0)
(1.3300574e-05 4.2681853e-06 0 2.5401772e-06 0 0)
(1.0972619e-05 3.1083932e-06 0 1.6544517e-06 0 0)
(9.0912033e-06 2.0685746e-06 0 9.0374924e-07 0 0)
(7.6648018e-06 1.1546358e-06 0 3.4523036e-07 0 0)
(6.6078961e-06 3.557718e-07 0 4.0012437e-08 0 0)
(5.9894046e-05 1.2125765e-05 0 9.7642041e-06 0 0)
(5.7259715e-05 1.2543151e-05 0 9.4142723e-06 0 0)
(5.3612834e-05 1.2698843e-05 0 8.9428025e-06 0 0)
(4.9375128e-05 1.2829518e-05 0 8.7509276e-06 0 0)
(4.4845117e-05 1.2608994e-05 0 8.4951021e-06 0 0)
(3.9996118e-05 1.2190192e-05 0 8.2557278e-06 0 0)
(3.5137637e-05 1.1432055e-05 0 7.8237108e-06 0 0)
(3.0276336e-05 1.0468416e-05 0 7.2843971e-06 0 0)
(2.5762462e-05 9.2784467e-06 0 6.5379861e-06 0 0)
(2.1553505e-05 7.9741588e-06 0 5.6784611e-06 0 0)
(1.7892319e-05 6.6156589e-06 0 4.6882241e-06 0 0)
(1.4683976e-05 5.2839464e-06 0 3.6620366e-06 0 0)
(1.203884e-05 4.0357397e-06 0 2.6387817e-06 0 0)
(9.8585296e-06 2.9072445e-06 0 1.7061595e-06 0 0)
(8.161482e-06 1.917126e-06 0 9.2130523e-07 0 0)
(6.8539957e-06 1.0596929e-06 0 3.4933888e-07 0 0)
(5.9215842e-06 3.2371039e-07 0 4.0120597e-08 0 0)
(6.1854036e-05 1.2319924e-05 0 1.0597329e-05 0 0)
(5.9943518e-05 1.2643328e-05 0 1.0388331e-05 0 0)
(5.6434027e-05 1.3150018e-05 0 9.7735549e-06 0 0)
(5.2339797e-05 1.3388629e-05 0 9.6830735e-06 0 0)
(4.7864319e-05 1.337537e-05 0 9.4663251e-06 0 0)
(4.3048365e-05 1.3098045e-05 0 9.3205737e-06 0 0)
(3.8114953e-05 1.2484822e-05 0 8.9807407e-06 0 0)
(3.308656e-05 1.1613941e-05 0 8.5303325e-06 0 0)
(2.8315284e-05 1.0463669e-05 0 7.8489764e-06 0 0)
(2.3819997e-05 9.1586155e-06 0 7.027729e-06 0 0)
(1.9842052e-05 7.7545292e-06 0 6.0284323e-06 0 0)
(1.6306985e-05 6.3492607e-06 0 4.9487167e-06 0 0)
(1.3342004e-05 5.0081935e-06 0 3.816772e-06 0 0)
(1.0854559e-05 3.7803617e-06 0 2.7294981e-06 0 0)
(8.8776712e-06 2.6963343e-06 0 1.743467e-06 0 0)
(7.3151616e-06 1.7594674e-06 0 9.3407379e-07 0 0)
(6.1513179e-06 9.6408286e-07 0 3.5060856e-07 0 0)
(5.3135122e-06 2.9134726e-07 0 3.9989984e-08 0 0)
(6.3670795e-05 1.1975787e-05 0 1.1707631e-05 0 0)
(6.2682892e-05 1.295389e-05 0 1.1407474e-05 0 0)
(5.9300021e-05 1.3359794e-05 0 1.0810549e-05 0 0)
(5.5354705e-05 1.3944531e-05 0 1.0628416e-05 0 0)
(5.0967406e-05 1.4046995e-05 0 1.051397e-05 0 0)
(4.618178e-05 1.3969978e-05 0 1.0429533e-05 0 0)
(4.1208111e-05 1.3496395e-05 0 1.0181741e-05 0 0)
(3.6059138e-05 1.2759663e-05 0 9.8261175e-06 0 0)
(3.1054057e-05 1.1669201e-05 0 9.2262843e-06 0 0)
(2.629184e-05 1.0380063e-05 0 8.4677709e-06 0 0)
(2.200857e-05 8.940109e-06 0 7.4892058e-06 0 0)
(1.8158713e-05 7.4681737e-06 0 6.3872116e-06 0 0)
(1.4875259e-05 6.0340845e-06 0 5.1760071e-06 0 0)
(1.2075991e-05 4.700249e-06 0 3.9611738e-06 0 0)
(9.809273e-06 3.5095655e-06 0 2.7972881e-06 0 0)
(7.9819395e-06 2.4749034e-06 0 1.7721311e-06 0 0)
(6.5822158e-06 1.6001492e-06 0 9.3909011e-07 0 0)
(5.5279578e-06 8.6727037e-07 0 3.4980831e-07 0 0)
(4.7949475e-06 2.5958068e-07 0 3.9566645e-08 0 0)
(6.5126766e-05 1.2136224e-05 0 1.2936486e-05 0 0)
(6.5559798e-05 1.2572036e-05 0 1.2800566e-05 0 0)
(6.2250026e-05 1.3727292e-05 0 1.1896085e-05 0 0)
(5.8452891e-05 1.4290965e-05 0 1.1835717e-05 0 0)
(5.4140894e-05 1.4691815e-05 0 1.1611313e-05 0 0)
(4.945103e-05 1.4755343e-05 0 1.163288e-05 0 0)
(4.4410221e-05 1.4478284e-05 0 1.1442723e-05 0 0)
(3.9165283e-05 1.3881766e-05 0 1.1176921e-05 0 0)
(3.3961763e-05 1.2891905e-05 0 1.0665588e-05 0 0)
(2.8946077e-05 1.1634316e-05 0 9.9886304e-06 0 0)
(2.4374162e-05 1.0171469e-05 0 9.0586211e-06 0 0)
(2.022476e-05 8.6419207e-06 0 7.9651944e-06 0 0)
(1.6628994e-05 7.1176473e-06 0 6.7049629e-06 0 0)
(1.3517957e-05 5.6758678e-06 0 5.3908608e-06 0 0)
(1.0954524e-05 4.3692226e-06 0 4.072867e-06 0 0)
(8.8516906e-06 3.2224081e-06 0 2.8518502e-06 0 0)
(7.2062511e-06 2.2498944e-06 0 1.7858774e-06 0 0)
(5.9306484e-06 1.4379119e-06 0 9.3867922e-07 0 0)
(4.9970205e-06 7.7215738e-07 0 3.4641102e-07 0 0)
(4.347176e-06 2.2849572e-07 0 3.8907831e-08 0 0)
(6.635805e-05 1.1139695e-05 0 1.4417791e-05 0 0)
(6.8527468e-05 1.3097546e-05 0 1.4614593e-05 0 0)
(6.5515577e-05 1.3457726e-05 0 1.350549e-05 0 0)
(6.1742014e-05 1.4719406e-05 0 1.3144057e-05 0 0)
(5.7505107e-05 1.5141761e-05 0 1.3038706e-05 0 0)
(5.2850203e-05 1.5500969e-05 0 1.2932771e-05 0 0)
(4.778925e-05 1.5387295e-05 0 1.2821367e-05 0 0)
(4.2393217e-05 1.4982827e-05 0 1.2602045e-05 0 0)
(3.7012172e-05 1.4112175e-05 0 1.2170462e-05 0 0)
(3.1762873e-05 1.2919579e-05 0 1.1585401e-05 0 0)
(2.6917967e-05 1.1446005e-05 0 1.0727277e-05 0 0)
(2.2486862e-05 9.869037e-06 0 9.6713699e-06 0 0)
(1.8590146e-05 8.2601454e-06 0 8.3923777e-06 0 0)
(1.5173308e-05 6.7124485e-06 0 7.008717e-06 0 0)
(1.2310136e-05 5.2847706e-06 0 5.5622588e-06 0 0)
(9.9239673e-06 4.0144414e-06 0 4.1662256e-06 0 0)
(8.0217758e-06 2.9283995e-06 0 2.8823021e-06 0 0)
(6.5153866e-06 2.0189923e-06 0 1.7895464e-06 0 0)
(5.3770946e-06 1.2781972e-06 0 9.3110907e-07 0 0)
(4.5383201e-06 6.787082e-07 0 3.4096411e-07 0 0)
(3.9725545e-06 1.9895714e-07 0 3.8001211e-08 0 0)
(6.6010864e-05 1.123415e-05 0 1.6646348e-05 0 0)
(7.1756013e-05 1.1503922e-05 0 1.6915235e-05 0 0)
(6.889923e-05 1.3923301e-05 0 1.5646319e-05 0 0)
(6.5535326e-05 1.4612252e-05 0 1.5243785e-05 0 0)
(6.1205885e-05 1.5617972e-05 0 1.4686724e-05 0 0)
(5.6586568e-05 1.605173e-05 0 1.464078e-05 0 0)
(5.1406052e-05 1.6258757e-05 0 1.4348386e-05 0 0)
(4.5819088e-05 1.6028545e-05 0 1.4171197e-05 0 0)
(4.0191538e-05 1.5324966e-05 0 1.3762755e-05 0 0)
(3.4722649e-05 1.4219694e-05 0 1.3260331e-05 0 0)
(2.9620644e-05 1.2762352e-05 0 1.2490009e-05 0 0)
(2.4924442e-05 1.1145577e-05 0 1.1497257e-05 0 0)
(2.0744012e-05 9.4602811e-06 0 1.0228375e-05 0 0)
(1.7031933e-05 7.8120506e-06 0 8.8046665e-06 0 0)
(1.3870654e-05 6.2621586e-06 0 7.2574472e-06 0 0)
(1.1196715e-05 4.8609592e-06 0 5.7100217e-06 0 0)
(9.0288845e-06 3.6475915e-06 0 4.224596e-06 0 0)
(7.2816158e-06 2.6241713e-06 0 2.8969363e-06 0 0)
(5.9299448e-06 1.7908435e-06 0 1.7792175e-06 0 0)
(4.8985667e-06 1.120378e-06 0 9.1807233e-07 0 0)
(4.1555572e-06 5.8977999e-07 0 3.3329183e-07 0 0)
(3.6577866e-06 1.7114842e-07 0 3.6885613e-08 0 0)
(6.3794238e-05 8.7007712e-06 0 1.8442491e-05 0 0)
(7.3892136e-05 1.2664009e-05 0 2.0726659e-05 0 0)
(7.3414465e-05 1.2242316e-05 0 1.8709918e-05 0 0)
(6.985989e-05 1.499257e-05 0 1.8011152e-05 0 0)
(6.5665255e-05 1.5559009e-05 0 1.7385391e-05 0 0)
(6.0904913e-05 1.6587262e-05 0 1.6729014e-05 0 0)
(5.5485052e-05 1.6938415e-05 0 1.6376182e-05 0 0)
(4.9572276e-05 1.7047687e-05 0 1.5935823e-05 0 0)
(4.3567896e-05 1.6498694e-05 0 1.5519724e-05 0 0)
(3.781502e-05 1.5526201e-05 0 1.5038331e-05 0 0)
(3.2464522e-05 1.4105524e-05 0 1.435108e-05 0 0)
(2.7519694e-05 1.2468847e-05 0 1.343933e-05 0 0)
(2.3074361e-05 1.0714509e-05 0 1.2204846e-05 0 0)
(1.9081362e-05 8.9735258e-06 0 1.0769196e-05 0 0)
(1.5627801e-05 7.3043194e-06 0 9.1493683e-06 0 0)
(1.2665772e-05 5.768929e-06 0 7.4774256e-06 0 0)
(1.022648e-05 4.4176387e-06 0 5.8106655e-06 0 0)
(8.2301878e-06 3.264782e-06 0 4.2605571e-06 0 0)
(6.655595e-06 2.3218658e-06 0 2.8885185e-06 0 0)
(5.4240754e-06 1.5637489e-06 0 1.7585077e-06 0 0)
(4.5014485e-06 9.7000508e-07 0 8.9882572e-07 0 0)
(3.8343365e-06 5.0574948e-07 0 3.2379278e-07 0 0)
(3.3995996e-06 1.4564934e-07 0 3.5582409e-08 0 0)
(5.9160328e-05 7.673224e-06 0 2.2586228e-05 0 0)
(7.5617854e-05 8.1168128e-06 0 2.4556683e-05 0 0)
(7.7065539e-05 1.3436219e-05 0 2.3897358e-05 0 0)
(7.5927943e-05 1.3345123e-05 0 2.2540406e-05 0 0)
(7.1235892e-05 1.580204e-05 0 2.1139114e-05 0 0)
(6.6341437e-05 1.6571298e-05 0 2.0212568e-05 0 0)
(6.0428544e-05 1.7580534e-05 0 1.8972316e-05 0 0)
(5.390102e-05 1.7893374e-05 0 1.8300669e-05 0 0)
(4.732904e-05 1.7663711e-05 0 1.7516842e-05 0 0)
(4.1094778e-05 1.6805482e-05 0 1.7003601e-05 0 0)
(3.544355e-05 1.5463842e-05 0 1.6341168e-05 0 0)
(3.0259981e-05 1.3824204e-05 0 1.5506057e-05 0 0)
(2.55674e-05 1.2017697e-05 0 1.4320985e-05 0 0)
(2.1309508e-05 1.0192736e-05 0 1.2894202e-05 0 0)
(1.7572158e-05 8.4111793e-06 0 1.1228931e-05 0 0)
(1.4324559e-05 6.7426791e-06 0 9.4607936e-06 0 0)
(1.1611352e-05 5.2463559e-06 0 7.6373361e-06 0 0)
(9.3604044e-06 3.9508398e-06 0 5.8817982e-06 0 0)
(7.5551321e-06 2.8812869e-06 0 4.2623736e-06 0 0)
(6.115742e-06 2.0185632e-06 0 2.86333e-06 0 0)
(5.0070421e-06 1.3468436e-06 0 1.7254558e-06 0 0)
(4.1689564e-06 8.2707597e-07 0 8.745785e-07 0 0)
(3.5721879e-06 4.2860832e-07 0 3.1258132e-07 0 0)
(3.1883407e-06 1.2256155e-07 0 3.4127845e-08 0 0)
(5.7416352e-05 4.0917852e-06 0 2.5037849e-05 0 0)
(7.4856961e-05 8.2763534e-06 0 3.1944826e-05 0 0)
(8.191162e-05 7.911878e-06 0 3.0303903e-05 0 0)
(8.2437517e-05 1.4284088e-05 0 2.9771665e-05 0 0)
(7.946639e-05 1.406568e-05 0 2.758656e-05 0 0)
(7.3738302e-05 1.6674268e-05 0 2.5226519e-05 0 0)
(6.6930106e-05 1.7691822e-05 0 2.335857e-05 0 0)
(5.9346195e-05 1.8687119e-05 0 2.1439486e-05 0 0)
(5.1761957e-05 1.8677999e-05 0 2.0198882e-05 0 0)
(4.4793506e-05 1.8094371e-05 0 1.9258066e-05 0 0)
(3.8620752e-05 1.6802306e-05 0 1.8550342e-05 0 0)
(3.3145696e-05 1.5192738e-05 0 1.7733381e-05 0 0)
(2.8217257e-05 1.3355348e-05 0 1.6588585e-05 0 0)
(2.3707506e-05 1.1462962e-05 0 1.5179771e-05 0 0)
(1.969528e-05 9.5798883e-06 0 1.348753e-05 0 0)
(1.6165084e-05 7.7838831e-06 0 1.1651019e-05 0 0)
(1.317742e-05 6.1394822e-06 0 9.6987176e-06 0 0)
(1.0669298e-05 4.6907786e-06 0 7.7608085e-06 0 0)
(8.6284901e-06 3.4786259e-06 0 5.906137e-06 0 0)
(6.9753621e-06 2.4934114e-06 0 4.2397136e-06 0 0)
(5.6737673e-06 1.7275804e-06 0 2.817352e-06 0 0)
(4.6595349e-06 1.139156e-06 0 1.6826389e-06 0 0)
(3.9003278e-06 6.9580914e-07 0 8.4543812e-07 0 0)
(3.3586224e-06 3.5860229e-07 0 2.9998925e-07 0 0)
(3.0183626e-06 1.0207939e-07 0 3.2553993e-08 0 0)
(5.5283113e-05 3.9796995e-07 0 3.2065019e-05 0 0)
(8.1287761e-05 2.9667636e-07 0 3.8547192e-05 0 0)
(8.4526027e-05 7.8441495e-06 0 4.1185563e-05 0 0)
(9.15095e-05 8.0088486e-06 0 4.0436429e-05 0 0)
(9.0013513e-05 1.442502e-05 0 3.7814911e-05 0 0)
(8.4876065e-05 1.47875e-05 0 3.4131624e-05 0 0)
(7.6311676e-05 1.7776187e-05 0 2.9876432e-05 0 0)
(6.6797414e-05 1.8974027e-05 0 2.6805777e-05 0 0)
(5.754189e-05 1.9634674e-05 0 2.3856781e-05 0 0)
(4.9242894e-05 1.9259228e-05 0 2.2286997e-05 0 0)
(4.2241591e-05 1.8157797e-05 0 2.1123337e-05 0 0)
(3.6265898e-05 1.6542034e-05 0 2.0225998e-05 0 0)
(3.1034093e-05 1.4700438e-05 0 1.9049483e-05 0 0)
(2.6278977e-05 1.2770774e-05 0 1.7637975e-05 0 0)
(2.1993166e-05 1.0803859e-05 0 1.5923092e-05 0 0)
(1.8180732e-05 8.891386e-06 0 1.4038036e-05 0 0)
(1.4917307e-05 7.1007708e-06 0 1.1986445e-05 0 0)
(1.2150959e-05 5.4916919e-06 0 9.8944539e-06 0 0)
(9.8730742e-06 4.1224572e-06 0 7.8238561e-06 0 0)
(8.0030498e-06 2.9967261e-06 0 5.8972429e-06 0 0)
(6.5038329e-06 2.1186982e-06 0 4.185503e-06 0 0)
(5.3085272e-06 1.4467273e-06 0 2.7550766e-06 0 0)
(4.3826545e-06 9.4821727e-07 0 1.6298282e-06 0 0)
(3.6832007e-06 5.7612171e-07 0 8.1240329e-07 0 0)
(3.1882259e-06 2.9651367e-07 0 2.8629801e-07 0 0)
(2.8825956e-06 8.4158995e-08 0 3.089432e-08 0 0)
(6.2905381e-05 -1.4761673e-05 0 3.4884996e-05 0 0)
(8.5802453e-05 -8.022918e-07 0 5.2834337e-05 0 0)
(9.7231659e-05 -3.048835e-06 0 5.4421395e-05 0 0)
(9.9937978e-05 7.1006064e-06 0 5.6807742e-05 0 0)
(0.00010505921 7.2771952e-06 0 5.4190353e-05 0 0)
(0.00010091241 1.4303503e-05 0 4.8118101e-05 0 0)
(9.0727389e-05 1.597906e-05 0 4.1693801e-05 0 0)
(7.8035256e-05 1.9094141e-05 0 3.5016803e-05 0 0)
(6.57945e-05 2.009919e-05 0 3.0155393e-05 0 0)
(5.5261323e-05 2.0383089e-05 0 2.6502835e-05 0 0)
(4.6692797e-05 1.9402339e-05 0 2.4593041e-05 0 0)
(3.9871337e-05 1.7896775e-05 0 2.3170516e-05 0 0)
(3.4127407e-05 1.601976e-05 0 2.1823378e-05 0 0)
(2.9043029e-05 1.4084085e-05 0 2.0315367e-05 0 0)
(2.4476145e-05 1.2071406e-05 0 1.8547719e-05 0 0)
(2.0370658e-05 1.0061159e-05 0 1.6615964e-05 0 0)
(1.6824274e-05 8.1318525e-06 0 1.4489324e-05 0 0)
(1.3797392e-05 6.3595116e-06 0 1.2275885e-05 0 0)
(1.1282835e-05 4.8208558e-06 0 1.0016055e-05 0 0)
(9.1962127e-06 3.5367992e-06 0 7.8445945e-06 0 0)
(7.4981382e-06 2.5272536e-06 0 5.8438939e-06 0 0)
(6.1192775e-06 1.7541052e-06 0 4.106566e-06 0 0)
(5.0223641e-06 1.1877482e-06 0 2.6754437e-06 0 0)
(4.1617909e-06 7.7294391e-07 0 1.5690496e-06 0 0)
(3.5128922e-06 4.7004514e-07 0 7.7613327e-07 0 0)
(3.0533519e-06 2.4220013e-07 0 2.7181373e-07 0 0)
(2.7754322e-06 6.8723544e-08 0 2.9181014e-08 0 0)
(0.00010312123 -3.0976663e-05 0 4.5398923e-05 0 0)
(0.00011118749 -3.0523627e-05 0 6.1489478e-05 0 0)
(0.00010811843 -2.6797835e-06 0 7.6606623e-05 0 0)
(0.00012194751 -6.0686646e-06 0 7.9476319e-05 0 0)
(0.00012261989 4.7641735e-06 0 7.8959516e-05 0 0)
(0.00012412446 6.0775708e-06 0 7.1697475e-05 0 0)
(0.00011295666 1.4875634e-05 0 6.0306877e-05 0 0)
(9.571944e-05 1.7431571e-05 0 5.0146336e-05 0 0)
(7.8766034e-05 2.0283125e-05 0 4.0046425e-05 0 0)
(6.4214587e-05 2.1052976e-05 0 3.3786367e-05 0 0)
(5.2925212e-05 2.0614861e-05 0 2.9519837e-05 0 0)
(4.4423945e-05 1.9129528e-05 0 2.7153548e-05 0 0)
(3.7776026e-05 1.732723e-05 0 2.5133841e-05 0 0)
(3.2123995e-05 1.5366686e-05 0 2.333709e-05 0 0)
(2.7171315e-05 1.3349853e-05 0 2.1406344e-05 0 0)
(2.2748756e-05 1.1284046e-05 0 1.9393616e-05 0 0)
(1.8897512e-05 9.2321602e-06 0 1.7199101e-05 0 0)
(1.5600809e-05 7.2986759e-06 0 1.4894106e-05 0 0)
(1.2849251e-05 5.5812491e-06 0 1.2478964e-05 0 0)
(1.0548816e-05 4.1221139e-06 0 1.0086996e-05 0 0)
(8.6546587e-06 2.9605544e-06 0 7.8061968e-06 0 0)
(7.0931631e-06 2.0662939e-06 0 5.7555701e-06 0 0)
(5.8236209e-06 1.4159906e-06 0 4.000347e-06 0 0)
(4.7989098e-06 9.4819635e-07 0 2.5818959e-06 0 0)
(3.9931946e-06 6.1784116e-07 0 1.5013648e-06 0 0)
(3.3804527e-06 3.7707589e-07 0 7.3748885e-07 0 0)
(2.9482841e-06 1.9553492e-07 0 2.568153e-07 0 0)
(2.6915921e-06 5.5618155e-08 0 2.7444076e-08 0 0)
(0.00019067144 -4.7449375e-05 0 4.9861107e-05 0 0)
(0.00016556346 -5.4213839e-05 0 8.5531811e-05 0 0)
(0.00014587994 -4.5766947e-05 0 9.9033142e-05 0 0)
(0.00014495867 -4.6521278e-06 0 0.00011451493 0 0)
(0.00015739608 -1.054764e-05 0 0.00011414757 0 0)
(0.00015465625 1.3340795e-06 0 0.00010732523 0 0)
(0.00014593305 6.0344216e-06 0 9.2413087e-05 0 0)
(0.00012414431 1.5690757e-05 0 7.4136725e-05 0 0)
(9.9811718e-05 1.8728542e-05 0 5.8426002e-05 0 0)
(7.8813298e-05 2.142854e-05 0 4.5459405e-05 0 0)
(6.2544007e-05 2.1394747e-05 0 3.8024849e-05 0 0)
(5.0994113e-05 2.0302059e-05 0 3.2896663e-05 0 0)
(4.2520615e-05 1.8495307e-05 0 2.9616218e-05 0 0)
(3.5835819e-05 1.6624738e-05 0 2.6956769e-05 0 0)
(3.0205732e-05 1.4600993e-05 0 2.4624127e-05 0 0)
(2.5347777e-05 1.2532447e-05 0 2.2408346e-05 0 0)
(2.1151402e-05 1.0397359e-05 0 2.0117736e-05 0 0)
(1.7558347e-05 8.3130303e-06 0 1.7739351e-05 0 0)
(1.4562399e-05 6.410181e-06 0 1.520402e-05 0 0)
(1.2051891e-05 4.7611808e-06 0 1.2625217e-05 0 0)
(9.9676348e-06 3.4267859e-06 0 1.0083162e-05 0 0)
(8.2286101e-06 2.3892843e-06 0 7.7211346e-06 0 0)
(6.7889454e-06 1.6357985e-06 0 5.6272569e-06 0 0)
(5.6004829e-06 1.1008509e-06 0 3.8719459e-06 0 0)
(4.6347088e-06 7.3615161e-07 0 2.4757912e-06 0 0)
(3.8660282e-06 4.8133858e-07 0 1.4284528e-06 0 0)
(3.2801532e-06 2.9743828e-07 0 6.972235e-07 0 0)
(2.8673804e-06 1.5606266e-07 0 2.4158115e-07 0 0)
(2.6265897e-06 4.4672523e-08 0 2.5709954e-08 0 0)
(0.00034231757 -6.5740935e-05 0 6.0838634e-05 0 0)
(0.00026112207 -8.5655428e-05 0 0.00010351359 0 0)
(0.00021417794 -8.0753678e-05 0 0.00013717003 0 0)
(0.00019742579 -6.0288064e-05 0 0.00015654446 0 0)
(0.00020093855 -8.6881084e-06 0 0.00016958123 0 0)
(0.00020723261 -1.6386921e-05 0 0.00015852733 0 0)
(0.00019193086 -7.2887509e-07 0 0.0001415596 0 0)
(0.00016764507 6.1180319e-06 0 0.00011626794 0 0)
(0.00013470954 1.638773e-05 0 8.7933215e-05 0 0)
(0.00010321734 2.0178079e-05 0 6.7190404e-05 0 0)
(7.869971e-05 2.1890416e-05 0 5.1873617e-05 0 0)
(6.146078e-05 2.1004243e-05 0 4.2757206e-05 0 0)
(4.9565256e-05 1.9567958e-05 0 3.6141612e-05 0 0)
(4.0787057e-05 1.7735564e-05 0 3.1847805e-05 0 0)
(3.3927238e-05 1.5824413e-05 0 2.8472871e-05 0 0)
(2.8288799e-05 1.3767145e-05 0 2.5781252e-05 0 0)
(2.3620908e-05 1.1607659e-05 0 2.3276475e-05 0 0)
(1.9681124e-05 9.4033492e-06 0 2.0809523e-05 0 0)
(1.6416581e-05 7.3148531e-06 0 1.8183144e-05 0 0)
(1.369533e-05 5.4627839e-06 0 1.5455157e-05 0 0)
(1.1428389e-05 3.9346108e-06 0 1.2681321e-05 0 0)
(9.5205978e-06 2.7304656e-06 0 1.0020083e-05 0 0)
(7.9179514e-06 1.8510272e-06 0 7.580498e-06 0 0)
(6.570148e-06 1.2309399e-06 0 5.465854e-06 0 0)
(5.4446462e-06 8.2093058e-07 0 3.7227829e-06 0 0)
(4.5172924e-06 5.4845868e-07 0 2.3599473e-06 0 0)
(3.7745892e-06 3.649438e-07 0 1.3517875e-06 0 0)
(3.2055635e-06 2.3028976e-07 0 6.5609635e-07 0 0)
(2.8058492e-06 1.2328304e-07 0 2.263459e-07 0 0)
(2.5765469e-06 3.5697963e-08 0 2.400051e-08 0 0)
(0.0005935703 -8.1778326e-05 -1.6647014e-26 6.8913458e-05 6.4798524e-26 1.2416725e-46)
(0.00042186697 -0.00011353403 0 0.0001322121 0 0)
(0.00031945884 -0.00012681397 0 0.0001765383 0 0)
(0.00028292702 -0.00011063546 0 0.00021467828 0 0)
(0.00027294784 -7.5952519e-05 0 0.00023860931 0 0)
(0.00028171929 -1.3844123e-05 0 0.00024131543 0 0)
(0.00026628988 -2.0455632e-05 0 0.00021289634 0 0)
(0.00023087226 -3.2133821e-06 0 0.0001810653 0 0)
(0.00018977075 6.1098453e-06 0 0.00014033955 0 0)
(0.00014460669 1.7798115e-05 0 0.00010257042 0 0)
(0.00010633942 2.0810373e-05 0 7.7538335e-05 0 0)
(7.9414848e-05 2.1348261e-05 0 5.8975291e-05 0 0)
(6.1043863e-05 2.0132451e-05 0 4.7272257e-05 0 0)
(4.8301308e-05 1.8731352e-05 0 3.9018363e-05 0 0)
(3.8995221e-05 1.6905547e-05 0 3.3649191e-05 0 0)
(3.1943681e-05 1.4984019e-05 0 2.978712e-05 0 0)
(2.6419037e-05 1.2826734e-05 0 2.6788907e-05 0 0)
(2.2006126e-05 1.055869e-05 0 2.4131662e-05 0 0)
(1.8419148e-05 8.3006523e-06 0 2.1415202e-05 0 0)
(1.5471317e-05 6.2351026e-06 0 1.8572846e-05 0 0)
(1.3026909e-05 4.4930671e-06 0 1.5602561e-05 0 0)
(1.0961402e-05 3.0981965e-06 0 1.2665619e-05 0 0)
(9.2067503e-06 2.0675284e-06 0 9.8832308e-06 0 0)
(7.7084804e-06 1.339991e-06 0 7.3931673e-06 0 0)
(6.4282952e-06 8.6934648e-07 0 5.2723973e-06 0 0)
(5.3437685e-06 5.7154282e-07 0 3.5569117e-06 0 0)
(4.4404742e-06 3.8895013e-07 0 2.2369913e-06 0 0)
(3.7110265e-06 2.6685935e-07 0 1.2731751e-06 0 0)
(3.1513931e-06 1.7491269e-07 0 6.1488539e-07 0 0)
(2.7595337e-06 9.6602488e-08 0 2.1130995e-07 0 0)
(2.538147e-06 2.8505096e-08 0 2.2333814e-08 0 0)
(0.00095063777 -9.7775769e-05 1.3258423e-26 8.257748e-05 -1.0263033e-25 3.7519096e-46)
(0.00067628261 -0.00014475629 6.6946995e-26 0.00016269192 6.6895198e-27 1.3559686e-46)
(0.00048530013 -0.00016310642 0 0.00022429424 0 0)
(0.00039860862 -0.00017442277 0 0.00028365642 0 0)
(0.00038091214 -0.00014931559 0 0.0003288479 0 0)
(0.00038153688 -9.1627869e-05 0 0.00034639023 0 0)
(0.00038227736 -1.4702546e-05 0 0.00032987721 0 0)
(0.0003292011 -2.6304154e-05 0 0.00027799061 0 0)
(0.00027279776 -5.9454344e-06 0 0.00022117166 0 0)
(0.00021150767 7.7813129e-06 0 0.00016564555 0 0)
(0.00015394077 1.8449871e-05 0 0.00011979375 0 0)
(0.00011060573 2.0007969e-05 0 8.8855434e-05 0 0)
(8.1040106e-05 2.02785e-05 0 6.569722e-05 0 0)
(6.0748198e-05 1.9220924e-05 0 5.1206952e-05 0 0)
(4.6824848e-05 1.7861651e-05 0 4.1281155e-05 0 0)
(3.7011764e-05 1.6077358e-05 0 3.5126825e-05 0 0)
(2.9924228e-05 1.4055446e-05 0 3.0927888e-05 0 0)
(2.4639048e-05 1.1748323e-05 0 2.7812944e-05 0 0)
(2.0607365e-05 9.3651374e-06 0 2.4927033e-05 0 0)
(1.7383784e-05 7.0866735e-06 0 2.1981389e-05 0 0)
(1.4756775e-05 5.1120859e-06 0 1.8849852e-05 0 0)
(1.2542611e-05 3.5019358e-06 0 1.5667164e-05 0 0)
(1.0649229e-05 2.2927479e-06 0 1.2555826e-05 0 0)
(9.0129623e-06 1.4319143e-06 0 9.6834932e-06 0 0)
(7.5882145e-06 8.7983781e-07 0 7.1587976e-06 0 0)
(6.3529237e-06 5.4451701e-07 0 5.0521964e-06 0 0)
(5.2891638e-06 3.5979214e-07 0 3.3781618e-06 0 0)
(4.3950685e-06 2.5432051e-07 0 2.1087681e-06 0 0)
(3.6698726e-06 1.8677448e-07 0 1.1937513e-06 0 0)
(3.1130584e-06 1.3034126e-07 0 5.7408781e-07 0 0)
(2.7249299e-06 7.5429624e-08 0 1.9662584e-07 0 0)
(2.5086202e-06 2.2908476e-08 0 2.072332e-08 0 0)
(0.0014450072 -0.00010502528 2.9604401e-27 9.6562608e-05 1.1047435e-25 3.7814726e-46)
(0.0010246735 -0.00017213235 -1.2550245e-25 0.00020405597 -7.1602874e-27 8.466329e-46)
(0.00074391008 -0.00020773903 0 0.00028400375 0 0)
(0.00056979028 -0.00021981533 0 0.00035919303 0 0)
(0.00051084296 -0.00023660149 0 0.00043972958 0 0)
(0.00051343871 -0.00019283611 0 0.0004818675 0 0)
(0.00051921064 -9.9432259e-05 0 0.00048213251 0 0)
(0.00049017538 -1.8080603e-05 0 0.0004335834 0 0)
(0.00039866335 -3.3180144e-05 0 0.00034657393 0 0)
(0.00031545966 -5.9291504e-06 0 0.00026331684 0 0)
(0.00023223384 8.7199257e-06 0 0.00019497204 0 0)
(0.00016481894 1.7157329e-05 0 0.00013833959 0 0)
(0.00011612315 1.8659113e-05 0 9.9479099e-05 0 0)
(8.2623482e-05 1.9306429e-05 0 7.1523637e-05 0 0)
(5.9973198e-05 1.8318474e-05 0 5.4257686e-05 0 0)
(4.4984564e-05 1.7047019e-05 0 4.3018148e-05 0 0)
(3.4869829e-05 1.5202391e-05 0 3.6380342e-05 0 0)
(2.7947609e-05 1.2982853e-05 0 3.2131491e-05 0 0)
(2.3084406e-05 1.0480777e-05 0 2.8828373e-05 0 0)
(1.9470287e-05 8.0192939e-06 0 2.5716361e-05 0 0)
(1.6622392e-05 5.7994964e-06 0 2.2433637e-05 0 0)
(1.4259611e-05 3.9510554e-06 0 1.9034606e-05 0 0)
(1.2239297e-05 2.5355858e-06 0 1.5615399e-05 0 0)
(1.0478993e-05 1.5127637e-06 0 1.2364787e-05 0 0)
(8.9235409e-06 8.5366818e-07 0 9.4177532e-06 0 0)
(7.5488397e-06 4.6265969e-07 0 6.8843366e-06 0 0)
(6.3303474e-06 2.6798664e-07 0 4.8105963e-06 0 0)
(5.2718425e-06 1.8052104e-07 0 3.18941e-06 0 0)
(4.3747273e-06 1.4560836e-07 0 1.9784861e-06 0 0)
(3.6455697e-06 1.2294357e-07 0 1.1146014e-06 0 0)
(3.0866613e-06 9.5520791e-08 0 5.3412066e-07 0 0)
(2.699046e-06 5.9191277e-08 0 1.8243149e-07 0 0)
(2.4856513e-06 1.8740077e-08 0 1.9180158e-08 0 0)
(0.0020715232 -0.00011005974 0 0.00011295287 0 0)
(0.0014987711 -0.00019152852 7.1630662e-26 0.00025138989 2.8016931e-26 8.4927732e-46)
(0.0010844333 -0.00024260222 0 0.0003540261 0 0)
(0.00083057588 -0.00027880475 0 0.00045963602 0 0)
(0.00069008711 -0.00029540244 0 0.00055665491 0 0)
(0.00066095973 -0.00031059057 0 0.00064713687 0 0)
(0.00067238505 -0.00022691138 0 0.00067959612 0 0)
(0.0006775917 -0.00010668645 0 0.00064846107 0 0)
(0.00060701583 -2.5572928e-05 0 0.00053965822 0 0)
(0.00047102744 -3.5234774e-05 0 0.00041999658 0 0)
(0.00035653227 -6.7858705e-06 0 0.00031196837 0 0)
(0.00025506889 6.8076877e-06 0 0.0002259967 0 0)
(0.00017745465 1.5444173e-05 0 0.00015564167 0 0)
(0.00012124671 1.7698462e-05 0 0.00010875867 0 0)
(8.3276696e-05 1.8369356e-05 0 7.6091343e-05 0 0)
(5.8585933e-05 1.753064e-05 0 5.6438037e-05 0 0)
(4.2810652e-05 1.6269424e-05 0 4.4430174e-05 0 0)
(3.2683753e-05 1.419472e-05 0 3.776714e-05 0 0)
(2.6200274e-05 1.1665506e-05 0 3.3413139e-05 0 0)