/*--------------------------------*- C++ -*----------------------------------*\
| =========                 |                                                 |
| \\      /  F ield         | OpenFOAM: The Open Source CFD Toolbox           |
|  \\    /   O peration     | Version:  5.0                                   |
|   \\  /    A nd           | Web:      www.OpenFOAM.org                      |
|    \\/     M anipulation  |                                                 |
\*---------------------------------------------------------------------------*/
FoamFile
{
    version     2.0;
    format      ascii;
    class       volScalarField;
    location    "40";
    object      p;
}
// * * * * * * * * * * * * * * * * * * * * * * * * * * * * * * * * * * * * * //

dimensions      [0 2 -2 0 0 0 0];

internalField   nonuniform List<scalar> 
9200
(
-0.00049531846
-0.00047735131
-0.0012467233
-0.00045748818
-0.0012022688
-0.0021256984
-0.00042645417
-0.0011458534
-0.0020559755
-0.0029741706
-0.00038607389
-0.0010637984
-0.0019596128
-0.0028829901
-0.003874718
-0.00034430404
-0.00095827704
-0.0018231715
-0.0027498481
-0.0037636655
-0.0047986128
-0.00029455334
-0.00084511336
-0.0016482744
-0.0025647173
-0.0035939524
-0.0046716994
-0.0057596554
-0.00024482722
-0.00071492214
-0.001457081
-0.0023264848
-0.0033608863
-0.0044699512
-0.005620044
-0.0067540814
-0.00019158927
-0.00058123475
-0.0012395155
-0.0020634031
-0.0030596845
-0.0041957335
-0.0053892659
-0.0066052067
-0.0077786079
-0.00013878389
-0.00044028625
-0.0010131958
-0.001764531
-0.00272538
-0.0038376919
-0.0050782422
-0.0063489678
-0.0076246397
-0.0088322002
-8.5878458e-05
-0.00029872851
-0.00077574186
-0.0014509768
-0.0023453011
-0.0034367499
-0.0046677618
-0.0060065228
-0.007348307
-0.008678664
-0.0099107467
-3.4408927e-05
-0.00015705771
-0.00053615123
-0.0011215162
-0.0019435206
-0.0029782306
-0.0042040879
-0.0055494516
-0.0069824797
-0.008389506
-0.0097635376
-0.011011287
1.560467e-05
-1.8503936e-05
-0.00029635106
-0.00078712784
-0.0015194969
-0.0024891836
-0.003670383
-0.0050299075
-0.0064878898
-0.0080105413
-0.0094700799
-0.010877127
-0.012126861
6.3824075e-05
0.00011593752
-6.0882454e-05
-0.00045107239
-0.0010860337
-0.0019700149
-0.0030966163
-0.0044275884
-0.0059216735
-0.0074895144
-0.0090898315
-0.010589248
-0.012012039
-0.013250777
0.00010975551
0.00024455317
0.00016737201
-0.00011886231
-0.00064822077
-0.0014360556
-0.0024841022
-0.0037744953
-0.0052591337
-0.0068880612
-0.008555781
-0.010221658
-0.011739305
-0.013161915
-0.014373777
0.00015297003
0.00036690372
0.00038626693
0.00020589842
-0.00021424053
-0.00089486004
-0.0018501496
-0.0030717976
-0.0045334219
-0.0061762302
-0.0079332795
-0.0096905286
-0.011398296
-0.012914287
-0.014316917
-0.015487035
0.00019348731
0.00048297227
0.00059497426
0.00051876854
0.00020985007
-0.00035638424
-0.0012033978
-0.0023377455
-0.0037449835
-0.0053875159
-0.0071860878
-0.0090641449
-0.010887062
-0.012614416
-0.014104047
-0.015468287
-0.016581371
0.00023137185
0.00059203948
0.00079189039
0.00081601201
0.00061883189
0.00017247305
-0.00055478355
-0.0015820997
-0.0029130871
-0.0045212459
-0.0063472895
-0.0082989994
-0.010275843
-0.012141131
-0.01385967
-0.015299969
-0.016606278
-0.017645865
0.00026665312
0.00069359993
0.00097586281
0.0010955296
0.0010090711
0.00068582294
8.730928e-05
-0.00081784725
-0.0020490606
-0.0035972927
-0.005414335
-0.0074265409
-0.0095129909
-0.011566073
-0.013442703
-0.015125632
-0.016491781
-0.01771992
-0.018675915
0.00029941884
0.00078735008
0.0011463795
0.0013565005
0.0013782471
0.0011790114
0.00071485147
-5.6028803e-05
-0.0011680553
-0.0026279535
-0.0044065847
-0.0064412868
-0.0086272052
-0.010828651
-0.012925588
-0.014783978
-0.016401328
-0.017668808
-0.018802612
-0.019659874
0.0003298155
0.00087326779
0.0013034601
0.0015987081
0.0017248164
0.001648171
0.0013209408
0.00069284387
-0.00028315278
-0.0016294904
-0.0033362378
-0.0053612139
-0.0076091457
-0.0099536481
-0.012238462
-0.014347884
-0.016153782
-0.017675989
-0.018821826
-0.019842354
-0.020593234
0.0003580733
0.00095160645
0.0014474511
0.0018222535
0.0020477993
0.0020903944
0.0019000121
0.0014200787
0.00059351242
-0.00061636995
-0.0022203307
-0.0041979979
-0.0064742774
-0.0089267025
-0.011401227
-0.013737986
-0.015821943
-0.017540774
-0.018938313
-0.019938297
-0.020835041
-0.0214681
0.00038447714
0.0010227936
0.0015788917
0.0020275079
0.0023467876
0.0025038401
0.0024480625
0.0021188107
0.0014516481
0.00039740561
-0.0010749749
-0.002969113
-0.0052327819
-0.0077596889
-0.010393557
-0.012968496
-0.01531714
-0.017336536
-0.018932151
-0.020175232
-0.021013708
-0.021770612
-0.022279812
0.00040932036
0.0010873425
0.0016984535
0.0022150679
0.0026219008
0.0028876115
0.0029624984
0.0027838828
0.0022825879
0.0013990916
8.3363105e-05
-0.0016922469
-0.0039018763
-0.0064601843
-0.0092223874
-0.012012152
-0.014647468
-0.016965611
-0.018877666
-0.020314229
-0.021377729
-0.022035232
-0.022643694
-0.023024246
0.0004329158
0.0011458035
0.0018068975
0.0023857107
0.0028736782
0.0032415927
0.0034418819
0.0034115996
0.0030792496
0.0023772939
0.001239015
-0.00038611546
-0.0024999735
-0.0050437731
-0.0078911499
-0.010869789
-0.013778202
-0.016429822
-0.018668792
-0.020430084
-0.021673939
-0.022532105
-0.022996971
-0.02344924
-0.023698569
0.00045571867
0.0011987096
0.0019050513
0.0025403302
0.003103001
0.0035662548
0.0038857213
0.0039995409
0.0038361241
0.0033223091
0.002377645
0.00093100228
-0.0010472304
-0.0035283395
-0.006412344
-0.0095393946
-0.012703079
-0.015686686
-0.018301257
-0.020410265
-0.02197789
-0.022996402
-0.023632588
-0.023891705
-0.024183693
-0.024301266
0.00047833562
0.001246585
0.0019937594
0.0026799134
0.0033109744
0.0038625352
0.0042942718
0.0045464349
0.0045492611
0.0042263442
0.0034868105
0.0022420084
0.00043595844
-0.0019346035
-0.0048021119
-0.0080290049
-0.01141342
-0.014722115
-0.017724984
-0.020244978
-0.022171494
-0.02350386
-0.024270808
-0.024666667
-0.024714472
-0.024844702
-0.024832252
0.00050113969
0.0012899868
0.0020739038
0.0028054648
0.0034988783
0.0041316868
0.0046684107
0.0050519798
0.0052161962
0.0050835583
0.0045562123
0.0035315572
0.0019297138
-0.0002847413
-0.0030808699
-0.0063516939
-0.0099113092
-0.013519665
-0.016917676
-0.019877045
-0.022240254
-0.023932149
-0.024992222
-0.02548238
-0.025628077
-0.025461387
-0.025431186
-0.025291987
0.00052468632
0.0013295667
0.0021462046
0.0029180387
0.0036680465
0.0043752264
0.005009454
0.0055167216
0.0058357518
0.005889954
0.0055777176
0.0047863252
0.0034153175
0.0013984795
-0.0012719796
-0.0045262638
-0.0082050279
-0.012073934
-0.015854349
-0.019276032
-0.022120847
-0.02426377
-0.025672227
-0.026426108
-0.026624051
-0.026510433
-0.026129932
-0.025942966
-0.025680092
0.00055067962
0.0013661815
0.002211262
0.0030186413
0.0038199139
0.0045947684
0.0053190935
0.0059418278
0.0064078742
0.0066431344
0.0065452684
0.0059951652
0.0048757169
0.0030926455
0.00059938687
-0.0025759242
-0.0063098308
-0.010386517
-0.014520826
-0.018408079
-0.021775308
-0.024430701
-0.026291098
-0.027370556
-0.027792367
-0.027683644
-0.027309405
-0.026718766
-0.026380438
-0.025996257
0.00058064167
0.0013985318
0.0022693532
0.0031082704
0.0039558645
0.0047920954
0.0055991724
0.0063290156
0.0069333482
0.0073421327
0.0074546858
0.0071491782
0.0062959896
0.0047765807
0.002507517
-0.00052698935
-0.0042468292
-0.008467008
-0.012910302
-0.017249386
-0.021161189
-0.02438855
-0.026777825
-0.028295982
-0.029008374
-0.02907595
-0.028655433
-0.028021881
-0.027227732
-0.026744954
-0.026245426
0.00062103938
0.0014230733
0.0023215574
0.0031877459
0.0040773347
0.0049689201
0.0058517713
0.0066802714
0.0074137128
0.007987084
0.0083035553
0.0082416603
0.0076636587
0.0064311436
0.0044273136
0.0015925073
-0.0020417681
-0.0063323117
-0.011024674
-0.015783421
-0.020244841
-0.024087153
-0.027083192
-0.029130584
-0.030253664
-0.030566473
-0.030267748
-0.029532739
-0.028646306
-0.027657887
-0.02703987
-0.026440696
0.00067367354
0.00144132
0.0023646125
0.0032584071
0.0041854128
0.0051271585
0.0060788494
0.0069979736
0.0078509006
0.0085791487
0.0090908915
0.0092680827
0.0089687936
0.0080397331
0.0063353098
0.0037540695
0.00027627029
-0.0040056714
-0.0088744129
-0.014002578
-0.018999204
-0.023483405
-0.027150823
-0.029822319
-0.031457457
-0.032138847
-0.032029738
-0.03135645
-0.030312524
-0.029182501
-0.028011337
-0.02727018
-0.0265895
0.00073947289
0.0014543478
0.0024019521
0.0033137989
0.0042818972
0.0052681905
0.0062827128
0.0072843753
0.0082474152
0.009120063
0.0098170973
0.01022575
0.010204074
0.0095885281
0.0082103315
0.0059299417
0.0026761774
-0.0015155482
-0.0064779246
-0.011908633
-0.017405707
-0.022539572
-0.026929346
-0.030310655
-0.032567085
-0.033725798
-0.033929854
-0.03338319
-0.032337355
-0.030992447
-0.02963152
-0.02829075
-0.027438816
-0.026667782
0.0008194301
0.0014626655
0.0024391117
0.0033576995
0.0043563601
0.0053947008
0.0064648209
0.0075423431
0.0086056078
0.0096123863
0.010483406
0.011113806
0.011364441
0.011066665
0.010033947
0.0080939996
0.0051262618
0.001105726
-0.0038606921
-0.0095125046
-0.015455323
-0.021225313
-0.026371101
-0.030537838
-0.03352033
-0.035276436
-0.035906011
-0.035605828
-0.034616988
-0.033204114
-0.031572487
-0.029995374
-0.028498993
-0.027543763
-0.026666754
0.00091595065
0.0014692514
0.0024776123
0.0033977006
0.0044141984
0.0054915625
0.0066286192
0.0077734537
0.0089288489
0.010058461
0.011092245
0.01193255
0.012447177
0.012465938
0.01179085
0.010222535
0.0075954259
0.0038235938
-0.0010540217
-0.0068338195
-0.013148818
-0.019519302
-0.02543412
-0.030447889
-0.034255569
-0.036729575
-0.03791128
-0.0379694
-0.037150816
-0.035721603
-0.03395577
-0.032053621
-0.030276902
-0.028639489
-0.02758556
-0.026612041
0.00103589
0.0014737839
0.002517023
0.0034329546
0.0044676354
0.0055666211
0.0067526067
0.0079823598
0.0092187154
0.010462168
0.011645789
0.012683969
0.013451085
0.013781015
0.013468695
0.012294924
0.010054345
0.0066026601
0.0019066219
-0.003899967
-0.010496897
-0.017409973
-0.024084207
-0.029988358
-0.034710959
-0.038022663
-0.039888244
-0.040433153
-0.039892396
-0.03855059
-0.036692857
-0.034590831
-0.03243839
-0.030479788
-0.028716666
-0.027570301
-0.026523396
0.001183233
0.0014764562
0.0025561957
0.0034619202
0.0045176346
0.0056377581
0.0068470757
0.008139591
0.0094815132
0.010824763
0.012148468
0.013369798
0.014377232
0.015008487
0.015058552
0.014293676
0.012476435
0.0094082197
0.0049830442
-0.0007446413
-0.0075197641
-0.01489631
-0.02229608
-0.029112698
-0.03482577
-0.039091091
-0.041776551
-0.042946031
-0.042808735
-0.041653912
-0.039796204
-0.037526842
-0.0351116
-0.032730268
-0.030608472
-0.028735525
-0.027506466
-0.026411125
0.0013504873
0.0014813291
0.0025947497
0.0034845546
0.0045650311
0.0057059625
0.0069355049
0.0082589299
0.0096771961
0.011154561
0.012601007
0.013994972
0.015226461
0.016147909
0.016553814
0.016205175
0.01483817
0.012207485
0.0081361187
0.0025934479
-0.0042460581
-0.011987999
-0.020054776
-0.027781644
-0.034542872
-0.03986895
-0.043512341
-0.045452956
-0.045857357
-0.045007811
-0.043238904
-0.040880784
-0.03822443
-0.035520533
-0.032933832
-0.030667953
-0.028700475
-0.027403929
-0.026274632
0.0014872419
0.0014881231
0.0026302792
0.0035021422
0.0046094928
0.0057695508
0.0070185357
0.0083717155
0.0098242587
0.011398242
0.013014263
0.014559268
0.016003983
0.01719866
0.017951687
0.018018475
0.017120172
0.014970237
0.011327208
0.0060725552
-0.00071187833
-0.0087049111
-0.01735642
-0.025965117
-0.03381014
-0.040291473
-0.045028311
-0.047894421
-0.048991218
-0.048580171
-0.04700714
-0.044635552
-0.041802252
-0.038786775
-0.035822506
-0.033054206
-0.030663656
-0.028614734
-0.027268189
-0.02611167
0.0014930783
0.0014860826
0.0026581805
0.0035152879
0.0046492809
0.0058254372
0.0070961646
0.0084792619
0.0099631822
0.011579776
0.013318598
0.015077033
0.016707949
0.018165951
0.019249231
0.019727387
0.019305931
0.017670335
0.014519225
0.0096493996
0.0030412399
-0.0050766265
-0.014208355
-0.023643543
-0.032582674
-0.040296255
-0.046255988
-0.050205824
-0.052158549
-0.052334256
-0.051080299
-0.048787946
-0.045837893
-0.042560407
-0.039218738
-0.03602249
-0.033097042
-0.030601263
-0.028482755
-0.027091959
-0.025918498
0.0026742591
0.0014927844
0.0013455816
0.0035240524
0.0046827461
0.0058719918
0.0071684176
0.0085792431
0.010095787
0.011751223
0.013544347
0.015458434
0.017357129
0.019045402
0.020451216
0.021325509
0.021384687
0.02028443
0.01767859
0.013280679
0.0069676931
-0.0011405756
-0.010629338
-0.020808641
-0.030824515
-0.039825578
-0.047126603
-0.052319509
-0.055301477
-0.056228933
-0.055433584
-0.053329442
-0.050338719
-0.04684305
-0.043158981
-0.039525093
-0.036127065
-0.033067926
-0.030485994
-0.028314415
-0.026883861
-0.025700904
0.003529308
0.0026742437
0.0014871954
0.0011778221
0.0047074418
0.0059095053
0.0072328183
0.0086686762
0.010220067
0.011915535
0.013757019
0.015742134
0.017836977
0.019861352
0.021549604
0.022816477
0.023345206
0.022795879
0.020774033
0.016925414
0.011019764
0.0030588895
-0.006648066
-0.017464383
-0.02851
-0.038828293
-0.047573291
-0.054165184
-0.058357832
-0.060216638
-0.060038692
-0.058248108
-0.05530826
-0.051652563
-0.047652937
-0.043603246
-0.039713102
-0.03614274
-0.032973027
-0.030321629
-0.028111765
-0.026648726
-0.025461747
0.0047221613
0.0035292493
0.0026581427
0.0014801427
0.0010307361
0.0059368807
0.00728569
0.0087451578
0.01033326
0.012069713
0.013960772
0.016009048
0.018196399
0.020469713
0.02257589
0.024186998
0.025189149
0.025186971
0.023781738
0.020543912
0.015150136
0.0074728236
-0.0023030139
-0.013626054
-0.025625457
-0.037261557
-0.04753291
-0.055671839
-0.06126107
-0.064245021
-0.064861193
-0.063529859
-0.06074768
-0.057003899
-0.05272886
-0.048272036
-0.043900794
-0.039790354
-0.036077228
-0.032819441
-0.030113891
-0.027878256
-0.026390943
-0.025203859
0.0059535523
0.0047236717
0.0035238731
0.0026304288
0.0014754335
0.00091080973
0.0073235332
0.0088069114
0.010431017
0.01220979
0.014151787
0.016265289
0.018533772
0.020931762
0.02335103
0.025477608
0.026896045
0.027456446
0.026675683
0.024104262
0.019311106
0.012049971
0.0023601912
-0.0093211252
-0.022168808
-0.035093089
-0.046947919
-0.056769307
-0.06394185
-0.068256374
-0.069862151
-0.069155311
-0.066657624
-0.062910965
-0.058411727
-0.053570843
-0.048708531
-0.044060043
-0.039766172
-0.035937578
-0.032612814
-0.029868117
-0.027617679
-0.026113836
-0.024930118
0.0073458903
0.0059552044
0.0047115496
0.0035151539
0.0025954455
0.001473247
0.00081400991
0.0088509533
0.01050924
0.012330542
0.014325252
0.01650576
0.018858159
0.021363863
0.023952875
0.02646807
0.028517421
0.029574193
0.02945067
0.027570531
0.023462444
0.016736388
0.007290237
-0.0045863928
-0.018151678
-0.032301187
-0.045768923
-0.057390053
-0.066329181
-0.072188926
-0.074997093
-0.075101426
-0.073034712
-0.069388834
-0.064727309
-0.059532719
-0.05418658
-0.04897192
-0.044093044
-0.039649063
-0.03573063
-0.03235906
-0.029589441
-0.027333803
-0.025820485
-0.024642918
0.0088773141
0.0073480923
0.0059414861
0.0046886567
0.0035024354
0.0025576297
0.0014696765
0.00073473603
0.010564117
0.012426874
0.014474928
0.016723549
0.019163311
0.021779159
0.024514024
0.027258683
0.029786747
0.031605125
0.03206376
0.030932694
0.027557257
0.02148442
0.012430477
0.00053195925
-0.013596276
-0.028878153
-0.04395492
-0.057471686
-0.068351962
-0.075977494
-0.080217079
-0.08134025
-0.079873122
-0.076450046
-0.071704179
-0.066194028
-0.060374211
-0.054586724
-0.049071838
-0.04401273
-0.039446428
-0.035463947
-0.032064185
-0.029282511
-0.027029875
-0.025513303
-0.024344897
0.010596317
0.0088807416
0.0073296335
0.0059164257
0.0046562944
0.0034856663
0.0025191019
0.0014632886
0.00067077803
0.01249402
0.014594092
0.01691024
0.019440307
0.022169762
0.025053496
0.027993534
0.030833247
0.033233204
0.034596214
0.034131216
0.031580153
0.026236233
0.01772832
0.0059799852
-0.0085377598
-0.024826727
-0.041477916
-0.056957302
-0.069941176
-0.079554726
-0.085468948
-0.087839764
-0.087163174
-0.08410636
-0.079369741
-0.073595358
-0.06731695
-0.060947634
-0.054784345
-0.049018156
-0.043811909
-0.039167802
-0.035145395
-0.031733787
-0.028950965
-0.026708551
-0.025194804
-0.02403829
0.012532945
0.010600191
0.0088606573
0.007294833
0.0058806097
0.0046171691
0.0034641183
0.0024799081
0.0014545072
0.00061976701
0.01467621
0.017057754
0.019677852
0.022523914
0.025561372
0.028699976
0.031803266
0.034625603
0.036682343
0.037267689
0.035450767
0.030971124
0.02311677
0.011704365
-0.0030205117
-0.02016551
-0.038318567
-0.055800905
-0.071030204
-0.082852761
-0.09069624
-0.094563808
-0.094892374
-0.092366622
-0.087752476
-0.081777461
-0.075065467
-0.06810778
-0.061268469
-0.054794019
-0.048842196
-0.043517282
-0.038823137
-0.034781786
-0.031372044
-0.028597488
-0.026372932
-0.024868158
-0.02372538
0.014722785
0.012537239
0.010575164
0.008821372
0.0072440141
0.0058352053
0.0045730834
0.0034362513
0.0024409963
0.0014413595
0.0005804835
0.017158602
0.019863976
0.02282782
0.0260209
0.029366477
0.032734996
0.03591375
0.038540318
0.039932938
0.039296802
0.035584054
0.028570993
0.017633087
0.0029069097
-0.014922053
-0.034475325
-0.053962005
-0.071560504
-0.085803486
-0.09584026
-0.10147276
-0.10304486
-0.10123858
-0.096879193
-0.090783513
-0.083671696
-0.076126113
-0.068584107
-0.061354223
-0.054634062
-0.048542072
-0.043139878
-0.038421056
-0.034378029
-0.030981837
-0.028226207
-0.026028075
-0.024536674
-0.023407357
0.017215016
0.014727144
0.012506308
0.010525661
0.0087623362
0.0071809626
0.0057798115
0.004525813
0.003401602
0.0024034147
0.001422823
0.00055163689
0.019988456
0.023065764
0.026413555
0.02996959
0.033615948
0.037149647
0.04025734
0.042413595
0.042681427
0.040236091
0.033959379
0.023740021
0.0091743473
-0.0091343337
-0.029952902
-0.051418878
-0.071475181
-0.088343809
-0.10084036
-0.10852403
-0.11160188
-0.11072822
-0.10677671
-0.10065621
-0.093191913
-0.085062781
-0.076796813
-0.068767022
-0.061224961
-0.054320147
-0.04813376
-0.04268999
-0.037967257
-0.033937325
-0.030568783
-0.027845086
-0.025678695
-0.024200036
-0.02306873
0.020055861
0.01721899
0.014688796
0.01244501
0.010450406
0.0086868854
0.0071096597
0.0057162497
0.0044760723
0.0033619647
0.0023662574
0.0013979619
0.00052606683
0.023222715
0.026718925
0.030484094
0.03441339
0.038321212
0.041902015
0.044707064
0.045984109
0.044493906
0.039482841
0.029867918
0.015758449
-0.0028611675
-0.024773988
-0.048150716
-0.070736243
-0.090408483
-0.10563831
-0.11567247
-0.12054182
-0.12083943
-0.11747264
-0.11143972
-0.10368074
-0.094985071
-0.085972806
-0.077102471
-0.068680376
-0.060901212
-0.053870679
-0.047631185
-0.042174037
-0.037465534
-0.033467313
-0.030144706
-0.027460872
-0.025321466
-0.023831941
-0.022704499
0.023304881
0.020058495
0.017170259
0.014612665
0.012351692
0.01035384
0.0085974581
0.0070327782
0.0056481133
0.0044229633
0.0033186352
0.0023231423
0.001366239
0.00050201554
0.026917017
0.03088218
0.035093187
0.039382107
0.043466099
0.046899579
0.049044888
0.048863527
0.044768982
0.036263092
0.022481435
0.0038807671
-0.01897507
-0.044163455
-0.069299104
-0.091950394
-0.11017098
-0.1228736
-0.12984084
-0.13157401
-0.1289932
-0.12318152
-0.11519601
-0.10595884
-0.096185939
-0.086431389
-0.077072206
-0.068349218
-0.060406435
-0.053302202
-0.047043023
-0.041596472
-0.036926365
-0.032984744
-0.029718645
-0.027064641
-0.024914569
-0.023437705
-0.022324088
0.027017241
0.023305025
0.019996588
0.017074828
0.014496417
0.012231944
0.01024092
0.0084971922
0.0069502005
0.0055772294
0.0043652078
0.003263851
0.0022705975
0.001330733
0.00047888173
0.031136351
0.035617509
0.040285379
0.044885265
0.048990831
0.051966768
0.052930392
0.050495086
0.042706592
0.029638537
0.010904571
-0.01256495
-0.0394617
-0.067156308
-0.092906803
-0.11439228
-0.13007685
-0.13947469
-0.1429323
-0.14136352
-0.13592768
-0.1278041
-0.11804516
-0.10751466
-0.096832045
-0.0864734
-0.07673644
-0.067803093
-0.059761196
-0.0526252
-0.046375377
-0.040971153
-0.036372424
-0.03250104
-0.029274528
-0.026587267
-0.02448321
-0.023025904
-0.021928179
0.031261007
0.027013536
0.023224143
0.019875949
0.016929404
0.014347525
0.012091832
0.01011657
0.0083894309
0.0068619928
0.0055024649
0.0042908228
0.0031937351
0.0022126235
0.001291382
0.00045608241
0.035947889
0.040980895
0.04609308
0.050892618
0.054763812
0.056808717
0.055859353
0.05010594
0.037301028
0.018551259
-0.0057200901
-0.03405106
-0.064275891
-0.093263992
-0.11823152
-0.1372481
-0.14941326
-0.15491365
-0.15460831
-0.14972462
-0.14156615
-0.13133065
-0.1200122
-0.10839182
-0.096966514
-0.086135934
-0.076131834
-0.067067897
-0.05897858
-0.051847525
-0.045646576
-0.040327941
-0.035817876
-0.031991386
-0.028708202
-0.026085043
-0.024031442
-0.022598184
-0.021517054
0.036105758
0.031252602
0.026908047
0.023068256
0.019690891
0.016742591
0.014173634
0.011937197
0.0099837205
0.0082765338
0.006767583
0.0054059497
0.0041943775
0.0031147423
0.0021484318
0.0012479303
0.00043318124
0.041415941
0.047021263
0.052511514
0.05731557
0.060536299
0.060973307
0.057102331
0.04667798
0.027374922
0.0019309439
-0.028068043
-0.060672204
-0.092952773
-0.12167998
-0.14432202
-0.15964203
-0.16751278
-0.16875072
-0.16461918
-0.15654609
-0.14588555
-0.13378601
-0.12113458
-0.10865523
-0.09662763
-0.085463915
-0.075290778
-0.066159992
-0.058069117
-0.050992719
-0.044895201
-0.039684104
-0.035226958
-0.031306786
-0.028116575
-0.025559248
-0.023564233
-0.022154434
-0.021091399
0.041620176
0.036092276
0.031114568
0.026707108
0.022830072
0.019452738
0.016523669
0.013981652
0.011772293
0.0098444988
0.0081569989
0.0066436966
0.0052796464
0.0040864272
0.003025543
0.0020772454
0.0012002348
0.00040956568
0.047598918
0.053755264
0.059487421
0.063952918
0.065906553
0.063781361
0.055651877
0.038956357
0.011678228
-0.021146201
-0.056403896
-0.092010944
-0.12463432
-0.15131111
-0.17011158
-0.18073759
-0.1838112
-0.18065644
-0.17280886
-0.16178624
-0.1489093
-0.13522001
-0.12146013
-0.10828884
-0.0958744
-0.084497914
-0.074234269
-0.065093344
-0.057063026
-0.050109341
-0.044142194
-0.038990617
-0.034395093
-0.030596205
-0.027496856
-0.02502003
-0.023080331
-0.021695837
-0.020651645
0.047865342
0.041601819
0.035912126
0.030852801
0.02640009
0.02252521
0.019174441
0.016281782
0.013776817
0.011600246
0.00969698
0.007999776
0.0064797833
0.0051388462
0.0039651358
0.0029252901
0.0019979391
0.001147718
0.00038477795
0.054527593
0.061155426
0.066863461
0.070450692
0.070247812
0.064249469
0.050199594
0.02552011
-0.010957912
-0.05117391
-0.090378124
-0.12716943
-0.1580903
-0.18086776
-0.19456108
-0.19981914
-0.1978805
-0.19041844
-0.17911032
-0.16546532
-0.15069753
-0.13570706
-0.12113969
-0.10743237
-0.094759028
-0.083265062
-0.072980748
-0.063906499
-0.056020577
-0.0492222
-0.043322793
-0.037975977
-0.033536369
-0.029851397
-0.026866563
-0.024464103
-0.022581365
-0.021222638
-0.020198564
0.054878697
0.047843696
0.041367465
0.035569125
0.030451476
0.026006353
0.02216976
0.01886782
0.016024211
0.013563097
0.011417931
0.0095011825
0.0077906437
0.0062976263
0.0049808185
0.0038293972
0.0028129914
0.0019097862
0.0010897364
0.00035848335
0.062188865
0.069101069
0.074328915
0.076232651
0.072609154
0.061030598
0.039181386
0.0048940834
-0.041294227
-0.087915766
-0.12906816
-0.16479891
-0.19177366
-0.20906281
-0.21677438
-0.21633871
-0.20943875
-0.19793621
-0.18353849
-0.16765399
-0.15134209
-0.13535427
-0.12018853
-0.10613819
-0.093316434
-0.081789825
-0.071578923
-0.062673456
-0.054970681
-0.048248106
-0.042084727
-0.03693452
-0.032635848
-0.029100168
-0.026220067
-0.02389397
-0.022067685
-0.020736018
-0.019732719
0.062653278
0.054855041
0.047540663
0.040915588
0.035040335
0.029936031
0.025545898
0.021777787
0.018542126
0.015756102
0.013336162
0.011174028
0.0092379885
0.0075594352
0.0060937148
0.0048041913
0.0036777575
0.0026876604
0.0018119877
0.00102563
0.00033036215
0.070482656
0.077320253
0.081350888
0.080391903
0.071613712
0.052458285
0.020884858
-0.024047067
-0.079255143
-0.1304408
-0.17105455
-0.20306203
-0.22409223
-0.23478078
-0.23605866
-0.22993226
-0.21834256
-0.20321474
-0.18617524
-0.16846162
-0.15095967
-0.13425357
-0.11869255
-0.10444702
-0.091578575
-0.080133299
-0.070118814
-0.061427328
-0.053808558
-0.046739282
-0.040820646
-0.03584145
-0.031734792
-0.028334428
-0.025560725
-0.023309772
-0.021540685
-0.020236501
-0.019254822
0.071100644
0.062629888
0.054464295
0.046943601
0.040215012
0.034360406
0.029333017
0.025037323
0.021361365
0.018203567
0.015471181
0.013031477
0.010843739
0.0089479139
0.0073013797
0.0058666124
0.0046070485
0.0035088243
0.0025482666
0.0017038042
0.00095478923
0.0003001113
0.079158958
0.085306063
0.087074611
0.081537523
0.065500527
0.036705882
-0.0061612132
-0.061712111
-0.12400681
-0.17727509
-0.21418749
-0.23998306
-0.2536784
-0.25715502
-0.25195073
-0.24040627
-0.22458026
-0.20634687
-0.18714878
-0.16802832
-0.14967546
-0.13250053
-0.11671105
-0.10239949
-0.089621418
-0.078404077
-0.068637726
-0.060038215
-0.051974027
-0.045207218
-0.039493059
-0.034756012
-0.030821754
-0.027557899
-0.0248888
-0.022712947
-0.021001081
-0.019725262
-0.018765385
0.079991627
0.071080605
0.062127248
0.053672819
0.046010981
0.039313058
0.033564929
0.028667322
0.024497594
0.020928292
0.017843033
0.015089607
0.012617697
0.010480918
0.0086244829
0.0070149233
0.0056140115
0.0043876839
0.0033211565
0.0023938275
0.0015844725
0.00087670527
0.00026748682
0.087710854
0.09222979
0.090112983
0.07779487
0.052306712
0.011846715
-0.043003493
-0.10743379
-0.17409884
-0.22587977
-0.2560118
-0.27386621
-0.27949076
-0.27561096
-0.26420055
-0.24772195
-0.22825438
-0.2074838
-0.18663124
-0.16651206
-0.14760963
-0.13016718
-0.11430021
-0.10008924
-0.087574921
-0.076643484
-0.066976563
-0.057815257
-0.050121703
-0.043596958
-0.038184241
-0.033662048
-0.029901148
-0.026770755
-0.024205694
-0.022104493
-0.020450092
-0.019202523
-0.018265567
0.088836715
0.079979626
0.07043239
0.061078409
0.052427202
0.044806972
0.038256695
0.032687179
0.027962329
0.023936439
0.020465627
0.017363228
0.014571653
0.012164996
0.010077037
0.0082661512
0.0066971926
0.0053339594
0.0041443224
0.0031134178
0.0022233595
0.0014532324
0.00079096036
0.00023233709
0.095323462
0.09671812
0.088478247
0.067022046
0.029747955
-0.023686659
-0.089247756
-0.15977437
-0.22702988
-0.27310496
-0.29443714
-0.30344033
-0.30080899
-0.2898387
-0.2727301
-0.25198319
-0.22954565
-0.20683651
-0.18481887
-0.1640638
-0.14485457
-0.12732482
-0.11157675
-0.09767084
-0.085484074
-0.074658642
-0.064293567
-0.0555841
-0.048173519
-0.042020289
-0.036871757
-0.032564967
-0.028972813
-0.02597461
-0.023512557
-0.021485447
-0.019887432
-0.018669591
-0.017756024
0.096891634
0.088839195
0.079134458
0.069044365
0.059413772
0.05081591
0.043395803
0.037091421
0.031759397
0.027229266
0.023335326
0.019857836
0.016714348
0.014007556
0.01166227
0.0096308852
0.0078695496
0.0063459395
0.0050243808
0.0038753551
0.0028843257
0.0020359717
0.0013094153
0.0006973138
0.00019456808
0.10074689
0.096762457
0.079871794
0.04680839
-0.0041040166
-0.070054354
-0.14376722
-0.21753454
-0.27887418
-0.31636306
-0.32796178
-0.32784036
-0.31724925
-0.29972311
-0.27762553
-0.25341201
-0.22871007
-0.20464675
-0.18190087
-0.16080279
-0.14150186
-0.1241161
-0.10872432
-0.095192532
-0.083117051
-0.07143516
-0.061617673
-0.053235652
-0.046278461
-0.04044643
-0.035562301
-0.031464058
-0.028038496
-0.025170749
-0.022810098
-0.020854768
-0.019315394
-0.018127422
-0.017237598
0.10311269
0.096917944
0.087731534
0.077305277
0.066819262
0.057255443
0.048926518
0.041841807
0.035862578
0.030793725
0.0264416
0.022561809
0.019043164
0.016011038
0.013382748
0.011108844
0.0091385855
0.0074323336
0.0059587919
0.0046834344
0.0035792699
0.0026327735
0.0018308875
0.0011524846
0.00059580331
0.00015414558
0.10209163
0.089949949
0.061843757
0.014941585
-0.049956023
-0.12619186
-0.20491286
-0.27453772
-0.32646312
-0.35400237
-0.355613
-0.34666928
-0.32870597
-0.30531161
-0.27916926
-0.25231868
-0.22604261
-0.20115104
-0.17803105
-0.15684685
-0.1377248
-0.12075748
-0.10579425
-0.092377893
-0.079263606
-0.068241782
-0.058798816
-0.050965647
-0.044394806
-0.038883785
-0.034254324
-0.030361132
-0.027099475
-0.024359184
-0.022096316
-0.020215568
-0.018735091
-0.017577338
-0.016711033
0.10518677
0.10317726
0.095414545
0.085361799
0.07434008
0.063930962
0.054721997
0.046849821
0.040207872
0.034582037
0.02975317
0.025454223
0.021538317
0.018165261
0.015234428
0.012697487
0.01050029
0.0085977987
0.0069520069
0.0055337657
0.0043094313
0.0032548175
0.002357879
0.0016075103
0.00098209819
0.00048675494
0.00011101038
0.096514863
0.073767145
0.03210169
-0.029780597
-0.10684811
-0.18917901
-0.26636624
-0.32718665
-0.36807086
-0.38496909
-0.37692357
-0.35986356
-0.33511676
-0.30691893
-0.27774065
-0.24905371
-0.22183738
-0.19654711
-0.17336086
-0.15240497
-0.1337771
-0.1173031
-0.10245946
-0.087796533
-0.075473246
-0.064874714
-0.056090849
-0.04871808
-0.042533148
-0.037329577
-0.032949578
-0.029257336
-0.026155279
-0.023536444
-0.021375462
-0.01956931
-0.018148011
-0.01702024
-0.016177126
0.099736469
0.10530748
0.10094287
0.092393396
0.081451949
0.070495899
0.060540222
0.051944949
0.044672309
0.038502436
0.033199334
0.028488646
0.024168309
0.020442793
0.017199896
0.014386353
0.011946835
0.0098344255
0.0080059682
0.0064266381
0.0050691496
0.0039010568
0.0029010613
0.0020591005
0.0013654681
0.00079823406
0.00037070414
6.5150167e-05
0.081595422
0.046081008
-0.01101208
-0.086673052
-0.17183569
-0.25454699
-0.32343147
-0.37371284
-0.40265603
-0.40879446
-0.39163384
-0.36714121
-0.33665488
-0.30505488
-0.27373866
-0.24398039
-0.2163479
-0.19102931
-0.16814166
-0.14777221
-0.12971694
-0.11336876
-0.097044532
-0.083323779
-0.071472642
-0.061659591
-0.053419306
-0.046506422
-0.040688968
-0.035785363
-0.031648917
-0.028151593
-0.025200632
-0.022708818
-0.02064906
-0.018917738
-0.017555136
-0.016457281
-0.015636622
0.085393394
0.099912578
0.10241877
0.097032792
0.087309316
0.07638269
0.065986949
0.056838896
0.049043062
0.042395183
0.036658633
0.031577954
0.026874045
0.022802246
0.019244147
0.016151341