/*--------------------------------*- C++ -*----------------------------------*\
| =========                 |                                                 |
| \\      /  F ield         | OpenFOAM: The Open Source CFD Toolbox           |
|  \\    /   O peration     | Version:  5.0                                   |
|   \\  /    A nd           | Web:      www.OpenFOAM.org                      |
|    \\/     M anipulation  |                                                 |
\*---------------------------------------------------------------------------*/
FoamFile
{
    version     2.0;
    format      ascii;
    class       surfaceScalarField;
    location    "40";
    object      phi;
}
// * * * * * * * * * * * * * * * * * * * * * * * * * * * * * * * * * * * * * //

dimensions      [0 3 -1 0 0 0 0];

internalField   nonuniform List<scalar> 
18180
(
0.0012722138
-1.3447511
0.0024351433
-1.2574591
0.0012561214
-1.3460072
0.0034961665
-1.1758589
0.0024113192
-1.2586143
0.0012328367
-1.34724
0.0044442047
-1.0994742
0.003462587
-1.1769102
0.0023712453
-1.2597527
0.001230014
-1.3484701
0.0052768482
-1.0280731
0.004404369
-1.100416
0.0034073211
-1.1779463
0.0023702599
-1.260893
0.001226733
-1.3496968
0.0060043365
-0.96128634
0.0052350743
-1.0289038
0.0043383923
-1.101347
0.0034131709
-1.1789892
0.0023683877
-1.2620346
0.0012445734
-1.3509414
0.006625796
-0.89883895
0.0059607992
-0.96201206
0.0051628512
-1.0297283
0.0043571984
-1.1022911
0.0034185168
-1.1800393
0.0024076653
-1.2631977
0.0012794101
-1.3522208
0.0071525495
-0.84044159
0.00658453
-0.89946268
0.0058846445
-0.96273386
0.0051989802
-1.03057
0.004375987
-1.1032485
0.003485467
-1.1811171
0.0024777074
-1.264396
0.0013458747
-1.3535667
0.0075899221
-0.78583896
0.0071139203
-0.84097098
0.0065075712
-0.9000856
0.0059420486
-0.96347693
0.0052363785
-1.0314304
0.0044780286
-1.1042411
0.0035928239
-1.1822322
0.0026094668
-1.2656596
0.0014290211
-1.3549957
0.0079480475
-0.73478178
0.0075558426
-0.78628088
0.0070377804
-0.84150119
0.0065882522
-0.90073181
0.0060014162
-0.96424196
0.0053794685
-1.0323319
0.004626126
-1.1052744
0.0037897781
-1.1834125
0.0027734693
-1.267004
0.0015307836
-1.3565265
0.0082355657
-0.68704391
0.007918738
-0.73514467
0.0074818319
-0.78672493
0.0071425433
-0.84205548
0.0066708451
-0.90140124
0.0061896718
-0.96505217
0.0055717805
-1.0332775
0.0048912049
-1.1063758
0.0040322609
-1.1846713
0.002976241
-1.2684495
0.0016242026
-1.3581507
0.0084613909
-0.64240991
0.0082113477
-0.68733652
0.0078468104
-0.73550965
0.0076093395
-0.78719173
0.0072476583
-0.8426323
0.0069055965
-0.90211716
0.0064291011
-0.96590949
0.0059083945
-1.0342947
0.0052124761
-1.1075561
0.0043342524
-1.1860293
0.0031636658
-1.269989
0.0017081477
-1.3598588
0.0086337691
-0.60067785
0.0084403733
-0.64263893
0.0081391978
-0.68762891
0.0079939733
-0.73589429
0.0077347889
-0.78767886
0.0075282484
-0.84325495
0.007193825
-0.90288188
0.0068404985
-0.96684159
0.0063094437
-1.0353917
0.0056150423
-1.1088368
0.0046157502
-1.1874814
0.0033346596
-1.2716155
0.0017645406
-1.3616233
0.0087602764
-0.56166006
0.0086130549
-0.60085053
0.0083655552
-0.64286529
0.008302021
-0.68793696
0.0081368678
-0.73629636
0.0080591416
-0.78820975
0.0078655712
-0.84392669
0.0076814915
-0.90372288
0.0073224387
-0.96785459
0.0068138043
-1.0365904
0.0059941764
-1.1102153
0.0048772583
-1.189024
0.0034519164
-1.2733028
0.0018003555
-1.3634237
0.008846182
-0.52517776
0.0087365037
-0.56178351
0.0085334486
-0.60101843
0.0085405037
-0.64310377
0.0084598475
-0.68825994
0.008502474
-0.7367397
0.0084448045
-0.78878899
0.0084287268
-0.84467393
0.0082447473
-0.90464519
0.0079303596
-0.96897114
0.0072943373
-1.0378906
0.0063538173
-1.1116918
0.005061723
-1.1906338
0.003530131
-1.2750326
0.0018109614
-1.3652347
0.0088977609
-0.49106762
0.0088177608
-0.52525902
0.0086494104
-0.56189947
0.0087166186
-0.60119454
0.0087114871
-0.64335541
0.0088642516
-0.68862172
0.0089344082
-0.7372293
0.0090797022
-0.78943996
0.0090719827
-0.84550117
0.0089572142
-0.90567204
0.0085159753
-0.97019278
0.0077593155
-1.0392961
0.0066161349
-1.1132462
0.0051914234
-1.1922951
0.0035585548
-1.2767802
0.0018046002
-1.3670393
0.0089208802
-0.45917465
0.0088628594
-0.49111272
0.0087217778
-0.52533139
0.0088382652
-0.56202112
0.0089002746
-0.60138333
0.0091512809
-0.64364244
0.0093376654
-0.68902497
0.0096336489
-0.73778325
0.0097994242
-0.7901674
0.0098884579
-0.84643241
0.009651068
-0.90680713
0.0090933458
-0.97152681
0.0081108284
-1.0407908
0.0068108924
-1.1148657
0.0052483048
-1.1939849
0.0035542097
-1.2785298
0.0017801994
-1.3688195
0.0089207763
-0.42935474
0.0088779218
-0.45918971
0.0087578402
-0.49114878
0.0089131712
-0.52540629
0.0090341331
-0.56215498
0.0093696373
-0.60160168
0.0096581161
-0.64396289
0.01009096
-0.68948228
0.010424529
-0.73840835
0.0107178
-0.79099675
0.010692751
-0.84747409
0.010347155
-0.90806094
0.0095452961
-0.97296128
0.0083852912
-1.0423652
0.0069109564
-1.1165284
0.0052576927
-1.1956883
0.0035137345
-1.2802634
0.0017418731
-1.3705613
0.0089019238
-0.40147284
0.0088686431
-0.42934546
0.0087641714
-0.45919605
0.0089486685
-0.49118428
0.0091198357
-0.525492
0.009525008
-0.56231035
0.0099002363
-0.6018438
0.010454555
-0.64432649
0.010947347
-0.6900051
0.011441519
-0.73913207
0.011633294
-0.79193729
0.011512009
-0.84863895
0.010909877
-0.90942552
0.0099142987
-0.97449029
0.0085454577
-1.0439997
0.0069498956
-1.1182206
0.0052130798
-1.1973877
0.0034461323
-1.2819676
0.0016894796
-1.3722508
0.0088680196
-0.37540279
0.0088399702
-0.40144416
0.0087464873
-0.42932778
0.0089510722
-0.45919845
0.0091630206
-0.49122746
0.0096233647
-0.52559035
0.010070284
-0.56248039
0.010730104
-0.60211935
0.011370863
-0.64475
0.012057932
-0.69062151
0.01246611
-0.73996489
0.012577243
-0.79300252
0.012194237
-0.84992331
0.011387516
-0.91089874
0.010152449
-0.97609728
0.0086324159
-1.0456822
0.0069169459
-1.1199244
0.0051282406
-1.1990698
0.0033501901
-1.2836283
0.0016253048
-1.3738761
0.0088222476
-0.35102633
0.0087961281
-0.37535895
0.0087096135
-0.40140729
0.0089258453
-0.42930255
0.009169066
-0.45920449
0.0096714119
-0.49127551
0.010176129
-0.5256962
0.010925368
-0.56267566
0.01170007
-0.60244856
0.012567209
-0.64525928
0.013185855
-0.69134126
0.013533198
-0.74092084
0.013385619
-0.79419391
0.012793256
-0.85132905
0.011721381
-0.91246767
0.010307753
-0.97777261
0.0086299176
-1.0473952
0.0068307234
-1.1216269
0.0050003277
-1.2007199
0.0032304919
-1.2852335
0.0015507723
-1.3754269
0.0087672866
-0.32823328
0.008740761
-0.35097096
0.0086576762
-0.37530701
0.0088779336
-0.40135938
0.009143368
-0.42927686
0.0096762489
-0.45920933
0.010226245
-0.49132563
0.011048828
-0.52581966
0.011940882
-0.56291647
0.012971025
-0.60285238
0.013789237
-0.64586266
0.014371727
-0.69217979
0.014471757
-0.74200698
0.014116469
-0.79551712
0.013239906
-0.85284757
0.011965907
-0.91412583
0.010357216
-0.97949991
0.0085614037
-1.0491259
0.006685653
-1.1233122
0.0048362668
-1.2023257
0.0030891867
-1.2867719
0.0014673528
-1.3768942
0.0087053545
-0.30692097
0.0086769178
-0.32816943
0.0085942345
-0.35090752
0.0088118469
-0.37524093
0.0090911585
-0.40130717
0.0096447644
-0.42924537
0.010228814
-0.4592119
0.011108832
-0.49138563
0.01209974
-0.52597852
0.01327274
-0.56321819
0.014275519
-0.60333866
0.015087145
-0.64657808
0.015441602
-0.69314963
0.015342215
-0.74323273
0.014691542
-0.79696875
0.013594395
-0.85447606
0.012090493
-0.9158591
0.010328547
-0.98126706
0.0084175271
-1.0508577
0.0064911306
-1.1249671
0.0046377271
-1.2038743
0.0029293186
-1.2882339
0.0013766954
-1.3782709
0.0086383015
-0.28699369
0.0086071474
-0.3068512
0.0085223141
-0.32809751
0.0087316649
-0.35082734
0.0090173048
-0.37516707
0.0095832823
-0.40124569
0.010191359
-0.42920792
0.011113435
-0.4592165
0.012183772
-0.49146967
0.013477746
-0.52618352
0.014646981
-0.56358965
0.015676947
-0.60392846
0.01628667
-0.64742315
0.016456446
-0.69426386
0.016059008
-0.74460019
0.015175646
-0.79855
0.013818107
-0.85620367
0.012126335
-0.91765689
0.010207272
-0.9830568
0.0082098531
-1.0525765
0.0062480617
-1.1265774
0.0044097022
-1.2053546
0.0027540814
-1.2896113
0.0012804093
-1.3795514
0.0085677756
-0.26836303
0.008533608
-0.28692015
0.008444448
-0.30677333
0.0086410106
-0.32800686
0.0089262037
-0.35073624
0.009497434
-0.37508123
0.010120706
-0.40117503
0.01107045
-0.42916493
0.012200861
-0.45923359
0.013593399
-0.49158532
0.014908743
-0.52644528
0.016141784
-0.56405448
0.017001354
-0.60464314
0.017446957
-0.64841366
0.017324781
-0.69552964
0.016690298
-0.74611484
0.015522534
-0.80025443
0.013944763
-0.8580221
0.012052361
-0.91950198
0.010007171
-0.98485412
0.0079374914
-1.0542659
0.0059627795
-1.1281305
0.0041572779
-1.2067578
0.0025666896
-1.2908976
0.0011801285
-1.3807315
0.0084954289
-0.25094698
0.0084582438
-0.26828767
0.0083627183
-0.28683842
0.0085430411
-0.30667536
0.0088217251
-0.32790238
0.0093921499
-0.35063095
0.010022984
-0.3749835
0.010987406
-0.40109199
0.012159401
-0.42912347
0.013628466
-0.45926866
0.015068067
-0.49174464
0.016484954
-0.52678845
0.017582899
-0.56463603
0.018303975
-0.60550016
0.018472644
-0.64956152
0.01811806
-0.6969574
0.017183547
-0.74777586
0.015767103
-0.80207677
0.013945371
-0.85991511
0.011883978
-0.92137879
0.0097241733
-0.9866408
0.0076081427
-1.0559113
0.0056410746
-1.1296143
0.0038846738
-1.2080758
0.0023705347
-1.292088
0.001077424
-1.3818089
0.0084231677
-0.23466693
0.008383143
-0.25087188
0.0082788152
-0.26820377
0.0084404666
-0.28673584
0.0087072096
-0.30656085
0.0092716727
-0.3277819
0.0099036216
-0.35051159
0.010871397
-0.37486749
0.012067881
-0.40100047
0.013592402
-0.42908741
0.015133567
-0.45933416
0.016711853
-0.49197154
0.018031317
-0.52723687
0.019020727
-0.56535278
0.019488709
-0.60651623
0.019439423
-0.65088289
0.018778938
-0.69855279
0.017572975
-0.74958173
0.015871464
-0.80400286
0.013836141
-0.86186728
0.011612703
-0.92326732
0.0093674802
-0.98840014
0.0072284142
-1.0574986
0.0052887215
-1.1310184
0.0035969941
-1.2093023
0.0021688141
-1.2931794
0.00097378485
-1.3827827
0.0083533727
-0.21944605
0.0083110278
-0.23459482
0.0081942644
-0.25078733
0.0083355876
-0.26809889
0.0085855171
-0.28661415
0.0091395939
-0.30642877
0.0097673289
-0.32764561
0.010728932
-0.35036913
0.011934495
-0.37473411
0.013494777
-0.40090284
0.01511464
-0.42906848
0.016829613
-0.45945192
0.018349409
-0.49228963
0.019593926
-0.52781007
0.020362393
-0.56622647
0.020636845
-0.60771365
0.020286356
-0.6523903
0.019338975
-0.70031879
0.017811374
-0.75152164
0.015851587
-0.80601831
0.013602856
-0.86385743
0.011249059
-0.92514889
0.0089430363
-0.99011476
0.0068047689
-1.0590146
0.0049135937
-1.132335
0.0032991088
-1.2104326
0.0019645938
-1.2941702
0.00087057635
-1.3836533
0.0082883855
-0.20520416
0.0082454919
-0.21938052
0.0081108219
-0.23451137
0.0082304829
-0.25068222
0.0084590816
-0.26797245
0.0089989265
-0.28647348
0.0096181085
-0.30627955
0.010565816
-0.32748249
0.011766897
-0.35020153
0.013344905
-0.37458424
0.015021124
-0.40080933
0.016846876
-0.42908574
0.018542723
-0.45964523
0.020024034
-0.49271974
0.02108702
-0.5285347
0.021695766
-0.56728539
0.021684485
-0.60911178
0.021040419
-0.65409175
0.019741706
-0.70224912
0.017913145
-0.7535832
0.01568625
-0.8081017
0.013256717
-0.86586509
0.010796983
-0.92700284
0.0084584772
-0.99176847
0.0063473543
-1.0604484
0.0045211739
-1.133557
0.0029957482
-1.2114637
0.0017606706
-1.2950603
0.0007690481
-1.3844223
0.0082280622
-0.19185829
0.0081902481
-0.20514892
0.0080309513
-0.21930065
0.0081273144
-0.2344082
0.0083301223
-0.25055326
0.0088521752
-0.2678257
0.0094593153
-0.28631469
0.010387113
-0.30610085
0.011572055
-0.32728765
0.013151634
-0.35000826
0.014863037
-0.37442615
0.016773508
-0.40073596
0.018619259
-0.42916228
0.020315066
-0.45993627
0.021659956
-0.49329268
0.022605182
-0.52944412
0.022954113
-0.56855501
0.022652488
-0.61072385
0.021636552
-0.65598659
0.019998598
-0.70433458
0.017849004
-0.75574595
0.015386379
-0.81023137
0.012798477
-0.86786658
0.010265814
-0.92881018
0.0079259927
-0.99334711
0.0058623847
-1.0617896
0.0041185227
-1.1346798
0.00269124
-1.2123943
0.0015595267
-1.2958507
0.00067022519
-1.3850925
0.006337807
-0.21080987
0.0081475822
-0.19181563
0.0079577309
-0.2050757
0.0080287773
-0.21920211
0.0082009636
-0.23427905
0.0087015346
-0.25040262
0.0092937236
-0.26766011
0.010197177
-0.28612476
0.011356201
-0.30588499
0.01292318
-0.3270592
0.014650325
-0.34979554
0.016620192
-0.37427283
0.018588911
-0.40070561
0.020474032
-0.42932125
0.022082299
-0.46035861
0.023357882
-0.49404538
0.024078941
-0.53056894
0.024151496
-0.57005402
0.02346864
-0.61255594
0.022082132
-0.65807013
0.020071504
-0.70655708
0.017628298
-0.75798787
0.014948156
-0.81238105
0.012238753
-0.86983952
0.0096679868
-0.93055217
0.0073523609
-0.99483708
0.0053607068
-1.0630318
0.0037113907
-1.1356999
0.0023894792
-1.2132242
0.001363231
-1.2965437
0.0005747907
-1.3856673
0.0049871771
-0.21108978
0.0063599065
-0.20902219
0.0078934704
-0.19175137
0.0079379953
-0.20498491
0.0080746074
-0.21907575
0.0085492199
-0.23412673
0.0091236455
-0.25023255
0.0099997028
-0.26746263
0.011124843
-0.2858934
0.012667023
-0.30562884
0.014392566
-0.32680144
0.016397966
-0.34957332
0.018462809
-0.37414673
0.02051022
-0.4007418
0.022358419
-0.42959737
0.023950466
-0.46095119
0.025046243
-0.49501268
0.025516016
-0.53193346
0.025210729
-0.57179611
0.024135376
-0.61460918
0.022329594
-0.66032822
0.019966567
-0.70889535
0.017241152
-0.76028087
0.014382709
-0.814525
0.011589309
-0.87176084
0.0090122915
-0.9322121
0.0067521147
-0.99622849
0.0048480571
-1.0641685
0.0033054486
-1.1366159
0.0020938514
-1.2139549
0.0011735197
-1.2971425
0.00048327951
-1.3861506
0.0041014692
-0.21102916
0.005118983
-0.20984886
0.0061358767
-0.2072646
0.0078572492
-0.19167062
0.007954701
-0.20486501
0.0083981893
-0.21892472
0.0089511867
-0.23395427
0.0097977519
-0.25003059
0.010882827
-0.26722062
0.012389854
-0.28561623
0.014098744
-0.30533501
0.016117767
-0.32652124
0.0182527
-0.34936321
0.02043451
-0.37407102
0.022495447
-0.40087883
0.024383279
-0.43003018
0.025847348
-0.4617523
0.026727895
-0.49622456
0.026836906
-0.53355964
0.026128746
-0.57378948
0.024595373
-0.61687496
0.022380052
-0.6627417
0.019666355
-0.71132055
0.016698063
-0.76259622
0.013700074
-0.81663577
0.010861118
-0.87360967
0.0083154163
-0.9337754
0.0061313616
-0.9975118
0.0043338869
-1.0651969
0.0029056006
-1.1374277
0.0018072668
-1.2145886
0.0009920293
-1.2976512
0.0003967648
-1.3865474
0.0035811492
-0.21044724
0.0043584559
-0.21026864
0.0048976016
-0.20861058
0.0061397898
-0.20554714
0.0078445199
-0.19156044
0.0082522625
-0.20471908
0.0087790415
-0.21875258
0.0095939148
-0.23375043
0.010634334
-0.2497821
0.012097602
-0.26692837
0.01377708
-0.28529456
0.015790095
-0.30500734
0.017970423
-0.32623896
0.020258786
-0.34918749
0.022502792
-0.37407837
0.024660211
-0.40115576
0.02647791
-0.43066074
0.027773027
-0.46279743
0.028323771
-0.49771142
0.028032738
-0.53546363
0.026838357
-0.57603246
0.024842883
-0.61933779
0.022207061
-0.66528241
0.019179174
-0.71380166
0.016005986
-0.76490213
0.012913034
-0.81868768
0.010072247
-0.8753665
0.0075854504
-0.93522949
0.0055039069
-0.99868182
0.0038235041
-1.0661148
0.0025161579
-1.1381366
0.001532204
-1.2151288
0.00082028147
-1.2980747
0.0003213188
-1.3868687
0.0032949499
-0.2091344
0.0039782245
-0.21006701
0.0041174751
-0.20948851
0.0049248058
-0.2073956
0.0061458959
-0.20384852
0.0081153206
-0.1914235
0.0086107843
-0.20455082
0.0093910384
-0.2185497
0.010382967
-0.23349907
0.01179544
-0.24947994
0.013434981
-0.26658627
0.015424788
-0.28492926
0.017627554
-0.30466447
0.019995409
-0.32597559
0.022391625
-0.34907632
0.024788327
-0.37420648
0.026937845
-0.4016157
0.028641794
-0.43152951
0.029651387
-0.46412505
0.029819186
-0.49949787
0.029026686
-0.53765196
0.027325392
-0.57851497
0.024841153
-0.62197188
0.02181478
-0.66791802
0.018507264
-0.71630294
0.015178763
-0.76716786
0.012040512
-0.82065595
0.0092337202
-0.87701477
0.0068396939
-0.93656528
0.004875175
-0.99973349
0.0033239739
-1.0669226
0.0021407103
-1.1387451
0.0012706249
-1.2155791
0.00065901563
-1.2984124
0.00025446375
-1.3871232
0.0030753073
-0.206935
0.0038274632
-0.20898364
0.0037097498
-0.20965928
0.0041575178
-0.20872122
0.0049325767
-0.20618228
0.0064318698
-0.20216506
0.0084506371
-0.19126335
0.0091926427
-0.20435243
0.010132414
-0.21829915
0.01148777
-0.2331914
0.013079034
-0.24912399
0.015030922
-0.2661924
0.017235143
-0.28453685
0.019656814
-0.30432588
0.022174302
-0.32575826
0.024777322
-0.34906531
0.027231002
-0.37449964
0.029329152
-0.40230305
0.030803951
-0.43268207
0.031462394
-0.46576825
0.031128431
-0.50159962
0.029795154
-0.54012173
0.027541727
-0.58121555
0.024587878
-0.62474498
0.021198822
-0.67060957
0.017664331
-0.7187885
0.01423541
-0.76936276
0.01109661
-0.82251884
0.0083655247
-0.8785406
0.0060850753
-0.93777518
0.0042565342
-1.000666
0.0028396837
-1.0676216
0.0017821596
-1.1392566
0.0010238256
-1.2159439
0.00050816555
-1.2986661
0.00018927415
-1.3873124
0.0027345797
-0.20388276
0.0036986129
-0.20680615
0.0035470527
-0.20882094
0.0037606098
-0.20926238
0.0041547703
-0.20794341
0.0052150817
-0.20496549
0.0067820092
-0.20049644
0.0090031886
-0.1910739
0.0098868525
-0.20410687
0.011178908
-0.21799029
0.012714801
-0.23282717
0.014616811
-0.24870988
0.016803604
-0.26576086
0.019255166
-0.2841352
0.021863864
-0.30401544
0.024638854
-0.32561979
0.027364605
-0.34919892
0.029834462
-0.37500495
0.031770186
-0.40326929
0.032940113
-0.43415979
0.033112875
-0.4677527
0.032218206
-0.50402267
0.030277864
-0.54285786
0.027476039
-0.58410371
0.024069894
-0.62761605
0.02037107
-0.67331631
0.016668371
-0.72122147
0.013192955
-0.77145911
0.010103994
-0.82425731
0.0074778197
-0.87993335
0.0053370207
-0.93885567
0.003652253
-1.0014786
0.0023753251
-1.0682148
0.0014427066
-1.1396755
0.00079257843
-1.2162284
0.00036774765
-1.2988446
0.00012561996
-1.3874381
0.0021245775
-0.20036147
0.0033599178
-0.20354406
0.0034456295
-0.20670473
0.0036144302
-0.20867476
0.0037422682
-0.20884987
0.0044186293
-0.20714696
0.0055615778
-0.20374506
0.0073391797
-0.19883243
0.0096518739
-0.19083892
0.010873527
-0.20380149
0.012347384
-0.21762287
0.014189676
-0.23240003
0.016342699
-0.24824898
0.018802173
-0.26530787
0.021473552
-0.28374489
0.024385957
-0.30376254
0.027348592
-0.32560378
0.030161116
-0.34952557
0.032543515
-0.37577828
0.034234299
-0.40456348
0.034951733
-0.43599865
0.034560329
-0.47009482
0.033015634
-0.50676044
0.030451858
-0.54583368
0.027104056
-0.58713787
0.023295039
-0.63054002
0.019346965
-0.67599491
0.015538843
-0.72356735
0.01207669
-0.7734318
0.0090766827
-0.82585617
0.006589231
-0.88118556
0.0046007442
-0.93980416
0.0030707412
-1.002174
0.0019338785
-1.0687059
0.0011239538
-1.1400069
0.00057739185
-1.216438
0.0002380056
-1.298957
6.4985975e-05
-1.387503
0.0011886083
-0.19715354
0.0026370822
-0.19963863
0.003180791
-0.20327922
0.0035386273
-0.20662892
0.003583479
-0.20851597
0.0039786264
-0.20840987
0.0047460003
-0.20633139
0.0061074498
-0.20251333
0.0079692477
-0.1971498
0.010578547
-0.19054394
0.011981767
-0.20343587
0.013755972
-0.21718916
0.015861218
-0.23191855
0.018309008
-0.24775581
0.021016527
-0.26485085
0.024032462
-0.28339139
0.027195034
-0.30360899
0.030316039
-0.3257587
0.033122
-0.35010406
0.03533166
-0.37687564
0.036620219
-0.40623196
0.03678835
-0.43822667
0.035719243
-0.47279843
0.033483661
-0.50979224
0.030279334
-0.54900896
0.026426815
-0.59026965
0.022274208
-0.63346727
0.018147464
-0.67860353
0.014303386
-0.72579405
0.010904921
-0.77526004
0.0080368768
-0.82730382
0.0057079948
-0.88229281
0.003888481
-0.9406219
0.002514686
-1.0027548
0.0015181554
-1.0691001
0.00082696766
-1.1402564
0.00037862375
-1.2165786
0.00011933538
-1.2990113
5.3172561e-06
-1.3875084
-0.19521722
1.0980152e-05
0.0014903341
-0.19600679
0.0025474082
-0.19900525
0.0032996442
-0.20304024
0.0035047981
-0.20655024
0.0037921991
-0.20832954
0.004276048
-0.20793992
0.0052645739
-0.20548851
0.0067068714
-0.20125095
0.0088524503
-0.1954237
0.01162586
-0.19018803
0.013321525
-0.20300142
0.015366993
-0.21669494
0.017785974
-0.23139551
0.020505666
-0.24724495
0.023592667
-0.26441105
0.026917526
-0.28311388
0.030309216
-0.30360216
0.03350807
-0.32614477
0.036223879
-0.35099628
0.03809788
-0.3783533
0.038871377
-0.40831499
0.038352278
-0.44085971
0.036536401
-0.47585117
0.033568564
-0.51308147
0.029751312
-0.55233346
0.025448171
-0.59344361
0.021028359
-0.63634816
0.016801935
-0.68110208
0.012984871
-0.727874
0.0097039326
-0.7769271
0.0069967362
-0.82859256
0.0048493671
-0.88325369
0.0032034564
-0.94131067
0.0019897457
-1.0032264
0.0011295862
-1.0694028
0.0005523407
-1.1404301
0.00019648948
-1.2166558
1.4118536e-05
-1.2990201
-4.0324736e-05
-1.387468
-0.19378134
5.4451936e-05
-0.19521632
-0.0011676551
0.0014712446
-0.19493063
0.0026706083
-0.19837621
0.003272276
-0.20280772
0.0036914186
-0.20644946
0.0040551287
-0.20810863
0.0047524584
-0.2074278
0.0058236177
-0.20460526
0.0075317956
-0.1999303
0.0098497724
-0.19364762
0.012895614
-0.18976212
0.014866745
-0.20250117
0.017242261
-0.21615123
0.019953179
-0.23084303
0.023081019
-0.2467333
0.02653084
-0.26402437
0.030153076
-0.28295774
0.033708203
-0.3038023
0.036907606
-0.3268285
0.039369123
-0.35226752
0.040781861
-0.38026378
0.040878993
-0.4108417
0.039572729
-0.44389603
0.036939972
-0.47922258
0.033247801
-0.51657796
0.028861584
-0.55574687
0.024186938
-0.59660219
0.019587543
-0.63913377
0.015337854
-0.68345506
0.011614146
-0.72978421
0.0084906331
-0.77842099
0.0059751047
-0.82971829
0.0040190561
-0.88406929
0.0025542936
-0.94187522
0.0014969332
-1.0035938
0.00076955377
-1.06962
0.00030030199
-1.140534
3.0707082e-05
-1.2166724
-8.7226935e-05
-1.2989732
-8.4193101e-05
-1.3873838
-0.19239728
8.7180086e-05
-0.193776
-0.0013858705
-0.19715153
-0.002106834
0.0015585386
-0.19381856
0.0026545585
-0.19775849
0.0034378412
-0.20255414
0.0039197862
-0.20631412
0.004478846
-0.20783501
0.0052644865
-0.20686867
0.0065774338
-0.20365089
0.0084638674
-0.19854439
0.011049687
-0.19180169
0.014371313
-0.18926669
0.016685437
-0.20194435
0.019370121
-0.21556817
0.0225117
-0.23027371
0.026050467
-0.24625293
0.029862158
-0.26373345
0.033732355
-0.28298189
0.037384328
-0.30427902
0.040423508
-0.32788289
0.042496442
-0.3539821
0.043265548
-0.38265034
0.04255419
-0.41382316
0.040357969
-0.44731403
0.036890159
-0.48286494
0.032501572
-0.52021795
0.02762394
-0.55918387
0.022672258
-0.5996869
0.01798353
-0.64177945
0.01379101
-0.68563192
0.010213716
-0.7315073
0.007288257
-0.77973415
0.0049810876
-0.83068033
0.0032280841
-0.88474308
0.0019423334
-0.94232062
0.0010395345
-1.0038638
0.0004383327
-1.069758
7.113842e-05
-1.1405744
-0.0001190386
-1.2166405
-0.00017645973
-1.298881
-0.00012344922
-1.3872604
-0.19094716
0.00010842373
-0.19238599
-0.0013028325
-0.19599292
-0.0025444805
-0.20035899
-0.0027213054
0.001548063
-0.19271206
0.0027822553
-0.19710291
0.0036290637
-0.20226342
0.0042868711
-0.20612214
0.004938766
-0.20750929
0.0059377061
-0.20622894
0.0074304215
-0.20261745
0.0095790954
-0.1970738
0.012442326
-0.1898727
0.016127559
-0.18870881
0.018765458
-0.20133969
0.02189793
-0.2149544
0.025492162
-0.2297154
0.029452465
-0.24584324
0.033593685
-0.26359478
0.037659949
-0.28325751
0.041255932
-0.30511144
0.043996601
-0.32938305
0.045481113
-0.35619767
0.045442507
-0.38553866
0.043784143
-0.41724934
0.040647335
-0.45107121
0.036349591
-0.48671295
0.031334977
-0.52392899
0.026064363
-0.56257598
0.020939396
-0.60264277
0.016257213
-0.64424565
0.012190352
-0.68760856
0.0088121468
-0.73303119
0.0061102458
-0.7808633
0.0040287039
-0.83148095
0.002479503
-0.88528025
0.0013728629
-0.94265394
0.00061722415
-1.0040426
0.00013616221
-1.069823
-0.00013765586
-1.1405558
-0.00025388102
-1.2165631
-0.00025514611
-1.2987493
-0.00015883659
-1.3871016
-0.18949215
9.3053332e-05
-0.19092978
-0.0013477865
-0.19490126
-0.0023944955
-0.19962119
-0.0032822804
-0.20388119
-0.0030658942
0.0016040762
-0.19153388
0.0029199711
-0.19639382
0.0039343479
-0.2019109
0.0046893503
-0.20587273
0.005526838
-0.20709842
0.0067002998
-0.20549882
0.0084472951
-0.20148565
0.010871829
-0.1955033
0.014107875
-0.18785302
0.018152396
-0.18809575
0.021250661
-0.20069242
0.024871123
-0.21433336
0.028940923
-0.22920386
0.03330775
-0.2455573
0.037744689
-0.26367952
0.041866482
-0.28386806
0.045269254
-0.3063841
0.047498875
-0.33140081
0.048200806
-0.35895597
0.047178401
-0.38893291
0.044484012
-0.42108601
0.040381544
-0.45510316
0.035310234
-0.49068821
0.029767831
-0.52763245
0.024220189
-0.56585677
0.01903421
-0.60541977
0.014444796
-0.64650009
0.010570806
-0.68936722
0.0074283121
-0.73434925
0.0049744386
-0.78180904
0.0031235358
-0.83212498
0.0017802025
-0.88568759
0.0008454971
-0.94288222
0.00023156859
-1.0041381
-0.00013814315
-1.0698225
-0.000325332
-1.1404843
-0.00037421449
-1.2164441
-0.00032466127
-1.2985835
-0.00018975351
-1.3869118
-0.18794014
5.206578e-05
-0.1894715
-0.0013652227
-0.19377348
-0.0024755665
-0.19896783
-0.0030478521
-0.20352887
-0.0036346015
-0.20693566
-0.003287965
0.0016556969
-0.19026961
0.0031409496
-0.19560042
0.0042692961
-0.20149084
0.0051919629
-0.20553785
0.0061915476
-0.20658967
0.0076074124
-0.20465894
0.0096237132
-0.20023753
0.012428208
-0.19382364
0.016030715
-0.18573134
0.020584346
-0.18742943
0.02420032
-0.20002162
0.028344521
-0.21373696
0.032891905
-0.22878802
0.037652185
-0.2454648
0.042260661
-0.2640737
0.046307002
-0.28490581
0.049297044
-0.30818227
0.050794887
-0.33399489
0.050500179
-0.36227774
0.048361484
-0.39281039
0.0445681
-0.42527257
0.039534267
-0.45932719
0.033781846
-0.49470223
0.027837322
-0.53124959
0.022141677
-0.56896424
0.017000816
-0.60797579
0.012588669
-0.64851796
0.0089579448
-0.69089685
0.0060848999
-0.73545971
0.0038898027
-0.78257531
0.0022745623
-0.83261934
0.0011309359
-0.88597303
0.00036282838
-0.94301348
-0.00011883448
-1.0041574
-0.00038530147
-1.0697626
-0.00049254244
-1.140366
-0.00048084617
-1.2162879
-0.00038557859
-1.2983876
-0.00021679287
-1.386695
-0.18627606
-8.3889109e-06
-0.18792071
-0.0014987254
-0.19265848
-0.002480221
-0.19831866
-0.0031247385
-0.20324483
-0.0033318924
-0.20679619
-0.0037740651
-0.20913742
-0.0035748368
0.0017492898
-0.18887795
0.0033838355
-0.19471496
0.0046822575
-0.20098114
0.0057552046
-0.20510151
0.0069809478
-0.20596321
0.0086533275
-0.20368855
0.01105096
-0.19886028
0.014233897
-0.19202682
0.018333447
-0.18348044
0.023494986
-0.1867241
0.02767822
-0.19935532
0.032364338
-0.21320939
0.037398969
-0.2285348
0.04244844
-0.24565258
0.047108806
-0.2648755
0.050859551
-0.28646832
0.053194551
-0.31058193
0.053709814
-0.33720452
0.052238677
-0.36615494
0.048875219
-0.3971175
0.043986024
-0.42972433
0.038100395
-0.46364574
0.031798317
-0.49866322
0.025596973
-0.53470488
0.019881247
-0.57184467
0.014890212
-0.61027733
0.010722514
-0.65028253
0.0073805782
-0.69219253
0.0047952715
-0.73636518
0.0028681124
-0.78316886
0.0014840918
-0.83297249
0.00053505758
-0.88614526
-7.565902e-05
-0.94305665
-0.00043540891
-1.0041073
-0.00060593725
-1.0696492
-0.00064060326
-1.1402062
-0.00057446696
-1.216099
-0.00043860768
-1.2981658
-0.00024004677
-1.386455
-0.18445021
-7.6553941e-05
-0.18626386
-0.0016652375
-0.19148338
-0.0026738198
-0.19769012
-0.0031087597
-0.20298646
-0.0033831057
-0.20667912
-0.0034489641
-0.20897925
-0.0039322357
-0.21045173
-0.0040947265
0.0018574309
-0.18735155
0.0036834561
-0.19371616
0.0051394264
-0.20036536
0.0064224188
-0.20454298
0.0078866873
-0.20519657
0.009931552
-0.20256915
0.01272098
-0.19734737
0.016393344
-0.19008672
0.021095441
-0.1810809
0.026957419
-0.1860033
0.031741716
-0.19873269
0.037003048
-0.21281347
0.04244397
-0.22853033
0.047679028
-0.2462228
0.052177234
-0.26619318
0.055374757
-0.28864852
0.056770086
-0.3136422
0.056073469
-0.34103931
0.053264873
-0.37054459
0.048638998
-0.40177048
0.042712033
-0.43433596
0.036106293
-0.46795371
0.029414538
-0.50248078
0.023107503
-0.53793114
0.017499604
-0.57445406
0.012745785
-0.6123006
0.0088827404
-0.65178469
0.0058577173
-0.69325498
0.003574871
-0.73707194
0.0019138866
-0.78359865
0.00075681941
-0.83319426
-3.2775968e-06
-0.88621764
-0.00047338533
-0.94301868
-0.00071824472
-1.0039949
-0.00080145143
-1.0694883
-0.000770683
-1.14001
-0.00065606141
-1.2158815
-0.00048433918
-1.2979215
-0.00025989077
-1.3861951
-0.18245436
-0.00013842742
-0.1844521
-0.001888317
-0.1902375
-0.0029111262
-0.19703842
-0.0033255232
-0.20274291
-0.0033523125
-0.20658735
-0.0034748715
-0.20880483
-0.0036233823
-0.210067
-0.0043169684
-0.21103391
-0.0049797764
0.001996124
-0.18566421
0.00401385
-0.19259058
0.0056793173
-0.19962226
0.0071842836
-0.20384058
0.0089983224
-0.20426334
0.011443659
-0.20129183
0.014720292
-0.19567432
0.018990322
-0.1879816
0.024395573
-0.17851905
0.031039184
-0.18530076
0.036481658
-0.1982113
0.042263379
-0.21263288
0.048027554
-0.22887886
0.053246929
-0.24729249
0.057317353
-0.26813578
0.059647811
-0.29152625
0.05982429
-0.31739302
0.057696181
-0.34547062
0.053461589
-0.37536718
0.047599712
-0.40665816
0.040759561
-0.43898923
0.033605387
-0.47214456
0.02669899
-0.50607227
0.020440306
-0.54087184
0.015051574
-0.57675985
0.010613248
-0.61403111
0.0070955722
-0.65302254
0.004409548
-0.69408965
0.0024312369
-0.73758929
0.0010333911
-0.78387522
9.3516501e-05
-0.83329105
-0.00049922365
-0.8861918
-0.00082881351
-0.94290811
-0.00096878004
-1.0038276
-0.0009733977
-1.0692856
-0.00088402042
-1.1397821
-0.00072644098
-1.2156394
-0.00052333645
-1.2976581
-0.00027656303
-1.3859185
-0.18025587
-0.00020235684
-0.18247526
-0.002115263
-0.18888123
-0.0032445852
-0.1963518
-0.0035977401
-0.20249172
-0.0035767129
-0.20649803
-0.0034416396
-0.20864639
-0.0036333074
-0.20965075
-0.0040396293
-0.21027147
-0.0050794057
-0.21109448
-0.0063298694
0.002152621
-0.18380298
0.0044050449
-0.19131631
0.0062940568
-0.19873203
0.0081185487
-0.2029608
0.010328685
-0.20314836
0.013261244
-0.19983278
0.017130892
-0.19381489
0.022109683
-0.18569571
0.028301302
-0.17578117
0.035849559
-0.18466867
0.041922267
-0.19787019
0.048166605
-0.21277193
0.054072152
-0.22970408
0.059010204