/*--------------------------------*- C++ -*----------------------------------*\
| =========                 |                                                 |
| \\      /  F ield         | OpenFOAM: The Open Source CFD Toolbox           |
|  \\    /   O peration     | Version:  5.0                                   |
|   \\  /    A nd           | Web:      www.OpenFOAM.org                      |
|    \\/     M anipulation  |                                                 |
\*---------------------------------------------------------------------------*/
FoamFile
{
    version     2.0;
    format      ascii;
    class       surfaceScalarField;
    location    "40";
    object      phi_0;
}
// * * * * * * * * * * * * * * * * * * * * * * * * * * * * * * * * * * * * * //

dimensions      [0 3 -1 0 0 0 0];

internalField   nonuniform List<scalar> 
18180
(
0.0012719873
-1.3447459
0.0024347263
-1.2574533
0.0012567253
-1.3460026
0.0034955757
-1.1758526
0.0024124641
-1.2586091
0.0012339935
-1.3472366
0.0044434294
-1.0994672
0.0034642025
-1.1769043
0.0023734063
-1.2597485
0.0012317716
-1.3484684
0.0052759079
-1.0280653
0.0044063618
-1.1004093
0.0034102955
-1.1779412
0.0023735393
-1.2608903
0.0012284866
-1.3496968
0.0060032177
-0.96127768
0.0052373713
-1.0288963
0.0043419971
-1.101341
0.003417617
-1.1789853
0.0023716868
-1.2620335
0.0012454918
-1.3509423
0.0066245007
-0.8988295
0.0059633185
-0.96200363
0.0051669356
-1.0297212
0.0043624993
-1.1022859
0.0034229721
-1.1800366
0.0024094445
-1.2631974
0.0012787588
-1.3522211
0.0071510605
-0.84043143
0.0065871885
-0.89945337
0.0058890702
-0.96272577
0.0052048762
-1.0305636
0.0043812571
-1.1032442
0.0034878575
-1.181115
0.0024765839
-1.2643952
0.0013432037
-1.3535643
0.0075882225
-0.78582818
0.0071166345
-0.84096088
0.0065122103
-0.90007651
0.0059483154
-0.9634692
0.0052421332
-1.0314245
0.004480807
-1.1042371
0.0035912952
-1.1822297
0.0026044919
-1.2656565
0.0014246168
-1.3549889
0.0079461044
-0.73477048
0.0075585392
-0.78627009
0.0070425321
-0.8414912
0.0065947339
-0.90072293
0.0060074368
-0.96423451
0.0053824251
-1.0323261
0.0046242425
-1.1052701
0.0037828772
-1.1834081
0.0027650906
-1.266997
0.0015252689
-1.3565142
0.0082333508
-0.68703219
0.0079213695
-0.73513331
0.0074866436
-0.7867142
0.0071491443
-0.84204561
0.0066770102
-0.90139251
0.0061926837
-0.96504477
0.0055695347
-1.0332714
0.0048827083
-1.1063699
0.0040204638
-1.1846635
0.0029656078
-1.2684373
0.0016185052
-1.3581327
0.008458935
-0.64239791
0.0082139483
-0.68732476
0.007851702
-0.73549837
0.0076160195
-0.78718108
0.0072539077
-0.84262251
0.0069085905
-0.90210841
0.0064264429
-0.96590168
0.0058985504
-1.0342872
0.0051977737
-1.1075472
0.0043190909
-1.186017
0.003152586
-1.2699714
0.0017029688
-1.3598357
0.0086311496
-0.60066573
0.0084430207
-0.64262699
0.0081442495
-0.68761731
0.0080007277
-0.73588308
0.0077410947
-0.78766826
0.0075311798
-0.8432451
0.0071907187
-0.90287269
0.0068294831
-0.96683261
0.0062923049
-1.0353818
0.0055958969
-1.108824
0.00459978
-1.1874641
0.0033245433
-1.271593
0.0017601979
-1.3615958
0.0087575901
-0.56164798
0.0086158705
-0.60083858
0.0083708291
-0.64285357
0.0083088282
-0.68792541
0.008143186
-0.73628517
0.0080619561
-0.78819904
0.0078619984
-0.84391638
0.0076694451
-0.90371265
0.0073032401
-0.96784354
0.006791226
-1.0365771
0.0059737395
-1.110198
0.0048625515
-1.1890022
0.0034434152
-1.2732762
0.0017968406
-1.3633927
0.0088435303
-0.52516584
0.0087395714
-0.56177168
0.0085389526
-0.60100671
0.0085473031
-0.64309204
0.0084660733
-0.6882483
0.00850508
-0.7367283
0.0084407659
-0.78877781
0.0084157937
-0.84466273
0.0082237951
-0.90463321
0.0079048364
-0.96895715
0.0072699138
-1.0378733
0.0063347822
-1.1116702
0.0050492833
-1.190608
0.0035232415
-1.2750026
0.0018080415
-1.3652007
0.0088952327
-0.49105595
0.0088211373
-0.52524741
0.0086551302
-0.56188785
0.0087233213
-0.60118273
0.0087174659
-0.64334343
0.0088665628
-0.68860978
0.0089299689
-0.7372175
0.0090660686
-0.78942808
0.009049554
-0.84548849
0.0089291629
-0.90565753
0.0084880353
-0.97017527
0.0077362832
-1.0392748
0.0065998936
-1.1132208
0.0051812854
-1.1922661
0.0035528245
-1.2767474
0.0018020855
-1.3670028
0.008918541
-0.4591633
0.0088665762
-0.49110139
0.0087276815
-0.52531996
0.0088447919
-0.56200932
0.0089058687
-0.60137113
0.0091532961
-0.64363017
0.0093330033
-0.68901282
0.0096195576
-0.73777099
0.0097757765
-0.7901543
0.0098582276
-0.84641755
0.0096200314
-0.90678953
0.0090666731
-0.97150566
0.0080909675
-1.0407658
0.0067975636
-1.1148371
0.0052398456
-1.1939531
0.0035492699
-1.2784946
0.001777954
-1.3687808
0.0089186667
-0.42934375
0.008881984
-0.45917871
0.0087638782
-0.49113759
0.008919428
-0.52539459
0.0090392629
-0.56214272
0.0093714634
-0.6015893
0.0096534822
-0.64395065
0.010076648
-0.68946991
0.010399861
-0.73839507
0.010685666
-0.79098174
0.010658996
-0.84745652
0.010317196
-0.90804005
0.0095220408
-0.97293674
0.0083688398
-1.0423371
0.006899799
-1.1164971
0.0052503831
-1.1956542
0.0035093046
-1.2802259
0.0017398554
-1.3705206
0.0089000731
-0.40146222
0.0088730377
-0.4293348
0.0087703038
-0.45918513
0.0089546064
-0.49117277
0.0091245222
-0.52547985
0.0095267941
-0.56229805
0.0098958442
-0.60183166
0.010440168
-0.64431417
0.010921777
-0.68999182
0.011407711
-0.73911712
0.011597178
-0.79191992
0.011479119
-0.84861844
0.010883487
-0.9094015
0.0098948256
-0.97446272
0.0085316089
-1.0439689
0.0069402238
-1.1181869
0.0052065009
-1.1973514
0.0034421198
-1.2819282
0.0016876686
-1.3722083
0.0088664457
-0.37539257
0.0088446816
-0.40143387
0.0087527002
-0.4293172
0.0089567043
-0.45918723
0.0091673372
-0.49121558
0.0096252208
-0.52557828
0.010066234
-0.56246844
0.010715682
-0.60210717
0.01134447
-0.64473686
0.012022691
-0.6906068
0.012428007
-0.73994795
0.012541791
-0.7929826
0.012164982
-0.84989994
0.011365173
-0.91087184
0.010135912
-0.97606703
0.008620355
-1.045649
0.0069082
-1.1198886
0.0051222484
-1.1990315
0.0033465552
-1.2835871
0.0016236915
-1.373832
0.0088209636
-0.35101651
0.0088011393
-0.37534903
0.0087159176
-0.40139708
0.0089312244
-0.42929172
0.0091730798
-0.45919297
0.0096733666
-0.49126373
0.010172419
-0.52568446
0.010910912
-0.56266367
0.011672976
-0.60243568
0.012530844
-0.64524501
0.013146173
-0.69132497
0.01349556
-0.74090172
0.013353786
-0.7941714
0.012768211
-0.85130297
0.011702205
-0.91243814
0.010293232
-0.9777399
0.008618958
-1.0473598
0.0068227038
-1.1215891
0.0049948695
-1.2006798
0.0032272409
-1.2851906
0.0015493461
-1.3753813
0.0087663077
-0.32822387
0.0087460525
-0.35096142
0.0086641025
-0.37529721
0.0088831294
-0.40134899
0.0091471217
-0.42926576
0.0096782642
-0.45919787
0.010222831
-0.49131414
0.01103437
-0.52580792
0.011913297
-0.56290399
0.012933915
-0.60283875
0.013748399
-0.64584724
0.014332267
-0.69216168
0.014437629
-0.74198556
0.014088902
-0.79549209
0.013218155
-0.85281892
0.011948869
-0.91409377
0.010343929
-0.97946488
0.0085512804
-1.0490884
0.0066782999
-1.1232725
0.0048313661
-1.202284
0.0030863214
-1.2867276
0.0014661126
-1.3768474
0.0087047009
-0.30691197
0.0086824693
-0.32816029
0.0086008217
-0.35089814
0.0088169347
-0.37523102
0.0090946766
-0.40129654
0.0096467682
-0.42923427
0.010225645
-0.45920069
0.011094461
-0.49137423
0.012071946
-0.52596657
0.013235286
-0.56320536
0.01423392
-0.60332427
0.015046191
-0.64656116
0.015405447
-0.69312949
0.015312316
-0.74320897
0.014667292
-0.79694123
0.013574795
-0.85444485
0.012074742
-0.91582459
0.010316182
-0.98122978
0.0084081723
-1.0508183
0.0064844901
-1.1249256
0.0046333995
-1.203831
0.002926847
-1.2881883
0.0013756447
-1.3782231
0.0086379978
-0.28698509
0.008612938
-0.30684244
0.0085291013
-0.32808856
0.0087367207
-0.35081793
0.0090206047
-0.37515695
0.0095851919
-0.40123497
0.010188399
-0.42919702
0.011099273
-0.4592055
0.012156059
-0.49145834
0.013440308
-0.52617159
0.014604954
-0.5635764
0.015634779
-0.60391286
0.016248748
-0.64740446
0.016424427
-0.6942416
0.016032361
-0.74457404
0.015153448
-0.79851988
0.013799756
-0.85616986
0.012111544
-0.91761995
0.010195759
-0.98301736
0.0082013454
-1.0525351
0.0062421707
-1.1265344
0.004405963
-1.2053102
0.0027520053
-1.2895647
0.0012795498
-1.3795026
0.0085678539
-0.26835481
0.0085396186
-0.28691177
0.0084514696
-0.30676481
0.0086461096
-0.32799795
0.0089293046
-0.35072663
0.0094991693
-0.37507093
0.01011792
-0.40116449
0.011056619
-0.42915437
0.012173491
-0.45922293
0.013556277
-0.49157431
0.014866567
-0.52643321
0.016098667
-0.56404028
0.016961943
-0.60462605
0.017413065
-0.6483931
0.017295873
-0.69550512
0.016665483
-0.74608608
0.015501446
-0.80022157
0.013927345
-0.85798566
0.012038483
-0.91946267
0.009996619
-0.98481264
0.007929898
-1.0542228
0.0059576748
-1.1280861
0.004154127
-1.2067123
0.0025649988
-1.2908501
0.0011794548
-1.3806821
0.0084959344
-0.25093911
0.0084644616
-0.26827966
0.0083700009
-0.2868303
0.0085482563
-0.30666695
0.0088246534
-0.3278933
0.0093936395
-0.3506211
0.010020335
-0.37497334
0.010974014
-0.40108188
0.012132595
-0.42911347
0.013591908
-0.45925856
0.015026004
-0.49173375
0.01644118
-0.52677572
0.017542324
-0.56462067
0.018268504
-0.60548149
0.01844164
-0.64953887
0.01809063
-0.69693026
0.017159593
-0.74774422
0.015746851
-0.80204108
0.013928889
-0.85987607
0.011871161
-0.92133722
0.0097146888
-0.98659743
0.0076015257
-1.0558667
0.0056367591
-1.1295687
0.0038821025
-1.2080294
0.0023692132
-1.2920399
0.0010769251
-1.381759
0.0084241572
-0.23465936
0.0083895682
-0.25086422
0.008286378
-0.26819603
0.0084458672
-0.28672791
0.0087100032
-0.3065523
0.0092728592
-0.32777252
0.0099010687
-0.35050183
0.010858532
-0.37485786
0.012041824
-0.40099111
0.01355663
-0.42907819
0.015091893
-0.45932445
0.016667753
-0.49196032
0.017989939
-0.52722333
0.018983994
-0.56533616
0.01945579
-0.60649564
0.019409391
-0.65085763
0.018752
-0.69852267
0.017549682
-0.74954706
0.015852121
-0.80396431
0.013820795
-0.8618257
0.011601098
-0.92322362
0.0093591636
-0.98835507
0.007222793
-1.0574527
0.0052851896
-1.1309718
0.0035949812
-1.2092552
0.0021678418
-1.2931308
0.00097344874
-1.3827325
0.0083549078
-0.21943872
0.0083176858
-0.23458748
0.0082021206
-0.25077996
0.0083412372
-0.2680914
0.0085882258
-0.28660613
0.0091404368
-0.30641988
0.0097648249
-0.32763628
0.01071666
-0.35035996
0.011909344
-0.37472538
0.013459994
-0.40089448
0.015073645
-0.42905994
0.016785542
-0.45944224
0.018307596
-0.49227798
0.019556241
-0.52779558
0.020327728
-0.56620809
0.020604231
-0.60769048
0.020256337
-0.65236197
0.019312446
-0.70028543
0.017788904
-0.75148384
0.015833419
-0.80597693
0.013588852
-0.86381346
0.011238808
-0.92510327
0.0089359291
-0.9900682
0.0068001504
-1.0589677
0.0049108216
-1.1322877
0.0032976245
-1.2103849
0.0019639467
-1.2941213
0.00087039067
-1.3836029
0.0082905167
-0.20519706
0.0082524451
-0.21937348
0.0081189855
-0.23450434
0.0082364363
-0.25067516
0.0084617669
-0.26796495
0.0089994044
-0.2864651
0.0096156036
-0.30627066
0.010554182
-0.3274738
0.011742784
-0.3501934
0.013311298
-0.37457668
0.014981097
-0.40080193
0.016803185
-0.42907759
0.01850081
-0.45963545
0.019985668
-0.4927074
0.021050765
-0.52851862
0.021660605
-0.56726447
0.021651325
-0.60908547
0.021010484
-0.65406001
0.019715846
-0.70221238
0.017891841
-0.75354226
0.015669527
-0.80805761
0.013244249
-0.8658189
0.010788163
-0.9269555
0.0084526074
-0.99172066
0.0063437128
-1.0604006
0.0045191225
-1.1335092
0.0029947573
-1.2114157
0.0017603221
-1.2950113
0.0007689986
-1.3843719
0.0082308689
-0.1918515
0.0081975877
-0.2051422
0.0080394394
-0.21929394
0.0081336131
-0.23440152
0.0083328546
-0.25054624
0.0088522875
-0.26781783
0.0094567572
-0.28630625
0.010376146
-0.30609262
0.011549088
-0.32728011
0.013119365
-0.35000147
0.014824249
-0.37441983
0.01673052
-0.40072927
0.018577531
-0.42915431
0.02027625
-0.45992603
0.021622263
-0.4932789
0.02256755
-0.52942556
0.022917803
-0.56853095
0.022619024
-0.61069401
0.021607055
-0.65595121
0.019973834
-0.70429437
0.017829211
-0.75570194
0.01537136
-0.81018472
0.012787666
-0.8678184
0.010258478
-0.92876137
0.0079213364
-0.99329828
0.0058596835
-1.0617411
0.0041171513
-1.1346316
0.002690704
-1.2123461
0.0015594487
-1.2958017
0.00067029607
-1.3850422
0.0063414701
-0.21080247
0.0081553622
-0.19180927
0.007966561
-0.20506932
0.0080354503
-0.21919578
0.0082038172
-0.23427248
0.0087013044
-0.25039526
0.0092910593
-0.26765213
0.010186884
-0.28611699
0.011334466
-0.305878
0.01289238
-0.32705312
0.014613014
-0.34979023
0.016578194
-0.37426751
0.018547607
-0.40069934
0.02043497
-0.42931303
0.022043343
-0.46034711
0.023317909
-0.49402926
0.024039544
-0.5305473
0.024114431
-0.57002636
0.02343529
-0.61252224
0.022053582
-0.65803096
0.020048263
-0.70651342
0.017610353
-0.75794094
0.014935022
-0.81233208
0.012229689
-0.86978961
0.0096621267
-0.93050216
0.0073488879
-0.99478749
0.0053588923
-1.0629829
0.0037106488
-1.1356515
0.0023893585
-1.213176
0.0013633958
-1.2964948
0.00057496728
-1.3856171
0.0049916064
-0.21108315
0.006368164
-0.20901527
0.0079026665
-0.19174538
0.0079450621
-0.20497893
0.0080776546
-0.21906961
0.0085486952
-0.23411987
0.0091208262
-0.25022503
0.0099900707
-0.26745532
0.011104405
-0.28588693
0.012637791
-0.30562341
0.01435693
-0.32679704
0.016357209
-0.34956925
0.01842213
-0.37414203
0.020471104
-0.40073548
0.022318409
-0.42958809
0.023908348
-0.46093755
0.025003887
-0.4949936
0.025475338
-0.53190821
0.025173345
-0.57176441
0.024102725
-0.61457139
0.022302515
-0.66028521
0.019945282
-0.70884835
0.01722531
-0.76023123
0.014371598
-0.81447399
0.011582008
-0.87170949
0.009007889
-0.93216117
0.006749762
-0.99617836
0.0048470679
-1.0641193
0.0033052833
-1.1365674
0.0020941059
-1.2139068
0.0011739004
-1.2970937
0.00048355082
-1.3861007
0.0041064656
-0.21102481
0.0051276985
-0.20984269
0.0061455629
-0.20725817
0.00786474
-0.19166506
0.0079580039
-0.20485928
0.0083974431
-0.21891836
0.0089481743
-0.23394722
0.0097887502
-0.25002371
0.01086373
-0.26721464
0.012362259
-0.2856114
0.014064938
-0.30533142
0.016078468
-0.3265183
0.018212824
-0.34935994
0.02039553
-0.37406646
0.022454627
-0.40087169
0.024339266
-0.43001901
0.025802216
-0.46173588
0.026683642
-0.49620191
0.026795349
-0.53353021
0.026091706
-0.57375339
0.024564059
-0.61683293
0.022354983
-0.66269491
0.019647368
-0.71127041
0.016684528
-0.76254415
0.013691041
-0.81658302
0.01085558
-0.87355718
0.0083124024
-0.93372381
0.0061300632
-0.99746135
0.0043336572
-1.0651477
0.0029059564
-1.1373793
0.0018078557
-1.2145407
0.00099260025
-1.2976028
0.00039711478
-1.3864978
0.0035864141
-0.21044778
0.0043675752
-0.21026468
0.0049078239
-0.20860495
0.0061478705
-0.2055413
0.0078481209
-0.19155517
0.0082513856
-0.20471322
0.0087758191
-0.21874601
0.0095854959
-0.23374397
0.010616605
-0.24977658
0.012071688
-0.26692407
0.013745218
-0.28529168
0.015752445
-0.3050054
0.017931511
-0.32623698
0.020220128
-0.34918454
0.022461427
-0.37407326
0.024614588
-0.40114702
0.026430224
-0.43064702
0.027725285
-0.46277753
0.028277954
-0.49768451
0.027991056
-0.53542957
0.026802424
-0.57599176
0.024813563
-0.61929151
0.022184449
-0.665232
0.019162777
-0.71374866
0.01599487
-0.76484798
0.012906106
-0.81863355
0.010068408
-0.87531319
0.0075837583
-0.9351775
0.0055035779
-0.99863127
0.0038239601
-1.0660657
0.0025169784
-1.1380884
0.0015330863
-1.2150812
0.00082101853
-1.2980267
0.00032170969
-1.3868195
0.0033000989
-0.20914373
0.0039875689
-0.21006777
0.0041281382
-0.209485
0.0049334987
-0.20739058
0.0061500089
-0.20384319
0.0081144082
-0.1914182
0.0086073617
-0.20454477
0.0093831439
-0.21854365
0.010366613
-0.23349397
0.011771227
-0.24947612
0.013405135
-0.26658399
0.01538895
-0.28492818
0.017589754
-0.30466364
0.019957249
-0.3259741
0.022349989
-0.3490731
0.024741398
-0.37420007
0.026887856
-0.40160465
0.0285907
-0.43151243
0.029601283
-0.46410085
0.029772666
-0.49946612
0.028985777
-0.53761292
0.027291343
-0.57846954
0.024814392
-0.62192146
0.021795027
-0.66786425
0.018493648
-0.71624744
0.015170134
-0.76711201
0.012035641
-0.82060078
0.0092315132
-0.87696094
0.0068392182
-0.93651314
0.004875731
-0.99968304
0.0033250454
-1.0668737
0.0021419394
-1.1386973
0.0012717615
-1.2155319
0.00065989692
-1.2983649
0.00025491126
-1.3870744
0.0030799013
-0.20695776
0.0038365301
-0.20899269
0.003720525
-0.20966016
0.0041667033
-0.2087182
0.0049372146
-0.20617778
0.0064312118
-0.20215999
0.0084470479
-0.19125788
0.0091852099
-0.20434683
0.010117424
-0.21829446
0.011465265
-0.23318801
0.013051239
-0.24912223
0.014997031
-0.26619207
0.017198591
-0.28453702
0.019619315
-0.3043257
0.022132663
-0.32575678
0.024729399
-0.3490611
0.027178984
-0.3744912
0.029274894
-0.40228884
0.030749606
-0.43266076
0.031410907
-0.4657391
0.031082229
-0.50156258
0.029755902
-0.54007748
0.027510263
-0.58116541
0.024564218
-0.62469065
0.021182222
-0.67055282
0.017653625
-0.71873093
0.014229248
-0.76930562
0.011093731
-0.822463
0.0083648316
-0.87848656
0.0060857215
-0.93772313
0.004257881
-1.0006159
0.0028412964
-1.0675731
0.0017837443
-1.1392092
0.0010251816
-1.2158972
0.00050917063
-1.2986191
0.00018979202
-1.3872642
0.0027381753
-0.20392309
0.0037066277
-0.20682786
0.0035573765
-0.20882954
0.0037699934
-0.20926345
0.004159887
-0.20794087
0.0052147865
-0.20496136
0.0067784833
-0.20049143
0.0089961559
-0.19106883
0.0098731978
-0.20410261
0.011158108
-0.21798731
0.012689055
-0.23282583
0.01458497
-0.24871016
0.016768428
-0.26576191
0.019218472
-0.28413618
0.021822477
-0.30401552
0.024590252
-0.32561763
0.027310857
-0.34919297
0.029777285
-0.37499359
0.031711723
-0.40325096
0.032883604
-0.43413345
0.033061118
-0.46771798
0.032173291
-0.50397997
0.03024112
-0.54280833
0.027447868
-0.58404906
0.024049758
-0.62755818
0.020357839
-0.67325703
0.016660599
-0.72116228
0.013189207
-0.77140109
0.010102981
-0.82420115
0.0074785292
-0.87987937
0.0053386664
-0.93880392
0.0036543014
-1.0014289
0.0023774104
-1.0681668
0.0014445966
-1.1396287
0.00079412195
-1.2161822
0.00036885498
-1.2987982
0.00012619315
-1.3873904
0.0021268241
-0.20042112
0.0033660691
-0.20358254
0.0034547905
-0.20672527
0.0036235711
-0.20868312
0.003747719
-0.20885128
0.0044188083
-0.20714489
0.0055581609
-0.20374103
0.0073327997
-0.19882807
0.0096394972
-0.19083513
0.010854424
-0.20379892
0.01232366
-0.21762191
0.014159953
-0.23240081
0.016309014
-0.24825075
0.018766412
-0.26530985
0.021432652
-0.28374635
0.02433699
-0.30376226
0.02729343
-0.3256002
0.030101319
-0.34951701
0.032481132
-0.375763
0.034172793
-0.40454015
0.034894219
-0.43596656
0.034509322
-0.47005402
0.032973026
-0.50671187
0.030418529
-0.54577899
0.027079763
-0.58707906
0.023278761
-0.63047911
0.019337196
-0.67593363
0.015533976
-0.72350705
0.012075226
-0.77337334
0.0090774079
-0.82580003
0.0065911972
-0.8811319
0.0046032825
-0.9397529
0.003073397
-1.0021249
0.0019363665
-1.0686585
0.0011261014
-1.1399606
0.00057909267
-1.2163924
0.00023919438
-1.2989112
6.5617132e-05
-1.387456
0.001189159
-0.19723028
0.0026408499
-0.1996959
0.003188015
-0.20331576
0.0035469726
-0.20664867
0.0035890329
-0.20852444
0.0039793445
-0.20841182
0.0047428049
-0.20632954
0.006101581
-0.20250982
0.0079585759
-0.19714715
0.010561122
-0.19054183
0.011960026
-0.20343529
0.013728402
-0.21719036
0.015829122
-0.23192092
0.018274288
-0.24775863
0.020976326
-0.26485352
0.023983436
-0.2833928
0.02713879
-0.30360762
0.030253961
-0.32575284
0.033055962
-0.35009184
0.035265253
-0.37685546
0.036556816
-0.40620275
0.036730871
-0.4381881
0.035670194
-0.47275118
0.033444495
-0.50973784
0.0302502
-0.54894943
0.026406889
-0.59020719
0.022261978
-0.63340389
0.018141169
-0.67854082
0.0143013
-0.72573312
0.010905597
-0.77520153
0.0080391665
-0.82724799
0.0057110866
-0.8822397
0.0038917879
-0.94057129
0.0025178626
-1.0027064
0.0015209821
-1.0690534
0.00082932792
-1.1402109
0.00038045148
-1.2165337
0.00012058414
-1.2989662
6.1603503e-06
-1.3874622
-0.19530443
9.5637957e-06
0.0014912946
-0.19608072
0.0025519804
-0.19905987
0.0033065709
-0.20307536
0.0035101124
-0.20656975
0.0037934452
-0.20833854
0.0042732602
-0.20794228
0.0052591131
-0.20548707
0.0066977517
-0.20124899
0.0088372035
-0.19542323
0.011606055
-0.19018786
0.013296118
-0.203003
0.015336568
-0.21669781
0.017752382
-0.23139901
0.020466344
-0.24724864
0.023543877
-0.26441396
0.026860533
-0.28311454
0.030245222
-0.30359888
0.033438694
-0.32613558
0.036152735
-0.35097932
0.038028528
-0.37832717
0.038807104
-0.40827898
0.038296241
-0.44081415
0.036490701
-0.47579739
0.033533847
-0.51302149
0.029727055
-0.5522696
0.025432932
-0.59337815
0.021020255
-0.63628297
0.016799007
-0.68103853
0.012985407
-0.72781293
0.0097065472
-0.77686891
0.0070004266
-0.82853733
0.0048534321
-0.88320134
0.0032074272
-0.94126085
0.0019933572
-1.0031787
0.0011326911
-1.0693568
0.00055487302
-1.1403853
0.00019841294
-1.2166115
1.5304454e-05
-1.2989753
-3.9709755e-05
-1.3874225
-0.19386514
5.2009663e-05
-0.19530369
-0.0011709123
0.001472694
-0.19500143
0.0026754861
-0.19842878
0.0032770147
-0.20284226
0.0036931156
-0.20646942
0.0040529404
-0.20811822
0.0047473901
-0.20743055
0.0058158595
-0.20460518
0.0075187077
-0.1999305
0.0098323989
-0.19364957
0.012872361
-0.1897641
0.014838063
-0.2025045
0.017209864
-0.21615529
0.019914882
-0.23084755
0.023032738
-0.24673751
0.026473426
-0.26402685
0.030087545
-0.28295687
0.033635845
-0.30379603
0.036831951
-0.32681479
0.039293843
-0.35224464
0.040710553
-0.38023062
0.040815468
-0.41079821
0.039519797
-0.44384325
0.036898884
-0.47916243
0.033218455
-0.51651288
0.028842702
-0.55567937
0.024176565
-0.59653446
0.019583496
-0.63906746
0.015338128
-0.68339125
0.011617076
-0.72972346
0.0084949864
-0.77836347
0.0059800055
-0.82966391
0.0040239633
-0.88401788
0.0025588112
-0.94182631
0.0015009036
-1.003547
0.00077288303
-1.0695748
0.00030296799
-1.1404898
3.2711703e-05
-1.2166289
-8.5843654e-05
-1.2989292
-8.3535885e-05
-1.3873389
-0.19247775
8.5304575e-05
-0.1938601
-0.0013915792
-0.19722868
-0.0021115496
0.0015609129
-0.19388686
0.0026584915
-0.19781026
0.0034399349
-0.20258908
0.0039184044
-0.20633488
0.0044743331
-0.20784516
0.0052578857
-0.20687258
0.0065664306
-0.2036529
0.0084489317
-0.19854703
0.011029242
-0.19180646
0.014344434
-0.18927047
0.016654288
-0.20194892
0.019332951
-0.21557336
0.02246417
-0.23027898
0.025992945
-0.24625702
0.029795465
-0.26373477
0.033657399
-0.28297842
0.037304443
-0.30426852
0.0403424
-0.32786335
0.042417946
-0.35395203
0.043194102
-0.38260925
0.042493351
-0.41377176
0.040309689
-0.44725405
0.036854891
-0.48279886
0.032478319
-0.5201485
0.027610751
-0.55911355
0.022666744
-0.5996177
0.017983376
-0.64171271
0.013794228
-0.6855684
0.010218797
-0.73144727
0.0072941167
-0.77967758
0.0049870269
-0.83062697
0.0032336949
-0.88469276
0.0019472971
-0.9422727
0.0010437871
-1.0038179
0.00044183182
-1.0697137
7.3881413e-05
-1.140531
-0.00011698928
-1.2165978
-0.00017506882
-1.2988376
-0.00012277924
-1.3872161
-0.19102499
0.00010814753
-0.19246683
-0.0013079734
-0.19606766
-0.0025525953
-0.20041918
-0.0027270653
0.00155104
-0.19277941
0.0027848046
-0.19715513
0.0036287298
-0.20229941
0.0042832616
-0.20614381
0.004933189
-0.20752046
0.0059286551
-0.2062348
0.0074178901
-0.20262186
0.0095615576
-0.19707934
0.012418035
-0.18988006
0.016097709
-0.18871389
0.018729478
-0.20134545
0.021851353
-0.21496054
0.025434823
-0.22972086
0.029384974
-0.24584653
0.03351653
-0.26359391
0.037576162
-0.28325014
0.041169178
-0.3050953
0.043910861
-0.32935627
0.045401393
-0.35615932
0.045373124
-0.38548903
0.043727832
-0.4171899
0.040605246
-0.45100441
0.036321149
-0.48664169
0.031318329
-0.52385608
0.026056957
-0.56250377
0.020938596
-0.60257292
0.016260668
-0.64417915
0.012196227
-0.68754583
0.0088190969
-0.73297225
0.0061173948
-0.78080795
0.0040354991
-0.83142878
0.0024857031
-0.88523117
0.0013781798
-0.94260709
0.00062168652
-1.0039977
0.00013978802
-1.0697796
-0.00013479413
-1.1405132
-0.00025179206
-1.216521
-0.00025375115
-1.2987067
-0.00015815501
-1.387058
-0.18956882
9.48754e-05
-0.19100789
-0.0013507913
-0.19497303
-0.0024025997
-0.19967953
-0.0032922532
-0.20392204
-0.0030723626
0.0016071945
-0.1916018
0.0029210293
-0.19644743
0.003932135
-0.20194828
0.0046848962
-0.20589552
0.0055195923
-0.2071114
0.0066900675
-0.20550698
0.0084327066
-0.20149301
0.010850395
-0.1955117
0.014080188
-0.18786254
0.01811765
-0.18810206
0.021205189
-0.20069928
0.024814224
-0.21433995
0.028872977
-0.22920886
0.033228799
-0.2455588
0.037657368
-0.26367511
0.041774335
-0.2838553
0.045176314
-0.30636075
0.047410626
-0.3313655
0.048122304
-0.3589085
0.047113226
-0.38887442
0.04443415
-0.42101881
0.040347003
-0.45503026
0.035289381
-0.49061274
0.029758016
-0.52755714
0.024218464
-0.56578363
0.019037822
-0.60535008
0.014451522
-0.64643445
0.010578996
-0.68930573
0.0074368599
-0.73429172
0.0049826469
-0.7817551
0.0031310284
-0.8320741
0.0017868695
-0.88563986
0.00085109305
-0.9428365
0.00023617091
-1.0040941
-0.00013440112
-1.06978
-0.00032243608
-1.1404426
-0.00037210093
-1.2164027
-0.00032326156
-1.2985416
-0.0001890721
-1.3868689
-0.18801731
5.5682522e-05
-0.1895482
-0.0013648082
-0.19384255
-0.0024812757
-0.19902373
-0.0030583923
-0.20356838
-0.003645916
-0.20695881
-0.0032947551
0.0016585039
-0.19033927
0.0031407277
-0.19565602
0.0042663915
-0.20152977
0.00518647
-0.2055624
0.0061834673
-0.2066048
0.0075957002
-0.20466997
0.0096054007
-0.20024802
0.012402895
-0.19383441
0.015998436
-0.18574332
0.020540102
-0.18743698
0.02414408
-0.20002914
0.028276435
-0.2137434
0.032811556
-0.22879162
0.037561723
-0.24546316
0.042163438
-0.26406421
0.046207
-0.28488598
0.04920011
-0.30815024
0.050706764
-0.33394996
0.050425329
-0.3622206
0.04830286
-0.39274313
0.044526464
-0.42519827
0.039508358
-0.45924924
0.033769008
-0.49462374
0.027834317
-0.53117299
0.022145325
-0.56889114
0.017008445
-0.607907
0.012598257
-0.64845371
0.0089681085
-0.69083698
0.0060947604
-0.73540383
0.0038988656
-0.78252293
0.0022825931
-0.83256982
0.0011379716
-0.88592674
0.00036858555
-0.94296892
-0.00011407761
-1.0041144
-0.00038151086
-1.0697209
-0.00048962007
-1.140325
-0.00047872584
-1.2162472
-0.00038418598
-1.2983464
-0.00021611125
-1.3866528
-0.18635501
-3.7937011e-06
-0.18799753
-0.0014949939
-0.19272595
-0.0024814116
-0.19837226
-0.003132746
-0.20328264
-0.0033441295
-0.20681875
-0.0037859684
-0.20914698
-0.0035815929
0.0017516216
-0.18895017
0.0033831425
-0.19477277
0.0046787263
-0.20102203
0.005749198
-0.20512813
0.0069718902
-0.20598099
0.008638316
-0.20370289
0.011028339
-0.19887346
0.0142041
-0.19204007
0.018292275
-0.1834955
0.023439601
-0.1867325
0.027610269
-0.19936297
0.032282981
-0.21321483
0.037305776
-0.22853568
0.042346504
-0.24564622
0.047001961
-0.26485918
0.050753875
-0.28643975
0.053096395
-0.31053987
0.053624526
-0.33714915
0.052170285
-0.36608803
0.048825416
-0.39704208
0.0439541
-0.42964401
0.038083812
-0.46356404
0.031793594
-0.49858301
0.025600483
-0.53462815
0.019889816
-0.57177251
0.014901367
-0.61021011
0.010734542
-0.65022014
0.0073923602
-0.69213458
0.0048061854
-0.73631115
0.0028778289
-0.78311817
0.0014925252
-0.83292438
0.00054241914
-0.88610057
-6.9751575e-05
-0.94301324
-0.00043059417
-1.0040653
-0.00060212028
-1.0696084
-0.00063767693
-1.1401661
-0.00057235085
-1.2160591
-0.00043722377
-1.2981253
-0.00023937249
-1.3864134
-0.18453187
-7.1515966e-05
-0.18634203
-0.0016592859
-0.19155044
-0.0026705
-0.1977421
-0.0031115739
-0.20302266
-0.0033927319
-0.20670076
-0.003462121
-0.20898893
-0.0039440158
-0.21045237
-0.0041011363
0.0018596127
-0.18742664
0.0036824375
-0.19377648
0.0051356278
-0.20040846
0.0064157469
-0.20457199
0.0078749492
-0.20521762
0.0099119872
-0.20258654
0.01269379
-0.19736315
0.016355271
-0.19010307
0.021043264
-0.18109916
0.026889873
-0.1860121
0.031659719
-0.19873971
0.036907552
-0.2128166
0.04233772
-0.22852689
0.047565633
-0.24620989
0.052062858
-0.26616816
0.055266258
-0.28860961
0.056673663
-0.313589
0.055994306
-0.34097318
0.053205769
-0.37046838
0.048599993
-0.40168797
0.042690868
-0.43425106
0.036099318
-0.46786976
0.029417675
-0.5024002
0.023117024
-0.53785536
0.017512513
-0.57438365
0.012759948
-0.61223552
0.0088967602
-0.65172454
0.0058707923
-0.69319919
0.0035865811
-0.7370199
0.0019240877
-0.78354973
0.00076550113
-0.83314746
2.5344728e-06
-0.88617286
-0.00046743488
-0.9429764
-0.00071340225
-1.0039541
-0.00079762688
-1.0694484
-0.00076776752
-1.1399707
-0.0006539592
-1.2158423
-0.0004829721
-1.2978817
-0.00025922333
-1.3861542
-0.18253912
-0.00013313971
-0.18453256
-0.0018809928
-0.1903052
-0.002904527
-0.19708964
-0.0033229621
-0.20277779
-0.0033564375
-0.2066081
-0.0034853949
-0.2088143
-0.0036367549
-0.2100682
-0.0043281832
-0.21102957
-0.0049855787
0.0019983131
-0.18574251
0.0040127125
-0.19265357
0.0056749536
-0.19966767
0.0071755274
-0.20387256
0.0089820955
-0.20428773
0.01141932
-0.20131207
0.01468541
-0.19569329
0.018941462
-0.18800127
0.024331398
-0.17854068
0.030956933
-0.18530932
0.036384309
-0.19821647
0.042153253
-0.21263214
0.047907959
-0.22886922
0.053123988
-0.24727103
0.0571983
-0.2681002
0.059539637
-0.29147558
0.059733377
-0.31732808
0.057626596
-0.345394
0.053414341
-0.37528273
0.047573006
-0.40657011
0.040749697
-0.43890144
0.033607847
-0.47205994
0.026709444
-0.50599262
0.020455154
-0.540798
0.015068186
-0.57669189
0.010629869
-0.61396863
0.0071111653
-0.65296491
0.0044235983
-0.69403621
0.0024435201
-0.73753934
0.0010439143
-0.78382814
0.0001022138
-0.83324714
-0.00049160095
-0.88614869
-0.00082280283
-0.942867
-0.00096393715
-1.0037877
-0.0009695926
-1.0692466
-0.00088112816
-1.1397435
-0.0007243632
-1.2156009
-0.00052198823
-1.297619
-0.00027590693
-1.3858783
-0.18034417
-0.00019663653
-0.18255848
-0.002107216
-0.18895044
-0.0032357539
-0.19640308
-0.0035910812
-0.20252593
-0.0035748309
-0.20651801
-0.0034465264
-0.20865562
-0.003644079
-0.2096523
-0.0040526551
-0.2102678
-0.005089953
-0.21108786
-0.006334874
0.0021547983
-0.1838846
0.0044032928
-0.19138191
0.006287915
-0.19878005
0.0081056775
-0.20299615
0.010307477
-0.20317589
0.013229744
-0.1998564
0.017085548
-0.19383737
0.022048994
-0.18571886
0.028222613
-0.17580636
0.035750836
-0.18467584
0.041808778
-0.19787199
0.04804123
-0.21276541
0.053940866
-0.2296861
0.058880497
-0.24895322