/*--------------------------------*- C++ -*----------------------------------*\
| =========                 |                                                 |
| \\      /  F ield         | OpenFOAM: The Open Source CFD Toolbox           |
|  \\    /   O peration     | Version:  5.0                                   |
|   \\  /    A nd           | Web:      www.OpenFOAM.org                      |
|    \\/     M anipulation  |                                                 |
\*---------------------------------------------------------------------------*/
FoamFile
{
    version     2.0;
    format      ascii;
    class       volScalarField;
    location    "40";
    object      pMean;
}
// * * * * * * * * * * * * * * * * * * * * * * * * * * * * * * * * * * * * * //

dimensions      [0 2 -2 0 0 0 0];

internalField   nonuniform List<scalar> 
9200
(
-0.00021778649
-0.00020938922
-0.00054106743
-0.00019908456
-0.00052084631
-0.00092495843
-0.00018406036
-0.00049337375
-0.00089261968
-0.0012989146
-0.00016450179
-0.00045489172
-0.00084572253
-0.0012561609
-0.0016965357
-0.00014413503
-0.00040546034
-0.00078097945
-0.0011912693
-0.0016439079
-0.0021068851
-0.00012042712
-0.00035248056
-0.00069837783
-0.0011027229
-0.0015610128
-0.0020459331
-0.0025356246
-9.6598454e-05
-0.00029234604
-0.00060834536
-0.00098946283
-0.00144884
-0.0019465367
-0.0024676751
-0.0029824535
-7.1508863e-05
-0.00023070267
-0.00050717561
-0.00086488592
-0.001304765
-0.0018130843
-0.0023529859
-0.0029094438
-0.0034474814
-4.6651755e-05
-0.00016648184
-0.00040237722
-0.00072499283
-0.001145211
-0.0016403185
-0.0022001099
-0.0027815729
-0.0033714051
-0.0039297932
-2.1912806e-05
-0.00010237346
-0.00029352348
-0.00057899495
-0.00096577125
-0.0014477491
-0.0020003742
-0.0026123501
-0.0032326441
-0.0038531387
-0.004427844
2.1207621e-06
-3.8789048e-05
-0.00018440947
-0.0004270379
-0.00077734851
-0.0012301176
-0.0017762708
-0.0023885671
-0.003050402
-0.0037065516
-0.0043532027
-0.0049389943
2.5257266e-05
2.306487e-05
-7.6130594e-05
-0.0002739444
-0.00058065315
-0.00099990145
-0.0015214125
-0.0021356694
-0.0028060425
-0.0035156726
-0.004202249
-0.0048693798
-0.0054605213
4.7288354e-05
8.2629264e-05
2.9316756e-05
-0.00012156899
-0.00038156749
-0.00075820818
-0.0012497188
-0.0018457113
-0.0025277002
-0.0032553473
-0.0040076566
-0.0047182134
-0.0053989959
-0.0059883109
6.8038339e-05
0.00013913673
0.00013081128
2.7449408e-05
-0.000182672
-0.0005119672
-0.00096268315
-0.001533849
-0.0022054555
-0.0029562196
-0.0037368048
-0.0045258116
-0.0052521031
-0.0059383176
-0.0065188535
8.7393649e-05
0.0001922679
0.00022735311
0.0001714042
1.2622719e-05
-0.00026465081
-0.00066821468
-0.0012017219
-0.0018554249
-0.0026058414
-0.0034224673
-0.004251056
-0.0050683464
-0.0058006881
-0.0064837598
-0.0070470635
0.00010536342
0.00024188224
0.00031835671
0.00030882353
0.00020195636
-2.0529893e-05
-0.00037057547
-0.00085817783
-0.001479223
-0.0022209265
-0.0030491889
-0.0039285555
-0.0047971808
-0.0056327683
-0.0063605054
-0.0070304395
-0.0075691799
0.00012200124
0.0002878503
0.00040338672
0.00043868532
0.00038328494
0.00021729264
-7.4972867e-05
-0.00050830597
-0.0010864434
-0.0018027345
-0.0026338655
-0.0035392602
-0.0044746295
-0.0053737241
-0.0062159368
-0.0069269837
-0.0075743225
-0.0080796982
0.00013736023
0.0003301666
0.00048223744
0.00056028839
0.00055514843
0.00044610828
0.00021463737
-0.0001582403
-0.00068291565
-0.0013614386
-0.0021770889
-0.0030997509
-0.0040775488
-0.0050606408
-0.0059781945
-0.0068136759
-0.0074959233
-0.0081099043
-0.0085753419
0.00015150656
0.00036890293
0.00055486709
0.00067324292
0.00071653298
0.00066390318
0.00049478442
0.00018712281
-0.00027578071
-0.00090354453
-0.001689295
-0.0026094866
-0.0036216517
-0.0046657462
-0.0056850352
-0.006607101
-0.0074217342
-0.0080619114
-0.008633375
-0.0090506006
0.00016452373
0.0004041923
0.00062137186
0.00077742297
0.00086684539
0.00086921961
0.00076277919
0.00052337795
0.00012900416
-0.00043714746
-0.001177457
-0.002078802
-0.0031047943
-0.0042032915
-0.0053036292
-0.0063453951
-0.0072564448
-0.0080347267
-0.0086205383
-0.0091390137
-0.0095028786
0.00017651053
0.00043622294
0.00068195759
0.0008729174
0.0010058394
0.0010611194
0.0010165886
0.00084697554
0.0005259707
3.0701458e-05
-0.00065054499
-0.0015148734
-0.0025367308
-0.0036689605
-0.0048461704
-0.0059902961
-0.0070382771
-0.0079210046
-0.0086476835
-0.0091659002
-0.0096239221
-0.0099276539
0.00018759131
0.00046521958
0.00073690654
0.00095997893
0.0011335467
0.0012391173
0.0012548172
0.0011551392
0.00091056274
0.0004933632
-0.00011671348
-0.00092735009
-0.0019244573
-0.0030713708
-0.0043056087
-0.005551372
-0.0067233054
-0.0077589646
-0.0085955272
-0.0092545143
-0.0096943317
-0.010082907
-0.010322206
0.00019791674
0.00049137745
0.00078655023
0.0010389683
0.0012502236
0.0014031064
0.0014766448
0.0014458648
0.0012790911
0.00094510595
0.00041613763
-0.00032542125
-0.0012780349
-0.002416858
-0.0036887935
-0.0050182514
-0.0063179753
-0.0074989165
-0.0085021735
-0.0092735602
-0.0098501428
-0.010199931
-0.010513063
-0.010683702
0.00020763886
0.00051486418
0.00083126015
0.0011103236
0.0013562919
0.0015532858
0.001681741
0.0017178393
0.0016287495
0.0013811175
0.00094093777
0.00028170919
-0.00060753338
-0.0017154789
-0.0030008077
-0.0043953262
-0.0058080656
-0.0071437907
-0.0083122271
-0.0092612224
-0.009949067
-0.010428186
-0.010679561
-0.010910895
-0.011010104
0.00021690526
0.00053586592
0.00087144399
0.0011745292
0.0014523014
0.0016900778
0.0018701819
0.0019703369
0.0019575659
0.0017975716
0.0014515429
0.00088549997
7.6590598e-05
-0.00097788379
-0.0022511668
-0.0036857392
-0.0051948226
-0.0066750607
-0.0080248551
-0.0091567174
-0.010029349
-0.010614994
-0.010984414
-0.011128461
-0.011273964
-0.011299925
0.00022586555
0.00055458114
0.00090750701
0.0012321039
0.001538881
0.0018140799
0.0020423473
0.002203163
0.0022643205
0.0021916081
0.001942869
0.0014782745
0.00076427221
-0.00021560945
-0.0014506663
-0.0028977868
-0.0044787114
-0.0060901647
-0.0076169072
-0.0089553665
-0.010025174
-0.010798574
-0.011265267
-0.011512697
-0.011543625
-0.011600314
-0.011552443
0.00023467025
0.00057118999
0.00093984524
0.0012835744
0.0016166767
0.0019259939
0.0021988628
0.0024165462
0.0025484533
0.0025612599
0.002410926
0.0020534452
0.001446158
0.00055979402
-0.00061160986
-0.0020418137
-0.003666038
-0.0053861266
-0.0070814484
-0.0086292417
-0.0099281221
-0.010908835
-0.011561327
-0.011892824
-0.012009432
-0.011922182
-0.011888653
-0.011767415
0.00024344217
0.00058585285
0.0009688368
0.0013294653
0.0016863418
0.0020266201
0.002340525
0.0026110638
0.0028099337
0.0029053884
0.0028527827
0.0026056137
0.0021139342
0.0013372041
0.00025313398
-0.0011304123
-0.0027659589
-0.0045663992
-0.0064113463
-0.0081666049
-0.0097055393
-0.010933962
-0.011798807
-0.012309193
-0.012492456
-0.012469974
-0.012262037
-0.012138219
-0.011944461
0.00025234952
0.0005986708
0.00099484057
0.0013702714
0.0017485707
0.0021167949
0.0024682554
0.0027875241
0.0030491962
0.0032235469
0.0032665093
0.0031305827
0.0027605129
0.0021063775
0.0011306951
-0.00017743927
-0.0017906928
-0.0036380668
-0.0056063252
-0.0075555459
-0.009340652
-0.010836854
-0.011962902
-0.012685055
-0.013034728
-0.013057758
-0.012891265
-0.012561647
-0.01234864
-0.012083035
0.00026130786
0.00060985876
0.0010181411
0.0014064942
0.0018040225
0.0021973849
0.002582978
0.0029469224
0.0032670049
0.0035158946
0.0036510284
0.0036253387
0.0033801247
0.0028582484
0.0020087892
0.00080265804
-0.00075454656
-0.0026121216
-0.00467043
-0.0067912137
-0.0088163253
-0.0105957
-0.01201257
-0.013003352
-0.013558027
-0.013730008
-0.013584559
-0.013270549
-0.012820091
-0.012519984
-0.012184311
0.00027266114
0.0006180021
0.0010391968
0.0014385318
0.001853361
0.0022692138
0.0026856922
0.0030903408
0.0034644131
0.003783005
0.0040060455
0.0040879136
0.0039683525
0.0035851275
0.0028761455
0.0017955648
0.00032683674
-0.0015025639
-0.003612421
-0.0058736073
-0.0081224185
-0.010187919
-0.011921224
-0.01321986
-0.014043636
-0.014407626
-0.014388604
-0.014068101
-0.013605942
-0.013037081
-0.01265314
-0.012253392
0.00028726176
0.00062367187
0.0010557671
0.0014670745
0.0018970922
0.0023331468
0.0027773759
0.0032189883
0.0036425915
0.0040258519
0.0043318479
0.004517332
0.0045220214
0.0042808189
0.0037228443
0.0027876647
0.0014373163
-0.00032562263
-0.0024450243
-0.0048081363
-0.0072539411
-0.0095975557
-0.011660894
-0.013303742
-0.014445028
-0.015071163
-0.015224814
-0.015003796
-0.014505385
-0.013896216
-0.013212935
-0.012749895
-0.01229557
0.00030551578
0.00062761406
0.0010695712
0.0014885111
0.0019361538
0.00238981
0.0028590984
0.0033340013
0.0038028549
0.0042455995
0.0046292734
0.0049133633
0.0050391791
0.0049405609
0.0045405355
0.0037665373
0.0025609493
0.00090115987
-0.0011841888
-0.003605101
-0.006211813
-0.0088138253
-0.011209569
-0.013222006
-0.014727899
-0.015672901
-0.016074029
-0.016000583
-0.015570829
-0.014893684
-0.014140855
-0.013348397
-0.012811762
-0.012304343
0.00032649366
0.00063002531
0.0010825221
0.0015049162
0.0019651921
0.002440487
0.0029315946
0.0034366905
0.003946423
0.004443721
0.0048994345
0.0052765313
0.0055188264
0.0055610649
0.0053224615
0.0047213043
0.0036826662
0.0021597313
0.00015184522
-0.0022790588
-0.005002641
-0.0078320772
-0.010550111
-0.012946668
-0.014854913
-0.01617607
-0.016888423
-0.017040235
-0.016727464
-0.016084906
-0.015231466
-0.014339912
-0.013444443
-0.012838501
-0.012271545
0.00034956647
0.00063183628
0.0010946603
0.0015197623
0.0019871575
0.0024775772
0.0029965466
0.00352788
0.0040748519
0.0046215993
0.0051439012
0.0056077592
0.0059609564
0.0061402156
0.0060635764
0.0056427692
0.0047887594
0.003432387
0.0015434155
-0.00084795196
-0.0036382706
-0.0066539263
-0.0096714098
-0.012454001
-0.014792557
-0.016539961
-0.017629912
-0.018076088
-0.017959139
-0.017398449
-0.016543131
-0.015517753
-0.014493977
-0.013502336
-0.012829864
-0.012203312
0.00037616631
0.0006347184
0.0011066127
0.0015330118
0.0020073354
0.0025050424
0.0030433683
0.0036097806
0.0041890262
0.0047811026
0.005364081
0.0059085667
0.0063660812
0.006677177
0.0067602404
0.0065236504
0.0058671804
0.0047024071
0.0029704609
0.0006677631
-0.0021350613
-0.0052870551
-0.0085688977
-0.011725847
-0.014510686
-0.016726342
-0.018255626
-0.019070027
-0.019221482
-0.018820727
-0.018008342
-0.016942935
-0.015752487
-0.014604156
-0.013523808
-0.01278828
-0.012110127
0.00040815575
0.00063856081
0.0011184736
0.00154436
0.0020261753
0.0025305838
0.0030772631
0.0036680091
0.0042918281
0.0049231092
0.0055621019
0.006180277
0.0067356102
0.0071718144
0.0074104254
0.0073582899
0.0069079178
0.0059545487
0.0044132891
0.0022462631
-0.00051309781
-0.0037447288
-0.0072446415
-0.010750488
-0.013983895
-0.01669924
-0.01872376
-0.019978415
-0.020477617
-0.020310761
-0.019616791
-0.018552618
-0.017283286
-0.015936214
-0.014672063
-0.013511066
-0.012717269
-0.012000019
0.00044244391
0.00064249658
0.0011295981
0.0015540226
0.0020439569
0.0025546727
0.003108658
0.0037093435
0.0043640291
0.005051389
0.0057386923
0.006425399
0.0070707337
0.0076252163
0.0080129885
0.0081429992
0.0079027526
0.0071755961
0.0058532945
0.0038652141
0.0012050117
-0.0020451792
-0.0057071789
-0.0095230655
-0.013192739
-0.016426283
-0.01899352
-0.020757289
-0.021684624
-0.021834194
-0.021331934
-0.020340219
-0.01902858
-0.017563709
-0.016070177
-0.014699723
-0.013466535
-0.012620281
-0.011877799
0.00046809388
0.00064589034
0.0011393869
0.0015624236
0.0020605594
0.0025767721
0.0031381707
0.0037477978
0.0044143794
0.0051406043
0.0058987559
0.0066444325
0.0073743119
0.008038185
0.0085684349
0.008875178
0.0088457976
0.0083542003
0.0072736903
0.0055027305
0.0029950093
-0.00021043855
-0.0039711621
-0.0080457796
-0.012124431
-0.015880191
-0.019026343
-0.021362418
-0.02279798
-0.023350327
-0.023123047
-0.022274347
-0.020985874
-0.019434326
-0.017784875
-0.016156109
-0.014689472
-0.013392552
-0.012501086
-0.011740529
0.00064781097
0.00046798082
0.0011468218
0.0015694995
0.0020753725
0.0025964157
0.0031656622
0.0037842869
0.0044612097
0.0052019603
0.0060093352
0.0068437824
0.0076462957
0.0084138755
0.0090769057
0.0095543847
0.0097324355
0.0094816672
0.0086594784
0.0071382772
0.0048321835
0.0017344555
-0.0020563312
-0.0063278706
-0.010773446
-0.015039716
-0.018787573
-0.021750299
-0.023771693
-0.024815766
-0.024953073
-0.024328934
-0.023129613
-0.02154991
-0.019769519
-0.017948005
-0.016196236
-0.014643863
-0.013291251
-0.012362492
-0.011584945
0.0011510475
0.00064780075
0.00044221636
0.0015747785
0.0020878316
0.0026136151
0.0031908945
0.0038183193
0.0045057162
0.0052590737
0.0060846952
0.0069810476
0.0078949647
0.0087514047
0.0095418012
0.010179717
0.010560823
0.010550707
0.0099985428
0.0087528171
0.0066923905
0.0037628666
1.3088741e-05
-0.0043848319
-0.0091418645
-0.013890619
-0.018247556
-0.021879926
-0.024558975
-0.026184606
-0.026781411
-0.026471846
-0.025439165
-0.023891075
-0.022030329
-0.020034586
-0.018055157
-0.016193064
-0.014565588
-0.013164949
-0.012205692
-0.01141357
0.0015779792
0.0011510022
0.00064586068
0.00040790978
0.002097051
0.0026282785
0.0032132789
0.0038492743
0.0045473321
0.0053136054
0.0061548139
0.0070742702
0.008066301
0.0090615611
0.0099609996
0.010754679
0.011328496
0.011557507
0.0112802
0.010330254
0.0085524285
0.0058476007
0.0022099502
-0.0022381145
-0.0072389204
-0.012426382
-0.017382934
-0.021713946
-0.025114031
-0.027408738
-0.028564164
-0.02866684
-0.027888396
-0.026443223
-0.024554365
-0.022426373
-0.020231169
-0.018108799
-0.016149337
-0.014457317
-0.013016439
-0.012031385
-0.011228873
0.0021023833
0.0015779401
0.0011466977
0.00064245009
0.00037593486
0.0026393014
0.0032321007
0.0038764819
0.0045854374
0.0053647271
0.0062219612
0.0071609034
0.008183048
0.0092761658
0.010348461
0.011275281
0.01203884
0.012497365
0.012498015
0.011855784
0.010391844
0.0079615602
0.004505094
8.651636e-05
-0.005081106
-0.010648148
-0.016177695
-0.021220183
-0.025393156
-0.028439551
-0.030254007
-0.030873871
-0.030446774
-0.029187057
-0.027333411
-0.025116877
-0.022738847
-0.020361539
-0.018111962
-0.016067957
-0.014321568
-0.012848656
-0.011842108
-0.01103275
0.0026457964
0.0021023781
0.0015746652
0.0011392186
0.00063849679
0.00034934125
0.0032460626
0.0038993168
0.0046190583
0.0054115285
0.0062850298
0.0072440887
0.0082913628
0.0094237784
0.010618854
0.011759519
0.012685237
0.013373257
0.013644211
0.013319647
0.012191093
0.010079868
0.0068683383
0.0025595695
-0.0026905387
-0.0085652824
-0.014623503
-0.020372944
-0.025356405
-0.02922891
-0.031801785
-0.033048535
-0.033079792
-0.032098864
-0.030355572
-0.028104401
-0.025578056
-0.022969598
-0.020428778
-0.018067836
-0.015952064
-0.014161015
-0.012663693
-0.011640144
-0.010826873
0.0032542403
0.0026458154
0.0020970357
0.001569327
0.0011294318
0.00063463567
0.00032627282
0.0039162175
0.0046471446
0.0054527271
0.0063428923
0.0073223254
0.0083956066
0.0095603755
0.010807947
0.012101557
0.013290746
0.014174917
0.014720985
0.014710013
0.013936414
0.012177859
0.009270786
0.0051492197
-9.4908033e-05
-0.0061938426
-0.012720743
-0.019153725
-0.024969047
-0.029730849
-0.03315727
-0.035143506
-0.035747966
-0.035151096
-0.033604762
-0.031384752
-0.028753543
-0.025938899
-0.02312156
-0.020436291
-0.017979784
-0.015804924
-0.013978369
-0.012463591
-0.011427387
-0.010612756
0.0039261535
0.0032542625
0.0026393451
0.0020878184
0.001562216
0.0011183401
0.00063174598
0.00030533897
0.0046678096
0.0054869776
0.0063938462
0.007394115
0.0084937968
0.0096920297
0.010982382
0.012346241
0.013725283
0.014931726
0.015713111
0.016027877
0.015610881
0.01423726
0.01168271
0.0078235397
0.0026744054
-0.0035572585
-0.010477158
-0.017552682
-0.024202589
-0.029903073
-0.034270792
-0.037109037
-0.038408121
-0.038310948
-0.037061494
-0.034949974
-0.032268865
-0.029280382
-0.026201919
-0.023198293
-0.020387952
-0.017851519
-0.015629971
-0.013776468
-0.012250141
-0.011205391
-0.010391914
0.0046799791
0.0039262718
0.003246121
0.0026283361
0.0020753882
0.001553801
0.0011065195
0.00062991383
0.00028717086
0.0055120389
0.0064360259
0.0074573091
0.0085839071
0.009816141
0.011150658
0.012571152
0.014045147
0.015485438
0.016657793
0.017251397
0.017213852
0.016235035
0.014081124
0.010548417
0.005584076
-0.00068385905
-0.0079094163
-0.015567506
-0.02303658
-0.029708211
-0.035094704
-0.038894465
-0.041013603
-0.041541502
-0.040701064
-0.038789386
-0.036124389
-0.033005175
-0.029686576
-0.02637062
-0.02320406
-0.020288144
-0.01768731
-0.015430292
-0.013557329
-0.012024838
-0.010975803
-0.010165795
0.0055267629
0.0046801795
0.0039165359
0.0032322094
0.0026136932
0.0020606229
0.0015441511
0.001094586
0.00062748892
0.00027262963
0.0064666619
0.0075094396
0.0086630669
0.0099300151
0.011309434
0.012788117
0.0143381
0.015906908
0.017364856
0.018427457
0.01871482
0.018168551
0.016436113
0.013296467
0.0085970714
0.0023938309
-0.0050399335
-0.013205932
-0.021457753
-0.029115834
-0.035584755
-0.040449534
-0.04351561
-0.044801654
-0.044494586
-0.04288742
-0.040318627
-0.037121885
-0.033593834
-0.029975274
-0.026449641
-0.023143893
-0.020141949
-0.017490908
-0.015208015
-0.013322437
-0.011789743
-0.010740865
-0.0099356857
0.0064846328
0.005527046
0.0046683581
0.0038997841
0.003213473
0.0025965232
0.0020440738
0.0015328615
0.001082402
0.00062358211
0.00026128425
0.0075470115
0.0087280182
0.010030012
0.011455
0.012992949
0.014620574
0.016291538
0.017923806
0.019330821
0.020172695
0.019996216
0.01874287
0.016030583
0.011682563
0.0056381724
-0.0018978753
-0.010481765
-0.019463447
-0.028101875
-0.035702183
-0.041725816
-0.045864326
-0.048047243
-0.048408636
-0.047224569
-0.044845766
-0.041638259
-0.037940199
-0.034037152
-0.030151138
-0.026444608
-0.023023837
-0.019953843
-0.017264685
-0.014964581
-0.013074589
-0.011548376
-0.010502707
-0.0097023958
0.0075689177
0.0064850246
0.0055128253
0.0046479534
0.0038770523
0.0031912044
0.0025769232
0.0020263264
0.0015197137
0.0010694006
0.00061797216
0.00025230989
0.0087744307
0.010111739
0.011582542
0.013180528
0.014887512
0.016661975
0.018432354
0.020075089
0.021325564
0.021792014
0.020946092
0.018743957
0.014796691
0.0090165138
0.0014815849
-0.0074182609
-0.017056778
-0.026652816
-0.035413419
-0.042678744
-0.048010292
-0.051231967
-0.052406196
-0.051776789
-0.049696559
-0.046558455
-0.042742404
-0.038580111
-0.034339579
-0.030220538
-0.026362712
-0.022849515
-0.019726481
-0.017010067
-0.014703784
-0.012819507
-0.011303789
-0.010260801
-0.0094546552
0.0088013117
0.0075693876
0.0064677523
0.0054881336
0.0046200533
0.0038499206
0.0031660856
0.0025548808
0.0020074966
0.001504948
0.0010556012
0.00060988524
0.00024339201
0.010169554
0.01168625
0.013344631
0.015131724
0.017012386
0.018921338
0.020750753
0.022318492
0.023258447
0.023138635
0.021365051
0.017931322
0.012479676
0.005066098
-0.0040446191
-0.014252994
-0.024760026
-0.034694799
-0.043267587
-0.04990629
-0.054308639
-0.056447334
-0.056516261
-0.054857518
-0.051883902
-0.048014415
-0.043629356
-0.039045396
-0.034508032
-0.030191921
-0.026210745
-0.022623752
-0.019461258
-0.016732151
-0.014434201
-0.012561686
-0.011053236
-0.0099962982
-0.0091885583
0.010202648
0.0088018637
0.0075483261
0.006437621
0.0054540997
0.0045865502
0.0038190325
0.0031386832
0.0025308633
0.0019873372
0.0014885957
0.0010390512
0.0005987248
0.00023462218
0.011758888
0.013477528
0.015344908
0.017332655
0.019384553
0.021399094
0.02321901
0.024582138
0.024993307
0.024010068
0.020996677
0.016019443
0.0088037959
-0.00039066251
-0.011071885
-0.022429456
-0.033526191
-0.043460407
-0.051507553
-0.057230837
-0.060490298
-0.06141185
-0.060311533
-0.057612295
-0.05376831
-0.04920818
-0.044301528
-0.039343291
-0.034552222
-0.0300733
-0.025991794
-0.022347929
-0.019165006
-0.016443261
-0.014162093
-0.012294196
-0.010767022
-0.0097128278
-0.0089107824
0.011799923
0.010203226
0.0087759854
0.0075113443
0.00639572
0.0054130161
0.0045485166
0.003785061
0.0031092281
0.0025053943
0.0019654044
0.0014672047
0.0010180299
0.00058590562
0.00022582426
0.013569628
0.015516737
0.017611756
0.01980773
0.022014355
0.024081227
0.025783223
0.026752071
0.026335724
0.0241373
0.01952689
0.012688007
0.0034928999
-0.0075390174
-0.019668705
-0.031904074
-0.043227189
-0.052776669
-0.059953332
-0.064492898
-0.066430018
-0.066038123
-0.063738127
-0.0600131
-0.055338886
-0.050139848
-0.044766094
-0.039484782
-0.034481511
-0.029868073
-0.025707267
-0.022031047
-0.018854724
-0.016151847
-0.013875075
-0.011967735
-0.010462162
-0.0094164479
-0.0086217034
0.013620809
0.011800469
0.010171189
0.0087302636
0.0074595171
0.0063448901
0.0053662764
0.004506949
0.003748631
0.0030778783
0.0024779891
0.0019363903
0.0014386977
0.00099477814
0.00057123845
0.00021686988
0.015634564
0.017835884
0.020175836
0.022576476
0.024901229
0.026930824
0.028351374
0.028658037
0.027018836
0.023179911
0.016591607
0.0076024097
-0.0036990954
-0.016498337
-0.029822265
-0.042556032
-0.053676535
-0.062436612
-0.068413086
-0.071535939
-0.072014159
-0.070252775
-0.066755129
-0.062041463
-0.056592158
-0.050815971
-0.045035242
-0.039480684
-0.034299768
-0.029577723
-0.025368825
-0.021695924
-0.018541532
-0.01583845
-0.013498118
-0.011620956
-0.010142441
-0.0091081435
-0.0083214573
0.015698892
0.013621229
0.01176045
0.010114071
0.0086656331
0.0073964376
0.0062870665
0.0053151931
0.0044624783
0.003710235
0.0030440267
0.0024409443
0.0018973619
0.001406687
0.00096882407
0.00055463076
0.00020760943
0.017988021
0.020470356
0.023064743
0.025651038
0.028025128
0.029876705
0.030778504
0.030056203
0.026693922
0.020729822
0.011796169
0.00044758307
-0.012951524
-0.027296824
-0.041427088
-0.054189061
-0.064640081
-0.072212849
-0.076694145
-0.078214764
-0.077145014
-0.073998181
-0.069333859
-0.063688649
-0.057533233
-0.051249726
-0.04512128
-0.039335207
-0.034008409
-0.029217195
-0.02500643
-0.021356901
-0.018196995
-0.015393729
-0.013098564
-0.011256924
-0.0098107237
-0.0087879086
-0.0080104297
0.018069498
0.015699081
0.013570853
0.01168847
0.010032626
0.0085865501
0.007324663
0.0062239977
0.005260688
0.0044156784
0.0036689513
0.0029972398
0.0023903036
0.0018536659
0.0013704891
0.00093987651
0.00053592233
0.00019789381
0.020668399
0.023454271
0.026301533
0.029027503
0.0313357
0.032798441
0.032847124
0.0306141
0.024929396
0.016327967
0.0047518252
-0.0090270445
-0.024343538
-0.039853821
-0.054282572
-0.066542318
-0.075852058
-0.08187163
-0.084613937
-0.084401763
-0.081743664
-0.077232169
-0.071458227
-0.064957305
-0.058175912
-0.051454876
-0.045028606
-0.039049754
-0.033626408
-0.028825079
-0.024638314
-0.020974351
-0.017667877
-0.014923156
-0.012678504
-0.010881653
-0.0094664025
-0.0084563667
-0.0076888739
0.020772406
0.018069359
0.015635169
0.013479251
0.011584994
0.0099326593
0.0084963935
0.007246395
0.0061568369
0.0052035973
0.0043653488
0.0036107624
0.0029323155
0.0023336739
0.0018043608
0.0013297073
0.00090757513
0.00051493114
0.00018757562
0.02371398
0.026819184
0.029896427
0.032675787
0.03473711
0.035505449
0.034246893
0.029902177
0.021222384
0.0095019878
-0.004870309
-0.020964545
-0.037829533
-0.053970974
-0.068102955
-0.079309078
-0.087032692
-0.091186862
-0.092008648
-0.089991313
-0.085750388
-0.079928695
-0.073127093
-0.065861279
-0.058535289
-0.051435845
-0.044758583
-0.038648149
-0.033202824
-0.0284242
-0.024211018
-0.020339837
-0.017108615
-0.014427746
-0.01224838
-0.010493413
-0.0091103601
-0.008113772
-0.0073572615
0.02384769
0.020771827
0.017987726
0.015517583
0.013346475
0.011457426
0.0098186968
0.0083981097
0.0071631623
0.0060867009
0.0051422471
0.0042931676
0.0035288837
0.0028598457
0.0022697737
0.0017489394
0.00128384
0.00087154332
0.00049145686
0.00017650295
0.027161646
0.030586631
0.033837296
0.036524018
0.038066564
0.037711817
0.034558852
0.027395142
0.015033423
-0.00017024287
-0.017285356
-0.035368679
-0.053222077
-0.069339617
-0.082538833
-0.092158525
-0.097905923
-0.099951654
-0.098739679
-0.094901251
-0.089125822
-0.082080452
-0.07435327
-0.066416736
-0.058615583
-0.051193873
-0.044340886
-0.038192045
-0.032765904
-0.027944214
-0.023447006
-0.019670125
-0.016519018
-0.013924208
-0.011805125
-0.010093501
-0.008742885
-0.0077607864
-0.0070159386
0.027334561
0.023846629
0.020666936
0.017835459
0.015345739
0.013182273
0.011311709
0.0096944495
0.0082937648
0.0070764783
0.0060113013
0.0050530455
0.0041903629
0.0034377148
0.0027781463
0.0021979747
0.0016867383
0.0012323919
0.00083138622
0.00046531146
0.00016452497
0.031039928
0.034759117
0.038073549
0.040437422
0.041064555
0.039013883
0.033248301
0.022495903
0.005856756
-0.012993979
-0.032555624
-0.052076025
-0.070193941
-0.085565444
-0.097203819
-0.10475797
-0.1082143
-0.10798733
-0.10469665
-0.099074757
-0.091854104
-0.083698598
-0.075153735
-0.066627348
-0.058417722
-0.050765578
-0.043852258
-0.037716006
-0.032224616
-0.027022215
-0.022641733
-0.018962933
-0.015924174
-0.013407869
-0.01135048
-0.0096821601
-0.0083648262
-0.0073978414
-0.006665328
0.03126464
0.027332987
0.023711182
0.020468314
0.017611139
0.015132387
0.012994492
0.011152736
0.0095626554
0.0081853507
0.0069831763
0.0059007108
0.0049247459
0.0040761897
0.003335042
0.0026864834
0.0021174112
0.0016170984
0.0011748377
0.00078669962
0.00043632639
0.0001515168
0.035360272
0.03930337
0.04249614
0.044185082
0.043345281
0.038880047
0.029679346
0.014603596
-0.0067032919
-0.02910942
-0.050550072
-0.0707456
-0.088305826
-0.10220123
-0.11170222
-0.11679173
-0.11773097
-0.11514844
-0.10980014
-0.10248428
-0.093943202
-0.084800338
-0.075531249
-0.066493559
-0.057986605
-0.050245727
-0.04333461
-0.037103847
-0.031111028
-0.02605217
-0.021790023
-0.018254701
-0.015317181
-0.012880772
-0.010884711
-0.0092603319
-0.0079767415
-0.0070256633
-0.0063057414
0.035653777
0.031262552
0.027157431
0.023450405
0.02017342
0.017331804
0.01488794
0.012789429
0.01098427
0.0094259183
0.0080684733
0.0068458856
0.0057405953
0.0047827272
0.0039477578
0.0032200421
0.0025837874
0.0020272591
0.0015393249
0.0011106504
0.0007370763
0.00040430632
0.00013737913
0.040098933
0.044130061
0.046902807
0.047401171
0.044382892
0.036652123
0.023164781
0.0031987175
-0.022875445
-0.048437569
-0.070912819
-0.090888119
-0.10704715
-0.11878134
-0.12565279
-0.12797637
-0.12626743
-0.12132687
-0.11400696
-0.10513261
-0.095409903
-0.085386975
-0.075485455
-0.066069971
-0.057438461
-0.049684775
-0.042641175
-0.035759394
-0.029941972
-0.025024273
-0.02094321
-0.017535407
-0.014700553
-0.01234315
-0.010408807
-0.0088287384
-0.007579343
-0.0066444725
-0.0059380547
0.040483967
0.035651268
0.031034355
0.026813425
0.023060334
0.019805047
0.0170113
0.014620766
0.012572256
0.010809649
0.0092781319
0.0078970936
0.0066464627
0.0055639693
0.0046232066
0.0038041847
0.0030914041
0.0024690802
0.0019266517
0.0014527644
0.001039311
0.00068214491
0.00036902612
0.00012202817
0.045174784
0.049059795
0.050948725
0.049564927
0.043503118
0.031568025
0.01306022
-0.012074768
-0.042671228
-0.070618286
-0.093102672
-0.11191912
-0.12587702
-0.13485089
-0.13870682
-0.13807148
-0.13367961
-0.12645889
-0.11731226
-0.10703523
-0.096253509
-0.085457043
-0.075082297
-0.065498228
-0.056833604
-0.048898877
-0.041019909
-0.034351829
-0.028700706
-0.02400942
-0.020087018
-0.016808198
-0.014074359
-0.011796132
-0.0099236707
-0.0083880086
-0.00717241
-0.0062549594
-0.0055626549
0.045683218
0.040481174
0.03535363
0.030579141
0.02629512
0.022571812
0.019381692
0.016660696
0.014338099
0.012347144
0.010620344
0.0090634762
0.0076483317
0.006427381
0.0053659086
0.0044453093
0.0036439134
0.0029479916
0.0023413622
0.0018147526
0.001356771
0.00096033495
0.00062157428
0.00033029738
0.00010539748
0.050425959
0.053768235
0.054119315
0.049993351
0.039892279
0.022865984
-0.001130267
-0.031403818
-0.065783479
-0.095048242
-0.11646432
-0.13321108
-0.14425914
-0.14998661
-0.15056116
-0.14688882
-0.13987719
-0.13052853
-0.11972893
-0.10818879
-0.096470956
-0.085089774
-0.074493571
-0.064850183
-0.055943393
-0.046947593
-0.039328167
-0.032853903
-0.027483518
-0.022987597
-0.019225447
-0.016072816
-0.013439896
-0.0112407
-0.0094297903
-0.0079372624
-0.0067576443
-0.0058579124
-0.0051801001
0.051123285
0.045680382
0.040091784
0.03475038
0.029888301
0.025644463
0.022009628
0.01891839
0.016290133
0.014044964
0.012102248
0.010349902
0.0087532247
0.0073762892
0.0061822079
0.00514569
0.0042471662
0.0034657246
0.0027885957
0.0021997093
0.0016907613
0.0012507157
0.00087328411
0.00055508227
0.00028798706
8.743375e-05
0.055563651
0.057749659
0.055728597
0.047844686
0.032688436
0.0099110963
-0.01972161
-0.054621115
-0.091581037
-0.12098956
-0.14028569
-0.15414229
-0.16168994
-0.16381102
-0.16097299
-0.1543041
-0.14482865
-0.13354421
-0.12125017
-0.10858829
-0.09615689
-0.084492376
-0.073804622
-0.063843312
-0.053600792
-0.044919494
-0.037523282
-0.031394737
-0.026262749
-0.021963936
-0.018357721
-0.015330696
-0.012798195
-0.010676894
-0.0089254542
-0.0074788644
-0.0063358693
-0.0054542086
-0.0047908875
0.05654374
0.051121158
0.045168041
0.039294313
0.033828136
0.029019439
0.024894803
0.021394459
0.018429409
0.015905392
0.013724931
0.011760193
0.0099623645
0.0084156416
0.0070726524
0.0059104502
0.0049011846
0.0040273948
0.0032683038
0.0026121342
0.0020431999
0.0015539762
0.0011340487
0.00077779776
0.00048246318
0.00024202355
6.8083185e-05
0.060079468
0.060321284
0.05492518
0.042184956
0.021121215
-0.0077029068
-0.042656167
-0.081082629
-0.11928333
-0.14763527
-0.16386079
-0.1741233
-0.17770968
-0.17601435
-0.16977551
-0.16026467
-0.14853551
-0.13549482
-0.1218686
-0.10834589
-0.095560113
-0.083766147
-0.072668317
-0.0610394
-0.051177074
-0.042749734
-0.035776472
-0.029936585
-0.025044986
-0.020936893
-0.017485343
-0.01458287
-0.012148883
-0.010101848
-0.0084138879
-0.0070139027
-0.0059080996
-0.0050445305
-0.0043955666
0.061346436
0.056543994
0.05042134
0.044122196
0.038064572
0.032667097
0.028017539
0.024075161
0.020746316
0.017920887
0.01548386
0.013290438
0.011275938
0.0095431359
0.0080399026
0.0067374777
0.005609598
0.0046309854
0.0037845224
0.0030504798
0.0024176118
0.001871037
0.0014037997
0.0010063482
0.00067362314
0.00040362093
0.00019241266
4.7336801e-05