/*--------------------------------*- C++ -*----------------------------------*\
| =========                 |                                                 |
| \\      /  F ield         | OpenFOAM: The Open Source CFD Toolbox           |
|  \\    /   O peration     | Version:  5.0                                   |
|   \\  /    A nd           | Web:      www.OpenFOAM.org                      |
|    \\/     M anipulation  |                                                 |
\*---------------------------------------------------------------------------*/
FoamFile
{
    version     2.0;
    format      ascii;
    class       volScalarField;
    location    "40";
    object      pPrime2Mean;
}
// * * * * * * * * * * * * * * * * * * * * * * * * * * * * * * * * * * * * * //

dimensions      [0 4 -4 0 0 0 0];

internalField   nonuniform List<scalar> 
9200
(
1.8623267e-07
1.7153121e-07
1.6055438e-06
1.4829566e-07
1.4793738e-06
4.5094482e-06
1.1948353e-07
1.273783e-06
4.1591233e-06
9.0178902e-06
8.9676797e-08
1.0226063e-06
3.5832576e-06
8.3243784e-06
1.5439689e-05
6.2239931e-08
7.6313038e-07
2.8812574e-06
7.1764548e-06
1.4265643e-05
2.4134871e-05
3.8821313e-08
5.2408817e-07
2.1548417e-06
5.7788257e-06
1.2312051e-05
2.2322543e-05
3.5591075e-05
2.0984737e-08
3.2199009e-07
1.4839402e-06
4.3300596e-06
9.9334491e-06
1.9292501e-05
3.2954899e-05
5.038014e-05
8.8858584e-09
1.6846343e-07
9.1605886e-07
2.989068e-06
7.4624076e-06
1.560121e-05
2.8528018e-05
4.6705064e-05
6.9165432e-05
2.4903008e-09
6.6036596e-08
4.8295581e-07
1.8520957e-06
5.1691456e-06
1.1756688e-05
2.3129384e-05
4.0507221e-05
6.4202755e-05
9.2702259e-05
1.2009864e-09
1.35396e-08
1.9281749e-07
9.8206093e-07
3.2195341e-06
8.1778971e-06
1.7490713e-05
3.2937636e-05
5.579913e-05
8.616979e-05
0.00012182183
4.2828106e-09
5.9217076e-09
4.2401851e-08
3.9690884e-07
1.7214255e-06
5.1249043e-06
1.222382e-05
2.5006238e-05
4.551675e-05
7.5063519e-05
0.00011340267
0.00015743299
1.0889129e-08
3.6474097e-08
1.8005835e-08
9.0671953e-08
7.0809526e-07
2.7673724e-06
7.7129209e-06
1.756937e-05
3.4706026e-05
6.1444673e-05
9.9033291e-05
0.00014677879
0.00020050039
2.0181597e-08
9.7695231e-08
1.0106781e-07
3.6927752e-08
1.7100609e-07
1.1615478e-06
4.2105973e-06
1.117127e-05
2.4526915e-05
4.7072855e-05
8.1369446e-05
0.00012852569
0.00018723304
0.00025203589
3.1381099e-08
1.8212899e-07
2.706516e-07
1.9906525e-07
6.6846292e-08
2.9775017e-07
1.8065381e-06
6.1735108e-06
1.5726155e-05
3.3479221e-05
6.2655181e-05
0.0001060253
0.00016441918
0.00023575523
0.00031307812
4.3797694e-08
2.8286709e-07
5.0589389e-07
5.3567822e-07
3.3433491e-07
1.1214859e-07
4.9254295e-07
2.7130526e-06
8.8062478e-06
2.166257e-05
4.4867605e-05
8.208619e-05
0.00013621153
0.00020765682
0.00029336592
0.00038466921
5.6855999e-08
3.9389911e-07
7.8747797e-07
1.0052802e-06
9.0352582e-07
5.1167889e-07
1.8053765e-07
7.8833931e-07
3.9697904e-06
1.2304907e-05
2.9315179e-05
5.9213827e-05
0.00010606645
0.00017280107
0.00025922188
0.00036110081
0.00046784162
7.0097711e-08
5.1017733e-07
1.098439e-06
1.5692237e-06
1.703822e-06
1.3888053e-06
7.3799133e-07
2.8455246e-07
1.2295917e-06
5.6981219e-06
1.6905547e-05
3.9091272e-05
7.7105481e-05
0.00013537672
0.00021671842
0.00032012959
0.00043999239
0.00056357882
8.3170635e-08
6.2765069e-07
1.4245391e-06
2.1934076e-06
2.6690684e-06
2.634059e-06
2.009537e-06
1.0217952e-06
4.4286134e-07
1.8815036e-06
8.0500946e-06
2.2905938e-05
5.1459218e-05
9.9213619e-05
0.00017085932
0.00026893756
0.00039140615
0.00053103859
0.000672819
9.5816632e-08
7.4319473e-07
1.7542994e-06
2.8490771e-06
3.7406309e-06
4.1441664e-06
3.8354725e-06
2.7856422e-06
1.3747391e-06
6.8558673e-07
2.8311196e-06
1.122609e-05
3.0657471e-05
6.6969326e-05
0.00012627655
0.00021342219
0.00033046186
0.00047406661
0.00063519897
0.0007963924
1.0785771e-07
8.5450963e-07
2.0788418e-06
3.5129729e-06
4.8688765e-06
5.8270486e-06
6.0639555e-06
5.3531307e-06
3.7394867e-06
1.8135227e-06
1.0566829e-06
4.2001185e-06
1.5471416e-05
4.0587269e-05
8.6240315e-05
0.0001591108
0.0002640212
0.0004023094
0.00056910247
0.00075334103
0.00093505074
1.1918381e-07
9.6000784e-07
2.3916092e-06
4.1670447e-06
6.0134857e-06
7.604288e-06
8.5586263e-06
8.5102497e-06
7.2359893e-06
4.8954873e-06
2.3625658e-06
1.6224807e-06
6.1456597e-06
2.10967e-05
5.3187513e-05
0.00010997591
0.00019859517
0.00032365195
0.00048549708
0.00067744068
0.00088626684
0.0010893955
1.2974333e-07
1.0586893e-06
2.688024e-06
4.7979027e-06
7.1430015e-06
9.4117879e-06
1.1202553e-05
1.206319e-05
1.1572194e-05
9.5359211e-06
6.2821377e-06
3.0587274e-06
2.4753541e-06
8.8775258e-06
2.8471143e-05
6.903586e-05
0.00013895085
0.00024567063
0.00039333502
0.00058101238
0.00079996007
0.0010346332
0.0012599015
1.3953411e-07
1.1499853e-06
2.9651364e-06
5.3961356e-06
8.2339456e-06
1.1199223e-05
1.3899507e-05
1.5844451e-05
1.6481212e-05
1.5346756e-05
1.2307899e-05
7.9336144e-06
3.9566217e-06
3.7472208e-06
1.26555e-05
3.8043872e-05
8.8783333e-05
0.0001740184
0.00030132652
0.00047409509
0.00068980923
0.00093741494
0.0011989872
0.001446886
1.4859117e-07
1.2336485e-06
3.2213094e-06
5.9556228e-06
9.2697118e-06
1.2928766e-05
1.6573396e-05
1.9715089e-05
2.173039e-05
2.1969793e-05
1.993565e-05
1.5609646e-05
9.8953246e-06
5.1382123e-06
5.6105474e-06
1.7809435e-05
5.0334283e-05
0.00011316825
0.00021609776
0.00036658721
0.00056695111
0.00081276011
0.0010904781
0.0013797204
0.0016505084
1.5697941e-07
1.309701e-06
3.4559394e-06
6.472872e-06
1.023942e-05
1.4573413e-05
1.9166569e-05
2.3564287e-05
2.7125086e-05
2.9089802e-05
2.8694908e-05
2.5444657e-05
1.9505671e-05
1.2229959e-05
6.7170677e-06
8.2959259e-06
2.4732611e-05
6.5950069e-05
0.00014300435
0.00026616891
0.00044250269
0.00067288359
0.00095068053
0.0012596681
0.0015770757
0.0018707645
1.647909e-07
1.3783637e-06
3.6691729e-06
6.9464388e-06
1.1136792e-05
1.6115235e-05
2.1637483e-05
2.7307285e-05
3.2508683e-05
3.6440503e-05
3.8167376e-05
3.6832382e-05
3.1984186e-05
2.4070912e-05
1.5024266e-05
8.8528484e-06
1.2089013e-05
3.3901295e-05
8.5575582e-05
0.00017918352
0.00032526405
0.00053012255
0.00079283433
0.0011042482
0.0014453773
0.0017911347
0.0021074896
1.7214029e-07
1.4399711e-06
3.8617014e-06
7.3764085e-06
1.1959099e-05
1.7543616e-05
2.3958192e-05
3.0882317e-05
3.7760179e-05
4.3805432e-05
4.799611e-05
4.9227953e-05
4.6562977e-05
3.9672219e-05
2.9398575e-05
1.840063e-05
1.1752589e-05
1.7349486e-05
4.5863189e-05
0.00010998088
0.00022266761
0.0003944491
0.00063049095
0.00092765679
0.0012740502
0.0016478412
0.0020218182
0.0023603589
1.7916006e-07
1.4949146e-06
4.0345875e-06
7.7639891e-06
1.2706288e-05
1.8853751e-05
2.6111828e-05
3.4247207e-05
4.2790293e-05
5.1015439e-05
5.7887867e-05
6.216143e-05
6.2544266e-05
5.8076642e-05
4.8640995e-05
3.560974e-05
2.2523285e-05
1.5687736e-05
2.4500027e-05
6.1249999e-05
0.00014001239
0.00027447839
0.00047481979
0.00074461044
0.0010781396
0.0014605167
0.0018671394
0.0022688856
0.0026288853
1.8602547e-07
1.5435894e-06
4.1891295e-06
8.1111395e-06
1.338035e-05
2.0045205e-05
2.8090308e-05
3.7375814e-05
4.7537047e-05
5.7944046e-05
6.761079e-05
7.5242374e-05
7.9319692e-05
7.8404478e-05
7.1575266e-05
5.9046053e-05
4.2864459e-05
2.7613358e-05
2.0985199e-05
3.4039482e-05
8.0765342e-05
0.00017659076
0.00033569514
0.0005674718
0.00087344402
0.0012449327
0.0016639439
0.0021031902
0.0025319383
0.0029124294
1.9194209e-07
1.5864212e-06
4.3267171e-06
8.4203683e-06
1.3984617e-05
2.1120816e-05
2.9892113e-05
4.0254879e-05
5.1961036e-05
6.4501888e-05
7.6989045e-05
8.8158183e-05
9.637806e-05
9.9880361e-05
9.710812e-05
8.7282652e-05
7.1081289e-05
5.1376127e-05
3.3944538e-05
2.8038804e-05
4.6526518e-05
0.00010518763
0.0002207086
0.00040743296
0.00067350094
0.0010178683
0.0014285897
0.0018844687
0.0023557519
0.0028104297
0.0032102441
1.9913735e-07
1.6155802e-06
4.4489484e-06
8.6943974e-06
1.4523382e-05
2.2085599e-05
3.1520807e-05
4.2880967e-05
5.604118e-05
7.0630565e-05
8.5896108e-05
0.00010066828
0.00011330487
0.00012184535
0.00012426577
0.00011897826
0.00010546172
8.499499e-05
6.1414816e-05
4.1852238e-05
3.7288633e-05
6.2583369e-05
0.00013536498
0.00027341789
0.00049084588
0.00079396426
0.0011786852
0.0016295009
0.0021220701
0.002624429
0.0031036849
0.0035215333
2.0878924e-07
1.6347889e-06
4.5346585e-06
8.9364143e-06
1.5001252e-05
2.2946256e-05
3.2983345e-05
4.5258263e-05
5.9770403e-05
7.6297123e-05
9.4247076e-05
0.00011259625
0.00012977632
0.00014375839
0.00015221173
0.00015292623
0.00014437814
0.00012643474
0.00010110361
7.331599e-05
5.171071e-05
4.9220868e-05
8.2883291e-05
0.0001722099
0.00033583674
0.00058709488
0.00092988239
0.0013565651
0.0018479229
0.0023765658
0.0029086802
0.0034109178
0.0038454113
2.2203421e-07
1.6502944e-06
4.5930438e-06
9.1005108e-06
1.5423734e-05
2.3709913e-05
3.4289423e-05
4.7395896e-05
6.3152643e-05
8.1488276e-05
0.00010199164
0.00012382046
0.0001455504
0.00016519051
0.00018025101
0.00018807996
0.00018635279
0.00017373761
0.00015060931
0.00011980442
8.7460048e-05
6.3925489e-05
6.4342958e-05
0.00010814752
0.00021670773
0.00040912773
0.000697353
0.0010821947
0.0015520726
0.0020839427
0.0026476154
0.0032078275
0.0037312282
0.0041807099
2.3935355e-07
1.6621761e-06
4.6464393e-06
9.2019684e-06
1.5704219e-05
2.4385397e-05
3.5449365e-05
4.9307335e-05
6.6198999e-05
8.6206587e-05
0.00010910647
0.00013426546
0.00016045579
0.00018581507
0.00020782484
0.00022356065
0.00023009325
0.00022511071
0.0002075913
0.00017850104
0.00014156444
0.00010425719
7.8893038e-05
8.3175002e-05
0.00013914973
0.00026990635
0.00049451024
0.00082276547
0.0012517633
0.0017656058
0.0023374902
0.0029347252
0.0035210665
0.0040635913
0.004526165
2.6131994e-07
1.6717361e-06
4.6949731e-06
9.2927824e-06
1.586805e-05
2.482175e-05
3.6476501e-05
5.100674e-05
6.8927354e-05
9.0464793e-05
0.00011559037
0.00014389222
0.00017438154
0.00020539484
0.00023450012
0.00025865288
0.00027450495
0.00027897529
0.00026988747
0.00024661791
0.00021074045
0.00016690253
0.0001240919
9.6977286e-05
0.00010624077
0.00017671399
0.0003329378
0.0005932301
0.00096445185
0.0014393251
0.0019974254
0.0026083256
0.0032372572
0.0038474839
0.0044069032
0.0048806983
2.9084175e-07
1.6810097e-06
4.7402492e-06
9.3723754e-06
1.6016463e-05
2.5058892e-05
3.7121115e-05
5.2513572e-05
7.1356325e-05
9.428588e-05
0.00012145622
0.00015269215
0.00018726489
0.00022377005
0.00025995476
0.00029279314
0.00031868784
0.00033398605
0.00033558339
0.00032155423
0.00029167384
0.00024806278
0.00019632468
0.00014727687
0.00011847523
0.00013406506
0.00022174354
0.00040700315
0.00070656937
0.0011234604
0.0016454986
0.0022476083
0.0028960495
0.003554442
0.0041860777
0.0047600463
0.0052432746
3.3282951e-07
1.6898834e-06
4.7826804e-06
9.440138e-06
1.6150321e-05
2.5276247e-05
3.7443769e-05
5.3431226e-05
7.3513671e-05
9.7693145e-05
0.00012673232
0.00016067599
0.00019908427
0.00024084337
0.00028396389
0.00032555317
0.00036192358
0.00038902921
0.00040304214
0.00040099497
0.00038123338
0.00034380593
0.00029124642
0.00023025229
0.00017398108
0.00014359884
0.0001672013
0.0002752238
0.00049339748
0.00083580633
0.0013007656
0.0018707367
0.0025160714
0.0032001042
0.0038853945
0.0045357769
0.0051218849
0.0056128185
3.8596042e-07
1.6976857e-06
4.820972e-06
9.4967628e-06
1.6271203e-05
2.5474198e-05
3.774076e-05
5.3849717e-05
7.4788929e-05
0.00010072558
0.00013144628
0.00016787727
0.00020984405
0.00025657213
0.00030638189
0.00035662423
0.00040365614
0.00044320762
0.00047090494
0.00048295807
0.00047661292
0.0004503519
0.00040421216
0.00034102153
0.00026890477
0.00020417674
0.00017248516
0.0002062493
0.00033826807
0.00059348467
0.00098221592
0.0014972208
0.0021153382
0.0028025464
0.0035197875
0.0042291292
0.0048954547
0.0054912661
0.0059882036
4.3109967e-07
1.70389e-06
4.8536159e-06
9.543566e-06
1.6378988e-05
2.565076e-05
3.8012043e-05
5.4239386e-05
7.5313277e-05
0.00010246749
0.00013565205
0.0001743266
0.00021958162
0.00027094786
0.000327134
0.00038579577
0.00044347365
0.00049581743
0.00053807334
0.00056580075
0.0005754077
0.00056427667
0.0005306488
0.00047414784
0.00039790726
0.00031219038
0.00023760753
0.00020521605
0.0002519222
0.00041211764
0.00070871177
0.0011470203
0.0017135519
0.0023794098
0.0031065997
0.0038542626
0.0045845774
0.0052639412
0.0058670369
0.0063681996
1.7074116e-06
4.3087029e-07
4.8780381e-06
9.5807852e-06
1.647171e-05
2.5803724e-05
3.8257694e-05
5.4600219e-05
7.5807031e-05
0.00010310704
0.00013800585
0.00018009794
0.00022832743
0.00028400902
0.00034618969
0.00041294698
0.0004810829
0.00054632604
0.00060367992
0.0006481992
0.00067563353
0.00068263538
0.00066634304
0.00062410833
0.0005547305
0.00046202976
0.00035960264
0.00027378594
0.00024189787
0.00030508009
0.00049818317
0.0008405672
0.0013313775
0.0019503147
0.0026628795
0.0034276253
0.0042025753
0.0049506051
0.0056400407
0.0062480292
0.0067516084
4.8920519e-06
1.707397e-06
3.8554655e-07
9.6076932e-06
1.6547341e-05
2.5933227e-05
3.8476734e-05
5.4929721e-05
7.6269066e-05
0.00010371844
0.00013877343
0.00018325611
0.00023618205
0.0002957803
0.00036358331
0.00043801264
0.00051630127
0.00059434124
0.00066705971
0.00072911083
0.00077570711
0.00080300809
0.00080763543
0.00078568695
0.00073276224
0.00064667998
0.00053291574
0.00041015824
0.00031206355
0.00028272954
0.00036681158
0.00059802563
0.00099057399
0.0015363277
0.0022078887
0.002965474
0.0037648656
0.0045636682
0.0053260305
0.0060225588
0.0066330732
0.0071373578
9.6239309e-06
4.8919307e-06
1.703847e-06
3.3245007e-07
1.6602568e-05
2.6039344e-05
3.8665973e-05
5.5223536e-05
7.6695737e-05
0.00010430005
0.00013952058
0.00018417128
0.00024040455
0.00030639728
0.00037932442
0.00046101507
0.00054901343
0.00063960337
0.00072771133
0.00080773534
0.00087439866
0.0009234901
0.00095151451
0.00095426743
0.00092554858
0.00085836583
0.00074998399
0.00060932313
0.00046241901
0.00035172208
0.00032813382
0.00043845645
0.00071336963
0.0011602312
0.0017627741
0.0024864457
0.0032867361
0.0041174163
0.0049364004
0.0057096387
0.006410318
0.007021039
0.0075244158
1.6635094e-05
9.6238096e-06
4.8777099e-06
1.6976189e-06
2.9053951e-07
2.6117955e-05
3.8821421e-05
5.5476888e-05
7.7081775e-05
0.00010484487
0.00014024467
0.00018508118
0.00024150475
0.00031203498
0.00039359421
0.00048193495
0.000579219
0.00068193064
0.00078528831
0.00088346383
0.00097077817
0.0010426369
0.0010956359
0.0011260057
0.0011272123
0.0010891852
0.0010019259
0.00086356849
0.00068915773
0.00051457587
0.00039215386
0.00037884111
0.00052166059
0.00084605329
0.0013509861
0.0020114336
0.0027859496
0.0036260174
0.0044842511
0.005319568
0.0061001956
0.0068021564
0.0074108639
0.007911798
2.6165537e-05
1.6635132e-05
9.6073434e-06
4.8531822e-06
1.6897922e-06
2.6106821e-07
3.893629e-05
5.5685623e-05
7.7419135e-05
0.00010534308
0.00014093425
0.00018598278
0.00024262496
0.00031338751
0.00040112733
0.00050101273
0.00060685055
0.00072128813
0.00083952944
0.00095586542
0.0010641467
0.0011593937
0.0012382687
0.0012979077
0.001332738
0.00133167
0.0012792782
0.0011631622
0.00098503531
0.00076949536
0.00056466083
0.0004330219
0.00043601239
0.00061835638
0.000998003
0.0015641678
0.0022828195
0.003106139
0.0039825002
0.004864233
0.0057119253
0.0064964749
0.0071969344
0.0078015296
0.0082985765
3.9006217e-05
2.6165713e-05
1.6602671e-05
9.5802597e-06
4.8205617e-06
1.6808925e-06
2.3913986e-07
5.5840924e-05
7.7699031e-05
0.00010578154
0.00014157445
0.00018685738
0.00024376332
0.00031479679
0.00040285975
0.00051109168
0.00063222447
0.00075753609
0.00089035578
0.001024598
0.0011540116
0.0012730022
0.0013782129
0.0014677969
0.0015381491
0.001579215
0.0015726978
0.0014971532
0.00133998
0.0011105392
0.00084678277
0.00061078684
0.0004744782
0.0005012805
0.00073076006
0.0011711559
0.0018009498
0.0025772052
0.0034465352
0.0043552038
0.0052561365
0.0061121976
0.0068972673
0.0075935563
0.0081920703
0.0086838837
5.5937437e-05
3.9006541e-05
2.6118395e-05
1.6547546e-05
9.542952e-06
4.7823711e-06
1.671608e-06
2.2188495e-07
7.7908139e-05
0.00010614682
0.00014214504
0.00018768108
0.00024489058
0.00031626541
0.00040470083
0.00051342455
0.00064573206
0.00079108831
0.0009375284
0.0010895388
0.0012399711
0.0013829545
0.0015146771
0.0016342374
0.0017405264
0.0018263987
0.0018735556
0.0018541921
0.0017419015
0.0015280897
0.0012349014
0.00091713997
0.00065148411
0.0005173037
0.00057680127
0.00086129871
0.0013674054
0.002062289
0.0028946137
0.0038064433
0.0047430108
0.0056586719
0.0065191019
0.0073013946
0.0079909768
0.0085815762
0.0090669173
7.8040144e-05
5.5938673e-05
3.8937162e-05
2.6039969e-05
1.6472113e-05
9.4961349e-06
4.7400513e-06
1.6620138e-06
2.087198e-07
0.00010642096
0.00014262392
0.00018842334
0.00024596855
0.0003177489
0.00040666311
0.0005159349
0.00064904051
0.00080920131
0.00098158669
0.0011503267
0.0013218798
0.0014888436
0.001647201
0.0017963837
0.0019379755
0.0020690905
0.0021744351
0.0022232887
0.0021775842
0.0020096013
0.0017209149
0.0013519256
0.00097682475
0.00068598016
0.00056305519
0.00066521269
0.0010125492
0.0015885119
0.0023488901
0.0032348021
0.0041849713
0.0051446853
0.0060705093
0.00693136
0.007707712
0.0083882049
0.0089692002
0.0094469405
0.00010659693
7.8042535e-05
5.5844269e-05
3.8822848e-05
2.5934057e-05
1.6379656e-05
9.4395869e-06
4.6948198e-06
1.6501105e-06
1.9911219e-07
0.00014298423
0.00018905019
0.00024694972
0.00031918749
0.00040868082
0.00051865558
0.00065261789
0.00081408597
0.0010058432
0.0012076666
0.0013992492
0.0015905564
0.0017754634
0.0019538685
0.0021294574
0.0023045227
0.002469367
0.0025945055
0.0026335872
0.0025405066
0.0022928555
0.0019098289
0.0014549786
0.0010226924
0.00071449501
0.00061409898
0.00076958962
0.001187124
0.0018360361
0.0026611643
0.0035972746
0.0045810461
0.0055589015
0.0064902874
0.0073477098
0.008115119
0.0087843139
0.0093541644
0.0098232824
0.00014321883
0.00010660078
7.7914707e-05
5.5690518e-05
3.8668102e-05
2.5804788e-05
1.6272139e-05
9.372048e-06
4.6461729e-06
1.6346575e-06
1.9192308e-07
0.00018952221
0.00024778146
0.00032050988
0.00041065899
0.00052149148
0.00065653269
0.00081936426
0.0010132299
0.0012399989
0.0014730101
0.0016875097
0.0018994808
0.002106563
0.0023146581
0.0025311157
0.0027540826
0.0029593441
0.0030971194
0.0031052183
0.0029357433
0.0025807968
0.0020848042
0.0015376599
0.0010526993
0.00073840628
0.00067361926
0.00089331909
0.0013875708
0.0021112615
0.0029992171
0.0039812753
0.0049934408
0.0059842522
0.0069166291
0.0077669187
0.0085225787
0.0091784525
0.0097357589
0.010195331
0.00018983271
0.00014322486
0.00010643163
7.7708674e-05
5.5482792e-05
3.8479696e-05
2.5652098e-05
1.6151416e-05
9.2928062e-06
4.592656e-06
1.6155365e-06
1.8599795e-07
0.0002484062
0.00032163414
0.00041248838
0.0005242924
0.00066065308
0.00082515963
0.0010211935
0.0012512345
0.0015157131
0.0017809504
0.0020186766
0.0022547437
0.002493701
0.002748387
0.0030258392
0.0033112593
0.0035565876
0.0036881464
0.0036326399
0.0033507758
0.0028597059
0.0022353041
0.0015945781
0.0010662718
0.00076036719
0.00074551087
0.0010399707
0.00161625
0.0024151487
0.0033628337
0.0043858237
0.0054207829
0.0064192684
0.0073481623
0.0081878167
0.0089291383
0.0095698373
0.010113323
0.01058032
0.00024881928
0.00018984097
0.00014300101
0.0001061624
7.7430769e-05
5.5230062e-05
3.8261425e-05
2.5475839e-05
1.6017593e-05
9.2022594e-06
4.5342786e-06
1.5864583e-06
1.7912716e-07
0.00032247229
0.0004140429
0.00052689222
0.00066474008
0.00083129722
0.0010299352
0.001263343
0.0015325921
0.0018364729
0.0021347302
0.0023980319
0.0026672381
0.0029566086
0.0032834898
0.0036454623
0.0040024278
0.0042744037
0.0043657546
0.0042027694
0.003768198
0.0031141076
0.0023513958
0.0016220101
0.0010646074
0.00078426403
0.00083423881
0.0012131269
0.0018752468
0.0027482932
0.0037514894
0.0048097099
0.0058615685
0.0068624498
0.0077835717
0.0086093253
0.0093339073
0.0099577118
0.010502303
0.010986725
0.00032302389
0.0002488302
0.00018954533
0.00014264831
0.00010579977
7.7094491e-05
5.4936654e-05
3.8016343e-05
2.5278243e-05
1.5869247e-05
9.100969e-06
4.4486097e-06
1.5436615e-06
1.7210884e-07
0.000415189
0.00052909622
0.00066853577
0.00083739729
0.0010392372
0.0012766196
0.0015509085
0.0018611753
0.0022052113
0.0025386567
0.002835354
0.003156808
0.0035270351
0.0039593584
0.0044268257
0.0048509727
0.0051173006
0.0051179772
0.0047949166
0.0041669477
0.0033282791
0.0024248018
0.0016184796
0.0010507654
0.00081509742
0.0009446279
0.001416244
0.0021662843
0.0031109045
0.0041643277
0.0052515005
0.0063142096
0.0073123397
0.0082216353
0.0090304142
0.0097359819
0.010356609
0.010911504
0.011403555
0.00041593347
0.00032303676
0.00024843697
0.00018908349
0.00014217333
0.00010536241
7.6708929e-05
5.4607447e-05
3.7745382e-05
2.5061235e-05
1.5705528e-05
8.9370056e-06
4.3264505e-06
1.4949774e-06
1.6476333e-07
0.00053069723
0.0006717375
0.00084305858
0.0010484972
0.0012908149
0.00157101
0.0018883785
0.0022398655
0.0026250604
0.0030008829
0.0033497806
0.0037576298
0.0042518144
0.0048248157
0.005406249
0.0058709711
0.0060768183
0.0059217473
0.0053820084
0.0045242615
0.0034878148
0.0024498716
0.0015850682
0.0010296257
0.00085875326
0.0010816721
0.0016525073
0.0024906529
0.0035027495
0.0046001546
0.0057096054
0.0067771371
0.0077675685
0.0086611531
0.0094499856
0.010149775
0.010775599
0.011332804
0.011830663
0.00053171385
0.00041594654
0.00032250877
0.00024782558
0.0001884614
0.00014160407
0.00010486447
7.6282427e-05
5.4246875e-05
3.7448599e-05
2.4824362e-05
1.5425101e-05
8.6950791e-06
4.1889629e-06
1.4400195e-06
1.5695513e-07
0.00067402337
0.00084781073
0.0010570785
0.0013049843
0.0015926435
0.0019183991
0.0022790483
0.0026707248
0.0031017166
0.003538846
0.0039768018
0.0045235369
0.0051928497
0.0059321669
0.0066112173
0.0070606525
0.0071290565
0.0067438574
0.0059330202
0.0048178947
0.0035811363
0.0024242283
0.0015255284
0.0010076741
0.00092177436
0.001250323
0.001924688
0.0028490986
0.0039231271
0.0050575257
0.0061824119
0.0072488511
0.0082267454
0.0091007868
0.0098831355
0.010584538
0.011208439
0.011766005
0.012267861
0.00067543183
0.00053172403
0.00041522659
0.00032168584
0.00024699938
0.00018772034
0.0001409638
0.0001043196
7.58204e-05
5.3857447e-05
3.712611e-05
2.4388183e-05
1.5002695e-05
8.4211026e-06
4.0345164e-06
1.3784049e-06
1.4857005e-07
0.00085114495
0.0010642451
0.0013181075
0.0016143458
0.0019510282
0.0023228308
0.002724655
0.0031564068
0.0036487556
0.0041879368
0.0047762543
0.0055304132
0.006421325
0.0073267751
0.0080507897
0.0083975768
0.0082349367
0.0075438561
0.0064160267
0.0050283582
0.0036006168
0.0023491293
0.0014461466
0.00099276747
0.0010110796
0.0014552483
0.0022349466
0.003241758
0.0043709669
0.0055349129
0.0066683414
0.0077277622
0.0086882422
0.0095571491
0.010339179
0.011035047
0.01165491
0.012210833
0.012714926
0.00085312718
0.00067543389
0.00053072761
0.00041409592
0.00032056686
0.00024601866
0.00018689601
0.00014027351
0.00010373779
7.5326581e-05
5.3439107e-05
3.6481575e-05
2.3712797e-05
1.4524894e-05
8.1119078e-06
3.8617066e-06
1.309742e-06
1.3951625e-07
0.0010691928
0.0013290292
0.0016344649
0.0019840433
0.0023711118
0.0027863154
0.0032258494
0.0037043436
0.0042970736
0.0050127113
0.005837989
0.0068714644
0.0080052662
0.0090337152
0.0097072965
0.0098375109
0.0093434739
0.0082781492
0.0068014143
0.0051407037
0.003543308
0.0022294864
0.0013555411
0.00099381023
0.001133604
0.0017005165
0.0025847067
0.0036682693
0.0048450369
0.0060307593
0.0071656203
0.0082119086
0.0091710967
0.010039497
0.010813068
0.011501093
0.01211467
0.012666963
0.0131716
0.001072025
0.00085311432
0.00067403247
0.00052913874
0.00041254572
0.00031924383
0.00024493862
0.00018602
0.0001395485
0.00010312613
7.4802031e-05
5.2521496e-05
3.5454425e-05
2.2949202e-05
1.3986175e-05
7.7647772e-06
3.6692335e-06
1.2336934e-06
1.2972885e-07
0.0013364673
0.0016511783
0.0020147576
0.002420602
0.0028557365
0.0033084522
0.0037849901
0.0043355571
0.0051085146
0.0061171286
0.0072792202
0.0086430907
0.0099919248
0.011044523
0.011532756
0.011317863
0.010397185
0.0089045292
0.0070645811
0.0051457692
0.0034112042
0.0020737562
0.0012643422
0.0010202411
0.001295828
0.0019893829
0.0029747736
0.0041280181
0.0053439768
0.006543159
0.0076719232
0.0087237696
0.0096843853
0.010542062
0.011304628
0.011982279
0.012587315
0.013134003
0.013637592
0.0013405666
0.001071988
0.000851114
0.00067175055
0.00052693643
0.00041071406
0.00031780189
0.0002438084
0.00018511674
0.00013880038
0.0001024861
7.352653e-05
5.101451e-05
3.4294434e-05
2.2088577e-05
1.3381925e-05
7.3772025e-06
3.4560393e-06
1.1500355e-06
1.1917279e-07
0.0016624359
0.0020402903
0.0024669701
0.0029281901
0.0034043266
0.0038877596
0.0044136484
0.0050993942
0.0061908078
0.0076457358
0.0092293083
0.010922648
0.012387985
0.013309512
0.013452054
0.0127647
0.011338409
0.0093861337
0.0071879058
0.0050407858
0.0032112858
0.0018936088
0.001184466
0.0010813845
0.0015034475
0.002324412
0.0034056105
0.0046201188
0.0058658549
0.0070694191
0.00821429
0.0092721318
0.010220627
0.011064741
0.011813424
0.012478143
0.013072351
0.013611507
0.014112573
0.0016684231
0.0013404973
0.001069099
0.0008477685
0.00066854644
0.00052433233
0.00040873062
0.00031631409
0.00024266702
0.00018420516
0.00013803152
0.00010074375
7.1368632e-05
4.9314921e-05
3.2988258e-05
2.1123784e-05
1.2707853e-05
6.9472238e-06
3.2214361e-06
1.0587442e-06
1.0785009e-07
0.0020573408
0.0025056767
0.002996832
0.0035069231
0.0040127027
0.0045275015
0.0051472649
0.0060932975
0.0077043897
0.0097686026
0.011803034
0.01374027
0.015145411
0.015739993
0.015371852
0.014101514
0.012115009
0.0096944178
0.0071618178
0.0048296279
0.0029552318
0.0017031464
0.0011283455
0.0011859825
0.0017614985
0.0027077675
0.0038772185
0.0051428025
0.0064076509
0.0076423729
0.0088011628
0.009846665
0.010779833
0.011607082
0.012338963
0.012988113
0.01356921
0.014098972
0.014596186
0.0020661315
0.001668313
0.0013362861
0.0010641185
0.00084300783
0.00066474468
0.00052152456
0.00040670683
0.00031484121
0.00024154389
0.00018328788
0.00013567677
9.7710372e-05
6.8939127e-05
4.740324e-05
3.1525577e-05
2.0048121e-05
1.1960629e-05
6.4736334e-06
2.9652807e-06
9.6006568e-07
9.5812088e-08
0.0025313612
0.0030545749
0.0036057567
0.0041512608
0.0046768997
0.0052493855
0.0060678817
0.0074791635
0.0098509198
0.012650013
0.015062658
0.017054145
0.018161484
0.018219461
0.01719267
0.015257399
0.012684752
0.0098108572
0.0069852645
0.0045225946
0.0026585784
0.0015178548
0.0011082715
0.0013423354
0.0020746427
0.0031409167
0.0043882922
0.0056928336
0.0070092892
0.0082701685
0.0094180721
0.01044755
0.01136155
0.01216858
0.012880619
0.013511526
0.014077246
0.014595842
0.015088033
0.0025443053
0.0020659741
0.0016621451
0.0013287868
0.001056937
0.00083733955
0.00066065038
0.00051868142
0.00040473896
0.00031342779
0.0002404403
0.00018012838
0.00013146936
9.4302228e-05
6.6210166e-05
4.5265317e-05
2.9896692e-05
1.885657e-05
1.1138262e-05
5.9563469e-06
2.6881781e-06
8.5456844e-07
8.3168644e-08
0.0030926543
0.0036897445
0.0042881426
0.0048514386
0.0054055189
0.0061174344
0.0073299595
0.0094822649
0.012841177
0.016398659
0.018977246
0.020745821
0.021292854
0.020620148
0.018820579
0.016173374
0.013017945
0.0097276465
0.0066655729
0.0041355035
0.0023393988
0.0013538219
0.0011365908
0.0015585571
0.0024465824
0.0036234611
0.0049355987
0.0063185169
0.0076788828
0.0089327362
0.01006544
0.011074353
0.01196529
0.012748577
0.013437656
0.014047623
0.014595742
0.015101528
0.015587767
0.003111673
0.0025441016
0.002056928
0.0016507946
0.0013178446
0.0010483508
0.00083123436
0.00065652341
0.0005159546
0.00040289264
0.00031207063
0.0002362159
0.00017435481
0.00012675396
9.0480161e-05
6.3163157e-05
4.2887679e-05
2.8094653e-05
1.7546294e-05
1.0240808e-05
5.3968098e-06
2.3917659e-06
7.4325217e-07
7.0097582e-08
0.0037445828
0.0044061355
0.0050302438
0.0056040438
0.0062437129
0.0072713689
0.0091729045
0.01236274
0.016842398
0.021002946
0.023412204
0.024638023
0.02437728
0.022819586
0.020176085
0.016806321
0.013098436
0.0094476
0.0062174284
0.0036880732
0.0020174252
0.0012280779
0.0012259238
0.0018415453
0.0028784428
0.0041525397
0.0055769531
0.0070285423
0.0083891725
0.0096308339
0.010742863
0.011726629
0.01259039
0.013346296
0.014009229
0.014595553
0.01512395
0.015615484
0.016094941
0.0037724318
0.003111434
0.0025308344
0.0020397574
0.0016340597
0.0013047234
0.0010390923
0.0008250944
0.00065260395
0.00051343869
0.00040115475
0.00030643078
0.0002283584
0.0001679036
0.00012147634
8.622092e-05
5.9780212e-05
4.02612e-05
2.6115894e-05
1.6117732e-05
9.2709955e-06
4.7985165e-06
2.0789944e-06
6.2770426e-07
5.6856939e-08
0.0044830459
0.0051878955
0.0058186572
0.0064359202
0.0073113294
0.0089544411
0.011902523
0.016377501
0.021889956
0.026306684
0.028152833
0.028524236
0.027256625
0.024713056
0.021199698
0.017130537
0.012923368
0.0089827909
0.0056608059
0.0032029837
0.0017146766
0.0011587899
0.0013874805
0.0021947492
0.0033683034
0.0047961972
0.0063228105
0.0077868119
0.0091413667
0.010364091
0.011449975
0.012403738
0.013236057
0.01396083
0.014594382
0.015154444
0.015661161
0.016137049
0.016609089
0.0045255158
0.0037721825
0.0030920622
0.0025050168
0.0020142142
0.001613958
0.0012905691
0.0010297971
0.0008192996
0.00064902268
0.00051110059
0.0003936199
0.00029581072
0.00021961029
0.00016070033
0.00011560895
8.1501516e-05
5.6050236e-05
3.7381694e-05
2.3961939e-05
1.4575693e-05
8.2351072e-06
4.1675892e-06
1.7544415e-06
5.1022456e-07
4.3798865e-08
0.0052934368
0.0060145161
0.0066641365
0.0074445841
0.0088447044
0.011508222
0.015849515
0.021659289
0.027829968
0.032046333
0.032941724
0.032203035
0.029795802
0.026221251
0.021855005
0.017137021
0.012501162
0.0083518559
0.005020029
0.0027070282
0.0014557105
0.0011626513
0.0016279918
0.0026180045
0.0039943408
0.0055687343
0.0071266962
0.0085951247
0.0099351157
0.011132254
0.012186186
0.013104898
0.013901348
0.01459114
0.015192145
0.01572343
0.016206537
0.016665501
0.017129725
0.0053578032
0.0045253373
0.0037440206
0.0030538713
0.0024663283
0.0019835456
0.0015922937
0.0012763969
0.0010210656
0.00081402279
0.00064571157
0.00050102141
0.00037934782
0.00028403717
0.00020987041
0.00015271451
0.00010912349
7.6309225e-05
5.1969292e-05
3.4252594e-05
2.1640873e-05
1.2930797e-05
7.1440248e-06
3.5134408e-06
1.4246644e-06
3.9393775e-07
3.1381679e-08
0.0061498847