/*--------------------------------*- C++ -*----------------------------------*\
| =========                 |                                                 |
| \\      /  F ield         | OpenFOAM: The Open Source CFD Toolbox           |
|  \\    /   O peration     | Version:  5.0                                   |
|   \\  /    A nd           | Web:      www.OpenFOAM.org                      |
|    \\/     M anipulation  |                                                 |
\*---------------------------------------------------------------------------*/
FoamFile
{
    version     2.0;
    format      ascii;
    class       volVectorField;
    location    "40";
    object      U;
}
// * * * * * * * * * * * * * * * * * * * * * * * * * * * * * * * * * * * * * //

dimensions      [0 1 -1 0 0 0 0];

internalField   nonuniform List<vector> 
9200
(
(1.0032686 -0.00052145135 -2.5000654e-24)
(1.003271 -0.0015841854 -4.4657382e-22)
(1.004776 -0.00053053656 0)
(1.0032981 -0.0024645995 2.2423749e-22)
(1.0047487 -0.0016319413 -4.1382124e-22)
(1.0054483 -0.00053654319 0)
(1.0032696 -0.0033674705 2.3241984e-23)
(1.0047377 -0.0025238489 -4.4451102e-23)
(1.0054118 -0.0016680441 0)
(1.006498 -0.00054792449 0)
(1.0032707 -0.0040648158 -3.8864196e-22)
(1.0046463 -0.0034649951 -1.8421418e-22)
(1.0053815 -0.0025699156 -2.2847587e-22)
(1.0064502 -0.0017343589 -1.5999314e-23)
(1.0073411 -0.00055920255 3.9440577e-25)
(1.0032509 -0.0047563288 -3.5482422e-22)
(1.0045658 -0.0041770729 7.0667268e-23)
(1.0052631 -0.0035403319 -6.9922382e-22)
(1.0063951 -0.002660297 -2.4113849e-22)
(1.0072864 -0.0018014707 3.7040252e-23)
(1.0083061 -0.00057880553 8.3704985e-22)
(1.003243 -0.005298091 -2.4101617e-22)
(1.0044603 -0.0048971684 -4.7011031e-22)
(1.0051482 -0.0042684292 4.3268905e-22)
(1.0062413 -0.003685215 1.5329574e-23)
(1.007213 -0.002754496 -3.5090397e-22)
(1.0082508 -0.0019034768 -3.4082082e-22)
(1.0092093 -0.00060794128 -3.892628e-23)
(1.0032273 -0.0057933955 -2.4638378e-24)
(1.0043506 -0.0054573633 -2.3479464e-22)
(1.0050032 -0.0050120073 -3.963153e-22)
(1.0060783 -0.0044498863 9.1375061e-23)
(1.0070326 -0.0038344334 7.0421181e-22)
(1.0081681 -0.0029026778 3.1586797e-22)
(1.0091528 -0.0020356689 6.0487348e-22)
(1.0102151 -0.00065344095 -9.7180482e-22)
(1.0032159 -0.0061895337 2.2850081e-22)
(1.0042313 -0.0059741673 -3.7673859e-22)
(1.0048496 -0.0055909699 8.2418197e-23)
(1.0058789 -0.0052416799 -2.5062935e-22)
(1.006832 -0.004640305 2.1737644e-22)
(1.0079728 -0.004061936 1.2594452e-21)
(1.0090615 -0.0030972383 -6.3072347e-22)
(1.010163 -0.0022263551 1.09336e-21)
(1.0112191 -0.00071052482 2.2223552e-21)
(1.0032027 -0.0065261229 -1.0811158e-22)
(1.0041093 -0.0063882212 3.0357378e-22)
(1.0046829 -0.0061271217 -1.2231707e-23)
(1.0056622 -0.0058627262 -3.0756759e-22)
(1.0065893 -0.0054827171 5.3553232e-23)
(1.0077449 -0.004932937 3.8540963e-22)
(1.0088516 -0.0043461118 -4.6619333e-22)
(1.0100709 -0.0033840402 -9.8508794e-22)
(1.0111702 -0.0024554424 -5.2222758e-22)
(1.0123484 -0.0007794463 -1.3971035e-22)
(1.0031921 -0.0067948915 5.3419761e-23)
(1.0039856 -0.0067414534 1.4781521e-22)
(1.0045118 -0.0065583711 -3.2321865e-22)
(1.0054278 -0.0064415352 2.3242373e-22)
(1.0063218 -0.0061493034 -8.0796089e-22)
(1.0074662 -0.0058519082 1.4541888e-21)
(1.0085971 -0.0052916676 1.3470167e-22)
(1.009858 -0.0047572406 -1.7898294e-21)
(1.0110763 -0.0037330896 9.7769293e-22)
(1.0123095 -0.0027316098 -2.0161638e-21)
(1.0135042 -0.00084772626 4.098568e-22)
(1.0031817 -0.0070091966 -2.3002481e-23)
(1.0038641 -0.0070240333 -2.1613517e-22)
(1.0043383 -0.0069267226 1.0579574e-22)
(1.0051832 -0.0069114246 0)
(1.0060312 -0.0067720465 1.2645933e-23)
(1.007149 -0.0065900237 -3.8378954e-22)
(1.008284 -0.0062930985 3.2596997e-22)
(1.0095892 -0.0058113153 8.7975466e-22)
(1.0108617 -0.0052499528 -4.6998625e-22)
(1.0122201 -0.0041601358 1.2733072e-21)
(1.0134774 -0.003009179 9.5191635e-22)
(1.0147741 -0.00091338905 -2.02978e-22)
(1.0031742 -0.0071747318 -5.816217e-24)
(1.0037479 -0.0072511443 1.2430313e-22)
(1.0041678 -0.007221875 0)
(1.0049317 -0.007313835 0)
(1.0057242 -0.0072809016 2.5815256e-22)
(1.0067985 -0.0072826935 -8.0026022e-22)
(1.0079216 -0.0071095852 1.0264656e-21)
(1.0092537 -0.0069296321 -8.2827083e-22)
(1.0105821 -0.0064309959 -4.2253974e-23)
(1.0120129 -0.0058540314 5.6675326e-24)
(1.013394 -0.004592598 -1.8449132e-21)
(1.0147685 -0.0032861739 2.3506612e-21)
(1.016055 -0.00096708667 -4.2673734e-21)
(1.003153 -0.0073105856 6.6774764e-23)
(1.0036365 -0.0074256075 -1.6786041e-23)
(1.0039987 -0.0074556106 2.077159e-22)
(1.0046767 -0.0076360684 -2.8071882e-22)
(1.0054049 -0.0077166003 3.317205e-22)
(1.006421 -0.0078563586 -2.3724577e-22)
(1.0075177 -0.0078791251 -1.5488257e-22)
(1.008854 -0.0078593594 3.5206187e-23)
(1.010229 -0.0076806928 -5.1194721e-22)
(1.0117308 -0.0071959738 -4.5111919e-22)
(1.0131988 -0.0064680211 -4.3969774e-22)
(1.0147009 -0.0050279404 -1.2432045e-21)
(1.0160744 -0.0035251633 -9.0967394e-22)
(1.0174098 -0.0010107842 1.248411e-21)
(1.0031552 -0.0073931139 -1.2821793e-22)
(1.0035341 -0.0075521421 -4.6960473e-22)
(1.0038346 -0.0076325873 -3.4444226e-23)
(1.0044214 -0.0078920586 3.4056069e-23)
(1.0050786 -0.0080670932 -3.4924287e-23)
(1.0060235 -0.008351241 2.9863964e-22)
(1.0070789 -0.008525756 -1.2960212e-22)
(1.0084002 -0.0087398792 1.9946645e-22)
(1.0097977 -0.0087372717 -2.4403979e-22)
(1.0113681 -0.0086108489 3.1507186e-24)
(1.012921 -0.0079800825 2.5814745e-23)
(1.0145316 -0.0070934079 -2.1991471e-22)
(1.0160278 -0.0054050468 2.0520467e-21)
(1.0174642 -0.0037358327 -1.1710862e-21)
(1.0187445 -0.0010417015 1.0630063e-21)
(1.003159 -0.0074473416 -8.0422756e-23)
(1.003433 -0.0076411834 1.961449e-22)
(1.003676 -0.0077597114 -2.1003233e-22)
(1.0041688 -0.0080853034 2.6736248e-22)
(1.0047504 -0.0083458955 -3.1899623e-22)
(1.0056147 -0.0087550691 4.8857773e-22)
(1.006615 -0.0090885639 -9.8158986e-22)
(1.0078981 -0.0094916518 7.909499e-23)
(1.0092995 -0.0097410407 2.2815875e-22)
(1.0109122 -0.0098293396 -7.4101099e-22)
(1.0125581 -0.0095710543 2.7294969e-21)
(1.0142713 -0.0087898499 -1.4777957e-21)
(1.0158946 -0.007641863 -6.8954848e-22)
(1.0174513 -0.0057402181 -1.7171057e-22)
(1.0188374 -0.0039033446 1.1692659e-22)
(1.0201145 -0.0010629878 -1.2333314e-21)
(1.003163 -0.0074766053 0)
(1.0033373 -0.0076953251 3.1635872e-22)
(1.0035257 -0.0078437265 6.3455017e-23)
(1.0039232 -0.0082241171 0)
(1.0044278 -0.0085586698 0)
(1.0052037 -0.009082041 0)
(1.0061353 -0.0095543937 1.003482e-22)
(1.007358 -0.010150133 -3.4133882e-22)
(1.0087378 -0.010609972 1.1230196e-21)
(1.0103737 -0.01099168 -6.3036365e-22)
(1.0120877 -0.010965152 2.7575243e-22)
(1.0139208 -0.01057458 -5.8134819e-22)
(1.0156649 -0.0095110442 1.8186232e-22)
(1.0173717 -0.0081379085 7.8663608e-22)
(1.0188652 -0.0060084282 7.3432745e-23)
(1.0202555 -0.0040409179 6.2693668e-22)
(1.0214419 -0.0010738687 0)
(1.0031667 -0.0074846489 -1.735874e-22)
(1.0032475 -0.0077206528 -3.607043e-22)
(1.0033843 -0.0078917474 7.6860528e-22)
(1.0036881 -0.0083148827 5.3058073e-22)
(1.0041161 -0.0087143944 5.5785826e-22)
(1.0047974 -0.0093361101 0)
(1.0056474 -0.0099335246 8.8989753e-22)
(1.0067885 -0.010698409 -3.7414168e-22)
(1.0081231 -0.011376192 -1.6461419e-21)
(1.0097531 -0.012014025 1.5481256e-21)
(1.0115198 -0.012302234 3.8369758e-22)
(1.0134484 -0.012167043 3.5274508e-22)
(1.0153429 -0.011483291 -1.8408768e-21)
(1.0171918 -0.010175591 2.4163967e-21)
(1.0188521 -0.0085427809 2.0711697e-22)
(1.0203376 -0.0062313239 4.4971207e-21)
(1.0216337 -0.0041413678 1.6771842e-21)
(1.0227709 -0.0010753517 1.7067317e-21)
(1.003169 -0.0074757294 1.3767074e-23)
(1.0031641 -0.0077223983 -2.5075113e-22)
(1.003253 -0.0079098754 -4.5839464e-23)
(1.0034674 -0.0083653468 4.9014316e-22)
(1.0038188 -0.0088202168 -7.8677837e-23)
(1.0043998 -0.0095240608 -2.1313711e-23)
(1.005157 -0.010227546 -1.2977452e-21)
(1.0061987 -0.011144641 -2.0741351e-21)
(1.0074655 -0.012022089 -8.5323611e-22)
(1.0090622 -0.012925706 2.8114226e-22)
(1.010852 -0.013497551 -3.8523869e-22)
(1.012862 -0.013705012 1.2204406e-21)
(1.014886 -0.013273891 -1.2774518e-21)
(1.0169181 -0.012336098 1.2637562e-22)
(1.0187393 -0.010730141 9.9164466e-23)
(1.0204089 -0.0088875001 -7.310185e-22)
(1.021776 -0.0063962181 1.5995782e-21)
(1.0230227 -0.0042105742 -1.2357698e-22)
(1.0240479 -0.0010670202 1.6868071e-21)
(1.0031693 -0.007453085 1.0992144e-22)
(1.0030875 -0.0077051162 2.565951e-22)
(1.0031326 -0.0079038344 -1.3834752e-21)
(1.0032624 -0.008382184 -2.9921028e-22)
(1.0035369 -0.0088821858 1.1780043e-22)
(1.0040134 -0.0096513808 -3.1540119e-23)
(1.0046699 -0.010442538 1.9336131e-22)
(1.0055985 -0.011490947 3.882495e-22)
(1.0067777 -0.012555471 -3.6267326e-22)
(1.0083128 -0.013708555 -2.3324892e-21)
(1.0100958 -0.014577225 1.0489083e-21)
(1.0121545 -0.015101803 1.6070415e-22)
(1.0142994 -0.015018118 -3.4432781e-22)
(1.0164975 -0.014331809 2.0038207e-23)
(1.0185352 -0.013064439 2.4974462e-22)
(1.0203847 -0.011214432 -2.5937774e-21)
(1.0219438 -0.0091515211 9.7723639e-22)
(1.0232396 -0.0065132756 -2.651733e-21)
(1.0243595 -0.0042440394 -6.7900561e-22)
(1.0252919 -0.0010492906 -1.8018456e-21)
(1.0031685 -0.0074191637 4.0686301e-23)
(1.003017 -0.0076728653 4.5550534e-22)
(1.0030223 -0.0078784489 3.0473742e-22)
(1.0030729 -0.0083707082 4.5112684e-22)
(1.0032708 -0.0089054021 -2.0607994e-22)
(1.003641 -0.0097242576 -4.3528229e-22)
(1.0041922 -0.010585777 1.5073667e-21)
(1.0049989 -0.011745508 3.2399009e-21)
(1.0060732 -0.012978989 -1.8244053e-23)
(1.0075194 -0.014367381 0)
(1.0092612 -0.015518971 -6.0936331e-22)
(1.0113345 -0.016377498 1.3319016e-21)
(1.0135697 -0.016627513 1.8021482e-21)
(1.0159307 -0.016295105 -2.0481838e-21)
(1.0181748 -0.015257087 6.0431038e-22)
(1.0202751 -0.013716102 -2.0108301e-21)
(1.0220263 -0.011599123 2.4855092e-22)
(1.0235211 -0.0093501415 1.126984e-21)
(1.0246521 -0.0065740274 -1.8094059e-21)
(1.0256723 -0.0042436312 -1.0146296e-22)
(1.0264785 -0.0010227324 -1.7460555e-21)
(1.0031663 -0.0073764739 -8.737512e-23)
(1.0029517 -0.0076290896 3.901965e-22)
(1.0029214 -0.0078377048 6.5856677e-22)
(1.0028985 -0.008335706 -7.5854933e-22)
(1.0030211 -0.0088950731 -7.7358714e-22)
(1.0032856 -0.0097498817 -1.1235867e-23)
(1.0037303 -0.01066608 0)
(1.0044097 -0.011917385 -1.8179828e-22)
(1.0053648 -0.01329957 -1.0550995e-21)
(1.0066962 -0.014901409 -1.9751449e-21)
(1.0083625 -0.016322863 2.4988585e-22)
(1.010411 -0.017507143 7.5248176e-22)
(1.0127033 -0.018117987 -2.575151e-22)
(1.0151979 -0.018136273 -4.4776499e-22)
(1.0176547 -0.017437996 1.3232589e-21)
(1.0200023 -0.016105692 -1.3156742e-21)
(1.0220349 -0.014251252 2.649529e-22)
(1.0237308 -0.011904429 -1.8462177e-21)
(1.0250557 -0.0094689936 -1.0588036e-22)
(1.026055 -0.0065813609 -1.999663e-23)
(1.0269277 -0.0042086757 -1.01288e-21)
(1.0276078 -0.00098775756 0)
(1.0031632 -0.0073270755 1.4116755e-23)
(1.0028908 -0.0075767254 -2.2700457e-22)
(1.0028285 -0.0077850203 -4.2392683e-23)
(1.0027383 -0.0082816345 -1.0061618e-21)
(1.0027884 -0.008856432 -7.0536053e-22)
(1.0029496 -0.0097353886 4.3480438e-22)
(1.0032888 -0.010692422 2.0791157e-22)
(1.0038385 -0.012015825 1.6556628e-21)
(1.0046627 -0.01352415 4.0625651e-22)
(1.0058567 -0.015313909 2.2843851e-22)
(1.0074148 -0.016984476 -6.8640142e-23)
(1.0093986 -0.018486504 -1.8081607e-21)
(1.0117061 -0.019460697 1.1546083e-22)
(1.0143006 -0.019865536 1.460053e-21)
(1.0169467 -0.019516863 -1.0439015e-21)
(1.0195581 -0.018510558 -1.6739269e-21)
(1.0218783 -0.016826049 -8.0306123e-23)
(1.0238835 -0.014694923 3.2193523e-21)
(1.0254085 -0.012108946 2.1818358e-22)
(1.0265981 -0.0095123652 -1.1398881e-21)
(1.0274002 -0.0065330793 0)
(1.0281286 -0.0041397376 2.2973985e-21)
(1.0286713 -0.00094488122 2.4347094e-23)
(1.0031621 -0.0072726476 3.7670508e-22)
(1.0028345 -0.0075181398 -4.413325e-22)
(1.0027426 -0.0077234236 6.5205143e-22)
(1.0025914 -0.0082124714 2.8642502e-22)
(1.0025726 -0.0087944451 -1.0554512e-21)
(1.0026347 -0.0096875524 0)
(1.0028709 -0.01067303 6.1557321e-23)
(1.0032907 -0.012049817 3.8377465e-22)
(1.0039755 -0.013660192 1.4633072e-21)
(1.0050133 -0.015609817 2.5984596e-21)
(1.0064339 -0.017504949 -8.0644483e-22)
(1.0083138 -0.019308726 -1.2784403e-21)
(1.0105923 -0.020647161 1.6483569e-21)
(1.0132424 -0.021450794 -1.1777734e-21)
(1.016048 -0.021499705 2.3490353e-21)
(1.0189054 -0.020840978 2.6492721e-21)
(1.0215436 -0.019449359 -1.9292927e-21)
(1.0238744 -0.017447368 1.2495831e-21)
(1.0257276 -0.015016907 -4.3791506e-21)
(1.0271136 -0.012218174 1.5849676e-21)
(1.0280823 -0.009474816 2.6234034e-21)
(1.0286981 -0.0064305473 -2.4001717e-21)
(1.0292641 -0.0040382086 1.551447e-21)
(1.0296648 -0.0008944603 2.1579341e-23)
(1.0031688 -0.0072144158 -1.0553363e-22)
(1.0027855 -0.0074554377 -4.7821782e-22)
(1.0026639 -0.0076553432 -3.4596453e-22)
(1.0024568 -0.0081319103 -2.2168975e-21)
(1.0023736 -0.0087135856 5.7257498e-22)
(1.0023412 -0.0096124311 -1.4213864e-21)
(1.0024782 -0.010615446 7.0724359e-23)
(1.0027697 -0.012027872 -1.9383498e-21)
(1.0033098 -0.01371623 1.3183718e-22)
(1.0041777 -0.015796489 8.5695632e-22)
(1.0054363 -0.017888789 -1.3727835e-22)
(1.0071763 -0.019972873 2.6065731e-21)
(1.0093796 -0.021666734 -5.8841612e-22)
(1.0120358 -0.022878106 -2.1622874e-22)
(1.0149567 -0.023350129 3.0924155e-22)
(1.0180345 -0.023098315 4.5434725e-22)
(1.0209841 -0.022033477 -3.7765597e-22)
(1.0236853 -0.020286932 1.9739167e-21)
(1.0258953 -0.017928464 0)
(1.0276222 -0.015223832 3.3087346e-22)
(1.0287682 -0.012221649 1.0575608e-22)
(1.0295369 -0.009357607 -2.1331434e-22)
(1.0299311 -0.0062754439 8.4912702e-23)
(1.0303294 -0.00390581 -2.2247941e-21)
(1.0305845 -0.00083701242 -1.0569596e-21)
(1.0031915 -0.007153965 -2.8190351e-22)
(1.0027504 -0.0073902168 3.4614323e-22)
(1.0025947 -0.0075829757 2.8288064e-22)
(1.0023345 -0.0080430181 2.6618835e-22)
(1.002191 -0.0086179942 2.2471008e-21)
(1.002069 -0.0095152978 3.4587042e-22)
(1.002111 -0.010526459 8.7159016e-23)
(1.0022779 -0.011958378 1.1811061e-22)
(1.0026716 -0.013701388 1.7126183e-21)
(1.0033606 -0.015883586 2.8506814e-22)
(1.0044381 -0.018143525 1.0764278e-21)
(1.0060057 -0.020481549 -3.5697357e-22)
(1.0080888 -0.022514087 -1.4728523e-21)
(1.0106975 -0.024131244 5.9250857e-23)
(1.0136812 -0.025047787 -8.773088e-22)
(1.0169371 -0.025242518 -4.3462572e-22)
(1.0201829 -0.024576968 7.2071223e-22)
(1.0232595 -0.023129457 -2.7934674e-21)
(1.0258882 -0.020969349 -4.3742578e-21)
(1.0279964 -0.018276654 5.4899093e-24)
(1.0294841 -0.01529852 4.6269189e-21)
(1.0304127 -0.012120175 1.1914133e-21)
(1.030924 -0.0091627873 -2.4235311e-21)
(1.0310953 -0.0060698201 2.2210974e-21)
(1.0313195 -0.0037449483 -1.6036709e-21)
(1.0314281 -0.00077326009 8.6879596e-23)
(1.0032331 -0.0070930059 9.1887458e-24)
(1.0027397 -0.0073243592 2.4165863e-22)
(1.0025416 -0.0075078183 -8.6846902e-22)
(1.0022266 -0.0079487212 1.2267975e-21)
(1.0020248 -0.0085110089 -1.5248104e-21)
(1.0018175 -0.0094009015 1.5077016e-21)
(1.0017691 -0.010412061 1.4689386e-21)
(1.0018166 -0.011849317 1.1076907e-21)
(1.0020651 -0.01362535 -2.6007199e-21)
(1.002571 -0.015881814 -1.1855417e-21)
(1.0034534 -0.018279091 -1.6673836e-22)
(1.004821 -0.020840173 -3.0495682e-21)
(1.0067415 -0.023187438 2.8228158e-21)
(1.0092485 -0.025198872 -1.6219087e-21)
(1.0122358 -0.026570278 2.399248e-22)
(1.015617 -0.02724753 6.7072964e-22)
(1.0191238 -0.027037379 -1.9581952e-21)
(1.0225717 -0.025971562 2.3160944e-21)
(1.0256396 -0.024060779 -2.0727706e-21)
(1.028208 -0.021503607 4.1577871e-22)
(1.0300899 -0.018465745 0)
(1.0313545 -0.015241299 1.9673831e-21)
(1.031986 -0.011915169 1.4915018e-22)
(1.032246 -0.008893065 0)
(1.0321834 -0.0058175679 -2.7191068e-21)
(1.0322316 -0.0035583183 -8.4424941e-23)
(1.0321948 -0.00070404135 8.7561281e-22)
(1.0032772 -0.0070323122 1.0347173e-22)
(1.0027618 -0.0072594432 5.458883e-23)
(1.0025158 -0.0074315949 -7.6181453e-22)
(1.0021395 -0.0078510559 2.6575122e-23)
(1.0018774 -0.0083958963 -5.1782432e-22)
(1.0015864 -0.009272976 -1.7103627e-21)
(1.0014516 -0.01027771 -9.9243798e-23)
(1.0013858 -0.011708034 -1.3995208e-21)
(1.0014934 -0.013497585 4.6647236e-22)
(1.0018157 -0.015802506 1.7136143e-21)
(1.0024941 -0.01830637 -2.7130613e-21)
(1.0036395 -0.021056793 -1.5373979e-21)
(1.0053588 -0.023688374 -1.9071182e-21)
(1.0077117 -0.02607404 2.1894275e-22)
(1.0106408 -0.027900079 -2.0209405e-21)
(1.0140853 -0.029085262 4.3038844e-22)
(1.0178041 -0.029383588 -3.2473251e-21)
(1.0215966 -0.028769435 5.6314161e-21)
(1.0251157 -0.027199386 1.8313904e-21)
(1.0281807 -0.02483312 -5.645442e-22)
(1.0305536 -0.021852395 2.6698556e-21)
(1.0322155 -0.018495398 -1.1812423e-22)
(1.0331618 -0.015050193 -1.6616749e-22)
(1.0335113 -0.011607242 0)
(1.0334905 -0.0085532614 0)
(1.0331911 -0.0055228294 2.1313986e-22)
(1.0330638 -0.0033489425 -1.7893207e-21)
(1.0328843 -0.0006301923 -1.5243131e-21)
(1.0032694 -0.0069734306 0)
(1.0028078 -0.0071983337 1.8256151e-22)
(1.0025282 -0.0073552818 7.6030511e-22)
(1.0020845 -0.007752462 7.3737485e-22)
(1.0017553 -0.0082747709 1.5540304e-21)
(1.001378 -0.0091351935 3.9746897e-22)
(1.001158 -0.010127705 -1.0733746e-21)
(1.0009848 -0.01154143 -2.383444e-21)
(1.0009576 -0.013327012 2.2756127e-21)
(1.0010994 -0.015656744 -2.2355818e-22)
(1.0015693 -0.018237195 2.0753065e-22)
(1.0024757 -0.021141177 1.6615936e-22)
(1.0039613 -0.024022439 -5.274351e-21)
(1.0061118 -0.026754512 3.135213e-22)
(1.0089211 -0.029024944 4.903406e-22)
(1.0123613 -0.030731925 -2.1637655e-21)
(1.0162298 -0.031581762 6.1501754e-22)
(1.0203239 -0.03148762 -2.101738e-21)
(1.0242816 -0.030341954 5.0377161e-21)
(1.0278719 -0.028263396 -1.9848234e-21)
(1.03079 -0.025395986 2.2090908e-21)
(1.0329629 -0.022013748 1.4915421e-21)
(1.0342956 -0.018357702 -5.6984218e-23)
(1.0349359 -0.014724393 -5.2425511e-21)
(1.0349518 -0.011204609 -1.3285798e-21)
(1.0346517 -0.0081486124 1.9272925e-22)
(1.0341151 -0.0051904122 2.3258715e-21)
(1.0338153 -0.0031200568 -1.0443144e-21)
(1.0334965 -0.00055249985 1.9216379e-21)
(1.0031105 -0.0069217657 -4.5332955e-22)
(1.0028273 -0.0071469215 0)
(1.002575 -0.0072813817 0)
(1.0020744 -0.0076542198 0)
(1.0016707 -0.008150513 -3.9009347e-22)
(1.0011982 -0.0089897012 1.4286156e-21)
(1.00089 -0.0099663493 1.086002e-22)
(1.000613 -0.011355073 2.6247393e-22)
(1.0004576 -0.013122088 3.5501924e-21)
(1.0004244 -0.015455111 -4.1379896e-21)
(1.0006856 -0.018083592 1.1770259e-21)
(1.0013422 -0.021105152 -5.3046398e-22)
(1.0025678 -0.024198305 2.1149536e-21)
(1.0044736 -0.027243464 -3.0074298e-22)
(1.0071043 -0.029938035 4.214697e-21)
(1.0104698 -0.032168818 7.2050327e-22)
(1.0144163 -0.033600783 -2.5528956e-21)
(1.0187523 -0.034086713 -1.9039899e-21)
(1.0231171 -0.033450293 1.7461435e-21)
(1.0272363 -0.031753675 -6.4463192e-22)
(1.0307491 -0.029098333 -2.5604878e-21)
(1.0335039 -0.025744477 1.984456e-23)
(1.0353523 -0.021971484 3.7532654e-21)
(1.0363573 -0.018051258 -2.5148979e-21)
(1.0366195 -0.014274104 -2.4057481e-23)
(1.036311 -0.010711507 -9.2279211e-22)
(1.035724 -0.0076859987 2.3329881e-21)
(1.0349535 -0.0048253948 3.9179264e-22)
(1.0344864 -0.0028749014 3.6931803e-21)
(1.0340318 -0.00047165939 9.5447974e-22)
(1.0026134 -0.0068682776 6.6797331e-23)
(1.0027081 -0.0071047517 1.5758757e-22)
(1.0026103 -0.0072108333 0)
(1.0021096 -0.007559455 0)
(1.001638 -0.008024258 0)
(1.0010598 -0.0088398093 0)
(1.0006533 -0.0097960217 0)
(1.0002715 -0.011154664 -6.9684147e-23)
(0.99999321 -0.012889868 -1.1542032e-21)
(0.99979139 -0.015207852 4.5844032e-21)
(0.99984735 -0.017857663 8.7209475e-23)
(1.0002491 -0.020961627 1.3529179e-21)
(1.0011956 -0.024227938 -4.6266081e-21)
(1.0028216 -0.027548223 3.6707895e-21)
(1.0052198 -0.030638442 -3.9174395e-22)
(1.0084406 -0.033382321 2.0030527e-21)
(1.0123863 -0.035413713 -2.6388679e-21)
(1.0168911 -0.036528093 1.3387339e-21)
(1.0216115 -0.036480825 1.6724343e-21)
(1.0262432 -0.035265015 1.0929407e-21)
(1.030375 -0.032923618 3.3433969e-22)
(1.0337816 -0.029694606 1.5963574e-21)
(1.0362333 -0.025851546 2.1359497e-23)
(1.0377449 -0.021722786 -1.4952394e-21)
(1.0383358 -0.017583816 6.8403888e-22)
(1.0382329 -0.013699558 4.4736981e-21)
(1.0375743 -0.010137574 1.1301922e-21)
(1.0367037 -0.0071724153 -1.0251934e-21)
(1.0357056 -0.004433022 4.4662277e-23)
(1.0350783 -0.0026164126 -2.3533734e-21)
(1.0344944 -0.00038835664 -5.7984921e-22)
(1.0013637 -0.006803205 7.3671766e-22)
(1.0022408 -0.0070687378 1.7418877e-22)
(1.0025237 -0.0071489555 5.9084573e-22)
(1.0021494 -0.0074686283 1.0357232e-21)
(1.0016619 -0.0079001281 0)
(1.0009791 -0.0086859891 0)
(1.0004604 -0.009620736 1.3649743e-22)
(0.9999655 -0.010943519 2.0068338e-21)
(0.99956587 -0.012637673 -3.0662617e-21)
(0.99920067 -0.014923677 3.9256355e-21)
(0.99905698 -0.017571563 -2.788384e-22)
(0.99920413 -0.020724334 -3.5958484e-21)
(0.99985932 -0.024125056 1.1714057e-21)
(1.001178 -0.027680181 -5.2659128e-22)
(1.0032967 -0.031129793 -3.3026887e-21)
(1.0063054 -0.034364766 1.023035e-22)
(1.0101685 -0.036998133 5.8657068e-21)
(1.0147585 -0.038776255 -3.0068959e-22)
(1.0197658 -0.039388552 -4.0102208e-21)
(1.0248715 -0.038751691 7.485581e-21)
(1.0296265 -0.036834797 -1.4833719e-21)
(1.0337308 -0.033835396 -2.233364e-21)
(1.0368766 -0.030011675 5.4831113e-21)
(1.0389968 -0.025711495 2.2440037e-21)
(1.0400684 -0.021270659 -8.6599449e-22)
(1.0402491 -0.016955581 2.5777538e-21)
(1.0397355 -0.013018393 1.3069338e-21)
(1.0387378 -0.009491091 5.851505e-22)
(1.0375886 -0.0066154723 -1.2092803e-21)
(1.0363721 -0.0040184595 -1.3559082e-22)
(1.0355937 -0.002347292 -8.1825157e-22)
(1.0348932 -0.0003037882 -5.3326583e-23)
(0.99885004 -0.00671697 -3.1821004e-22)
(1.0009703 -0.0070437919 -1.8680328e-22)
(1.0021059 -0.0070891682 -6.9218728e-22)
(1.002082 -0.007390532 -8.8341013e-22)
(1.0017062 -0.0077775201 0)
(1.0009662 -0.0085337008 0)
(1.0003287 -0.0094402548 0)
(0.99970683 -0.010727168 -1.0619373e-22)
(0.99918086 -0.012370008 3.9816428e-21)
(0.99865408 -0.014611766 3.7248623e-21)
(0.99831593 -0.017236034 -3.7114026e-22)
(0.99821252 -0.020407466 -6.22556e-22)
(0.99857082 -0.023904721 7.8858432e-21)
(0.99956242 -0.02765292 -3.8607986e-21)
(1.001362 -0.031420492 1.002284e-22)
(1.0040968 -0.035113556 0)
(1.0077959 -0.038337796 1.7536834e-21)
(1.0123807 -0.040799607 -1.6084651e-21)
(1.0175912 -0.042130151 7.4052955e-22)
(1.0231117 -0.042164143 6.228369e-22)
(1.0284705 -0.040786686 -3.4682742e-21)
(1.0332995 -0.038134123 5.103112e-22)
(1.037209 -0.034432425 -3.5275854e-21)
(1.0400476 -0.030038894 -4.5278659e-21)
(1.0417136 -0.025320111 1.693131e-21)
(1.0423356 -0.020615175 3.2361907e-22)
(1.0420468 -0.016185554 -2.2364888e-22)
(1.0411388 -0.012233536 5.0670619e-23)
(1.0397964 -0.0087822311 -1.5561361e-21)
(1.038378 -0.0060226694 -1.130795e-21)
(1.0369547 -0.0035867467 2.3534826e-22)
(1.0360366 -0.0020707261 1.7776705e-21)
(1.0352326 -0.00022077556 -3.8933609e-22)
(0.99433657 -0.0065755543 -3.4999296e-22)
(0.998284 -0.0070199991 -1.0083037e-22)
(1.000893 -0.0070281305 -1.1307395e-21)
(1.0016817 -0.0073110591 -1.8006288e-21)
(1.0016603 -0.0076698781 3.9156914e-22)
(1.0009918 -0.0083794695 2.4444684e-22)
(1.000273 -0.0092615556 3.1817921e-21)
(0.99951277 -0.010505145 -1.8618106e-21)
(0.99885001 -0.012094394 -7.1092627e-22)
(0.99815728 -0.01427783 -7.590764e-21)
(0.99762683 -0.016862628 3.1980007e-21)
(0.997278 -0.020023913 5.6583189e-21)
(0.99733863 -0.023582707 1.5612273e-22)
(0.99799083 -0.027482019 -4.1823513e-21)
(0.99944019 -0.031521927 -4.1945507e-21)
(1.0018466 -0.035632056 -2.0987593e-22)
(1.0053037 -0.039422371 8.3465265e-22)
(1.0097902 -0.042572701 2.0671663e-21)
(1.0151087 -0.044664948 -6.4001328e-22)
(1.0209659 -0.045452545 -3.5991444e-22)
(1.0268855 -0.044727546 1.5560172e-21)
(1.0324426 -0.042548894 -6.2846794e-21)
(1.0371694 -0.039088109 -1.4127711e-22)
(1.0408182 -0.034696509 2.0136311e-21)
(1.0432056 -0.029761971 -6.1149092e-21)
(1.0443903 -0.024676209 -2.0823843e-21)
(1.0444881 -0.019774212 -1.8811193e-21)
(1.0437417 -0.015276408 -5.9275999e-22)
(1.0424196 -0.011364508 -1.1823189e-21)
(1.0407477 -0.0080208644 7.6671891e-23)
(1.0390725 -0.0054015549 -4.3179816e-22)
(1.0374558 -0.003142877 -1.0289475e-22)
(1.0364098 -0.0017907752 -5.2654623e-22)
(1.0354994 -0.00014691117 1.1750512e-22)
(0.9869622 -0.0063366483 5.275148e-22)
(0.99326391 -0.0069729509 1.2935441e-22)
(0.99822713 -0.0069650641 1.2682155e-21)
(1.0004769 -0.0072294707 6.6169954e-22)
(1.0012913 -0.0075529919 -1.3685925e-21)
(1.0009488 -0.0082441861 -2.4873672e-21)
(1.0002708 -0.0090773135 -4.2459917e-22)
(0.99940144 -0.010287166 0)
(0.99859062 -0.011810396 -2.4324004e-21)
(0.99772233 -0.01393155 -9.5015258e-21)
(0.99699591 -0.016458752 -1.3219629e-21)
(0.99640492 -0.01958784 -2.1450224e-21)
(0.99616932 -0.023173607 0)
(0.99647546 -0.027184253 8.8140648e-22)
(0.99755223 -0.031448775 7.8142389e-21)
(0.99958458 -0.035927884 1.608266e-22)
(1.0027283 -0.040248796 -7.3226815e-21)
(1.0070241 -0.044076399 0)
(1.0123478 -0.04695751 1.886712e-21)
(1.0184472 -0.048567709 2.8065063e-21)
(1.0248617 -0.048603 -5.1832051e-21)
(1.0311258 -0.04702867 1.4966896e-21)
(1.0367011 -0.043943356 0)
(1.0412401 -0.039667874 -5.7282144e-21)
(1.0444616 -0.034599954 2.2890521e-21)
(1.046349 -0.029176567 -1.4859831e-22)
(1.046959 -0.023794617 -2.5475229e-21)
(1.0465334 -0.018752095 2.1222183e-21)
(1.0452981 -0.014253686 8.6423052e-23)
(1.0435828 -0.010418528 -2.9401638e-21)
(1.0415909 -0.0072173379 3.140798e-21)
(1.039674 -0.0047593902 1.3217509e-21)
(1.0378783 -0.0026917183 0)
(1.0367133 -0.0015105751 1.7955232e-23)
(1.0356791 -0.00010929851 -3.2807364e-23)
(0.9760116 -0.0059814916 4.1448268e-22)
(0.98481495 -0.0068568754 9.5246136e-23)
(0.99309142 -0.0068798545 1.1516847e-21)
(0.99776121 -0.0071502745 3.1434205e-22)
(1.0001217 -0.0074284896 -1.0701991e-22)
(1.0005921 -0.008089102 -7.1625897e-22)
(1.0002217 -0.0089170155 -2.8949385e-21)
(0.99935653 -0.010060674 -2.4592567e-22)
(0.99842341 -0.011531826 0)
(0.99736673 -0.013571945 3.1251656e-21)
(0.99643547 -0.016037031 -3.0948965e-21)
(0.99560084 -0.019108547 -1.4913693e-22)
(0.99506963 -0.022693815 -2.6103782e-21)
(0.99502619 -0.026775636 4.129939e-21)
(0.99571517 -0.031217867 3.7655075e-21)
(0.99733789 -0.036013573 5.558631e-21)
(1.0001054 -0.040819422 -1.6336091e-20)
(1.0041225 -0.045299482 -6.4500289e-21)
(1.009345 -0.048978184 4.9923555e-21)
(1.0155791 -0.051463992 -9.1188438e-21)
(1.0224012 -0.052356739 6.3861832e-21)
(1.0293257 -0.051517468 -5.4708996e-21)
(1.0357569 -0.048951408 0)
(1.0412466 -0.044926949 -1.5475223e-21)
(1.0454081 -0.039828661 5.3951566e-22)
(1.0481283 -0.034132616 3.001437e-21)
(1.0493992 -0.02829219 8.3836963e-22)
(1.0494199 -0.022680856 4.3356086e-22)
(1.0484286 -0.017576365 1.5117823e-21)
(1.0467261 -0.01312236 0)
(1.0446191 -0.0094131601 2.5203738e-21)
(1.0423268 -0.0063814096 3.4539495e-21)
(1.0401851 -0.0041030517 -1.2933017e-21)
(1.0382257 -0.0022374634 -7.8550642e-23)
(1.0369477 -0.0012294308 -7.3872638e-23)
(1.0358331 -7.3579838e-05 2.5933633e-22)
(0.96185184 -0.0053483884 -4.2817631e-22)
(0.97209367 -0.0065318642 3.6616624e-23)
(0.9842248 -0.0067185638 -4.4612673e-22)
(0.99242749 -0.0070504311 -4.8732432e-23)
(0.9974209 -0.007307968 1.4181277e-21)
(0.99944118 -0.0079164836 1.8890085e-21)
(0.99986792 -0.0087238142 1.2361856e-22)
(0.99928712 -0.0098676183 -2.0415022e-21)
(0.99833703 -0.011240183 -2.4415414e-22)
(0.99711447 -0.013217929 -2.72842e-21)
(0.99596256 -0.015596121 1.3969032e-22)
(0.99487927 -0.018602302 2.0595798e-21)
(0.99404933 -0.022154138 7.0716652e-22)
(0.99365258 -0.026274764 2.6479151e-21)
(0.99394343 -0.030846227 -1.7300277e-20)
(0.99512951 -0.035904913 -9.8162907e-22)
(0.99746845 -0.041143075 6.1089834e-21)
(1.0011257 -0.046236823 7.3463997e-21)
(1.0061412 -0.050705163 -7.7877033e-21)
(1.0123937 -0.05410031 -2.4145688e-21)
(1.0195177 -0.055933764 2.9658325e-21)
(1.027031 -0.055954631 -7.8961247e-21)
(1.0342989 -0.05405844 6.2968651e-21)
(1.0407783 -0.050434618 0)
(1.0459711 -0.045433944 4.2542191e-21)
(1.0496526 -0.039551049 6.4197113e-21)
(1.0517276 -0.03329572 -2.5724263e-21)
(1.0523472 -0.027114383 5.1784411e-21)
(1.0517213 -0.021363356 1.1832659e-22)
(1.0501795 -0.016255176 -1.6982435e-21)
(1.0480038 -0.011910257 -2.2985133e-21)
(1.0455314 -0.0083586271 3.3215768e-22)
(1.0429576 -0.0055226025 -1.584151e-22)
(1.0406094 -0.0034387725 -9.6269868e-22)
(1.0385022 -0.0017831337 -4.343965e-22)
(1.0371182 -0.00094644069 -4.5114707e-23)
(1.0359501 -2.0869973e-05 1.7260181e-22)
(0.94609364 -0.0043514263 2.0846956e-23)
(0.95521847 -0.0058824379 1.8319252e-23)
(0.97057317 -0.0063987424 -7.0757807e-22)
(0.98304003 -0.0068900389 -2.965286e-22)
(0.991998 -0.0071755556 8.3514671e-23)
(0.99674214 -0.0077522783 -1.4325401e-22)
(0.99873059 -0.0085024393 -9.5124535e-22)
(0.99891834 -0.0096256839 1.9250852e-22)
(0.99825092 -0.010995094 0)
(0.99696012 -0.012841834 5.860496e-22)
(0.99560308 -0.015161514 0)
(0.99425688 -0.018067469 0)
(0.99312421 -0.021574398 2.5323467e-21)
(0.99236715 -0.025693913 -4.7700588e-22)
(0.99225065 -0.030354597 -2.6927376e-21)
(0.99297979 -0.035619056 -6.0182031e-21)
(0.99484702 -0.041232778 1.1387362e-20)
(0.99807335 -0.04689114 6.6650543e-21)
(1.0027801 -0.052123026 6.9775959e-21)
(1.0089303 -0.056442814 2.9612433e-21)
(1.0162357 -0.059281791 -6.2519353e-21)
(1.024243 -0.060278196 4.9717132e-21)
(1.0323008 -0.059203133 9.8797152e-22)
(1.0397836 -0.056143067 -1.7405432e-21)
(1.0460813 -0.051387605 -2.2661582e-23)
(1.0508435 -0.045431335 1.3664295e-21)
(1.0538698 -0.038824271 -7.8483563e-22)
(1.0552388 -0.032092927 -3.2310679e-21)
(1.05513 -0.025671222 -2.9038684e-22)
(1.0538626 -0.01985388 -4.9341571e-21)
(1.0517585 -0.014820497 -1.2340732e-21)
(1.0491404 -0.010623724 -4.4123532e-22)
(1.0463186 -0.0072697331 -2.7425324e-21)
(1.0434867 -0.0046496194 -6.9972183e-22)
(1.0409513 -0.0027721613 1.7190213e-21)
(1.0387127 -0.0013311854 3.8467323e-22)
(1.0372328 -0.00066372705 -1.0328297e-22)
(1.0360321 3.9120815e-05 0)
(0.93206395 -0.0029190188 2.4233864e-22)
(0.93606252 -0.0047793315 2.0330917e-23)
(0.95217651 -0.0057903885 -2.2329781e-22)
(0.96827669 -0.0065849846 -2.0164248e-22)
(0.98223846 -0.0069930965 -8.73049e-22)
(0.99123104 -0.0075761921 -7.7951112e-22)