/*--------------------------------*- C++ -*----------------------------------*\
| =========                 |                                                 |
| \\      /  F ield         | OpenFOAM: The Open Source CFD Toolbox           |
|  \\    /   O peration     | Version:  5.0                                   |
|   \\  /    A nd           | Web:      www.OpenFOAM.org                      |
|    \\/     M anipulation  |                                                 |
\*---------------------------------------------------------------------------*/
FoamFile
{
    version     2.0;
    format      ascii;
    class       volVectorField;
    location    "40";
    object      U_0;
}
// * * * * * * * * * * * * * * * * * * * * * * * * * * * * * * * * * * * * * //

dimensions      [0 1 -1 0 0 0 0];

internalField   nonuniform List<vector> 
9200
(
(1.0032648 -0.00052147572 -2.4966037e-24)
(1.0032665 -0.0015837881 -4.4573587e-22)
(1.0047722 -0.00053093618 0)
(1.0032928 -0.0024642951 2.2381437e-22)
(1.0047442 -0.0016325744 -4.1298978e-22)
(1.0054452 -0.00053720511 0)
(1.0032633 -0.003366807 2.3198179e-23)
(1.0047324 -0.0025251864 -4.4377441e-23)
(1.0054079 -0.0016694322 0)
(1.0064961 -0.00054888104 0)
(1.0032631 -0.0040641651 -3.8788763e-22)
(1.0046399 -0.0034664803 -1.8376749e-22)
(1.0053767 -0.0025723934 -2.2802159e-22)
(1.0064474 -0.0017366352 -1.5968901e-23)
(1.0073406 -0.00056017632 3.9392736e-25)
(1.003242 -0.0047554261 -3.5413127e-22)
(1.0045582 -0.0041790205 7.054041e-23)
(1.0052573 -0.0035432314 -6.9779465e-22)
(1.0063913 -0.0026641088 -2.4062983e-22)
(1.007285 -0.0018038438 3.6990299e-23)
(1.0083066 -0.00057938631 8.3542909e-22)
(1.0032326 -0.0052971092 -2.4049781e-22)
(1.0044512 -0.004899234 -4.6912529e-22)
(1.0051411 -0.0042719945 4.3179583e-22)
(1.0062362 -0.0036897303 1.5290925e-23)
(1.0072103 -0.0027584692 -3.5022217e-22)
(1.0082503 -0.0019047177 -3.4012815e-22)
(1.0092102 -0.00060772263 -3.8843174e-23)
(1.0032153 -0.0057922201 -2.3781461e-24)
(1.00434 -0.0054596598 -2.3425501e-22)
(1.0049946 -0.0050158276 -3.9545468e-22)
(1.0060717 -0.0044552493 9.1235864e-23)
(1.0070284 -0.0038391159 7.0275141e-22)
(1.0081661 -0.0029049752 3.1519555e-22)
(1.0091527 -0.0020345578 6.0385189e-22)
(1.0102148 -0.00065215227 -9.702937e-22)
(1.0032024 -0.0061882087 2.2796728e-22)
(1.0042191 -0.005976506 -3.7594046e-22)
(1.0048393 -0.0055951095 8.2275143e-23)
(1.0058706 -0.0052473661 -2.5009126e-22)
(1.0068261 -0.0046457994 2.1709912e-22)
(1.007969 -0.0040644901 1.2569218e-21)
(1.0090598 -0.0030959972 -6.2974567e-22)
(1.0101619 -0.0022219623 1.0916716e-21)
(1.0112161 -0.00070828217 2.2190098e-21)
(1.0031875 -0.0065246057 -1.0779409e-22)
(1.0040954 -0.0063905945 3.0298539e-22)
(1.004671 -0.0061313616 -1.2216264e-23)
(1.0056521 -0.0058687429 -3.0706312e-22)
(1.0065814 -0.0054884303 5.3414419e-23)
(1.0077391 -0.0049359395 3.8484769e-22)
(1.0088481 -0.0043442346 -4.6539895e-22)
(1.0100684 -0.003377705 -9.8357891e-22)
(1.0111666 -0.0024479664 -5.2142518e-22)
(1.0123415 -0.00077655767 -1.3947961e-22)
(1.0031754 -0.006793208 5.3269694e-23)
(1.00397 -0.0067437742 1.4758213e-22)
(1.0044982 -0.0065626983 -3.2251264e-22)
(1.0054158 -0.0064476592 2.318251e-22)
(1.006312 -0.0061552664 -8.0647081e-22)
(1.0074584 -0.0058549021 1.4515353e-21)
(1.0085915 -0.0052896047 1.3448922e-22)
(1.0098537 -0.0047487509 -1.78709e-21)
(1.0110714 -0.0037218406 9.7616424e-22)
(1.012302 -0.0027218886 -2.0129149e-21)
(1.0134929 -0.00084468017 4.0922993e-22)
(1.0031633 -0.0070072362 -2.2964888e-23)
(1.0038468 -0.0070262821 -2.1582033e-22)
(1.0043229 -0.0069310785 1.0548724e-22)
(1.0051695 -0.0069176525 0)
(1.0060194 -0.0067780734 1.2628768e-23)
(1.0071393 -0.0065930922 -3.8316556e-22)
(1.0082763 -0.0062905223 3.2543076e-22)
(1.0095828 -0.005801427 8.7839279e-22)
(1.0108553 -0.005234879 -4.6930447e-22)
(1.0122117 -0.0041452184 1.2711847e-21)
(1.0134655 -0.0029987319 9.5035125e-22)
(1.0147586 -0.00091057178 -2.0261949e-22)
(1.0031542 -0.0071725902 -5.8019723e-24)
(1.003729 -0.0072534154 1.2409124e-22)
(1.0041508 -0.0072263481 0)
(1.0049162 -0.0073201264 0)
(1.0057107 -0.00728701 2.5763394e-22)
(1.0067868 -0.0072856764 -7.9885172e-22)
(1.0079118 -0.0071066173 1.0247645e-21)
(1.0092452 -0.006918285 -8.2694403e-22)
(1.0105739 -0.0064131107 -4.2172467e-23)
(1.0120032 -0.0058338545 5.6603151e-24)
(1.0133814 -0.0045764174 -1.8418549e-21)
(1.0147524 -0.0032762926 2.3470644e-21)
(1.0160359 -0.00096469493 -4.260522e-21)
(1.0031315 -0.0073082799 6.661973e-23)
(1.0036162 -0.0074279637 -1.6752546e-23)
(1.0039803 -0.0074602351 2.0728808e-22)
(1.0046597 -0.0076424248 -2.800787e-22)
(1.0053897 -0.0077227358 3.3104744e-22)
(1.0064075 -0.0078592716 -2.3682592e-22)
(1.0075058 -0.0078756399 -1.5460997e-22)
(1.0088434 -0.0078468811 3.5151615e-23)
(1.0102188 -0.0076602022 -5.109187e-22)
(1.0117197 -0.007171651 -4.5000026e-22)
(1.0131852 -0.0064458706 -4.3888882e-22)
(1.0146841 -0.0050125956 -1.2409531e-21)
(1.0160547 -0.0035165355 -9.0808226e-22)
(1.0173878 -0.0010088368 1.2464407e-21)
(1.0031324 -0.0073908262 -1.2804697e-22)
(1.0035126 -0.0075546906 -4.6849862e-22)
(1.0038151 -0.0076374775 -3.4388584e-23)
(1.0044031 -0.0078984473 3.3984773e-23)
(1.0050618 -0.0080732048 -3.486211e-23)
(1.0060082 -0.0083539914 2.9811858e-22)
(1.007065 -0.0085217956 -1.2936205e-22)
(1.0083876 -0.0087263264 1.9911347e-22)
(1.0097856 -0.0087147014 -2.4367974e-22)
(1.0113554 -0.008582729 3.0852587e-24)
(1.0129061 -0.0079529762 2.576384e-23)
(1.0145138 -0.0070721587 -2.1980779e-22)
(1.0160073 -0.0053916709 2.0486602e-21)
(1.0174415 -0.0037285536 -1.1692967e-21)
(1.0187202 -0.0010400792 1.0614282e-21)
(1.0031349 -0.0074451323 -8.013449e-23)
(1.0034104 -0.0076439671 1.9555996e-22)
(1.0036554 -0.0077647662 -2.0956114e-22)
(1.0041493 -0.0080915972 2.6673973e-22)
(1.0047321 -0.0083518551 -3.1834117e-22)
(1.0055975 -0.0087575718 4.8758773e-22)
(1.0065991 -0.0090841242 -9.7983726e-22)
(1.0078836 -0.0094772369 7.8963999e-23)
(1.0092855 -0.0097166309 2.2772692e-22)
(1.0108978 -0.0097980901 -7.3999271e-22)
(1.0125418 -0.0095393302 2.7237402e-21)
(1.0142524 -0.0087635249 -1.475483e-21)
(1.015873 -0.0076231516 -6.8839766e-22)
(1.0174278 -0.0057289807 -1.7130154e-22)
(1.0188123 -0.0038970384 1.1691361e-22)
(1.0200882 -0.0010615844 -1.2315545e-21)
(1.0031378 -0.0074745367 0)
(1.0033137 -0.0076983935 3.1548744e-22)
(1.0035041 -0.0078489608 6.3379525e-23)
(1.0039025 -0.0082303249 0)
(1.0044078 -0.0085643206 0)
(1.0051846 -0.0090842214 0)
(1.0061176 -0.0095495984 1.0016303e-22)
(1.0073419 -0.010135064 -3.4068473e-22)
(1.008722 -0.010584054 1.1212638e-21)
(1.0103576 -0.01095768 -6.2895029e-22)
(1.0120699 -0.010929479 2.7540895e-22)
(1.0139006 -0.010543377 -5.8007767e-22)
(1.0156422 -0.0094876578 1.8166294e-22)
(1.017347 -0.0081220379 7.8532543e-22)
(1.0188391 -0.0059987419 7.3171385e-23)
(1.0202283 -0.0040352558 6.2602567e-22)
(1.0214138 -0.001072613 0)
(1.0031404 -0.0074827642 -1.7315717e-22)
(1.0032231 -0.0077240243 -3.5961873e-22)
(1.0033616 -0.0078971379 7.6696536e-22)
(1.0036662 -0.0083208996 5.2973092e-22)
(1.0040945 -0.0087196233 5.5678362e-22)
(1.0047766 -0.0093380183 0)
(1.0056281 -0.0099286058 8.8814978e-22)
(1.0067709 -0.010682974 -3.734853e-22)
(1.008106 -0.01134903 -1.6431373e-21)
(1.0097355 -0.011977669 1.5458765e-21)
(1.0115006 -0.012263037 3.8272613e-22)
(1.0134269 -0.012131531 3.5236844e-22)
(1.0153189 -0.011455242 -1.8377374e-21)
(1.0171658 -0.010155626 2.4120662e-21)
(1.0188247 -0.0085290171 2.0631218e-22)
(1.0203094 -0.0062226721 4.4905317e-21)
(1.0216047 -0.0041360941 1.6747289e-21)
(1.0227413 -0.0010742352 1.7044562e-21)
(1.0031418 -0.0074740592 1.3731482e-23)
(1.003139 -0.0077260683 -2.5010987e-22)
(1.0032294 -0.0079153698 -4.5694347e-23)
(1.0034443 -0.0083710688 4.8923494e-22)
(1.0037958 -0.0088249782 -7.8520841e-23)
(1.0043775 -0.0095258399 -2.1296496e-23)
(1.0051365 -0.010222778 -1.2951763e-21)
(1.0061799 -0.011129068 -2.0704038e-21)
(1.007447 -0.011993864 -8.5183761e-22)
(1.0090432 -0.012887264 2.8014731e-22)
(1.0108315 -0.013455279 -3.8470332e-22)
(1.0128393 -0.013665581 1.2176135e-21)
(1.0148609 -0.013241623 -1.2756014e-21)
(1.0168909 -0.012311888 1.2639495e-22)
(1.0187105 -0.010712786 9.9353013e-23)
(1.0203792 -0.0088751412 -7.2992456e-22)
(1.0217459 -0.0063881683 1.5973335e-21)
(1.022992 -0.0042056202 -1.2349292e-22)
(1.0240167 -0.0010660361 1.6846731e-21)
(1.0031413 -0.0074516445 1.0966144e-22)
(1.0030617 -0.0077090703 2.5595645e-22)
(1.003108 -0.0079094017 -1.3805025e-21)
(1.0032382 -0.0083875952 -2.9867401e-22)
(1.0035127 -0.0088865404 1.1749374e-22)
(1.00399 -0.0096531862 -3.1487545e-23)
(1.0046483 -0.010438103 1.9297718e-22)
(1.0055787 -0.011475342 3.8734798e-22)
(1.006758 -0.012526281 -3.620795e-22)
(1.0082925 -0.013668291 -2.3283439e-21)
(1.0100741 -0.014532315 1.0460254e-21)
(1.0121307 -0.015058921 1.607783e-22)
(1.0142731 -0.01498193 -3.4329376e-22)
(1.016469 -0.014303648 1.9961154e-23)
(1.018505 -0.013043233 2.4968044e-22)
(1.0203534 -0.011198807 -2.5898512e-21)
(1.0219121 -0.0091399583 9.7623224e-22)
(1.0232078 -0.0065057025 -2.6479737e-21)
(1.0243273 -0.0042393867 -6.780628e-22)
(1.0252595 -0.001048414 -1.7996569e-21)
(1.0031397 -0.0074179607 4.0602882e-23)
(1.0029904 -0.0076770897 4.5449608e-22)
(1.0029968 -0.0078840873 3.0425237e-22)
(1.003048 -0.0083758477 4.5018126e-22)
(1.0032458 -0.008909432 -2.0568743e-22)
(1.0036166 -0.0097261705 -4.3432883e-22)
(1.0041697 -0.010581725 1.5044284e-21)
(1.0049779 -0.011729872 3.2343355e-21)
(1.0060523 -0.012948923 -1.7662202e-23)
(1.007498 -0.014325597 0)
(1.0092386 -0.015471885 -6.0756059e-22)
(1.0113099 -0.016331632 1.3300419e-21)
(1.0135426 -0.016587779 1.7986545e-21)
(1.0159012 -0.016263172 -2.0453829e-21)
(1.0181433 -0.015232174 6.0298889e-22)
(1.0202422 -0.013696898 -2.0075648e-21)
(1.0219928 -0.011584437 2.4871694e-22)
(1.0234875 -0.0093391901 1.1256178e-21)
(1.0246186 -0.0065668966 -1.8071415e-21)
(1.0256387 -0.0042393111 -1.0125868e-22)
(1.026445 -0.0010219301 -1.7440673e-21)
(1.0031366 -0.0073755188 -8.7179842e-23)
(1.0029244 -0.0076335672 3.8940643e-22)
(1.002895 -0.0078434349 6.5709806e-22)
(1.0028729 -0.0083406368 -7.5681027e-22)
(1.0029954 -0.0088988347 -7.7179301e-22)
(1.0032604 -0.0097518907 -1.1249229e-23)
(1.0037066 -0.010662369 0)
(1.0043875 -0.011901715 -1.8186857e-22)
(1.0053428 -0.013268803 -1.0535055e-21)
(1.006674 -0.014858509 -1.9711345e-21)
(1.0083395 -0.016274112 2.4989941e-22)
(1.010386 -0.017458759 7.5127435e-22)
(1.0126756 -0.018075081 -2.5719148e-22)
(1.0151675 -0.01810081 -4.4667618e-22)
(1.017622 -0.017409427 1.3212859e-21)
(1.0199679 -0.0160829 -1.3138313e-21)
(1.0219995 -0.01423311 2.6451595e-22)
(1.0236952 -0.011890412 -1.8435328e-21)
(1.0250203 -0.0094586234 -1.0535724e-22)
(1.0260201 -0.0065747366 -1.9895979e-23)
(1.0268928 -0.0042047206 -1.0117196e-21)
(1.0275733 -0.000987021 0)
(1.0031328 -0.0073263806 1.4101039e-23)
(1.0028628 -0.0075814384 -2.2659828e-22)
(1.0028014 -0.0077908763 -4.2328818e-23)
(1.0027121 -0.0082864269 -1.0039441e-21)
(1.0027621 -0.0088599559 -7.037521e-22)
(1.0029236 -0.0097374298 4.3384212e-22)
(1.0032641 -0.010688992 2.0775781e-22)
(1.0038152 -0.012000185 1.6525195e-21)
(1.00464 -0.013492968 4.0537523e-22)
(1.0058341 -0.015270363 2.2804083e-22)
(1.0073916 -0.016934569 -6.853521e-23)
(1.0093735 -0.018436048 -1.8053433e-21)
(1.0116783 -0.01941498 1.1514448e-22)
(1.0142697 -0.019826795 1.45934e-21)
(1.0169132 -0.019484742 -1.0412735e-21)
(1.0195224 -0.018484077 -1.67087e-21)
(1.0218411 -0.016804334 -8.0515652e-23)
(1.0238457 -0.014677486 3.2144618e-21)
(1.0253709 -0.012095567 2.1799584e-22)
(1.026561 -0.0095026876 -1.1384387e-21)
(1.0273639 -0.0065270232 0)
(1.0280927 -0.004136191 2.2949219e-21)
(1.0286359 -0.00094423389 2.4295135e-23)
(1.0031309 -0.007272237 3.7575557e-22)
(1.0028059 -0.0075230702 -4.4074163e-22)
(1.0027148 -0.0077294422 6.5051386e-22)
(1.0025647 -0.0082171975 2.8569907e-22)
(1.0025459 -0.0087977496 -1.0528489e-21)
(1.002608 -0.0096895427 0)
(1.0028452 -0.010669836 6.1498554e-23)
(1.0032663 -0.012034327 3.828281e-22)
(1.0039521 -0.013628931 1.460522e-21)
(1.0049906 -0.015566086 2.5939659e-21)
(1.0064109 -0.017454333 -8.0443098e-22)
(1.008289 -0.019256575 -1.2759653e-21)
(1.0105646 -0.020598971 1.6452393e-21)
(1.0132115 -0.021409036 -1.1751062e-21)
(1.0160141 -0.021464149 2.3446093e-21)
(1.0188687 -0.020810753 2.6434275e-21)
(1.0215048 -0.019423835 -1.9275611e-21)
(1.0238345 -0.017426332 1.2475858e-21)
(1.0256875 -0.015000135 -4.3734078e-21)
(1.0270741 -0.012205607 1.583605e-21)
(1.0280436 -0.0094659355 2.6203956e-21)
(1.0286606 -0.0064251287 -2.3977382e-21)
(1.0292273 -0.0040351034 1.5500291e-21)
(1.0296287 -0.00089393372 2.1536818e-23)
(1.0031368 -0.0072143116 -1.0540423e-22)
(1.0027562 -0.0074605664 -4.7774891e-22)
(1.0026354 -0.0076615589 -3.4532853e-22)
(1.0024296 -0.0081366412 -2.2117748e-21)
(1.0023466 -0.0087166865 5.710988e-22)
(1.0023139 -0.009614286 -1.4180896e-21)
(1.0024515 -0.010612452 7.0645717e-23)
(1.0027444 -0.012012672 -1.9343963e-21)
(1.003286 -0.013685212 1.3138736e-22)
(1.004155 -0.015752962 8.5525538e-22)
(1.0054138 -0.01783783 -1.3635493e-22)
(1.0071519 -0.019919361 2.6020451e-21)
(1.0093523 -0.021616411 -5.8676454e-22)
(1.0120051 -0.022833637 -2.1593241e-22)
(1.0149227 -0.023311301 3.0740848e-22)
(1.0179971 -0.023064305 4.5364418e-22)
(1.020944 -0.022003944 -3.772707e-22)
(1.0236434 -0.020261957 1.9705757e-21)
(1.0258527 -0.01790808 0)
(1.0275799 -0.015207952 3.3029113e-22)
(1.028727 -0.012210056 1.0559576e-22)
(1.0294969 -0.0093496377 -2.1303201e-22)
(1.0298926 -0.006270722 8.4975832e-23)
(1.0302918 -0.0039031678 -2.2227289e-21)
(1.0305478 -0.00083662065 -1.056077e-21)
(1.0031585 -0.0071541967 -2.8086878e-22)
(1.0027205 -0.0073955288 3.4591209e-22)
(1.0025655 -0.0075894166 2.8224625e-22)
(1.002307 -0.0080478238 2.6557058e-22)
(1.0021637 -0.0086209125 2.2415236e-21)
(1.0020412 -0.0095169393 3.4516377e-22)
(1.0020834 -0.010523627 8.7051604e-23)
(1.0022518 -0.011943598 1.1785558e-22)
(1.0026474 -0.013670887 1.7090509e-21)
(1.003338 -0.015840578 2.8481379e-22)
(1.004416 -0.01809254 1.0741542e-21)
(1.0059821 -0.020427014 -3.5639105e-22)
(1.0080624 -0.022462016 -1.4703549e-21)
(1.0106677 -0.024084426 5.880803e-23)
(1.0136477 -0.025005899 -8.7621198e-22)
(1.0168996 -0.025204707 -4.3169294e-22)
(1.0201418 -0.024543222 7.240548e-22)
(1.0232158 -0.023100232 -2.7884275e-21)
(1.0258431 -0.020944954 -4.3671608e-21)
(1.0279512 -0.018257207 5.5725056e-24)
(1.0294398 -0.015283771 4.6206485e-21)
(1.0303699 -0.012109729 1.1904547e-21)
(1.0308829 -0.0091558092 -2.4213104e-21)
(1.031056 -0.0060658347 2.2191599e-21)
(1.0312814 -0.0037427822 -1.6023323e-21)
(1.031391 -0.00077300134 8.679986e-23)
(1.0031989 -0.0070935984 9.1438355e-24)
(1.0027092 -0.0073298569 2.4166075e-22)
(1.0025117 -0.0075145063 -8.6634583e-22)
(1.0021988 -0.0079536683 1.2238238e-21)
(1.0019974 -0.008513775 -1.5208607e-21)
(1.0017893 -0.0094022641 1.5041453e-21)
(1.0017407 -0.010409354 1.4659599e-21)
(1.0017897 -0.011835065 1.105097e-21)
(1.0020407 -0.013595593 -2.595218e-21)
(1.0025486 -0.015839595 -1.1830858e-21)
(1.003432 -0.018228397 -1.6662515e-22)
(1.0047986 -0.020785 -3.0430475e-21)
(1.0067163 -0.023134069 2.8167002e-21)
(1.00922 -0.025150124 -1.6192557e-21)
(1.0122034 -0.026525577 2.3914477e-22)
(1.0155799 -0.027205931 6.7001188e-22)
(1.0190821 -0.02699923 -1.9551078e-21)
(1.0225264 -0.025937762 2.3128448e-21)
(1.0255922 -0.024031978 -2.0696711e-21)
(1.0281598 -0.021480155 4.1564862e-22)
(1.0300422 -0.018447552 0)
(1.0313082 -0.015227933 1.9650098e-21)
(1.0319418 -0.011905988 1.4868235e-22)
(1.0322039 -0.0088871462 0)
(1.0321434 -0.0058143421 -2.7168081e-21)
(1.032193 -0.0035566342 -8.4264283e-23)
(1.0321574 -0.00070391504 8.7507312e-22)
(1.0032415 -0.0070333623 1.0299271e-22)
(1.0027305 -0.0072651358 5.4498388e-23)
(1.0024853 -0.007438532 -7.60284e-22)
(1.0021112 -0.0078562083 2.646696e-23)
(1.0018499 -0.008398552 -5.1657444e-22)
(1.0015581 -0.0092740093 -1.7062303e-21)
(1.0014225 -0.01027508 -9.902108e-23)
(1.0013582 -0.011694393 -1.3964097e-21)
(1.0014687 -0.013468761 4.6555598e-22)
(1.0017936 -0.015761322 1.7098292e-21)
(1.0024735 -0.01825631 -2.707899e-21)
(1.0036184 -0.021001418 -1.5349157e-21)
(1.0053355 -0.023634191 -1.9034999e-21)
(1.0076852 -0.026023795 2.1813392e-22)
(1.0106101 -0.027852815 -2.0178876e-21)
(1.0140492 -0.029039896 4.2911485e-22)
(1.0177624 -0.029340871 -3.2446222e-21)
(1.0215504 -0.028730737 5.619478e-21)
(1.0250663 -0.027165753 1.827446e-21)
(1.0281296 -0.024805197 -5.6677516e-22)
(1.0305025 -0.021830293 2.6660124e-21)
(1.0321656 -0.018478795 -1.1737891e-22)
(1.0331139 -0.015038383 -1.6592848e-22)
(1.0334659 -0.011599432 0)
(1.0334476 -0.0085484436 0)
(1.0331507 -0.0055203746 2.1294741e-22)
(1.0330249 -0.0033477388 -1.7882089e-21)
(1.0328467 -0.00063020307 -1.5235726e-21)
(1.0032321 -0.0069749757 0)
(1.0027757 -0.0072042574 1.8224133e-22)
(1.002497 -0.0073624866 7.5942182e-22)
(1.0020558 -0.0077578736 7.3560804e-22)
(1.0017277 -0.0082773716 1.5501304e-21)
(1.0013495 -0.0091358651 3.9660947e-22)
(1.0011284 -0.010125102 -1.0708155e-21)
(1.0009566 -0.01152846 -2.3780732e-21)
(1.0009327 -0.013299284 2.2703218e-21)
(1.0010776 -0.015616822 -2.228486e-22)
(1.0015497 -0.018188126 2.0710074e-22)
(1.0024563 -0.021086052 1.6533771e-22)
(1.0039401 -0.023967908 -5.2636394e-21)
(1.0060876 -0.026703168 3.1211338e-22)
(1.0088924 -0.028975344 4.8896548e-22)
(1.0123266 -0.030682828 -2.1608809e-21)
(1.0161887 -0.03153435 6.1344914e-22)
(1.0202771 -0.031443734 -2.0988535e-21)
(1.0242305 -0.030303053 5.029521e-21)
(1.0278181 -0.028230494 -1.9837545e-21)
(1.0307354 -0.025369455 2.2057064e-21)
(1.032909 -0.021993425 1.4894493e-21)
(1.0342436 -0.018342938 -5.6736177e-23)
(1.0348866 -0.014714307 -5.2372344e-21)
(1.0349054 -0.011198239 -1.3268822e-21)
(1.0346082 -0.0081449153 1.9233567e-22)
(1.0340743 -0.0051887291 2.3244132e-21)
(1.0337762 -0.0031193237 -1.0438262e-21)
(1.0334588 -0.0005526462 1.9210964e-21)
(1.0030718 -0.0069236548 -4.5323177e-22)
(1.0027943 -0.0071529273 0)
(1.0025431 -0.0072888564 0)
(1.0020452 -0.0076599377 0)
(1.001643 -0.0081531216 -3.8910114e-22)
(1.0011698 -0.0089899999 1.4248399e-21)
(1.00086 -0.0099637193 1.0848436e-22)
(1.0005842 -0.011342815 2.6207011e-22)
(1.0004326 -0.01309559 3.541938e-21)
(1.000403 -0.015416658 -4.1286791e-21)
(1.000667 -0.018035857 1.1737684e-21)
(1.0013248 -0.021050706 -5.2903824e-22)
(1.0025491 -0.024143837 2.1108758e-21)
(1.0044522 -0.027191361 -2.9891283e-22)
(1.0070783 -0.029886308 4.2074367e-21)
(1.0104372 -0.032116061 7.1849675e-22)
(1.0143764 -0.033548616 -2.5499896e-21)
(1.0187056 -0.034037402 -1.8993264e-21)
(1.0230648 -0.033405708 1.7457318e-21)
(1.0271801 -0.031715251 -6.4158057e-22)
(1.030691 -0.02906679 -2.5562901e-21)
(1.0334459 -0.02571988 1.8885994e-23)
(1.0352958 -0.021953282 3.7487234e-21)
(1.0363036 -0.018038568 -2.5126052e-21)
(1.036569 -0.014265827 -2.359295e-23)
(1.0362639 -0.010706606 -9.2210415e-22)
(1.0356801 -0.0076834249 2.3316444e-21)
(1.0349124 -0.0048244725 3.9112218e-22)
(1.0344473 -0.0028746232 3.6918696e-21)
(1.0339941 -0.00047192806 9.5440221e-22)
(1.0025749 -0.0068710252 6.632189e-23)
(1.0026747 -0.0071115285 1.5767844e-22)
(1.0025779 -0.0072187304 0)
(1.0020799 -0.0075655105 0)
(1.0016101 -0.0080269492 0)
(1.0010315 -0.0088397438 0)
(1.0006231 -0.0097933097 0)
(1.0002423 -0.011143137 -6.9572332e-23)
(0.99996809 -0.01286471 -1.1512724e-21)
(0.9997704 -0.015171041 4.5738412e-21)
(0.99983 -0.017811574 8.7143491e-23)
(1.0002338 -0.020908246 1.3488962e-21)
(1.0011797 -0.024173872 -4.6158346e-21)
(1.0028031 -0.027495649 3.6640348e-21)
(1.0051968 -0.030584809 -3.9110507e-22)
(1.0084105 -0.033326044 1.9989981e-21)
(1.0123482 -0.035356825 -2.6329443e-21)
(1.0168451 -0.036473199 1.3375175e-21)
(1.0215586 -0.036430174 1.666612e-21)
(1.0261851 -0.035220521 1.0900595e-21)
(1.0303137 -0.032886424 3.3375046e-22)
(1.0337195 -0.029665098 1.5922273e-21)
(1.0361722 -0.025829338 2.1176289e-23)
(1.0376863 -0.021707023 -1.4935218e-21)
(1.0382805 -0.017573337 6.8242135e-22)
(1.0381815 -0.01369317 4.4699497e-21)
(1.0375267 -0.010134165 1.1292232e-21)
(1.0366595 -0.0071709537 -1.0246263e-21)
(1.0356644 -0.0044328421 4.4590392e-23)
(1.0350391 -0.0026165708 -2.3528788e-21)
(1.0344568 -0.00038873352 -5.7979579e-22)
(1.0013292 -0.0068065889 7.3982026e-22)
(1.002208 -0.0070757102 1.7386064e-22)
(1.002491 -0.0071570587 5.8933189e-22)
(1.0021193 -0.0074750534 1.0329089e-21)
(1.0016337 -0.0079029701 0)
(1.000951 -0.0086855978 0)
(1.00043 -0.0096178857 1.3627936e-22)
(0.9999359 -0.010932721 2.0018942e-21)
(0.99954071 -0.01261394 -3.0586671e-21)
(0.99918015 -0.014888641 3.9160913e-21)
(0.99904082 -0.017527386 -2.7854304e-22)
(0.99919104 -0.020672355 -3.5874926e-21)
(0.99984627 -0.024071676 1.1692431e-21)
(1.0011628 -0.027627401 -5.2553559e-22)
(1.0032769 -0.031074518 -3.2963403e-21)
(1.0062784 -0.034305206 1.0185532e-22)
(1.010133 -0.036936666 5.8574462e-21)
(1.0147141 -0.038715711 -3.0019992e-22)
(1.0197131 -0.039331509 -4.0077921e-21)
(1.0248119 -0.038700584 7.4695703e-21)
(1.0295624 -0.036791282 -1.4854364e-21)
(1.0336645 -0.03380026 -2.2294384e-21)
(1.0368106 -0.029984795 5.4766199e-21)
(1.0389328 -0.025692099 2.2397664e-21)
(1.0400078 -0.021257547 -8.6657786e-22)
(1.0401927 -0.016947444 2.5756514e-21)
(1.0396834 -0.013013922 1.3058584e-21)
(1.0386899 -0.0094891679 5.8514775e-22)
(1.0375443 -0.0066151043 -1.2088748e-21)
(1.0363309 -0.0040189992 -1.3532501e-22)
(1.0355547 -0.0023478661 -8.1843174e-22)
(1.0348558 -0.00030427629 -5.3338444e-23)
(0.99882703 -0.0067210324 -3.1930362e-22)
(1.0009411 -0.0070511599 -1.8580306e-22)
(1.0020738 -0.0070976092 -6.8998735e-22)
(1.002052 -0.0073973254 -8.8048642e-22)
(1.0016778 -0.0077805938 0)
(1.0009382 -0.00853304 0)
(1.0002984 -0.0094372209 0)
(0.99967688 -0.010717075 -1.0580156e-22)
(0.99915568 -0.012347761 3.9722002e-21)
(0.99863407 -0.014578605 3.7159394e-21)
(0.99830095 -0.017193985 -3.70668e-22)
(0.99820168 -0.020357183 -6.2102617e-22)
(0.99856073 -0.023852271 7.8672619e-21)
(0.99955053 -0.027600189 -3.8506626e-21)
(1.0013458 -0.031363892 9.8949156e-23)
(1.0040734 -0.035051038 0)
(1.0077635 -0.038271988 1.7508521e-21)
(1.0123386 -0.04073343 -1.6068973e-21)
(1.0175393 -0.042066452 7.3533943e-22)
(1.0230514 -0.042105909 6.2271641e-22)
(1.0284039 -0.040736157 -3.4603297e-21)
(1.0332293 -0.038092586 5.1197515e-22)
(1.037138 -0.0344001 -3.5214528e-21)
(1.039978 -0.030015198 -4.521833e-21)
(1.0416473 -0.025303834 1.6922737e-21)
(1.0422735 -0.020604908 3.2269308e-22)
(1.0419895 -0.016179798 -2.231375e-22)
(1.0410862 -0.012230983 5.068531e-23)
(1.0397483 -0.0087817695 -1.5560511e-21)
(1.0383337 -0.0060233655 -1.1302157e-21)
(1.0369136 -0.0035879805 2.3500628e-22)
(1.0359978 -0.0020716944 1.7788635e-21)
(1.0351954 -0.00022140313 -3.9122267e-22)
(0.99433787 -0.0065801797 -3.5088173e-22)
(0.99826524 -0.0070278023 -1.0061642e-22)
(1.0008647 -0.0070371603 -1.1278673e-21)
(1.0016531 -0.007318311 -1.7938609e-21)
(1.0016321 -0.0076731922 3.9042439e-22)
(1.0009642 -0.0083786415 2.4391574e-22)
(1.0002429 -0.0092582973 3.1727562e-21)
(0.99948257 -0.010495717 -1.8570328e-21)
(0.99882482 -0.012073672 -7.0939993e-22)
(0.99813782 -0.014246608 -7.5719573e-21)
(0.99761299 -0.01682287 3.1899091e-21)
(0.99726939 -0.019975583 5.6445345e-21)
(0.99733156 -0.023531405 1.5609498e-22)
(0.9979824 -0.027429592 -4.1734923e-21)
(0.99942786 -0.031464364 -4.1856514e-21)
(1.0018273 -0.035566974 -2.0833104e-22)
(1.0052752 -0.03935253 8.3324265e-22)
(1.0097511 -0.04250099 2.059624e-21)
(1.0150585 -0.044594404 -6.3919885e-22)
(1.0209055 -0.045386722 -3.5849064e-22)
(1.026817 -0.044669318 1.5566179e-21)
(1.0323689 -0.042500128 -6.2726936e-21)
(1.0370934 -0.039049483 -1.4257404e-22)
(1.0407428 -0.03466772 2.0142433e-21)
(1.0431329 -0.029741894 -6.1073936e-21)
(1.0443219 -0.024663329 -2.0804115e-21)
(1.0444248 -0.019766874 -1.8797896e-21)
(1.0436838 -0.015273079 -5.9153481e-22)
(1.0423668 -0.011363857 -1.1818526e-21)
(1.0406996 -0.008021823 7.6806221e-23)
(1.0390284 -0.005403272 -4.3188461e-22)
(1.037415 -0.0031447746 -1.0281011e-22)
(1.0363713 -0.001792117 -5.2733701e-22)
(1.0354626 -0.00014755915 1.1960955e-22)
(0.98700521 -0.0063417039 5.2681658e-22)
(0.99326768 -0.0069810158 1.2905823e-22)
(0.99820955 -0.0069745428 1.2657659e-21)
(1.0004525 -0.0072373389 6.5822793e-22)
(1.0012644 -0.0075566854 -1.3644769e-21)
(1.0009219 -0.0082432324 -2.4796616e-21)
(1.0002413 -0.0090738499 -4.233699e-22)
(0.99937118 -0.010278333 0)
(0.99856541 -0.011791225 -2.4262915e-21)
(0.99770341 -0.013902301 -9.477855e-21)
(0.99698316 -0.0164214 -1.3194887e-21)
(0.99639846 -0.019541684 -2.1396995e-21)
(0.9961653 -0.023123654 0)
(0.99647058 -0.027132376 8.8041392e-22)
(0.99754398 -0.031390631 7.7969699e-21)
(0.99956977 -0.035860668 1.5871357e-22)
(1.0027043 -0.040175281 -7.3094997e-21)
(1.0069889 -0.043999322 0)
(1.0123002 -0.046880022 1.8874554e-21)
(1.0183876 -0.04849391 2.8080835e-21)
(1.0247921 -0.048536419 -5.1700453e-21)
(1.0310489 -0.046971817 1.4986181e-21)
(1.0366203 -0.043897487 0)
(1.0411586 -0.039633092 -5.7198911e-21)
(1.0443822 -0.034575302 2.2883013e-21)
(1.0462737 -0.029160499 -1.4862249e-22)
(1.0468891 -0.023785288 -2.5447216e-21)
(1.0464693 -0.018747766 2.1209578e-21)
(1.0452399 -0.014252745 8.6260267e-23)
(1.04353 -0.010419723 -2.9402434e-21)
(1.041543 -0.0072196637 3.1411295e-21)
(1.0396302 -0.0047620739 1.3217634e-21)
(1.0378379 -0.0026942436 0)
(1.0366751 -0.0015122784 1.7991451e-23)
(1.0356427 -0.00010981148 -3.2400579e-23)
(0.97611983 -0.005986677 4.1392045e-22)
(0.98485879 -0.006865463 9.4739143e-23)
(0.99309581 -0.0068897907 1.1506036e-21)
(0.99774668 -0.0071587686 3.127773e-22)
(1.000099 -0.00743274 -1.0644808e-22)
(1.0005671 -0.0080882337 -7.1449996e-22)
(1.0001933 -0.0089133104 -2.8861992e-21)
(0.99932656 -0.010052402 -2.4549303e-22)
(0.99839825 -0.011514187 0)
(0.99734839 -0.013544691 3.1172019e-21)
(0.99642372 -0.016002144 -3.0869172e-21)
(0.99559642 -0.019064754 -1.4923501e-22)
(0.99506864 -0.022645396 -2.6038297e-21)
(0.9950249 -0.02672454 4.119892e-21)
(0.99571114 -0.031159524 3.7584647e-21)
(0.99732791 -0.035944674 5.5447587e-21)
(1.0000863 -0.040742625 -1.6306678e-20)
(1.0040917 -0.04521729 -6.4423216e-21)
(1.0093008 -0.048893759 4.9800929e-21)
(1.0155212 -0.051381936 -9.1062056e-21)
(1.0223313 -0.052281211 6.373868e-21)
(1.0292462 -0.051451663 -5.468514e-21)
(1.0356715 -0.048897285 0)
(1.0411589 -0.044885158 -1.545084e-21)
(1.0453216 -0.039798534 5.3936202e-22)
(1.0480455 -0.034112641 2.9984714e-21)
(1.0493219 -0.028280377 8.3611325e-22)
(1.0493489 -0.022675206 4.3249108e-22)
(1.0483641 -0.017575019 1.5112979e-21)
(1.0466678 -0.013123783 0)
(1.0445665 -0.0094161484 2.5202898e-21)
(1.0422792 -0.0063850428 3.4544348e-21)
(1.0401417 -0.0041066458 -1.296111e-21)
(1.0381856 -0.002240577 -7.7483576e-23)
(1.03691 -0.001231492 -7.3900046e-23)
(1.035797 -7.4245627e-05 2.5810916e-22)
(0.96204483 -0.005353131 -4.2734629e-22)
(0.97219848 -0.0065400897 3.6521482e-23)
(0.98426696 -0.006728638 -4.461256e-22)
(0.99243277 -0.0070593244 -4.8599553e-23)
(0.99740775 -0.007312727 1.4134449e-21)
(0.99942084 -0.0079159267 1.8829642e-21)
(0.99984203 -0.0087200274 1.2340432e-22)
(0.99925809 -0.0098597405 -2.0353596e-21)
(0.99831214 -0.011224108 -2.4367971e-22)
(0.9970968 -0.013192649 -2.7213572e-21)
(0.99595178 -0.015563728 1.3945039e-22)
(0.99487672 -0.01856102 2.0543143e-21)
(0.99405131 -0.022107425 7.0586899e-22)
(0.9936549 -0.026224659 2.6401604e-21)
(0.99394372 -0.030788056 -1.7258732e-20)
(0.99512463 -0.035834788 -9.8180012e-22)
(0.99745473 -0.041063428 6.0984142e-21)
(1.0011002 -0.046149849 7.3330494e-21)
(1.0061013 -0.050613934 -7.7761908e-21)
(1.0123386 -0.054009836 -2.4115108e-21)
(1.0194484 -0.055848776 2.9571531e-21)
(1.0269498 -0.055879023 -7.8856004e-21)
(1.0342093 -0.053994998 6.291426e-21)
(1.0406846 -0.050384696 0)
(1.0458772 -0.045397299 4.243304e-21)
(1.0495618 -0.039526316 6.4118291e-21)
(1.0516422 -0.033280799 -2.5714095e-21)
(1.0522684 -0.027107028 5.1752688e-21)
(1.0516496 -0.02136139 1.1806685e-22)
(1.0501149 -0.016256796 -1.6979065e-21)
(1.0479457 -0.011913945 -2.2996027e-21)
(1.0454792 -0.0083633184 3.3447575e-22)
(1.0429105 -0.0055274771 -1.5829298e-22)
(1.0405664 -0.0034432266 -9.6591185e-22)
(1.0384626 -0.0017867976 -4.3395026e-22)
(1.0370809 -0.00094884788 -4.4995711e-23)
(1.0359143 -2.1584036e-05 1.7183357e-22)
(0.9463786 -0.0043557452 2.0652627e-23)
(0.9554034 -0.0058894882 1.8606076e-23)
(0.97067278 -0.0064082851 -7.0803862e-22)
(0.98308028 -0.0068991587 -2.9517059e-22)
(0.99200392 -0.0071808596 8.3327187e-23)
(0.99673151 -0.0077521677 -1.4294598e-22)
(0.99871016 -0.0084987294 -9.4734828e-22)
(0.99889169 -0.0096183644 1.9115199e-22)
(0.99822678 -0.010980395 0)
(0.99694333 -0.012818581 5.8453251e-22)
(0.99559333 -0.015131571 0)
(0.99425604 -0.018028817 0)
(0.99312904 -0.021529548 2.5257253e-21)
(0.99237306 -0.025644984 -4.7587999e-22)
(0.99225529 -0.030296942 -2.6859322e-21)
(0.99298018 -0.035548162 -6.0047023e-21)
(0.99483906 -0.041150746 1.1361223e-20)
(0.99805359 -0.046799811 6.6583085e-21)
(1.0027454 -0.05202525 6.9675119e-21)
(1.008879 -0.056343897 2.9573522e-21)
(1.0161681 -0.059186933 -6.237644e-21)
(1.0241608 -0.060191975 4.9722497e-21)
(1.0322077 -0.059129278 9.8449919e-22)
(1.039684 -0.056083798 -1.7482167e-21)
(1.0459798 -0.051343265 -2.4214248e-23)
(1.050744 -0.045400832 1.3653329e-21)
(1.0537754 -0.038805488 -7.8192439e-22)
(1.0551513 -0.032083364 -3.2289224e-21)
(1.0550504 -0.025668377 -2.9007577e-22)
(1.0537907 -0.019855592 -4.933245e-21)
(1.0516941 -0.014824971 -1.2320321e-21)
(1.0490828 -0.0106296 -4.4026189e-22)
(1.0462669 -0.0072760432 -2.7420558e-21)
(1.04344 -0.0046556577 -7.027444e-22)
(1.0409088 -0.0027774264 1.7256158e-21)
(1.0386735 -0.0013353643 3.8551243e-22)
(1.037196 -0.00066645006 -1.0251333e-22)
(1.0359966 3.8290254e-05 0)
(0.93243365 -0.0029208118 2.4089356e-22)
(0.93633476 -0.0047845594 2.0143121e-23)
(0.95235243 -0.0057986994 -2.234979e-22)
(0.96837103 -0.0065938644 -2.007167e-22)
(0.9822777 -0.0069987572 -8.7006996e-22)
(0.99123914 -0.0075767162 -7.7716737e-22)