/*--------------------------------*- C++ -*----------------------------------*\
| =========                 |                                                 |
| \\      /  F ield         | OpenFOAM: The Open Source CFD Toolbox           |
|  \\    /   O peration     | Version:  5.0                                   |
|   \\  /    A nd           | Web:      www.OpenFOAM.org                      |
|    \\/     M anipulation  |                                                 |
\*---------------------------------------------------------------------------*/
FoamFile
{
    version     2.0;
    format      ascii;
    class       volVectorField;
    location    "40";
    object      UMean;
}
// * * * * * * * * * * * * * * * * * * * * * * * * * * * * * * * * * * * * * //

dimensions      [0 1 -1 0 0 0 0];

internalField   nonuniform List<vector> 
9200
(
(1.0015417 -0.00026100904 -1.1638552e-24)
(1.0014925 -0.00078055383 -1.927069e-22)
(1.0023042 -0.00029092048 0)
(1.0014449 -0.0012154276 9.6152425e-23)
(1.0022325 -0.00087484681 -1.7789797e-22)
(1.0026895 -0.00030908345 0)
(1.0013511 -0.0016429248 1.0009951e-23)
(1.0021573 -0.0013593645 -2.0263295e-23)
(1.0026083 -0.00093542192 0)
(1.0032951 -0.00033732345 0)
(1.0012575 -0.001976099 -1.643083e-22)
(1.0020198 -0.0018432651 -7.3828522e-23)
(1.0025193 -0.0014508067 -9.8429425e-23)
(1.0032007 -0.0010324684 -6.9684621e-24)
(1.0038155 -0.00036238508 1.860887e-25)
(1.0011428 -0.002288652 -1.4948022e-22)
(1.0018725 -0.0022177059 3.163533e-23)
(1.0023606 -0.0019711912 -2.9880788e-22)
(1.0030909 -0.0015978333 -1.0130747e-22)
(1.0037104 -0.0011220522 1.7694215e-23)
(1.0044405 -0.0003925435 3.6901107e-22)
(1.001027 -0.0025299741 -9.593791e-23)
(1.0016989 -0.0025731285 -1.9895366e-22)
(1.0021878 -0.0023729216 1.8486919e-22)
(1.0029013 -0.0021773762 6.0099898e-24)
(1.0035835 -0.0017334674 -1.5298343e-22)
(1.0043259 -0.0012331006 -1.478626e-22)
(1.0050384 -0.00042115261 -1.6146821e-23)
(1.0009043 -0.0027375337 7.498806e-24)
(1.0015168 -0.0028481164 -9.5149612e-23)
(1.0019849 -0.0027563477 -1.6537199e-22)
(1.0026904 -0.0026248879 4.2922112e-23)
(1.0033682 -0.002367746 3.0020545e-22)
(1.0041814 -0.0019024714 1.3403498e-22)
(1.0049154 -0.001341619 2.7048765e-22)
(1.0057153 -0.00045311948 -4.3527356e-22)
(1.0007823 -0.0028950942 8.5787922e-23)
(1.0013256 -0.0030865331 -1.583934e-22)
(1.0017707 -0.0030541807 3.7854101e-23)
(1.0024437 -0.0030552641 -1.0667157e-22)
(1.0031255 -0.0028584725 1.0284407e-22)
(1.0039404 -0.0026064979 5.4179942e-22)
(1.004755 -0.0020677407 -2.9429861e-22)
(1.0055866 -0.001466097 4.919459e-22)
(1.0063805 -0.00048388305 1.0033235e-21)
(1.0006607 -0.0030178039 -3.41274e-23)
(1.0011323 -0.0032691609 1.317226e-22)
(1.0015455 -0.0033132595 -6.1451377e-24)
(1.0021806 -0.003392576 -1.4211277e-22)
(1.0028421 -0.0033327187 2.0754282e-23)
(1.0036641 -0.0031544003 1.8371607e-22)
(1.0044907 -0.0028400326 -2.0120528e-22)
(1.0054124 -0.0022584087 -4.3546767e-22)
(1.0062474 -0.001588749 -2.3040059e-22)
(1.0071127 -0.00051669843 -6.217388e-23)
(1.0005429 -0.0031053871 1.702152e-23)
(1.0009392 -0.0034129211 6.781191e-23)
(1.0013171 -0.0035130757 -1.3552708e-22)
(1.0019031 -0.0036877685 9.2715428e-23)
(1.0025379 -0.0037074764 -3.5632045e-22)
(1.0033412 -0.0036873366 6.2962528e-22)
(1.0041837 -0.0034448368 6.4684889e-23)
(1.005128 -0.0031111801 -7.9886743e-22)
(1.0060615 -0.0024467913 4.4143755e-22)
(1.0069788 -0.00172287 -9.1022034e-22)
(1.0078399 -0.00054802821 1.8914416e-22)
(1.0004268 -0.003162529 -1.056971e-23)
(1.0007496 -0.0035164419 -1.006595e-22)
(1.0010885 -0.0036711784 3.6828541e-23)
(1.0016199 -0.0039182414 0)
(1.0022163 -0.0040367751 6.2770924e-24)
(1.0029911 -0.0041139971 -1.811518e-22)
(1.0038245 -0.0040359908 1.4232788e-22)
(1.0047924 -0.0037853407 3.9047686e-22)
(1.0057603 -0.0033794875 -2.3107652e-22)
(1.0067849 -0.0026540927 5.7634763e-22)
(1.0077073 -0.0018538498 4.3534219e-22)
(1.0086221 -0.00057970207 -9.2550806e-23)
(1.0003162 -0.0031949997 -2.4087244e-24)
(1.0005661 -0.0035876802 5.4713166e-23)
(1.000864 -0.0037864378 0)
(1.0013354 -0.0041023114 0)
(1.0018867 -0.0042964165 1.1134945e-22)
(1.002619 -0.0044914161 -3.639658e-22)
(1.0034321 -0.0045148673 4.592137e-22)
(1.004398 -0.0044482949 -3.5945502e-22)
(1.0054 -0.0041240623 -1.6790136e-23)
(1.006472 -0.0036765135 2.819392e-24)
(1.0075084 -0.002857482 -8.4861704e-22)
(1.008495 -0.0019900983 1.0983253e-21)
(1.0094009 -0.00060891619 -1.9833717e-21)
(1.0002082 -0.0032078368 3.2580893e-23)
(1.0003898 -0.0036297439 -7.2261016e-24)
(1.0006459 -0.0038663088 8.7725611e-23)
(1.0010544 -0.0042384309 -1.2050065e-22)
(1.0015546 -0.0045051941 1.4397001e-22)
(1.0022346 -0.0047932935 -1.082214e-22)
(1.003013 -0.004940936 -6.3674355e-23)
(1.0039625 -0.0049935475 1.6708168e-23)
(1.0049749 -0.0048602963 -2.0581319e-22)
(1.0060913 -0.0045023954 -1.7738039e-22)
(1.0071886 -0.0039690456 -1.9889268e-22)
(1.0082962 -0.0030704455 -5.6357457e-22)
(1.009282 -0.0021194399 -4.1645248e-22)
(1.0102204 -0.00063651536 5.828266e-22)
(1.0001098 -0.0031999831 -7.2985757e-23)
(1.0002226 -0.0036472775 -2.0301441e-22)
(1.0004364 -0.0039147567 -1.8779331e-23)
(1.0007806 -0.0043346077 1.5342374e-23)
(1.0012256 -0.0046614589 -1.6017861e-23)
(1.0018445 -0.0050383603 1.3611817e-22)
(1.0025773 -0.0052861221 -5.1627255e-23)
(1.0034937 -0.0054825686 8.1571787e-23)
(1.0045007 -0.0054746352 -1.1701562e-22)
(1.0056392 -0.0053240886 -3.1616993e-24)
(1.0067936 -0.0048777767 1.1558209e-23)
(1.0079764 -0.0042774865 -1.1577446e-22)
(1.0090872 -0.0032737434 9.4821083e-22)
(1.0101146 -0.0022465824 -5.4946316e-22)
(1.0110335 -0.00066049957 5.0051926e-22)
(1.0000169 -0.003178076 -3.2314572e-23)
(1.000064 -0.0036448087 7.8926218e-23)
(1.000237 -0.0039366736 -9.1138411e-23)
(1.0005167 -0.0043947704 1.1282483e-22)
(1.0009039 -0.0047732951 -1.3633914e-22)
(1.0014556 -0.0052247236 1.9905216e-22)
(1.0021332 -0.0055693985 -4.3282719e-22)
(1.003002 -0.0058850979 3.6803379e-23)
(1.0039864 -0.0060300432 9.8166915e-23)
(1.0051286 -0.0060209695 -3.5962074e-22)
(1.0063211 -0.0057875061 1.2065765e-21)
(1.0075739 -0.0052773623 -6.9537407e-22)
(1.0087743 -0.0045739983 -3.1776268e-22)
(1.0099302 -0.0034749851 -7.2209212e-23)
(1.0109437 -0.0023622683 6.3734476e-23)
(1.0118708 -0.00068117157 -5.8281152e-22)
(0.99992949 -0.0031447422 0)
(0.99991492 -0.0036255202 1.3268362e-22)
(1.0000488 -0.0039361377 3.4412531e-23)
(1.0002649 -0.0044242913 0)
(1.0005931 -0.0048449613 0)
(1.0010733 -0.0053605736 0)
(1.001688 -0.005788319 4.6669624e-23)
(1.0024967 -0.0062193187 -1.3641309e-22)
(1.0034424 -0.0064941891 5.2735064e-22)
(1.0045692 -0.0066569629 -2.6751087e-22)
(1.0057807 -0.0065713687 1.3583671e-22)
(1.0070879 -0.0062851554 -2.5413084e-22)
(1.0083724 -0.0056654246 8.9898796e-23)
(1.0096325 -0.0048702254 3.6181309e-22)
(1.0107742 -0.0036593151 2.5777015e-23)
(1.0118024 -0.0024689254 2.9641397e-22)
(1.0126958 -0.00069733114 0)
(0.99984715 -0.0031023534 -7.9178254e-23)
(0.99977542 -0.0035927565 -1.4249254e-22)
(0.99987201 -0.0039172641 3.2785276e-22)
(1.0000265 -0.0044277402 2.3417771e-22)
(1.0002958 -0.0048821624 2.4388514e-22)
(1.0007023 -0.0054503 0)
(1.0012483 -0.0059508703 3.9906419e-22)
(1.0019862 -0.0064821992 -1.7327862e-22)
(1.0028789 -0.0068846247 -7.2927201e-22)
(1.0039713 -0.0071973722 7.354953e-22)
(1.0051826 -0.007293809 1.6079002e-22)
(1.0065236 -0.0071681197 1.7693309e-22)
(1.007882 -0.0067732898 -8.4565971e-22)
(1.0092405 -0.0060576139 1.0901194e-21)
(1.0105 -0.0051445482 6.8173976e-23)
(1.0116552 -0.0038307533 2.1255006e-21)
(1.0126516 -0.0025603523 7.9211481e-22)
(1.013528 -0.00070897961 8.1484583e-22)
(0.99976933 -0.0030530294 5.8270813e-24)
(0.99964512 -0.0035493916 -1.0274443e-22)
(0.99970674 -0.0038835092 -1.5160156e-23)
(0.99980241 -0.0044095053 2.1010915e-22)
(1.000014 -0.0048898719 -3.4622092e-23)
(1.000346 -0.0054998761 -2.4694589e-23)
(1.0008194 -0.0060615305 -6.0334193e-22)
(1.0014784 -0.0066812762 -9.3479438e-22)
(1.0023052 -0.0071972263 -3.9012806e-22)
(1.0033454 -0.0076582419 9.5535605e-23)
(1.0045359 -0.0079178562 -1.8556196e-22)
(1.0058911 -0.0079907338 5.2566726e-22)
(1.0073034 -0.0077599149 -6.0841084e-22)
(1.0087558 -0.0072721067 7.2693256e-23)
(1.0101282 -0.0064258403 6.7968222e-23)
(1.011414 -0.0054030945 -3.4453947e-22)
(1.0125313 -0.0039790647 7.6193858e-22)
(1.0135134 -0.0026374735 -6.2894292e-23)
(1.0143414 -0.00071555035 8.0995325e-22)
(0.99969558 -0.0029985741 4.6693622e-23)
(0.99952346 -0.0034978919 1.0234449e-22)
(0.99955272 -0.0038379931 -5.7449713e-22)
(0.99959301 -0.0043735623 -1.3196566e-22)
(0.99974887 -0.0048728841 4.4631345e-23)
(1.000007 -0.0055146723 -2.0786377e-23)
(1.0004057 -0.0061264162 8.6224104e-23)
(1.0009797 -0.0068208194 1.5298013e-22)
(1.0017302 -0.0074388157 -1.6491045e-22)
(1.0027021 -0.0080342659 -1.0505824e-21)
(1.0038521 -0.0084580535 4.215826e-22)
(1.0051984 -0.0087136081 9.484232e-23)
(1.006646 -0.0086894818 -1.3006746e-22)
(1.0081728 -0.0083718025 6.2131491e-24)
(1.0096609 -0.0077468223 1.3784343e-22)
(1.0110734 -0.0067782863 -1.2195499e-21)
(1.0123318 -0.0056306554 4.8846662e-22)
(1.0134277 -0.0041058741 -1.2627502e-21)
(1.0143585 -0.0026967315 -3.2447071e-22)
(1.015145 -0.00071695779 -8.6859124e-22)
(0.99962517 -0.0029404646 1.9247406e-23)
(0.99940961 -0.0034403805 1.8488697e-22)
(0.99940934 -0.0037834057 1.4056063e-22)
(0.99939814 -0.0043234931 1.911934e-22)
(0.99950086 -0.0048355543 -9.8273804e-23)
(0.99968723 -0.0054999304 -1.8766239e-22)
(1.0000105 -0.006151195 6.6590481e-22)
(1.0004959 -0.0069069879 1.4528012e-21)
(1.0011617 -0.0076133604 3.4003295e-23)
(1.0020516 -0.0083312128 0)
(1.0031422 -0.0089074425 -2.3447964e-22)
(1.0044568 -0.0093490006 6.4297593e-22)
(1.0059158 -0.0095202702 8.0449584e-22)
(1.0074997 -0.0094202329 -9.8187534e-22)
(1.0090863 -0.0089625017 2.5361484e-22)
(1.0106364 -0.0082079842 -9.2948734e-22)
(1.0120339 -0.0070946511 1.5200141e-22)
(1.01328 -0.005829694 5.5177793e-22)
(1.0143111 -0.004204991 -8.7877732e-22)
(1.0151987 -0.0027382136 -4.6410368e-23)
(1.0159241 -0.00071306474 -8.4510405e-22)
(0.99955714 -0.0028799833 -3.1665452e-23)
(0.99930257 -0.0033786203 1.5759845e-22)
(0.99927575 -0.0037220889 2.7038288e-22)
(0.9992172 -0.0042624278 -3.1232269e-22)
(0.99926996 -0.0047817959 -3.3147219e-22)
(0.99938747 -0.0054605415 -1.1994944e-23)
(0.9996362 -0.0061415148 0)
(1.0000313 -0.0069457984 -1.116863e-22)
(1.0006064 -0.0077269362 -4.9412624e-22)
(1.001403 -0.0085523716 -8.5106486e-22)
(1.0024173 -0.0092702829 1.4350208e-22)
(1.0036778 -0.0098879685 3.5339385e-22)
(1.0051237 -0.010262143 -1.2655138e-22)
(1.0067398 -0.010373406 -1.8020539e-22)
(1.0084108 -0.010135616 6.2080949e-22)
(1.010084 -0.0095451512 -6.2806796e-22)
(1.011641 -0.0086297901 1.2264129e-22)
(1.0130368 -0.0073780863 -8.8112906e-22)
(1.0142232 -0.0059905703 -3.0938511e-23)
(1.0151976 -0.0042765704 -6.3780162e-24)
(1.0160161 -0.0027604718 -4.9400449e-22)
(1.0166789 -0.0007038658 0)
(0.99949049 -0.0028181949 1.0648565e-23)
(0.99920122 -0.0033141584 -9.1709002e-23)
(0.99915085 -0.0036560013 -2.0003797e-23)
(0.99904927 -0.0041930979 -4.2421593e-22)
(0.99905564 -0.0047150663 -3.0702662e-22)
(0.99910801 -0.0054010164 1.845319e-22)
(0.99928417 -0.0061027792 1.1413312e-22)
(0.99958924 -0.0069434053 7.1905556e-22)
(1.0000701 -0.0077857295 1.6768109e-22)
(1.0007649 -0.0087033738 1.0462887e-22)
(1.001688 -0.0095487849 -3.2385182e-23)
(1.0028735 -0.010332755 -8.5128974e-22)
(1.004281 -0.010903823 4.5481591e-23)
(1.0059029 -0.011238287 8.0079414e-22)
(1.007634 -0.011220197 -4.0556177e-22)
(1.0094201 -0.010851618 -7.4525458e-22)
(1.0111264 -0.010088301 -6.1727181e-23)
(1.0127024 -0.0090161329 1.525649e-21)
(1.0140463 -0.0076150927 1.1235948e-22)
(1.0151795 -0.0061135003 -5.5747435e-22)
(1.0160634 -0.004317791 0)
(1.0168124 -0.0027634327 1.1267458e-21)
(1.0174028 -0.00068947395 1.2242684e-23)
(0.99942441 -0.0027559295 1.5432249e-22)
(0.99910422 -0.0032480462 -1.6716498e-22)
(0.99903333 -0.003586782 2.6152392e-22)
(0.99889313 -0.0041177809 1.1213498e-22)
(0.99885697 -0.0046384347 -4.3756144e-22)
(0.99884852 -0.005325416 0)
(0.99895508 -0.0060400315 3.2115508e-23)
(0.99917195 -0.0069058585 1.4934345e-22)
(0.99955699 -0.0077962164 6.4734029e-22)
(1.0001441 -0.0087903173 1.1987684e-21)
(1.0009642 -0.0097477679 -3.2772862e-22)
(1.0020559 -0.010684003 -5.7105616e-22)
(1.0034005 -0.011445087 7.4013249e-22)
(1.0049998 -0.012000923 -4.8746306e-22)
(1.0067643 -0.012220278 1.0294518e-21)
(1.0086402 -0.01207979 1.0969066e-21)
(1.0104911 -0.011531229 -1.0001046e-21)
(1.0122423 -0.010596624 5.8552669e-22)
(1.0137849 -0.0093490493 -2.1445461e-21)
(1.0150806 -0.0078057084 8.1755925e-22)
(1.0161203 -0.0061935344 1.3041981e-21)
(1.0169147 -0.004328474 -1.1938939e-21)
(1.0175793 -0.0027470237 7.6612125e-22)
(1.018093 -0.00067004917 1.1087729e-23)
(0.99935869 -0.0026937653 -5.2813367e-23)
(0.9990104 -0.00318136 -1.8675451e-22)
(0.99892181 -0.0035157871 -1.5525088e-22)
(0.99874735 -0.0040384794 -9.1475135e-22)
(0.99867267 -0.0045544873 2.3044948e-22)
(0.99860812 -0.005237383 -5.9033023e-22)
(0.99864888 -0.0059578668 3.5689363e-23)
(0.9987807 -0.0068388456 -8.2767544e-22)
(0.99907033 -0.0077649111 3.6613933e-23)
(0.99954653 -0.0088198428 3.748096e-22)
(1.0002546 -0.0098729389 -1.7599975e-23)
(1.0012367 -0.010945286 1.1895154e-21)
(1.0024954 -0.011884568 -2.2786582e-22)
(1.0040435 -0.012658119 -1.0492475e-22)
(1.005811 -0.013119065 2.8288459e-23)
(1.0077502 -0.013230621 2.12243e-22)
(1.0097258 -0.012909939 -1.9282605e-22)
(1.0116539 -0.012179998 9.1089983e-22)
(1.0133966 -0.011047192 0)
(1.014907 -0.0096282184 1.5307769e-22)
(1.0161095 -0.0079422557 5.0799542e-23)
(1.0170565 -0.006230078 -1.0482116e-22)
(1.0177384 -0.0043081891 4.6076106e-23)
(1.0183141 -0.0027115208 -1.1004008e-21)
(1.018746 -0.00064582235 -5.1340548e-22)
(0.99929422 -0.0026322307 -1.1208152e-22)
(0.99891951 -0.0031149695 1.3781531e-22)
(0.99881511 -0.0034441809 1.1715639e-22)
(0.99861035 -0.0039567753 1.0953368e-22)
(0.99850125 -0.0044655137 9.2878815e-22)
(0.99838555 -0.0051400217 1.5308697e-22)
(0.99836486 -0.0058604382 4.2939441e-23)
(0.99841586 -0.0067476607 4.9445017e-23)
(0.99861206 -0.007698129 7.3360487e-22)
(0.99897651 -0.0087989369 1.5439593e-22)
(0.9995664 -0.0099308869 4.6105246e-22)
(1.0004262 -0.011121562 -1.6479083e-22)
(1.0015788 -0.012224094 -6.8026502e-22)
(1.003048 -0.013205899 -1.0174007e-24)
(1.0047868 -0.013909986 -4.3522208e-22)
(1.0067571 -0.014284299 -1.3300051e-23)
(1.0088331 -0.014222535 6.9362174e-22)
(1.0109225 -0.013717265 -1.2642123e-21)
(1.0128751 -0.012769723 -2.0514997e-21)
(1.0146082 -0.01143912 8.9940825e-24)
(1.0160374 -0.0098424856 2.2719236e-21)
(1.0171445 -0.0080234976 6.2113813e-22)
(1.0179677 -0.0062219093 -1.2349116e-21)
(1.018533 -0.0042572438 1.1179917e-21)
(1.0190124 -0.0026576385 -7.9498942e-22)
(1.0193595 -0.00061713721 4.2764404e-23)
(0.99923197 -0.0025717691 3.330616e-24)
(0.99883276 -0.0030496546 8.7332115e-23)
(0.99871294 -0.0033727537 -3.464364e-22)
(0.99848077 -0.0038741072 4.9152472e-22)
(0.998341 -0.0043733624 -6.1145318e-22)
(0.99817918 -0.0050361421 6.2805863e-22)
(0.9981018 -0.0057513087 6.3392928e-22)
(0.99807701 -0.0066372583 4.481335e-22)
(0.99818314 -0.0076018677 -1.1098965e-21)
(0.99843713 -0.0087345298 -5.0924302e-22)
(0.99890553 -0.0099288682 -8.7413875e-23)
(0.99963385 -0.011219056 -1.3115549e-21)
(1.000663 -0.012467359 1.2117014e-21)
(1.0020281 -0.013643702 -7.5993413e-22)
(1.003706 -0.014585952 7.7015889e-23)
(1.0056727 -0.015230487 3.4191521e-22)
(1.0078171 -0.015446334 -9.1605964e-22)
(1.0100466 -0.015203971 1.1196597e-21)
(1.0121996 -0.014468185 -9.9140971e-22)
(1.0141743 -0.013298763 2.3607025e-22)
(1.0158455 -0.011756983 0)
(1.0171871 -0.0099897082 9.8938696e-22)
(1.0181609 -0.008046713 6.0472397e-23)
(1.0188566 -0.0061689654 0)
(1.0192925 -0.0041765849 -1.3748154e-21)
(1.0196715 -0.0025862941 -4.3706084e-23)
(1.0199316 -0.00058435733 4.1954284e-22)
(0.99916996 -0.0025129254 3.8934086e-23)
(0.99875176 -0.0029860714 2.2408862e-23)
(0.99861671 -0.0033023065 -3.0331203e-22)
(0.99835818 -0.0037915096 5.8135037e-24)
(0.9981905 -0.0042795324 -2.1800788e-22)
(0.9979872 -0.0049279099 -7.0874026e-22)
(0.9978581 -0.0056337215 -4.1422571e-23)
(0.99776307 -0.0065119099 -5.832148e-22)
(0.99778355 -0.0074816957 2.0820883e-22)
(0.99793023 -0.008633398 7.1509006e-22)
(0.99827639 -0.0098743248 -1.1990283e-21)
(0.99886726 -0.011245092 -7.1439275e-22)
(0.99975937 -0.01261974 -8.5793346e-22)
(1.0009979 -0.013973335 6.4850471e-23)
(1.0025844 -0.015143403 -9.6387956e-22)
(1.004511 -0.016058456 1.5199463e-22)
(1.0066875 -0.016567127 -1.7133546e-21)
(1.0090265 -0.016614791 2.4035363e-21)
(1.0113642 -0.016136166 7.8110978e-22)
(1.0135782 -0.015160199 -5.0748098e-22)
(1.0155204 -0.013746754 1.2979773e-21)
(1.017119 -0.011997341 -1.7833922e-23)
(1.0183294 -0.010064728 -8.1718136e-23)
(1.0191647 -0.0080109361 0)
(1.0197121 -0.0060723511 0)
(1.0200137 -0.0040674747 1.0831591e-22)
(1.020289 -0.0024986901 -8.8538147e-22)
(1.0204613 -0.00054791217 -7.2291812e-22)
(0.99909964 -0.0024557857 0)
(0.99867485 -0.0029251433 6.5183975e-23)
(0.99852869 -0.003233431 3.0383822e-22)
(0.99824416 -0.0037100079 3.0283003e-22)
(0.99804927 -0.0041852791 6.3650314e-22)
(0.99780792 -0.0048174941 1.7263735e-22)
(0.99763185 -0.0055102725 -4.3984886e-22)
(0.99747241 -0.0063756042 -9.9104031e-22)
(0.9974125 -0.0073425576 9.2746842e-22)
(0.99745647 -0.0085020439 -7.277618e-23)
(0.99768195 -0.0097747522 8.9379403e-23)
(0.99813257 -0.011207472 3.8980833e-23)
(0.99887769 -0.012688186 -2.324042e-21)
(0.99997101 -0.014198758 7.3807e-23)
(1.0014379 -0.015581595 1.8092603e-22)
(1.0032884 -0.016760996 -1.0556062e-21)
(1.0054573 -0.01757024 2.4034253e-22)
(1.0078688 -0.017931618 -1.0198041e-21)
(1.0103641 -0.017746276 2.3519495e-21)
(1.0128088 -0.017015774 -1.1007397e-21)
(1.0150285 -0.015767443 1.0570167e-21)
(1.0169235 -0.014108471 7.3222662e-22)
(1.0184005 -0.012151638 -1.651673e-23)
(1.0194697 -0.010065548 -2.7307037e-21)
(1.0201375 -0.0079172171 -6.7459885e-22)
(1.0205315 -0.0059333953 9.5238403e-23)
(1.0206931 -0.0039317705 1.1886179e-21)
(1.0208633 -0.0023962327 -5.1320671e-22)
(1.0209475 -0.00050827428 8.8980983e-22)
(0.99900544 -0.0024009416 -1.4200458e-22)
(0.99859184 -0.0028669816 0)
(0.99844824 -0.0031670558 0)
(0.99814175 -0.0036302613 0)
(0.99791905 -0.0040918555 -1.5798365e-22)
(0.99764072 -0.0047062235 5.7704832e-22)
(0.99742137 -0.005383437 5.3678922e-23)
(0.99720306 -0.0062314613 1.2500314e-22)
(0.99706857 -0.0071891199 1.4564178e-21)
(0.99701552 -0.0083463178 -1.7208567e-21)
(0.99712375 -0.0096374394 4.459655e-22)
(0.99743428 -0.011114356 -2.0728754e-22)
(0.99802603 -0.01268051 9.4881164e-22)
(0.9989596 -0.014326097 -3.5268343e-23)
(1.0002823 -0.015902413 1.9346833e-21)
(1.0020224 -0.01733409 2.6860117e-22)
(1.0041426 -0.018444302 -1.2814615e-21)
(1.0065845 -0.019135593 -7.6115865e-22)
(1.0092022 -0.019276841 1.0062384e-21)
(1.0118556 -0.018836755 -1.4154614e-22)
(1.014353 -0.017811094 -1.2004427e-21)
(1.0165609 -0.016282441 -6.341781e-23)
(1.0183545 -0.01437103 1.9059102e-21)
(1.0196939 -0.012216467 -1.3355868e-21)
(1.0205858 -0.0099920906 1.3175477e-23)
(1.02108 -0.007766042 -4.9389551e-22)
(1.0213092 -0.0057544755 1.2371838e-21)
(1.0213283 -0.0037715979 2.0697756e-22)
(1.0213932 -0.0022804656 1.8047171e-21)
(1.0213896 -0.00046592558 4.2505747e-22)
(0.99885586 -0.0023404406 3.8579191e-23)
(0.99848161 -0.0028135718 5.1691074e-23)
(0.99836512 -0.0031032737 0)
(0.99805138 -0.0035536265 0)
(0.99780357 -0.0039998943 0)
(0.99748741 -0.0045957396 0)
(0.9972259 -0.0052546915 0)
(0.99695315 -0.0060825922 -3.2775252e-23)
(0.99674982 -0.007025094 -4.499574e-22)
(0.99660621 -0.0081718374 1.8885546e-21)
(0.9966022 -0.0094691061 4.6654173e-23)
(0.99677519 -0.010973915 4.988925e-22)
(0.99721073 -0.012605299 -1.9338233e-21)
(0.99797416 -0.014362819 1.6623509e-21)
(0.99913226 -0.016110514 -1.8225987e-22)
(1.0007306 -0.017776787 8.6702078e-22)
(1.0027619 -0.019181323 -1.0955199e-21)
(1.0051888 -0.020210694 6.9636959e-22)
(1.0078861 -0.020704921 5.3173148e-22)
(1.0107166 -0.020598416 4.2124004e-22)
(1.0134776 -0.019848652 1.5292175e-22)
(1.0160087 -0.018511995 6.272358e-22)
(1.0181458 -0.016687042 -1.7136848e-24)
(1.0198158 -0.014528943 -7.7038828e-22)
(1.0209746 -0.012189426 2.9667847e-22)
(1.0216793 -0.0098437644 2.410933e-21)
(1.021981 -0.0075606634 6.0481321e-22)
(1.0220418 -0.0055382965 -5.4815433e-22)
(1.0219174 -0.003589377 2.4050902e-23)
(1.0218782 -0.0021529192 -1.1358869e-21)
(1.0217883 -0.00042133105 -2.5049352e-22)
(0.9985926 -0.0022703287 2.049034e-22)
(0.9983023 -0.0027567131 7.5372012e-23)
(0.99825598 -0.0030450453 2.3367915e-22)
(0.99796284 -0.0034798209 4.1432264e-22)
(0.99770463 -0.0039110655 0)
(0.99735241 -0.004486652 0)
(0.99704738 -0.0051262246 6.253615e-23)
(0.99672166 -0.0059309871 8.0788636e-22)
(0.99645439 -0.0068542709 -1.2235041e-21)
(0.99622678 -0.0079830291 1.5734083e-21)
(0.99611663 -0.0092763275 -1.4341936e-22)
(0.99615674 -0.010793871 -1.4981837e-21)
(0.99643625 -0.012471399 5.3116809e-22)
(0.99702335 -0.014317708 -2.3142048e-22)
(0.99800086 -0.016212434 -1.4617509e-21)
(0.99943053 -0.018091528 2.600978e-23)
(1.0013344 -0.019776685 2.8143237e-21)
(1.0036999 -0.021144277 -1.3922773e-22)
(1.006429 -0.022009672 -2.1829176e-21)
(1.0093952 -0.022274039 3.1741842e-21)
(1.0123943 -0.021853229 -1.0577985e-21)
(1.015244 -0.020768908 -1.0231504e-21)
(1.0177467 -0.019094209 2.7884278e-21)
(1.0197848 -0.016972889 1.0204182e-21)
(1.0212807 -0.014576455 -5.708339e-22)
(1.0222423 -0.012068882 1.4056832e-21)
(1.0227329 -0.0096244337 7.1170658e-22)
(1.0228379 -0.0073036211 3.3485473e-22)
(1.0227263 -0.0052881679 -6.5487754e-22)
(1.0224593 -0.0033876673 -7.5894224e-23)
(1.0223185 -0.0020150671 -3.721245e-22)
(1.0221467 -0.00037522963 -2.1614768e-23)
(0.99816306 -0.0021901758 -8.8315986e-23)
(0.99798163 -0.0026921783 -7.0519221e-23)
(0.99807441 -0.0029813328 -2.6374506e-22)
(0.99784959 -0.0034135171 -3.3269358e-22)
(0.99761251 -0.0038247422 0)
(0.99723928 -0.0043812115 0)
(0.99689081 -0.0049986043 0)
(0.99651053 -0.0057792884 -3.2884034e-23)
(0.99618117 -0.006678981 1.6376807e-21)
(0.99587537 -0.0077846938 1.5098339e-21)
(0.99566554 -0.0090644385 -1.8535614e-22)
(0.995579 -0.010581958 -2.5273222e-22)
(0.99570542 -0.012287454 3.2711038e-21)
(0.99611374 -0.014200166 -1.5218132e-21)
(0.99689947 -0.016216653 -3.4167252e-23)
(0.99813807 -0.018283208 0)
(0.9998798 -0.020229698 8.128794e-22)
(1.0021385 -0.021927214 -8.2476688e-22)
(1.0048481 -0.023173338 3.2027201e-23)
(1.0079009 -0.023837977 3.5979819e-22)
(1.0111009 -0.023795056 -1.4249227e-21)
(1.0142522 -0.023025215 4.4611561e-22)
(1.0171274 -0.021566451 -1.6231002e-21)
(1.019568 -0.019545665 -2.2546698e-21)
(1.0214489 -0.017129718 9.6600242e-22)
(1.0227462 -0.014510227 1.2526472e-22)
(1.0234765 -0.011857612 -9.9789387e-23)
(1.023746 -0.0093354727 3.1047579e-23)
(1.0236447 -0.0069992653 -8.9460159e-22)
(1.0233605 -0.0050076247 -6.1710596e-22)
(1.0229537 -0.0031691227 1.3134414e-22)
(1.022715 -0.0018685702 7.5213785e-22)
(1.0224679 -0.00032906763 -1.1446852e-22)
(0.99747854 -0.0020922016 -8.6786329e-23)
(0.99744155 -0.0026211086 -4.5018999e-23)
(0.99773899 -0.0029085798 -4.1288173e-22)
(0.99765718 -0.0033401307 -6.93055e-22)
(0.99749848 -0.0037476684 1.4682749e-22)
(0.99713953 -0.0042779814 1.0694575e-22)
(0.9967616 -0.004874802 1.2591719e-21)
(0.99632528 -0.0056279557 -7.372078e-22)
(0.99593215 -0.0065025242 -3.0840685e-22)
(0.99555078 -0.0075795986 -3.0248987e-21)
(0.99524734 -0.0088391438 1.2629159e-21)
(0.99504104 -0.010344467 2.3027057e-21)
(0.99501943 -0.012062308 8.9653535e-23)
(0.99525003 -0.014019723 -1.7970686e-21)
(0.99583717 -0.01613269 -1.7936286e-21)
(0.99686764 -0.018359403 -7.9092209e-24)
(0.99841704 -0.020542694 3.8179804e-22)
(1.0005259 -0.022554746 6.364759e-22)
(1.0031638 -0.024181577 -3.1282854e-22)
(1.0062487 -0.025267105 -1.0031042e-22)
(1.0096024 -0.02564415 9.7466158e-22)
(1.0130249 -0.025249078 -2.7739747e-21)
(1.0162666 -0.02407608 -1.961548e-22)
(1.0191294 -0.02222467 1.2828506e-21)
(1.0214422 -0.019850373 -3.1105747e-21)
(1.0231326 -0.017151554 -1.1185875e-21)
(1.0241887 -0.014330947 -1.0545058e-21)
(1.0246745 -0.011556542 -2.7583629e-22)
(1.0247064 -0.0089831965 -6.8538792e-22)
(1.0243984 -0.0066517739 4.9113357e-23)
(1.0239431 -0.0047004764 -2.3911908e-22)
(1.0234006 -0.0029364753 -5.635259e-23)
(1.0230687 -0.0017155714 -1.9782607e-22)
(1.0227481 -0.00028589234 -7.7489866e-23)
(0.99643224 -0.0019656953 1.2428849e-22)
(0.99655966 -0.0025315938 5.8151133e-23)
(0.99715865 -0.0028283754 4.2257145e-22)
(0.99729528 -0.0032563083 2.4144522e-22)
(0.99730144 -0.0036607067 -5.1447506e-22)
(0.99702264 -0.004186699 -9.5287443e-22)
(0.99665278 -0.0047524207 -1.6802803e-22)
(0.99617339 -0.0054809951 0)
(0.99571318 -0.0063252857 -9.6821734e-22)
(0.99525484 -0.0073723247 -3.7819541e-21)
(0.99486088 -0.0086038047 -5.9649935e-22)
(0.99454157 -0.010088489 -8.6354294e-22)
(0.99437824 -0.011803336 0)
(0.99443494 -0.01378641 4.3855505e-22)
(0.994821 -0.015970685 3.291524e-21)
(0.99563133 -0.018329256 -6.1171878e-23)
(0.99696368 -0.020721489 -3.2853278e-21)
(0.99888399 -0.023025665 0)
(1.001399 -0.025024642 1.1564605e-21)
(1.0044579 -0.026541312 1.7696043e-21)
(1.0079099 -0.027372159 -2.010748e-21)
(1.0115608 -0.027406938 1.054116e-21)
(1.0151486 -0.026590537 0)
(1.0184407 -0.024983943 -2.7631415e-21)
(1.0212188 -0.022720602 1.3414539e-21)
(1.0233615 -0.019998592 -9.4234805e-23)
(1.0248091 -0.01703585 -1.3432132e-21)
(1.0256025 -0.014038685 1.218811e-21)
(1.0258205 -0.011172343 4.1682225e-23)
(1.0256123 -0.0085711594 -1.7930122e-21)
(1.0250958 -0.006266193 1.8578462e-21)
(1.0244732 -0.0043706108 7.3984527e-22)
(1.0238006 -0.0026925017 0)
(1.0233796 -0.0015581996 6.469536e-24)
(1.0229788 -0.00025362783 -8.9230816e-23)
(0.99495131 -0.0017966081 7.3802919e-23)
(0.99519221 -0.0024111268 4.4486299e-23)
(0.99619188 -0.0027302875 3.3722519e-22)
(0.99665274 -0.0031685477 1.239135e-22)
(0.99692349 -0.0035611665 -2.2600124e-23)
(0.9968192 -0.0040819566 -3.0138322e-22)
(0.996533 -0.004644956 -1.1310517e-21)
(0.99605017 -0.0053343129 -1.1108573e-22)
(0.9955338 -0.0061527574 0)
(0.9949936 -0.0071629003 1.2289785e-21)
(0.99450808 -0.0083642262 -1.2054244e-21)
(0.99407961 -0.009818118 -9.8485719e-23)
(0.9937812 -0.011519015 -1.0488073e-21)
(0.99366967 -0.013508716 1.6800818e-21)
(0.99385572 -0.015741637 1.6736029e-21)
(0.99443907 -0.01820318 2.2182396e-21)
(0.99553517 -0.020774044 -7.3215227e-21)
(0.9972335 -0.023343079 -3.1696432e-21)
(0.99957738 -0.025696703 1.983862e-21)
(1.0025515 -0.027645041 -4.3525568e-21)
(1.0060401 -0.028953002 2.7803448e-21)
(1.0098658 -0.029465701 -3.0529518e-21)
(1.0137652 -0.029073916 0)
(1.0174786 -0.027791753 -7.251712e-22)
(1.0207439 -0.025717696 3.171754e-22)
(1.0233861 -0.023039459 1.589855e-21)
(1.0252955 -0.019983203 3.1846917e-22)
(1.0264689 -0.016780974 1.7725851e-22)
(1.0269681 -0.013639426 9.1042991e-22)
(1.0269112 -0.010708487 0)
(1.0264566 -0.0081067014 1.5461828e-21)
(1.0257355 -0.0058474917 2.0703577e-21)
(1.0249509 -0.0040219369 -7.2889714e-22)
(1.0241545 -0.0024398145 -8.4556473e-23)
(1.0236476 -0.0013971831 -3.5625948e-23)
(1.023177 -0.00023070857 3.9869146e-22)
(0.99307523 -0.0015599508 -7.9902273e-23)
(0.99321364 -0.0022314204 1.6827622e-23)
(0.99463677 -0.0026010648 -1.3735803e-22)
(0.99554745 -0.0030631485 -2.16711e-23)
(0.99623888 -0.0034580702 5.292668e-22)
(0.99642358 -0.0039614096 6.9592967e-22)
(0.99632469 -0.0045190571 5.4956164e-23)
(0.9959244 -0.0052066557 -7.5808838e-22)
(0.99539186 -0.0059785965 -1.1042665e-22)
(0.99477876 -0.0069588095 -1.0629968e-21)
(0.99419513 -0.0081200419 6.5038101e-23)
(0.99365724 -0.0095406374 8.1207986e-22)
(0.99322783 -0.011214117 3.1906741e-22)
(0.99295457 -0.013196765 9.8657597e-22)
(0.99294425 -0.0154551 -7.0544883e-21)
(0.99329818 -0.017992927 -5.7906012e-22)
(0.99414482 -0.020710428 2.7665871e-21)
(0.99559353 -0.023512858 3.2690735e-21)
(0.99772288 -0.02619701 -3.6495918e-21)
(1.0005546 -0.028566813 -1.1699656e-21)
(1.0040146 -0.030364742 1.0552566e-21)
(1.0079525 -0.031393463 -3.8048181e-21)
(1.0121153 -0.031489386 3.2948207e-21)
(1.0162268 -0.030611356 0)
(1.0199864 -0.028812472 1.6122583e-21)
(1.0231657 -0.026256135 3.2370522e-21)
(1.0255975 -0.023168005 -1.5117583e-21)
(1.027231 -0.019799724 2.966307e-21)
(1.0280885 -0.016391284 5.1289745e-23)
(1.0282792 -0.013136817 -1.0506602e-21)
(1.0279356 -0.010174118 -1.5380855e-21)
(1.0272374 -0.0075951178 3.4258697e-22)
(1.0263163 -0.0054009124 -9.1667934e-23)
(1.0253767 -0.0036582371 -5.470788e-22)
(1.0244637 -0.0021806053 -2.5441696e-22)
(1.0238744 -0.0012324064 -3.1564136e-23)
(1.0233512 -0.00019808394 1.9538626e-22)
(0.99100375 -0.001236269 1.2416403e-23)
(0.99062921 -0.0019514574 1.9213579e-23)
(0.99232927 -0.0024076186 -2.2267179e-22)
(0.99373911 -0.0029228238 -1.2763066e-22)
(0.99503546 -0.0033393595 3.6810159e-23)
(0.99569283 -0.0038404092 -6.323549e-23)
(0.99591592 -0.0043735574 -3.3225482e-22)
(0.99570871 -0.0050539643 2.7898503e-23)
(0.99525766 -0.0058284286 0)
(0.99461111 -0.0067503727 2.2793759e-22)
(0.99393584 -0.0078813741 0)
(0.99328057 -0.0092553447 0)
(0.99272051 -0.010898058 9.9491299e-22)
(0.99228985 -0.012856202 -1.9608263e-22)
(0.99208838 -0.015122887 -1.0748164e-21)
(0.99221392 -0.017709003 -2.5133341e-21)
(0.99280309 -0.020542592 4.6900393e-21)
(0.99398125 -0.023543972 3.3434676e-21)
(0.99585817 -0.026528134 3.2776724e-21)
(0.99849348 -0.029300835 1.4189318e-21)
(1.0018586 -0.031589356 -2.5319026e-21)
(1.0058394 -0.033161672 2.9517626e-21)
(1.0102058 -0.03379991 2.9695475e-22)
(1.0146765 -0.033403577 -1.7020438e-21)
(1.0189219 -0.03196917 -1.5308209e-22)
(1.0226621 -0.029623709 7.3751503e-22)
(1.0256697 -0.026578203 -2.1050049e-22)
(1.0278359 -0.023097462 -1.8280502e-21)
(1.0291394 -0.019449706 -1.5464559e-22)
(1.0296574 -0.015870034 -3.0668915e-21)
(1.0295211 -0.01254063 -6.1038508e-22)
(1.0288909 -0.0095747223 -2.0630538e-22)
(1.0279514 -0.0070438911 -1.7037627e-21)
(1.0268383 -0.0049315439 -5.2226916e-22)
(1.0257518 -0.0032831246 9.9213621e-22)