/*--------------------------------*- C++ -*----------------------------------*\
| =========                 |                                                 |
| \\      /  F ield         | OpenFOAM: The Open Source CFD Toolbox           |
|  \\    /   O peration     | Version:  5.0                                   |
|   \\  /    A nd           | Web:      www.OpenFOAM.org                      |
|    \\/     M anipulation  |                                                 |
\*---------------------------------------------------------------------------*/
FoamFile
{
    version     2.0;
    format      ascii;
    class       volSymmTensorField;
    location    "40";
    object      UPrime2Mean;
}
// * * * * * * * * * * * * * * * * * * * * * * * * * * * * * * * * * * * * * //

dimensions      [0 2 -2 0 0 0 0];

internalField   nonuniform List<symmTensor> 
9200
(
(7.1090827e-07 -1.447887e-07 -7.1322826e-28 3.1267721e-08 1.5624645e-28 8.7136688e-49)
(7.1128692e-07 -4.2083038e-07 -1.1609188e-25 2.6332701e-07 7.201153e-26 2.2345093e-44)
(1.7623356e-06 -2.350736e-07 0 3.2797326e-08 0 0)
(7.3207442e-07 -6.6879091e-07 5.9044786e-26 6.5341955e-07 -5.7045875e-26 5.613921e-45)
(1.7336604e-06 -6.824632e-07 -1.6971766e-25 2.7883041e-07 6.8322696e-26 1.9739183e-44)
(2.3807448e-06 -2.7757777e-07 0 3.3845907e-08 0 0)
(7.2898856e-07 -9.0177643e-07 6.0496244e-27 1.208903e-06 -8.0372641e-27 6.0175152e-47)
(1.7362047e-06 -1.0675802e-06 -1.8374606e-26 6.8816403e-07 1.1759873e-26 2.5725343e-46)
(2.3394876e-06 -8.119607e-07 0 2.9174734e-07 0 0)
(3.5449482e-06 -3.486312e-07 0 3.5995013e-08 0 0)
(7.4395113e-07 -1.0923713e-06 -1.0136101e-25 1.7710527e-06 1.6199588e-25 1.6466939e-44)
(1.6763297e-06 -1.4274315e-06 -7.2643209e-26 1.2856698e-06 6.3325653e-26 3.4597945e-45)
(2.3250876e-06 -1.2616518e-06 -1.0893011e-25 7.1601939e-07 6.0375439e-26 5.9144137e-45)
(3.4810182e-06 -1.034617e-06 -9.3966765e-27 3.1840299e-07 2.8223796e-27 2.960677e-47)
(4.6452521e-06 -4.0838459e-07 2.9293048e-28 3.7890036e-08 -2.6574493e-29 2.3633288e-50)
(7.4964157e-07 -1.2679687e-06 -9.1712955e-26 2.4246765e-06 1.7284539e-25 1.3602868e-44)
(1.6332656e-06 -1.6920596e-06 2.7917335e-26 1.8838996e-06 -3.0794593e-26 6.1580497e-46)
(2.2315226e-06 -1.6881947e-06 -3.2475637e-25 1.3460996e-06 2.525826e-25 5.4457269e-44)
(3.4349224e-06 -1.5955611e-06 -1.392935e-25 7.7579794e-07 6.5257138e-26 6.2633466e-45)
(4.564236e-06 -1.2318009e-06 2.5821672e-26 3.4480552e-07 -7.1397107e-27 1.9937474e-46)
(6.0971304e-06 -4.8120284e-07 6.5451163e-25 4.0352202e-08 -5.1715113e-26 8.3343662e-44)
(7.6386108e-07 -1.407582e-06 -6.2430743e-26 3.0171123e-06 1.293915e-25 5.9686468e-45)
(1.573127e-06 -1.9298398e-06 -1.7933113e-25 2.5948588e-06 2.3552068e-25 2.4624071e-44)
(2.1516843e-06 -1.9921534e-06 1.963536e-25 1.9735477e-06 -1.8919629e-25 2.0836745e-44)
(3.2806701e-06 -2.1411895e-06 8.4562643e-27 1.4720617e-06 -5.515493e-27 2.2651496e-47)
(4.4866143e-06 -1.8894283e-06 -2.3406895e-25 8.3487472e-07 9.9650337e-26 1.4230541e-44)
(6.0028894e-06 -1.482936e-06 -2.6218982e-25 3.8092645e-07 6.4797592e-26 1.3255351e-44)
(7.5948824e-06 -5.5020971e-07 -3.1519211e-26 4.2627674e-08 2.2136332e-27 1.4647699e-46)
(7.7548961e-07 -1.5268789e-06 -1.6751967e-27 3.6161125e-06 -9.2509664e-28 6.9634079e-47)
(1.5166644e-06 -2.0895993e-06 -8.6611834e-26 3.2405892e-06 1.2927709e-25 5.7508284e-45)
(2.0493575e-06 -2.2647743e-06 -1.7377736e-25 2.7274762e-06 2.019996e-25 1.6820104e-44)
(3.1315301e-06 -2.5180866e-06 5.1312245e-26 2.1638366e-06 -4.347063e-26 1.1286424e-45)
(4.2766739e-06 -2.5440525e-06 4.5451686e-25 1.5961725e-06 -2.7370112e-25 5.4514156e-44)
(5.8920868e-06 -2.2654138e-06 2.3907958e-25 9.1703448e-07 -9.1880216e-26 1.0839658e-44)
(7.4913598e-06 -1.732791e-06 5.2753238e-25 4.1764728e-07 -1.2231486e-25 4.5046794e-44)
(9.4228718e-06 -6.3065947e-07 -9.5378025e-25 4.5365937e-08 6.348486e-26 1.1770152e-43)
(7.9119046e-07 -1.6192341e-06 5.8894679e-26 4.1413007e-06 -1.4217422e-25 5.1318685e-45)
(1.4585906e-06 -2.2120753e-06 -1.3461089e-25 3.9031021e-06 2.3100315e-25 1.5533502e-44)
(1.949056e-06 -2.4401383e-06 3.5137836e-26 3.4146812e-06 -4.8783672e-26 8.5421281e-46)
(2.9513438e-06 -2.8577826e-06 -1.3307662e-25 3.007435e-06 1.3447919e-25 6.9077214e-45)
(4.061018e-06 -2.9891579e-06 1.4016715e-25 2.3529952e-06 -1.0811706e-25 6.5133671e-45)
(5.624227e-06 -3.068314e-06 9.3382472e-25 1.7694798e-06 -5.1357393e-25 1.766798e-43)
(7.3477093e-06 -2.6384551e-06 -5.5312682e-25 1.0003188e-06 2.0174005e-25 5.5062003e-44)
(9.3244306e-06 -2.0368592e-06 1.068027e-24 4.6401587e-07 -2.3309051e-25 1.4969983e-43)
(1.1310897e-05 -7.089061e-07 2.399022e-24 4.7879202e-08 -1.4914235e-25 6.2893134e-43)
(8.0770959e-07 -1.6917592e-06 -2.8769453e-26 4.6213449e-06 6.9177046e-26 1.1021003e-45)
(1.4053749e-06 -2.2812998e-06 1.0429876e-25 4.4904436e-06 -2.0208327e-25 1.0506351e-44)
(1.8461577e-06 -2.5685869e-06 -4.9885281e-27 4.1238462e-06 8.2355019e-27 2.2311683e-47)
(2.7676732e-06 -3.0670536e-06 -1.5838644e-25 3.7839613e-06 1.9179195e-25 1.204626e-44)
(3.805891e-06 -3.3927739e-06 3.1794464e-26 3.2854645e-06 -2.8614136e-26 2.7506634e-46)
(5.3340525e-06 -3.6135544e-06 2.8672884e-25 2.6225863e-06 -2.0259333e-25 2.0994043e-44)
(7.0240056e-06 -3.5919678e-06 -3.8770639e-25 1.945127e-06 1.9880488e-25 2.4255641e-44)
(9.1591865e-06 -3.0969284e-06 -9.4687794e-25 1.1070503e-06 3.193182e-25 1.1487963e-43)
(1.1224064e-05 -2.3455846e-06 -5.5429018e-25 5.1077494e-07 1.1471576e-25 3.1926935e-44)
(1.3559372e-05 -7.9975446e-07 -1.6046969e-25 5.0851004e-08 9.2490151e-27 2.2555998e-45)
(8.3053502e-07 -1.7492274e-06 1.3387185e-26 5.0355414e-06 -3.4475743e-26 2.4693703e-46)
(1.3575991e-06 -2.3154002e-06 4.8339262e-26 5.0342252e-06 -1.0637457e-25 2.7040423e-45)
(1.7495156e-06 -2.6314032e-06 -1.2596008e-25 4.7568084e-06 2.1849883e-25 1.123537e-44)
(2.580604e-06 -3.2133204e-06 1.1257637e-25 4.59272e-06 -1.5022361e-25 5.413748e-45)
(3.5408312e-06 -3.6371091e-06 -4.7153131e-25 4.1519193e-06 5.1576961e-25 7.5800045e-44)
(4.9927762e-06 -4.1155323e-06 1.013679e-24 3.6870869e-06 -8.6094514e-25 2.3723318e-43)
(6.6582354e-06 -4.2411407e-06 1.1259471e-25 2.8972588e-06 -7.457628e-26 2.6430157e-45)
(8.7949445e-06 -4.2465972e-06 -1.6909864e-24 2.172088e-06 8.2050628e-25 3.856428e-43)
(1.1042476e-05 -3.563233e-06 1.0416287e-24 1.2145237e-06 -3.3567461e-25 1.1977664e-43)
(1.3507437e-05 -2.7167226e-06 -2.3747985e-24 5.6820026e-07 4.7446902e-25 5.0884722e-43)
(1.5872074e-05 -8.8831818e-07 5.33971e-25 5.3554818e-08 -2.9709269e-26 2.3536144e-44)
(8.4824988e-07 -1.7806387e-06 -5.3082211e-27 5.378835e-06 1.6975963e-26 6.0559101e-47)
(1.3169191e-06 -2.314382e-06 -6.7106474e-26 5.5043124e-06 1.6373994e-25 5.9016584e-45)
(1.6608528e-06 -2.6503463e-06 4.0075256e-26 5.3454104e-06 -7.1692387e-26 1.0315333e-45)
(2.4012658e-06 -3.2713541e-06 0 5.3239054e-06 0 0)
(3.270605e-06 -3.8033438e-06 7.0886975e-27 5.0597271e-06 -9.3955096e-27 2.3466141e-47)
(4.6287844e-06 -4.422935e-06 -2.6032211e-25 4.6927525e-06 2.6777641e-25 1.9688385e-44)
(6.2290846e-06 -4.8461803e-06 2.5553039e-25 4.0968373e-06 -2.0362657e-25 1.2050226e-44)
(8.3620833e-06 -5.042293e-06 8.0761922e-25 3.259247e-06 -4.9203834e-25 9.0969295e-44)
(1.0648982e-05 -4.9174734e-06 -5.0963682e-25 2.4015934e-06 2.4211609e-25 3.7537255e-44)
(1.3333012e-05 -4.1309855e-06 1.4923486e-24 1.3483694e-06 -4.6052217e-25 2.0346977e-43)
(1.5867116e-05 -3.0929366e-06 1.2234692e-24 6.2554969e-07 -2.3735384e-25 1.1887128e-43)
(1.856734e-05 -9.8734825e-07 -2.7828864e-25 5.6499327e-08 1.4563064e-26 5.2267543e-45)
(8.7150625e-07 -1.8016995e-06 -1.3658988e-27 5.6670642e-06 4.2952555e-27 3.4544826e-48)
(1.287622e-06 -2.2906795e-06 3.720272e-26 5.9137616e-06 -9.5866091e-26 1.7824059e-45)
(1.5850614e-06 -2.6286709e-06 0 5.8595458e-06 0 0)
(2.2345505e-06 -3.2692808e-06 0 6.0097092e-06 0 0)
(3.0085596e-06 -3.8605977e-06 1.3499225e-25 5.8886712e-06 -1.9444433e-25 7.3705776e-45)
(4.2529751e-06 -4.6321116e-06 -5.1067441e-25 5.7562447e-06 6.0666321e-25 7.7992608e-44)
(5.7620162e-06 -5.2227021e-06 7.7321765e-25 5.2468023e-06 -7.3477311e-25 1.2475336e-43)
(7.8480842e-06 -5.7976628e-06 -7.3079157e-25 4.6451844e-06 5.4705176e-25 7.6026969e-44)
(1.0160454e-05 -5.8726311e-06 -4.1334209e-26 3.628867e-06 2.3208208e-26 1.7111583e-46)
(1.2940935e-05 -5.7457693e-06 6.8462859e-27 2.6892216e-06 -3.1259263e-27 5.911994e-48)
(1.5714326e-05 -4.7100987e-06 -2.3648647e-24 1.4825163e-06 7.0779612e-25 4.5400057e-43)
(1.8642236e-05 -3.5277737e-06 3.3257606e-24 6.9139218e-07 -6.2907354e-25 8.0587655e-43)
(2.1326116e-05 -1.0806107e-06 -6.4465705e-24 5.8891992e-08 3.2423869e-25 2.6381073e-42)
(8.8676769e-07 -1.8041211e-06 1.3679963e-26 5.9146336e-06 -5.2074699e-26 5.414132e-46)
(1.2679513e-06 -2.2466131e-06 -4.8102651e-27 6.2574756e-06 1.3244312e-26 3.150455e-47)
(1.5222716e-06 -2.5758213e-06 6.9161511e-26 6.3065644e-06 -1.6256373e-25 4.6547537e-45)
(2.085989e-06 -3.210232e-06 -1.1485817e-25 6.613741e-06 2.2456916e-25 8.6225998e-45)
(2.7626049e-06 -3.841641e-06 1.627032e-25 6.6700518e-06 -2.6645622e-25 1.221697e-44)
(3.8805261e-06 -4.7028653e-06 -1.4230621e-25 6.7426584e-06 1.9474135e-25 6.8254787e-45)
(5.2754508e-06 -5.481026e-06 -1.0979387e-25 6.4722142e-06 1.1850786e-25 2.4460147e-45)
(7.2714364e-06 -6.2869194e-06 3.025599e-26 6.0018798e-06 -2.7722908e-26 1.697094e-46)
(9.574952e-06 -6.7956507e-06 -4.8913194e-25 5.210051e-06 3.4093942e-25 2.5382703e-44)
(1.2420754e-05 -6.9166258e-06 -4.8206251e-25 4.0989211e-06 2.5882221e-25 1.9130963e-44)
(1.5351572e-05 -6.5996906e-06 -5.5040905e-25 2.9796047e-06 2.3616079e-25 2.3635477e-44)
(1.8548503e-05 -5.3879939e-06 -1.71305e-24 1.6386115e-06 4.9435491e-25 1.917399e-43)
(2.1498816e-05 -3.9554769e-06 -1.3549688e-24 7.5284381e-07 2.4784423e-25 1.0742128e-43)
(2.4450933e-05 -1.1773384e-06 2.0247223e-24 6.0986477e-08 -9.6794315e-26 2.3234283e-43)
(9.18474e-07 -1.8067975e-06 -2.195078e-26 6.0930591e-06 1.0329947e-25 2.6781215e-45)
(1.2619879e-06 -2.1902564e-06 -1.2705323e-25 6.5408651e-06 3.7913439e-25 2.4774805e-44)
(1.4754257e-06 -2.500184e-06 -9.4797429e-27 6.6848486e-06 2.9770466e-26 1.938451e-46)
(1.9592372e-06 -3.1093166e-06 1.2816459e-26 7.1432915e-06 -2.8727564e-26 1.3532879e-46)
(2.5403179e-06 -3.7508426e-06 -1.5813722e-26 7.3632581e-06 3.0036189e-26 1.4692683e-46)
(3.5234782e-06 -4.6715433e-06 1.6709261e-25 7.6793477e-06 -2.6134714e-25 1.0701968e-44)
(4.7866322e-06 -5.5721312e-06 -8.6818431e-26 7.6247151e-06 1.0644642e-25 1.6541707e-45)
(6.6584551e-06 -6.6334409e-06 1.5970445e-25 7.4637405e-06 -1.6278889e-25 3.9946306e-45)
(8.8979378e-06 -7.4184461e-06 -2.3362596e-25 6.7884924e-06 2.0546231e-25 8.4412103e-45)
(1.1781159e-05 -8.0704237e-06 -3.340942e-28 5.9360091e-06 2.6686287e-27 1.1600234e-46)
(1.4831481e-05 -8.0098274e-06 3.1537367e-26 4.5801246e-06 -1.7037146e-26 7.7705812e-47)
(1.8263584e-05 -7.6121568e-06 -3.3193135e-25 3.3200526e-06 1.4317678e-25 1.2700326e-44)
(2.1489083e-05 -6.0600561e-06 3.078428e-24 1.7852458e-06 -8.6570458e-25 5.6863201e-43)
(2.4765282e-05 -4.418823e-06 -1.9151221e-24 8.1512226e-07 3.4131127e-25 2.0607492e-43)
(2.7616586e-05 -1.2620684e-06 1.8559611e-24 6.211302e-08 -8.4403399e-26 1.8221095e-43)
(9.5276703e-07 -1.8025318e-06 -1.7120377e-26 6.2335379e-06 6.1431734e-26 6.3355851e-46)
(1.2640734e-06 -2.1228624e-06 5.183091e-26 6.7743526e-06 -1.5766459e-25 3.9541359e-45)
(1.4443129e-06 -2.4083011e-06 -6.0975095e-26 6.9995546e-06 1.7440244e-25 4.893649e-45)
(1.8560426e-06 -2.9756898e-06 9.5240078e-26 7.5926522e-06 -2.2765119e-25 7.6006732e-45)
(2.3462365e-06 -3.6055272e-06 -1.3583963e-25 7.9726245e-06 2.786188e-25 1.0968921e-44)
(3.1936121e-06 -4.5439029e-06 2.5678433e-25 8.5187586e-06 -4.3151336e-25 2.4196644e-44)
(4.314201e-06 -5.537561e-06 -6.1559285e-25 8.7304361e-06 9.0080912e-25 1.0848208e-43)
(6.0278501e-06 -6.7746413e-06 6.0205279e-26 8.8646513e-06 -7.4739265e-26 7.8888106e-46)
(8.1639709e-06 -7.875575e-06 2.036821e-25 8.5081081e-06 -2.0279484e-25 5.5552813e-45)
(1.1009538e-05 -8.8891267e-06 -7.9537706e-25 7.8127429e-06 6.745342e-25 8.1361119e-44)
(1.4173562e-05 -9.4271293e-06 3.2347776e-24 6.6889341e-06 -2.1595434e-24 8.2743029e-43)
(1.7789458e-05 -9.3276688e-06 -2.0251593e-24 5.1526884e-06 1.0739325e-24 3.0617166e-43)
(2.1331183e-05 -8.6315905e-06 -1.0245668e-24 3.6448843e-06 4.1440361e-25 6.1702304e-44)
(2.4893458e-05 -6.7971699e-06 -2.5456216e-25 1.9358169e-06 6.7729578e-26 2.6877549e-45)
(2.8094168e-05 -4.8512506e-06 2.4441004e-25 8.6583633e-07 -4.3237558e-26 6.5602919e-45)
(3.1081249e-05 -1.3408388e-06 -2.290518e-24 6.242528e-08 9.8287879e-26 2.5312858e-43)
(9.8938776e-07 -1.7921949e-06 0 6.3409077e-06 0 0)
(1.2769774e-06 -2.0495152e-06 7.6984324e-26 6.9611061e-06 -2.6017672e-25 1.0802646e-44)
(1.4293526e-06 -2.3061168e-06 1.4086276e-26 7.2555332e-06 -5.6054238e-26 6.3949681e-46)
(1.7773522e-06 -2.8195456e-06 0 7.9667587e-06 0 0)
(2.1839338e-06 -3.4181478e-06 0 8.491165e-06 0 0)
(2.899983e-06 -4.3418822e-06 0 9.2614823e-06 0 0)
(3.8723342e-06 -5.3820956e-06 5.7888451e-26 9.7333959e-06 -9.9335666e-26 1.2418967e-45)
(5.404284e-06 -6.7522444e-06 -2.4307647e-25 1.0222849e-05 3.2471793e-25 1.1458027e-44)
(7.3921152e-06 -8.0894907e-06 9.5342188e-25 1.018597e-05 -1.1410605e-24 1.6226803e-43)
(1.014733e-05 -9.5161301e-06 -6.2479503e-25 9.8843093e-06 5.9662993e-25 4.0750775e-44)
(1.3339057e-05 -1.0483047e-05 3.288384e-25 8.8919572e-06 -2.7067602e-25 1.1936462e-44)
(1.7156816e-05 -1.1087568e-05 -7.5039879e-25 7.5950655e-06 4.8393493e-25 3.5762922e-44)
(2.0961355e-05 -1.0680981e-05 2.7924376e-25 5.711076e-06 -1.4519139e-25 5.8786328e-45)
(2.4933154e-05 -9.7664902e-06 1.2576054e-24 3.9839902e-06 -4.9141088e-25 7.8051465e-44)
(2.8393056e-05 -7.4911179e-06 9.512258e-26 2.0595221e-06 -2.3234399e-26 9.7323722e-46)
(3.1775128e-05 -5.2843633e-06 1.1686571e-24 9.0842612e-07 -1.9405197e-25 6.2268843e-44)
(3.4541355e-05 -1.4014063e-06 0 6.1561877e-08 0 0)
(1.0278026e-06 -1.7761943e-06 -3.1225927e-26 6.4206511e-06 1.3586755e-25 3.3953202e-45)
(1.3001369e-06 -1.9730605e-06 -8.6400375e-26 7.1088359e-06 2.9526236e-25 1.3166516e-44)
(1.4293728e-06 -2.1982221e-06 1.9647775e-25 7.4611176e-06 -6.5538588e-25 6.4110124e-44)
(1.7229954e-06 -2.6491668e-06 1.5912941e-25 8.2707213e-06 -4.7930995e-25 3.1704544e-44)
(2.0553067e-06 -3.2019563e-06 2.005816e-25 8.9230482e-06 -5.2041729e-25 3.4454423e-44)
(2.6487389e-06 -4.0817032e-06 0 9.8965425e-06 0 0)
(3.4735702e-06 -5.1302596e-06 4.727426e-25 1.0628562e-05 -9.0670154e-25 9.0685824e-44)
(4.8091949e-06 -6.5709041e-06 -2.4355126e-25 1.1471254e-05 4.0020721e-25 1.7090415e-44)
(6.6148667e-06 -8.1023658e-06 -1.2997317e-24 1.1834832e-05 1.752942e-24 3.0277669e-43)
(9.2119336e-06 -9.8528654e-06 1.4796834e-24 1.1947645e-05 -1.7140601e-24 3.1710573e-43)
(1.2374077e-05 -1.1327087e-05 4.1615059e-25 1.1357317e-05 -3.8411624e-25 1.4521117e-44)
(1.6291967e-05 -1.2466252e-05 4.7022371e-25 1.0208656e-05 -3.7607686e-25 2.106115e-44)
(2.0420443e-05 -1.2827659e-05 -2.6509378e-24 8.4967337e-06 1.6786868e-24 4.1549855e-43)
(2.4743715e-05 -1.2214319e-05 3.7841875e-24 6.3067102e-06 -1.8609492e-24 6.6195113e-43)
(2.8700214e-05 -1.0858522e-05 2.5664797e-25 4.2723171e-06 -8.8317088e-26 9.2801587e-45)
(3.2315481e-05 -8.1960079e-06 8.4025768e-24 2.1653441e-06 -2.1280546e-24 3.0557119e-42)
(3.5471169e-05 -5.6605873e-06 3.2841115e-24 9.341737e-07 -5.2245464e-25 4.3144977e-43)
(3.8189164e-05 -1.4470805e-06 3.5687145e-24 5.9656893e-08 -1.3454115e-25 5.4444089e-43)
(1.0669496e-06 -1.7543396e-06 2.4652665e-27 6.4785897e-06 -1.0641313e-26 1.9466633e-47)
(1.3327432e-06 -1.8950746e-06 -5.5557861e-26 7.2242873e-06 2.0920098e-25 6.6583476e-45)
(1.4434153e-06 -2.087935e-06 -1.329267e-26 7.6232712e-06 3.8202797e-26 2.0148164e-46)
(1.6926097e-06 -2.4717842e-06 1.3842122e-25 8.5118227e-06 -4.4717338e-25 2.616691e-44)
(1.960799e-06 -2.9682495e-06 -2.5770705e-26 9.2734492e-06 7.5042448e-26 6.9053457e-46)
(2.4434367e-06 -3.780859e-06 -2.3672425e-27 1.0425587e-05 3.282618e-26 5.7478201e-46)
(3.1265753e-06 -4.8014059e-06 -6.174441e-25 1.1400509e-05 1.3849786e-24 2.0416987e-43)
(4.2612523e-06 -6.2578255e-06 -1.23778e-24 1.2595692e-05 2.2979362e-24 4.9439666e-43)
(5.8575544e-06 -7.9137645e-06 -6.2139828e-25 1.337336e-05 9.7928189e-25 8.6087485e-44)
(8.2423818e-06 -9.9353824e-06 2.4427456e-25 1.4004273e-05 -2.8756765e-25 7.6599233e-45)
(1.1291018e-05 -1.1836769e-05 -4.1091246e-25 1.3864621e-05 4.6301444e-25 2.0332621e-44)
(1.5242298e-05 -1.3616492e-05 1.4730735e-24 1.3178002e-05 -1.3316383e-24 1.516826e-43)
(1.9591412e-05 -1.4590718e-05 -1.825877e-24 1.1548496e-05 1.3935607e-24 2.2403557e-43)
(2.4377184e-05 -1.4833579e-05 2.2943363e-25 9.4766372e-06 -1.4751462e-25 5.816207e-45)
(2.8778942e-05 -1.3726469e-05 2.3483868e-25 6.8324699e-06 -1.2062573e-25 1.0544472e-44)
(3.2981998e-05 -1.1990084e-05 -1.3641954e-24 4.5292392e-06 4.9563295e-25 7.4298409e-44)
(3.6286665e-05 -8.8145185e-06 3.1885153e-24 2.2307538e-06 -7.7353354e-25 4.0572222e-43)
(3.9412353e-05 -6.0003552e-06 -2.9413016e-25 9.4556519e-07 4.5269188e-26 5.9210811e-45)
(4.1779832e-05 -1.4699844e-06 3.7547121e-24 5.6647293e-08 -1.3164369e-25 5.974673e-43)
(1.1069842e-06 -1.7267999e-06 1.8652617e-26 6.5193306e-06 -8.5295402e-26 1.2565619e-45)
(1.3739602e-06 -1.8162745e-06 5.5699882e-26 7.3136597e-06 -2.153769e-25 6.8548524e-45)
(1.4703644e-06 -1.9775756e-06 -3.1788945e-25 7.7493256e-06 1.2013387e-24 2.0364923e-43)
(1.6850858e-06 -2.2931066e-06 -7.5720147e-26 8.6983173e-06 2.7796747e-25 1.0090486e-44)
(1.899385e-06 -2.7263519e-06 3.854071e-26 9.5501396e-06 -1.096418e-25 1.3459858e-45)
(2.284815e-06 -3.4544204e-06 -7.9511673e-27 1.0852394e-05 3.7149104e-26 2.6604069e-46)
(2.8363672e-06 -4.4163445e-06 8.4097718e-26 1.2047219e-05 -2.0892727e-25 4.2023636e-45)
(3.77396e-06 -5.8359254e-06 2.1815092e-25 1.3572039e-05 -4.2626466e-25 1.4687733e-44)
(5.1458302e-06 -7.5515133e-06 -2.412515e-25 1.4776096e-05 4.3641092e-25 1.527359e-44)
(7.2740363e-06 -9.7577333e-06 -1.9133059e-24 1.5955805e-05 2.9023813e-24 6.18541e-43)
(1.0136437e-05 -1.2040443e-05 1.0169372e-24 1.6406974e-05 -1.2443074e-24 1.0386585e-43)
(1.4010547e-05 -1.438493e-05 2.0452125e-25 1.6265781e-05 -2.3801888e-25 7.2980746e-45)
(1.8517556e-05 -1.6123657e-05 -4.3427597e-25 1.5071143e-05 3.6735879e-25 1.0565378e-44)
(2.366167e-05 -1.7085223e-05 2.5588364e-26 1.3034088e-05 -1.6896948e-26 5.6535193e-47)
(2.8691662e-05 -1.6862138e-05 4.8169842e-25 1.0371176e-05 -2.9506339e-25 1.9046529e-44)
(3.3437774e-05 -1.532697e-05 -4.8318489e-24 7.3203754e-06 2.2171548e-24 8.7965569e-43)
(3.7394845e-05 -1.3014458e-05 2.0736041e-24 4.7052242e-06 -7.2880136e-25 2.1028273e-43)
(4.0587106e-05 -9.3839829e-06 -5.5620551e-24 2.2623589e-06 1.2821781e-24 1.0778034e-42)
(4.3307049e-05 -6.26146e-06 -1.4832422e-24 9.3837455e-07 2.1366225e-25 7.6023406e-44)
(4.5411606e-05 -1.4712617e-06 -4.2180848e-24 5.2686494e-08 1.361452e-25 7.2881678e-43)
(1.1475288e-06 -1.6927079e-06 6.150914e-27 6.5468039e-06 -3.206906e-26 2.0001118e-46)
(1.4226319e-06 -1.7362973e-06 9.2983072e-26 7.3826994e-06 -3.8781023e-25 2.2243725e-44)
(1.5089391e-06 -1.8683114e-06 5.6640144e-26 7.8460822e-06 -2.6966732e-25 1.107401e-44)
(1.6987054e-06 -2.117035e-06 1.0873845e-25 8.8387207e-06 -4.1977748e-25 2.2001406e-44)
(1.8689931e-06 -2.4834667e-06 -5.0917782e-26 9.7619507e-06 2.0570445e-25 5.29507e-45)
(2.1715364e-06 -3.1151309e-06 -1.4226994e-25 1.1184218e-05 4.5083926e-25 2.0407861e-44)
(2.6046175e-06 -3.9938327e-06 5.8850005e-25 1.2570248e-05 -1.6580242e-24 2.5112269e-43)
(3.356812e-06 -5.3315905e-06 1.5687322e-24 1.4392057e-05 -3.8283336e-24 1.1849913e-42)
(4.5004058e-06 -7.0417922e-06 -2.3625905e-26 1.6009002e-05 -2.4071627e-26 4.1178059e-45)
(6.343661e-06 -9.3473475e-06 0 1.7761068e-05 0 0)
(8.9519718e-06 -1.1919923e-05 -5.5065042e-25 1.8866623e-05 7.6309757e-25 3.4230039e-44)
(1.2647024e-05 -1.4783102e-05 1.4915413e-24 1.9452585e-05 -1.8934895e-24 2.3755341e-43)
(1.7184618e-05 -1.7238236e-05 2.3238486e-24 1.8816988e-05 -2.3994617e-24 3.5163591e-43)
(2.2630098e-05 -1.9121601e-05 -3.1319065e-24 1.7210135e-05 2.7265797e-24 5.6360555e-43)
(2.820366e-05 -1.9674803e-05 9.6321591e-25 1.4437078e-05 -6.6239682e-25 3.3234134e-44)
(3.3758816e-05 -1.9055602e-05 -3.6956488e-24 1.1230543e-05 2.0873884e-24 4.6835398e-43)
(3.8340484e-05 -1.6822688e-05 6.3809775e-25 7.6846045e-06 -2.9389308e-25 4.5723046e-44)
(4.22435e-05 -1.3988137e-05 2.4728296e-24 4.8136948e-06 -8.2213571e-25 2.3085806e-43)
(4.4863287e-05 -9.827782e-06 -4.1047133e-24 2.2482955e-06 8.9919275e-25 6.1321394e-43)
(4.7296933e-05 -6.4534775e-06 -1.9416813e-25 9.146156e-07 2.5868109e-26 8.8533701e-46)
(4.8938454e-05 -1.4475801e-06 -4.3166547e-24 4.7921643e-08 1.2733767e-25 7.6810367e-43)
(1.1882312e-06 -1.6504593e-06 -1.3949752e-26 6.5646377e-06 6.7446496e-26 7.6308747e-46)
(1.4778141e-06 -1.6541313e-06 7.7014662e-26 7.4363589e-06 -3.3624233e-25 1.6526373e-44)
(1.5578231e-06 -1.7601902e-06 1.3448135e-25 7.919856e-06 -5.8021517e-25 4.6208532e-44)
(1.7314455e-06 -1.9458434e-06 -1.7334481e-25 8.9412859e-06 7.0794676e-25 6.0837106e-44)
(1.866937e-06 -2.2445701e-06 -1.9137644e-25 9.9178841e-06 7.5768846e-25 6.4540821e-44)
(2.1009231e-06 -2.7733806e-06 1.3810461e-27 1.1430586e-05 1.5873602e-26 1.2164302e-46)
(2.4305854e-06 -3.5505415e-06 0 1.297599e-05 0 0)
(3.0149031e-06 -4.7702597e-06 -6.2006659e-26 1.5053944e-05 2.4695307e-25 7.7506859e-45)
(3.9372211e-06 -6.4164414e-06 -5.5881369e-25 1.7055976e-05 1.3798663e-24 1.3512751e-43)
(5.4826625e-06 -8.7330356e-06 -1.3437633e-24 1.9370533e-05 2.659621e-24 4.0869204e-43)
(7.7853841e-06 -1.1496899e-05 2.0948511e-25 2.1182821e-05 -4.0391894e-25 1.3512497e-44)
(1.1201898e-05 -1.4774978e-05 7.7758143e-25 2.2597947e-05 -1.1344163e-24 6.9249368e-44)
(1.5643314e-05 -1.7924585e-05 -3.2338208e-25 2.2758771e-05 3.9942897e-25 9.2628665e-45)
(2.1242054e-05 -2.0713356e-05 -6.1826531e-25 2.1753793e-05 5.9934295e-25 1.8038664e-44)
(2.7330258e-05 -2.231584e-05 2.1987327e-24 1.9294325e-05 -1.8299875e-24 2.1270262e-43)
(3.3636477e-05 -2.2537557e-05 -2.4554601e-24 1.5830712e-05 1.6657403e-24 2.2534852e-43)
(3.9213432e-05 -2.11714e-05 5.2175606e-25 1.1917012e-05 -2.8118131e-25 7.844741e-45)
(4.3812134e-05 -1.8286673e-05 -3.9440314e-24 7.9455322e-06 1.645826e-24 4.5172776e-43)
(4.714473e-05 -1.4788931e-05 -8.7187829e-26 4.8261128e-06 1.9961332e-26 1.3145577e-44)
(4.9323712e-05 -1.0166409e-05 -9.6559054e-27 2.1937588e-06 9.6812229e-28 7.8805821e-46)
(5.1186843e-05 -6.5538568e-06 -2.5248293e-24 8.7414265e-07 3.2298171e-25 2.3573311e-43)
(5.2362209e-05 -1.3989907e-06 0 4.2554128e-08 0 0)
(1.2296605e-06 -1.5981828e-06 1.3116744e-27 6.5759929e-06 -1.0801827e-26 7.8498111e-47)
(1.5390929e-06 -1.56821e-06 -4.2999923e-26 7.479441e-06 1.9798228e-25 5.6963186e-45)
(1.6159317e-06 -1.6523132e-06 -6.0913044e-27 7.9762254e-06 3.7667705e-26 2.1998773e-46)
(1.7812327e-06 -1.7802306e-06 -2.031642e-25 9.0137008e-06 9.4577134e-25 1.0938187e-43)
(1.8904349e-06 -2.0128681e-06 -1.5295289e-25 1.002694e-05 6.9641883e-25 5.4571667e-44)
(2.0695285e-06 -2.4369382e-06 1.1399306e-25 1.1602197e-05 -4.5696643e-25 2.0000737e-44)
(2.3117064e-06 -3.1007112e-06 4.7735096e-26 1.3274548e-05 -2.4985667e-25 7.184241e-45)
(2.7495119e-06 -4.1754396e-06 6.3406286e-25 1.5562903e-05 -2.0139131e-24 2.9424985e-43)
(3.4661619e-06 -5.7074701e-06 1.9898924e-25 1.7909669e-05 -5.1956437e-25 1.6574237e-44)
(4.7166151e-06 -7.9524145e-06 1.3645456e-25 2.0754413e-05 -3.265085e-25 6.0312946e-45)
(6.6803808e-06 -1.0798674e-05 -5.1636096e-26 2.3285745e-05 1.0524408e-25 5.7679244e-46)
(9.7370709e-06 -1.4370992e-05 -1.7106623e-24 2.5615329e-05 2.9045765e-24 3.9778901e-43)
(1.3946914e-05 -1.812002e-05 1.2934607e-25 2.6734432e-05 -1.7237317e-25 1.2083942e-45)
(1.9540965e-05 -2.1819441e-05 2.1285369e-24 2.6631923e-05 -2.6139885e-24 4.2903629e-43)
(2.5993617e-05 -2.4513483e-05 -1.5677123e-24 2.4702014e-05 1.4497994e-24 9.6949145e-44)
(3.3061147e-05 -2.5925402e-05 -2.971022e-24 2.1427076e-05 2.3353287e-24 2.8114829e-43)
(3.9626346e-05 -2.5387506e-05 -2.2785544e-25 1.7012264e-05 1.6137857e-25 8.677815e-45)
(4.5407605e-05 -2.3302512e-05 6.9037431e-24 1.2459425e-05 -3.5455602e-24 1.2459634e-42)
(4.9459651e-05 -1.95498e-05 5.3794997e-25 8.0490377e-06 -2.1573374e-25 1.1524917e-44)
(5.2346821e-05 -1.544963e-05 -2.7408665e-24 4.7526486e-06 8.0877283e-25 2.1267416e-43)
(5.3690006e-05 -1.0352623e-05 0 2.0971803e-06 0 0)
(5.5003916e-05 -6.5636377e-06 6.0328529e-24 8.1917861e-07 -7.1960915e-25 1.3565207e-42)
(5.5617015e-05 -1.3253867e-06 3.8525969e-26 3.682602e-08 -8.0357236e-28 9.9770728e-47)
(1.2742109e-06 -1.5347903e-06 4.9595135e-26 6.5833115e-06 -3.0233968e-25 1.5454209e-44)
(1.60786e-06 -1.4763802e-06 -9.1460633e-26 7.5145799e-06 3.9314834e-25 2.1699536e-44)
(1.6829372e-06 -1.5430295e-06 1.2030818e-25 8.019936e-06 -5.8080762e-25 4.5266516e-44)
(1.8463916e-06 -1.6197271e-06 5.9382034e-26 9.0626729e-06 -2.6916677e-25 8.4974195e-45)
(1.9368062e-06 -1.7897919e-06 -2.1955078e-25 1.0097866e-05 1.0378734e-24 1.1679955e-43)
(2.0736606e-06 -2.1112682e-06 0 1.1710361e-05 0 0)
(2.2440932e-06 -2.6553845e-06 1.246837e-26 1.3477852e-05 -7.316244e-26 5.5527461e-46)
(2.5586043e-06 -3.56765e-06 1.3869535e-25 1.5929856e-05 -4.5748814e-25 1.428367e-44)
(3.0914852e-06 -4.9452384e-06 6.0297974e-25 1.857165e-05 -1.9529937e-24 2.341467e-43)
(4.0631076e-06 -7.0455938e-06 1.3471014e-24 2.1894805e-05 -3.8221427e-24 7.8688585e-43)
(5.675045e-06 -9.8659606e-06 -5.508946e-25 2.5126375e-05 1.2074241e-24 6.2985639e-44)
(8.3130896e-06 -1.3592923e-05 -1.0897533e-24 2.8406982e-05 2.1095818e-24 1.7736653e-43)
(1.2169636e-05 -1.781465e-05 1.7456692e-24 3.0629453e-05 -2.8219756e-24 2.9441277e-43)
(1.7579593e-05 -2.2340699e-05 -1.4934664e-24 3.1662294e-05 1.9566468e-24 1.2994749e-43)
(2.4220866e-05 -2.619075e-05 3.5539055e-24 3.0631727e-05 -3.9296075e-24 5.513564e-43)
(3.1904251e-05 -2.8903733e-05 4.4892489e-24 2.7803976e-05 -4.0354178e-24 6.333539e-43)
(3.9538688e-05 -2.9630632e-05 -4.045875e-24 2.3327424e-05 3.1334449e-24 6.5448871e-43)
(4.6557615e-05 -2.8340088e-05 2.6794503e-24 1.8019104e-05 -1.6340943e-24 1.7288136e-43)
(5.1947619e-05 -2.5224623e-05 -1.0270225e-23 1.2763198e-05 5.0142041e-24 2.6854852e-42)
(5.5549365e-05 -2.065162e-05 4.1419831e-24 8.009487e-06 -1.5607982e-24 6.1073479e-43)
(5.7493098e-05 -1.5882921e-05 6.7519662e-24 4.5859267e-06 -1.8692623e-24 1.3144285e-42)
(5.8052784e-05 -1.0392929e-05 -6.4842047e-24 1.9643427e-06 1.1641386e-24 1.5044949e-42)
(5.8656186e-05 -6.4768882e-06 4.4001474e-24 7.5207198e-07 -4.8719889e-25 8.3169288e-43)
(5.8670042e-05 -1.2274329e-06 3.657027e-26 3.0975838e-08 -6.7295051e-28 6.7727687e-47)
(1.3261253e-06 -1.4609595e-06 -1.0908972e-26 6.5881109e-06 7.8049979e-26 1.461868e-45)
(1.6880102e-06 -1.377316e-06 -8.9258082e-26 7.5456986e-06 4.2562882e-25 2.5844115e-44)
(1.7601831e-06 -1.4304811e-06 -4.4276989e-26 8.0553537e-06 3.0700957e-25 1.3825176e-44)
(1.9261581e-06 -1.4629815e-06 -3.815141e-25 9.094574e-06 2.0925619e-24 5.2566278e-43)
(2.0038807e-06 -1.5753854e-06 1.1206981e-25 1.0138511e-05 -5.6310855e-25 3.3778751e-44)
(2.1096315e-06 -1.7993804e-06 -2.9626452e-25 1.1766292e-05 1.4992286e-24 2.0996037e-43)
(2.2232188e-06 -2.2227267e-06 1.2219626e-26 1.3599045e-05 -8.3392181e-26 6.7948084e-46)
(2.4376501e-06 -2.9633715e-06 -5.5714711e-25 1.6168517e-05 2.3912621e-24 3.9481046e-43)
(2.8125683e-06 -4.1571285e-06 6.0536551e-26 1.9051422e-05 -1.5625929e-25 1.8037347e-45)
(3.5320384e-06 -6.0526013e-06 3.9027505e-25 2.2785954e-05 -1.2603002e-24 7.8386767e-44)
(4.7984967e-06 -8.7461642e-06 -9.8754291e-26 2.6670923e-05 1.587806e-25 4.008199e-45)
(6.9865872e-06 -1.2482974e-05 1.969299e-24 3.0896508e-05 -4.5319144e-24 7.644776e-43)
(1.0390377e-05 -1.7016699e-05 -5.6177256e-25 3.4313847e-05 9.9877411e-25 3.1418849e-44)
(1.5444142e-05 -2.2236311e-05 -2.6230088e-25 3.6699727e-05 4.2048053e-25 5.943366e-45)
(2.2053834e-05 -2.7202439e-05 3.6197294e-25 3.6890261e-05 -3.3348003e-25 3.7465168e-44)
(3.0163372e-05 -3.1352933e-05 7.8189343e-25 3.4949128e-05 -8.3912208e-25 2.3332602e-44)
(3.8758343e-05 -3.354789e-05 -7.6801539e-25 3.0691729e-05 6.900597e-25 2.1842848e-44)
(4.7186513e-05 -3.3575084e-05 4.214893e-24 2.5042219e-05 -3.0089888e-24 4.0399068e-43)
(5.4053476e-05 -3.1114389e-05 0 1.8699366e-05 0 0)
(5.9120946e-05 -2.6982621e-05 7.720121e-25 1.284573e-05 -3.4833633e-25 1.0339652e-44)
(6.1689771e-05 -2.1460698e-05 2.5978749e-25 7.8071183e-06 -8.9679458e-26 1.2289016e-45)
(6.2754634e-05 -1.6103788e-05 -5.475779e-25 4.3366931e-06 1.397966e-25 6.3203145e-45)
(6.2253839e-05 -1.0270004e-05 3.4481215e-25 1.8007437e-06 -5.9157259e-26 1.4845158e-44)
(6.2112427e-05 -6.2940615e-06 -6.4542202e-24 6.756634e-07 6.5504286e-25 1.6589507e-42)
(6.1484585e-05 -1.1068377e-06 -3.2142866e-24 2.5267893e-08 5.8235577e-26 5.1778097e-43)
(1.3897234e-06 -1.3801803e-06 -3.3322787e-26 6.5920208e-06 2.4228987e-25 9.5399712e-45)
(1.7860136e-06 -1.2725158e-06 5.8010501e-26 7.5765783e-06 -3.0635497e-25 1.3643061e-44)
(1.8520098e-06 -1.3135909e-06 4.0888025e-26 8.0864142e-06 -2.5363407e-25 8.7716132e-45)
(2.021878e-06 -1.3081757e-06 4.1363092e-26 9.1145351e-06 -2.5166565e-25 7.5921295e-45)
(2.0905195e-06 -1.3685506e-06 3.7104184e-25 1.0156337e-05 -2.2199163e-24 5.3129506e-43)
(2.1742903e-06 -1.5023601e-06 5.4025431e-26 1.1780301e-05 -3.6794159e-25 1.3227101e-44)
(2.2443295e-06 -1.8077839e-06 1.2442637e-26 1.365141e-05 -1.0200812e-25 9.8091547e-46)
(2.3806506e-06 -2.3753443e-06 2.9239669e-26 1.6295081e-05 -1.4546981e-25 1.4362969e-45)
(2.6250529e-06 -3.3659828e-06 5.159382e-25 1.9363433e-05 -2.3077724e-24 3.070383e-43)
(3.126288e-06 -5.0113193e-06 8.8780767e-26 2.3434265e-05 -4.5868775e-25 1.3159191e-44)
(4.0703391e-06 -7.4898016e-06 5.4624883e-25 2.7901665e-05 -1.7371879e-24 1.1924687e-43)
(5.8046457e-06 -1.1096524e-05 -2.3335144e-25 3.3026378e-05 6.4495097e-25 1.4589146e-44)
(8.6881332e-06 -1.5762911e-05 -1.2591934e-24 3.7676502e-05 2.8390111e-24 2.4645818e-43)
(1.3234138e-05 -2.1490175e-05 5.9156976e-26 4.1575184e-05 -6.1172873e-26 1.6559796e-45)
(1.9582669e-05 -2.7463155e-05 -1.2087829e-24 4.3305655e-05 1.8682215e-24 1.0163757e-43)
(2.7856491e-05 -3.307085e-05 -5.3947949e-25 4.2669532e-05 4.4280572e-25 1.068801e-43)