/*--------------------------------*- C++ -*----------------------------------*\
| =========                 |                                                 |
| \\      /  F ield         | OpenFOAM: The Open Source CFD Toolbox           |
|  \\    /   O peration     | Version:  5.0                                   |
|   \\  /    A nd           | Web:      www.OpenFOAM.org                      |
|    \\/     M anipulation  |                                                 |
\*---------------------------------------------------------------------------*/
FoamFile
{
    version     2.0;
    format      ascii;
    class       volScalarField;
    location    "255";
    object      p;
}
// * * * * * * * * * * * * * * * * * * * * * * * * * * * * * * * * * * * * * //

dimensions      [0 2 -2 0 0 0 0];

internalField   nonuniform List<scalar> 
9200
(
-0.00063217071
-0.00063018832
-0.00144811
-0.00062568286
-0.0014501008
-0.0024678106
-0.00062409137
-0.0014394587
-0.0024681122
-0.0033758278
-0.00061688321
-0.001432269
-0.0024536033
-0.0033791432
-0.0043068015
-0.00060961158
-0.0014136161
-0.0024428891
-0.0033632127
-0.0043137379
-0.0051905059
-0.00059823011
-0.0013929983
-0.0024157692
-0.0033522896
-0.0042990603
-0.0052044677
-0.0060545441
-0.0005848281
-0.0013635106
-0.0023838456
-0.0033209577
-0.0042918216
-0.0051946495
-0.0060774596
-0.0068812836
-0.00056836213
-0.0013284681
-0.0023381669
-0.0032827025
-0.0042606956
-0.0051964305
-0.0060756585
-0.0069158582
-0.0076736074
-0.00054956811
-0.0012861525
-0.002282587
-0.0032264603
-0.0042209199
-0.0051717115
-0.0060916224
-0.0069258417
-0.007723354
-0.0084257639
-0.00052866885
-0.0012376049
-0.0022149876
-0.0031564766
-0.0041589864
-0.0051376106
-0.006079272
-0.0069622672
-0.0077500134
-0.008493537
-0.0091349122
-0.00050647328
-0.0011828659
-0.002136754
-0.0030700975
-0.0040793627
-0.005077848
-0.0060575311
-0.0069698695
-0.0078125819
-0.0085407877
-0.0092236549
-0.0097973057
-0.00048406941
-0.0011224356
-0.0020482957
-0.0029688887
-0.0039787476
-0.0049969756
-0.0060072176
-0.0069691619
-0.0078472304
-0.0086354689
-0.0092960558
-0.0099097892
-0.010409467
-0.00046300011
-0.0010565516
-0.0019508531
-0.0028533235
-0.0038588606
-0.0048907549
-0.0059328463
-0.006937344
-0.0078760572
-0.0087050813
-0.0094305246
-0.010011598
-0.010548295
-0.010968041
-0.0004448364
-0.00098536293
-0.0018457089
-0.0027248625
-0.0037202924
-0.0047608605
-0.0058288158
-0.0068785629
-0.0078721149
-0.0087722523
-0.0095427557
-0.010191619
-0.010683647
-0.011135563
-0.011470013
-0.00043175229
-0.00090874539
-0.0017343892
-0.0025849302
-0.0035649552
-0.0046077516
-0.0056965221
-0.0067859142
-0.0078389214
-0.0088058658
-0.0096576754
-0.010354055
-0.010915469
-0.011308257
-0.011668277
-0.011912771
-0.00042412383
-0.00082764912
-0.0016182876
-0.00243514
-0.0033948849
-0.004433487
-0.0055361631
-0.0066603876
-0.0077678586
-0.0088087527
-0.0097393484
-0.010525921
-0.011136522
-0.011597334
-0.011881767
-0.012143482
-0.012294165
-0.0004202444
-0.00074283139
-0.0014994889
-0.0022769946
-0.003212482
-0.0042402853
-0.0053499224
-0.0065017059
-0.0076592643
-0.0087701788
-0.0097895102
-0.010666078
-0.011374735
-0.011883915
-0.012233369
-0.012400727
-0.012558661
-0.012612609
-0.00041681962
-0.00065570633
-0.0013790853
-0.0021128157
-0.00302009
-0.0040307796
-0.0051403084
-0.0063119572
-0.0075121749
-0.0086895596
-0.0097951125
-0.01077496
-0.011584079
-0.012197359
-0.012592818
-0.012819208
-0.012862071
-0.012911762
-0.012867304
-0.00040781015
-0.00056961291
-0.0012575244
-0.0019444857
-0.0028206176
-0.0038076201
-0.0049104234
-0.0060936903
-0.0073284303
-0.0085649926
-0.009754371
-0.010836882
-0.011763459
-0.012486257
-0.012990102
-0.013257509
-0.013351288
-0.013263132
-0.013201373
-0.01305817
-0.00038570373
-0.00048850046
-0.0011356336
-0.0017739799
-0.0026161948
-0.0035740933
-0.0046634968
-0.0058502058
-0.007110543
-0.0083978256
-0.0096641885
-0.010848592
-0.011894348
-0.01274782
-0.013368673
-0.01374629
-0.013874142
-0.013826112
-0.013601995
-0.013426987
-0.013184934
-0.00034295249
-0.00041695136
-0.0010135055
-0.0016043103
-0.0024085767
-0.0033330333
-0.0044032826
-0.0055850701
-0.0068620099
-0.008190308
-0.0095251963
-0.010805518
-0.01197176
-0.012960454
-0.01372398
-0.014223961
-0.01446145
-0.014437776
-0.014241313
-0.013877765
-0.013588779
-0.013246796
-0.00027357543
-0.00035949243
-0.00089105413
-0.001438306
-0.0022001236
-0.0030872273
-0.004133002
-0.0053023912
-0.0065867683
-0.007945925
-0.0093391953
-0.010707326
-0.011989357
-0.013117193
-0.014031235
-0.014684078
-0.015046937
-0.015129414
-0.014945024
-0.014594423
-0.014090054
-0.013686469
-0.013245746
-0.00017444489
-0.0003197934
-0.00076821089
-0.0012787629
-0.0019929515
-0.0028401268
-0.0038556556
-0.0050059501
-0.0062893045
-0.0076687919
-0.0091095415
-0.010555099
-0.011945583
-0.013209657
-0.014281258
-0.015098547
-0.01562233
-0.01583038
-0.015745665
-0.015391865
-0.014883357
-0.014237621
-0.013719081
-0.013186544
-4.5930656e-05
-0.00029999306
-0.00064509166
-0.0011282298
-0.0017892617
-0.0025948553
-0.0035747531
-0.0046994134
-0.0059739627
-0.0073636501
-0.0088404538
-0.010351844
-0.011840544
-0.013234772
-0.014463358
-0.015455788
-0.016156216
-0.01653059
-0.016568632
-0.016304891
-0.015775476
-0.015106237
-0.014319499
-0.013689783
-0.013071889
0.00010808962
-0.00030033922
-0.00052211123
-0.00098881283
-0.0015912465
-0.0023544077
-0.0032936832
-0.0043869332
-0.0056449231
-0.0070353334
-0.0085369193
-0.010101682
-0.011676667
-0.013191403
-0.014572641
-0.015742558
-0.016634469
-0.017195351
-0.017402144
-0.017255069
-0.016803049
-0.016093087
-0.015262472
-0.014337619
-0.013602273
-0.012903343
0.00028084988
-0.00031917512
-0.00039996741
-0.00086202091
-0.0014010143
-0.0021216241
-0.0030159811
-0.0040725588
-0.0053067199
-0.0066885885
-0.0082042414
-0.0098096911
-0.01145781
-0.013081103
-0.014606444
-0.015951859
-0.017041084
-0.017807899
-0.018208335
-0.018229063
-0.017884291
-0.017236091
-0.016343133
-0.015352524
-0.014294179
-0.013458903
-0.012683765
0.00046477186
-0.0003524514
-0.00027957875
-0.00074864218
-0.001220496
-0.0018991639
-0.0027451769
-0.0037603971
-0.0049638982
-0.0063285144
-0.0078477121
-0.0094814929
-0.011189029
-0.012907216
-0.014565169
-0.016079175
-0.017366686
-0.018349314
-0.018967776
-0.01918603
-0.019004535
-0.018450765
-0.017601151
-0.016524723
-0.015377543
-0.01419163
-0.013262527
-0.012416143
0.00065336287
-0.00039038721
-0.00016280932
-0.00064897731
-0.0010510755
-0.0016894287
-0.0024845796
-0.0034545681
-0.0046211237
-0.0059603593
-0.0074729466
-0.0091228488
-0.010876178
-0.01267457
-0.014451357
-0.016123459
-0.017604597
-0.018807604
-0.019658531
-0.020103922
-0.020120254
-0.019721425
-0.018950082
-0.017895868
-0.016637843
-0.015339134
-0.014032639
-0.013016074
-0.012104206
0.00083497747
-0.00041786133
-5.590866e-05
-0.00056272668
-0.00089345498
-0.0014946904
-0.002237083
-0.0031590904
-0.0042831935
-0.0055894954
-0.0070857807
-0.008739902
-0.010525442
-0.012389048
-0.014269401
-0.016086155
-0.017751984
-0.019173636
-0.020265791
-0.020957768
-0.021206917
-0.021002257
-0.020373635
-0.019378253
-0.018118862
-0.016683061
-0.015239377
-0.013820089
-0.012722867
-0.011751503
0.0010072195
-0.00044623534
3.5893685e-05
-0.00048750405
-0.00074903371
-0.0013165519
-0.0020049468
-0.0028777228
-0.0039548511
-0.0052214623
-0.0066922068
-0.0083391447
-0.01014346
-0.012057111
-0.014025041
-0.015970915
-0.017808883
-0.019442463
-0.020777706
-0.021729804
-0.022236575
-0.022266463
-0.021824184
-0.020955378
-0.019732301
-0.018269409
-0.016661599
-0.015080731
-0.013557157
-0.012386392
-0.011361917
0.0011876827
-0.00048810731
0.00011889457
-0.00041377246
-0.00062073461
-0.0011563583
-0.0017901747
-0.0026136798
-0.0036405485
-0.0048618094
-0.0062984602
-0.007927306
-0.0097373014
-0.011685802
-0.013724891
-0.015783079
-0.017777913
-0.019612351
-0.021186888
-0.022405237
-0.02318844
-0.023483274
-0.023272975
-0.022578334
-0.021461875
-0.020009939
-0.018347597
-0.016575202
-0.014866038
-0.013247226
-0.012010344
-0.010939149
0.0013689292
-0.00053804468
0.00019754445
-0.00034583695
-0.00050483507
-0.0010142034
-0.0015951091
-0.0023694375
-0.0033441393
-0.0045158435
-0.0059108779
-0.0075114418
-0.0093143483
-0.011282737
-0.013376314
-0.015529198
-0.017663738
-0.019684554
-0.02148949
-0.022973946
-0.024044616
-0.024628891
-0.024686657
-0.024216787
-0.023257959
-0.021889023
-0.020209832
-0.018354168
-0.016426145
-0.014598461
-0.012893886
-0.011598455
-0.010487002
0.0015428024
-0.00058923416
0.0002790981
-0.00030286893
-0.00039430396
-0.00087512173
-0.0014215052
-0.0021475914
-0.0030687937
-0.0041882389
-0.0055356257
-0.007098796
-0.0088823937
-0.01085598
-0.012987369
-0.015216789
-0.017472609
-0.019662748
-0.021685029
-0.023429616
-0.024791984
-0.025682221
-0.026038525
-0.025835146
-0.025089077
-0.023856934
-0.022233766
-0.02033142
-0.01829056
-0.016217155
-0.014281437
-0.012500842
-0.01115451
-0.010009097
0.0017031349
-0.00064072437
0.00036116812
-0.00026490654
-0.00029949902
-0.00073109387
-0.0012553028
-0.0019493875
-0.0028179499
-0.0038828476
-0.0051782721
-0.0066965115
-0.0084495368
-0.010414129
-0.01256671
-0.014854236
-0.017212026
-0.019552578
-0.021775859
-0.023769659
-0.02542144
-0.026626946
-0.027304276
-0.027403993
-0.026917816
-0.025881527
-0.024370184
-0.022493925
-0.020374999
-0.018158815
-0.015951363
-0.013918616
-0.012071881
-0.01068223
-0.0095090136
0.0018448594
-0.00069062403
0.00043748813
-0.00022471542
-0.00020812964
-0.00062325637
-0.0010921005
-0.0017561018
-0.0025936922
-0.0036037574
-0.004843559
-0.0063111405
-0.0080239052
-0.0099662198
-0.012123645
-0.014450721
-0.016890547
-0.019361257
-0.021766696
-0.023994719
-0.025927913
-0.027450876
-0.02846426
-0.028895899
-0.028712337
-0.027924062
-0.026586834
-0.02479359
-0.022668322
-0.020341634
-0.017961546
-0.015632238
-0.013513803
-0.011610796
-0.010185273
-0.0089901355
0.0019635116
-0.0007362614
0.00050499271
-0.00018872345
-0.00012031476
-0.00053377192
-0.00096321258
-0.0015666348
-0.0023749186
-0.0033534263
-0.0045365668
-0.0059483405
-0.0076131258
-0.0095214376
-0.011668074
-0.014016247
-0.016517731
-0.019097323
-0.021664185
-0.024108217
-0.026309946
-0.028146102
-0.029502964
-0.030287826
-0.030442272
-0.029950659
-0.028844196
-0.027198631
-0.02512416
-0.022756704
-0.020233139
-0.017701854
-0.015263513
-0.013070891
-0.011121353
-0.0096671641
-0.0084557147
0.0020554487
-0.00077531512
0.00056277074
-0.00015968372
-3.9215485e-05
-0.00044297568
-0.00084103701
-0.001422316
-0.002161995
-0.0031071709
-0.0042607037
-0.0056141391
-0.0072239455
-0.0090885498
-0.011210226
-0.013561589
-0.016104141
-0.018770549
-0.021476597
-0.024115891
-0.026569275
-0.028708663
-0.030409309
-0.031560767
-0.032081233
-0.031928298
-0.031106805
-0.029669367
-0.027711766
-0.025359961
-0.02275976
-0.020052002
-0.017383263
-0.014849123
-0.012593809
-0.010607233
-0.0091312913
-0.0079087965
0.0021179415
-0.00080595942
0.00061000549
-0.00013660689
3.062955e-05
-0.00035734931
-0.00072015542
-0.0012823056
-0.0019969029
-0.0028678002
-0.0039880743
-0.0053128386
-0.0068635936
-0.008675445
-0.010760067
-0.013098037
-0.015661306
-0.018391938
-0.021213699
-0.024025444
-0.026710359
-0.029138193
-0.031176445
-0.032700196
-0.033606628
-0.033827389
-0.033339364
-0.032169304
-0.030391947
-0.028122256
-0.02550018
-0.022679048
-0.019801314
-0.017009638
-0.014393134
-0.012086466
-0.010072006
-0.0085808634
-0.0073522462
0.0021494946
-0.00082719164
0.00064591888
-0.00011861739
8.8951855e-05
-0.00028370074
-0.00060679693
-0.0011416507
-0.00182936
-0.0026838613
-0.0037225306
-0.0050130983
-0.0065376635
-0.0082905993
-0.010326767
-0.012636788
-0.015201502
-0.017973682
-0.020886718
-0.02384637
-0.026739996
-0.029437466
-0.031801481
-0.033696009
-0.035000273
-0.035621762
-0.035509347
-0.034661323
-0.033127794
-0.031005544
-0.028427388
-0.025545076
-0.022516939
-0.019484684
-0.016585105
-0.013899678
-0.011552706
-0.0095190926
-0.0080189083
-0.0067887152
-0.00083798477
0.0021494946
0.00066931323
-0.00010528401
0.00013589066
-0.00022245741
-0.0005098466
-0.001010295
-0.0016629251
-0.0024914574
-0.0035151799
-0.0047205315
-0.0062114322
-0.0079409506
-0.0099202417
-0.012188331
-0.014737147
-0.017528972
-0.020508319
-0.023589891
-0.026667089
-0.029611989
-0.032285079
-0.034542375
-0.036248495
-0.03728944
-0.037587122
-0.03711031
-0.035880965
-0.033973145
-0.031505144
-0.028625703
-0.025495941
-0.02227653
-0.019106154
-0.016113981
-0.013372894
-0.010996268
-0.0089517473
-0.0074482503
-0.0062206561
0.0006802489
-0.00083798476
0.0021179418
-9.7189343e-05
0.0001713783
-0.00017351982
-0.00042957576
-0.00089797079
-0.001506932
-0.0022994619
-0.0032904761
-0.0044867984
-0.0058914327
-0.0075880941
-0.009549105
-0.011764075
-0.014280112
-0.017071396
-0.020092442
-0.023268934
-0.026502553
-0.029669712
-0.032631034
-0.035237398
-0.037342128
-0.038812929
-0.039546883
-0.03948341
-0.038614183
-0.036986153
-0.03469768
-0.031887138
-0.028717001
-0.025355025
-0.021961556
-0.018670112
-0.015600692
-0.012816879
-0.010420747
-0.0083730345
-0.0068715123
-0.0056503098
-9.3812164e-05
0.00068024899
-0.0008271916
0.0020554492
0.00019418559
-0.00013707944
-0.0003655069
-0.00080488395
-0.0013736128
-0.0021192414
-0.0030679225
-0.0042256515
-0.0056290197
-0.0072402039
-0.0091713693
-0.011374426
-0.01384342
-0.016614198
-0.019653733
-0.022897995
-0.026259284
-0.029620904
-0.032845945
-0.035782722
-0.038276281
-0.040179376
-0.04136714
-0.041751068
-0.041291705
-0.040005725
-0.037966202
-0.035295209
-0.032149378
-0.028702281
-0.025125453
-0.021576292
-0.018181195
-0.015049708
-0.012235634
-0.009829578
-0.007785823
-0.006291105
-0.0050797176
0.00020461472
-9.3812125e-05
0.00066931344
-0.00080595938
0.0019635121
-0.00011469372
-0.00031761727
-0.0007305799
-0.0012632884
-0.0019651173
-0.0028587474
-0.0039712007
-0.0053263769
-0.0069494858
-0.008796601
-0.010973732
-0.013439555
-0.016172033
-0.019206771
-0.022492615
-0.025952055
-0.029478095
-0.032939036
-0.036183154
-0.039049984
-0.041380471
-0.043031061
-0.043887723
-0.043880424
-0.042993657
-0.041270979
-0.038811975
-0.035761163
-0.032291145
-0.028583673
-0.024811123
-0.021125448
-0.017644209
-0.01446548
-0.011633033
-0.0092260059
-0.0071927698
-0.0057092322
-0.0045107213
-0.00010572972
0.00020461476
-9.7189188e-05
0.00064591925
-0.00077531505
0.0018448601
-0.00028755528
-0.00067507917
-0.0011753512
-0.0018375452
-0.0026798504
-0.0037318528
-0.0050344062
-0.0066027534
-0.0084755586
-0.010573517
-0.013019321
-0.015759595
-0.018767864
-0.022068588
-0.025597057
-0.029256011
-0.032922075
-0.036446441
-0.039665795
-0.042412177
-0.044526531
-0.045872343
-0.04635075
-0.045913581
-0.044571939
-0.042397514
-0.039516029
-0.036092615
-0.032313122
-0.028364343
-0.024416588
-0.020614064
-0.017064049
-0.013852391
-0.011012789
-0.00861307
-0.0065963173
-0.0051278949
-0.0039449768
-0.00027460026
-0.00010572965
0.00019418578
-0.00010528378
0.00061000597
-0.00073626132
0.0017031358
-0.00064027253
-0.0011097596
-0.001735879
-0.0025318964
-0.0035267213
-0.0047599787
-0.0062692392
-0.0080786291
-0.010220713
-0.012596163
-0.015324135
-0.018354132
-0.021643804
-0.025211115
-0.028971175
-0.032809331
-0.036583142
-0.040129514
-0.043274325
-0.045846004
-0.047688678
-0.048677335
-0.048732032
-0.047829887
-0.04601057
-0.043374638
-0.040072726
-0.036288288
-0.032217308
-0.028048381
-0.023946947
-0.020047418
-0.016445629
-0.013214704
-0.010378415
-0.0079935819
-0.0059987057
-0.0045489168
-0.0033839436
-0.00062531988
-0.00027460018
-0.00011469356
0.00017137857
-0.00011861704
0.00056277138
-0.00069062392
0.0015428033
-0.0010685857
-0.0016600978
-0.0024141129
-0.0033569718
-0.0045246089
-0.0059559446
-0.0076976052
-0.0097681355
-0.012209893
-0.014881537
-0.017909392
-0.021237907
-0.024813586
-0.028641175
-0.032617256
-0.036606602
-0.040449996
-0.043970281
-0.04698611
-0.049325264
-0.050839528
-0.051419349
-0.051007718
-0.049609706
-0.047295284
-0.044193527
-0.04047829
-0.036348504
-0.032006917
-0.027640668
-0.023407726
-0.019430938
-0.015793816
-0.012556503
-0.0097331926
-0.0073701648
-0.0054020159
-0.0039739044
-0.0028288965
-0.0010508232
-0.00062531984
-0.00028755513
-0.00013707914
0.00013589107
-0.00013660646
0.00050499346
-0.00064072422
0.0013689303
-0.0016124906
-0.0023264242
-0.0032218648
-0.004329835
-0.005687062
-0.0073401519
-0.0093347547
-0.011695177
-0.014460675
-0.017452168
-0.020791302
-0.024426733
-0.028286608
-0.032363836
-0.036532709
-0.040639125
-0.044506671
-0.047947286
-0.050775071
-0.05282159
-0.053950316
-0.054071556
-0.053154619
-0.051234949
-0.048413682
-0.044847382
-0.040730815
-0.036275111
-0.03168625
-0.027146764
-0.022804783
-0.018770111
-0.015113335
-0.011881644
-0.0090802389
-0.0067453131
-0.0048080622
-0.0034041457
-0.0022810348
-0.0015918896
-0.0010508232
-0.00064027232
-0.00031761696
-0.00017351942
8.8952362e-05
-0.00015968316
0.00043748902
-0.00058923397
0.0011876838
-0.0022712793
-0.003121337
-0.0041748926
-0.0054644857
-0.0070333144
-0.0089286665
-0.011203158
-0.013877606
-0.016995744
-0.020325685
-0.023987641
-0.027932355
-0.032070594
-0.036379381
-0.040711654
-0.044893333
-0.048733377
-0.052035122
-0.054612389
-0.056304638
-0.056991584
-0.056607373
-0.055150707
-0.052689352
-0.049355457
-0.04533149
-0.040830216
-0.036071363
-0.031260576
-0.026572786
-0.022144181
-0.01807034
-0.014408702
-0.011193869
-0.0084225915
-0.0061211525
-0.0042181425
-0.0028409071
-0.001741538
-0.0022473024
-0.0015918895
-0.0010685855
-0.00067507888
-0.00036550651
-0.00022245687
3.0630213e-05
-0.00018872278
0.00036116913
-0.00053804445
0.0010072207
-0.0030580351
-0.0040597072
-0.0052874704
-0.0067792853
-0.0085798845
-0.010742716
-0.013321226
-0.016337667
-0.019833401
-0.023521581
-0.027512176
-0.031764961
-0.036168619
-0.040684846
-0.045143235
-0.049351553
-0.053105918
-0.056205102
-0.058466646
-0.059742777
-0.059933623
-0.059001002
-0.056975622
-0.053958711
-0.050112545
-0.045643237
-0.040778148
-0.035741813
-0.030736012
-0.025925261
-0.021431995
-0.017336871
-0.013684404
-0.010496913
-0.0077627692
-0.0054989376
-0.003633718
-0.0022863516
-0.0012107862
-0.0030303835
-0.0022473023
-0.0016124904
-0.0011097594
-0.00073057943
-0.00042957519
-0.0002837001
-3.9214718e-05
-0.0002247146
0.00027909925
-0.00048810703
0.00083497876
-0.0039870778
-0.0051559655
-0.0065773216
-0.0082909772
-0.010347088
-0.012801072
-0.015710214
-0.019093971
-0.022993717
-0.027055526
-0.031377363
-0.035930201
-0.040580609
-0.045272305
-0.049812275
-0.053991313
-0.057596311
-0.060425323
-0.062304516
-0.063103493
-0.062747048
-0.061227877
-0.05861101
-0.055031121
-0.050679194
-0.045782059
-0.040577923
-0.035292203
-0.030119333
-0.025210861
-0.020674228
-0.01657505
-0.012945028
-0.0097937756
-0.0071019814
-0.0048805267
-0.0030584404
-0.0017415993
-0.00066221907
-0.0039551888
-0.0030303835
-0.0022712792
-0.0016600974
-0.0011753507
-0.00080488339
-0.00050984593
-0.00035734851
-0.00012031382
-0.00026490561
0.00019754573
-0.00044623497
0.00065336427
-0.005072927
-0.006427393
-0.0080612988
-0.01001922
-0.012353772
-0.015124355
-0.018389181
-0.022166738
-0.026493318
-0.030942042
-0.035591114
-0.040430761
-0.045301646
-0.050129351
-0.054698488
-0.058785897
-0.06217278
-0.064661297
-0.066091206
-0.066354056
-0.065403272
-0.063265274
-0.060040749
-0.055897135
-0.051051979
-0.045749415
-0.040234419
-0.034729238
-0.029417648
-0.024436319
-0.019877179
-0.015790487
-0.012194142
-0.0090855699
-0.0064426315
-0.0042722838
-0.0024938074
-0.0011723317
-8.8578928e-05
-0.0050362802
-0.0039551887
-0.0030580349
-0.0023264238
-0.0017358785
-0.0012632878
-0.00089797003
-0.00060679605
-0.00044297475
-0.00020812858
-0.00030286785
0.00011889603
-0.00041786083
0.00046477338
-0.0063325897
-0.0078908825
-0.0097585681
-0.011982815
-0.014620133
-0.017731837
-0.02137803
-0.025573343
-0.030347667
-0.035191063
-0.040158658
-0.045264658
-0.050322221
-0.05523825
-0.059776954
-0.063704262
-0.066800346
-0.068876394
-0.069791215
-0.06946217
-0.067875132
-0.065092647
-0.061251219
-0.05654984
-0.05122984
-0.045548731
-0.039753831
-0.034060188
-0.028638311
-0.023608945
-0.019047626
-0.014987409
-0.011432711
-0.0083754573
-0.0057944184
-0.003676034
-0.0018913
-0.00058101097
0.00049626357
-0.0062905434
-0.0050362801
-0.0039870776
-0.0031213367
-0.0024141125
-0.0018375445
-0.001373612
-0.0010102941
-0.00072015442
-0.00053377079
-0.00029949776
-0.00034583568
3.5895348e-05
-0.00039038663
0.00028085151
-0.0077829682
-0.0095652602
-0.011687852
-0.014201596
-0.017165426
-0.020643051
-0.024694436
-0.029329443
-0.034567426
-0.039810204
-0.045080742
-0.050425251
-0.055627368
-0.060576324
-0.065017979
-0.068711542
-0.071441192
-0.073032642
-0.0733687
-0.072396434
-0.070137472
-0.066691862
-0.062231458
-0.056984977
-0.051214083
-0.04518513
-0.039143185
-0.033292822
-0.027789644
-0.022736814
-0.018190511
-0.014166476
-0.010664844
-0.0076775321
-0.0051595454
-0.0030158151
-0.0012758851
2.5902677e-05
0.0010909156
-0.0077348853
-0.0062905434
-0.0050729269
-0.0040597068
-0.0032218642
-0.0025318957
-0.0019651165
-0.0015069311
-0.0011416496
-0.00084103578
-0.0006232551
-0.0003943025
-0.00041377092
-5.5906746e-05
-0.00035245069
0.00010809135
-0.0094426787
-0.011469157
-0.01386868
-0.01669473
-0.020008923
-0.023875869
-0.028354
-0.033446997
-0.039161108
-0.044802877
-0.050353389
-0.055900396
-0.061196945
-0.066115799
-0.07038746
-0.073769397
-0.076055309
-0.077091155
-0.076788235
-0.075127065
-0.072167497
-0.068047457
-0.062973371
-0.057201029
-0.051008095
-0.044664857
-0.038410329
-0.032436387
-0.026881104
-0.021825597
-0.017306078
-0.013332865
-0.0099100677
-0.0069944366
-0.0044274237
-0.0023524542
-0.000638644
0.00064346198
0.0016954124
-0.0093878218
-0.0077348853
-0.0063325894
-0.0051559651
-0.004174892
-0.0033569712
-0.0026798496
-0.0021192404
-0.001662924
-0.0012823043
-0.00096321119
-0.00073109235
-0.00050483333
-0.00048750228
-0.00016280723
-0.00031917428
-4.5928852e-05
-0.011330283
-0.013621876
-0.016320102
-0.019481255
-0.023168545
-0.027446287
-0.032370195
-0.037936497
-0.04413352
-0.050167675
-0.055967098
-0.061672593
-0.067005539
-0.071823982
-0.075847177
-0.078836644
-0.080601202
-0.081013003
-0.080015366
-0.077626409
-0.073944945
-0.069146963
-0.063471931
-0.057198914
-0.050616672
-0.043995358
-0.037565252
-0.031501756
-0.025919049
-0.020874946
-0.016400851
-0.012513217
-0.0091714792
-0.006169209
-0.0037052191
-0.0016596336
9.8312075e-06
0.0012730095
0.0023089738
-0.01126789
-0.0093878217
-0.0077829679
-0.0064273926
-0.0052874699
-0.0043298343
-0.0035267203
-0.0028587462
-0.0022994607
-0.0018293587
-0.0014223145
-0.0010920988
-0.00087511999
-0.00062073266
-0.00056272469
-0.00027957651
-0.00030033826
-0.00017444305
-0.013464932
-0.016042352
-0.019060949
-0.022579027
-0.026660558
-0.031368332
-0.036754753
-0.042804408
-0.049484546
-0.055897738
-0.061906815
-0.067719072
-0.073022434
-0.077663438
-0.081355468
-0.083869796
-0.085036673
-0.084759856
-0.083017999
-0.079869291
-0.075452538
-0.069981221
-0.063724841
-0.056981205
-0.05004623
-0.043187055
-0.036620182
-0.030495827
-0.024902243
-0.019893042
-0.015509896
-0.011711009
-0.008234998
-0.0053685747
-0.0029429666
-0.00095571171
0.00067198253
0.0019127074
0.0029311816
-0.013394174
-0.01126789
-0.0094426785
-0.0078908821
-0.006577321
-0.0054644848
-0.0045246079
-0.0037318517
-0.0030679212
-0.002491456
-0.0019969013
-0.001566633
-0.0012553009
-0.0010142014
-0.00074903149
-0.00064897515
-0.00039996509
-0.00029999205
-0.00027357361
-0.015865477
-0.018749241
-0.02210897
-0.02600443
-0.030499339
-0.035654116
-0.041515062
-0.048052787
-0.055208974
-0.061980531
-0.068152345
-0.07401158
-0.079211499
-0.083592852
-0.08686756
-0.088823853
-0.089319797
-0.088294394
-0.085766147
-0.081833407
-0.076676484
-0.070544026
-0.063731622
-0.05655253
-0.049307181
-0.042253366
-0.035582279
-0.029416033
-0.023840866
-0.018924997
-0.014637385
-0.010641019
-0.0073400449
-0.0045148588
-0.0021708324
-0.00023707691
0.0013449772
0.0025622766
0.0035613742
-0.015785483
-0.013394174
-0.011330283
-0.0095652597
-0.0080612981
-0.0067792845
-0.005687061
-0.0047599776
-0.0039711993
-0.0032904744
-0.0026838596
-0.0021619933
-0.0017560996
-0.001421503
-0.001156356
-0.0008934526
-0.00074863986
-0.00052210887
-0.00031979236
-0.00034295075
-0.018550453
-0.02176019
-0.025480547
-0.029772016
-0.034697204
-0.040312055
-0.046654873
-0.053679231
-0.06129599
-0.068398735
-0.074678072
-0.080515586
-0.085532575
-0.089567006
-0.0923363
-0.093653234
-0.093408977
-0.091581952
-0.08823237
-0.083500083
-0.077606121
-0.070831013
-0.06349425
-0.055922724
-0.048413847
-0.041201249
-0.034446977
-0.028274908
-0.022792071
-0.017976014
-0.013411044
-0.0096317766
-0.0063758976
-0.0036530277
-0.0013828139
0.00049270346
0.0020287632
0.0032205786
0.0041989549
-0.018460304
-0.015785483
-0.013464931
-0.011469156
-0.0097585675
-0.0082909764
-0.0070333132
-0.0059559433
-0.0050344046
-0.0042256499
-0.0035151781
-0.0028677981
-0.0023749164
-0.0019493851
-0.0015951066
-0.0013165494
-0.0010510729
-0.00086201852
-0.00064508935
-0.00035949145
-0.00038570215
-0.021537425
-0.025091525
-0.0291903
-0.033894252
-0.039263284
-0.045347101
-0.052173865
-0.059675636
-0.067730621
-0.075130022
-0.081450652
-0.087192863
-0.091940933
-0.095537289
-0.097713247
-0.098312749
-0.097263805
-0.094589932
-0.090392508
-0.084853859
-0.0782325
-0.070840611
-0.063021325
-0.055106599
-0.047372285
-0.040023187
-0.03322953
-0.027144096
-0.021762478
-0.016567465
-0.012266846
-0.0085340093
-0.0054061877
-0.0027753877
-0.00058328541
0.0012335567
0.0027217952
0.0038867997
0.0048432769
-0.021436168
-0.018460304
-0.015865476
-0.013621875
-0.011687851
-0.010019219
-0.0085798832
-0.0073401505
-0.0062692377
-0.0053263752
-0.0044867963
-0.0037225283
-0.0031071685
-0.0025936898
-0.0021475887
-0.001790172
-0.0014946878
-0.0012204934
-0.00098881043
-0.00076820866
-0.00041695043
-0.00040780878
-0.024842666
-0.028757858
-0.033250742
-0.038380673
-0.044203363
-0.050760398
-0.058066289
-0.06602995
-0.074494215
-0.082142153
-0.088434171
-0.094000287
-0.098387186
-0.1014531
-0.10294969
-0.10275788
-0.10084771
-0.097288638
-0.092225819
-0.085880592
-0.078549651
-0.070579495
-0.06232765
-0.054108344
-0.046170704
-0.038737512
-0.032019109
-0.026032101
-0.020143521
-0.015265159
-0.011010975
-0.0074344251
-0.0044210105
-0.0018866065
0.00022707272
0.0019837266
0.0034230931
0.0045598847
0.0054937731
-0.024729325
-0.021436168
-0.018550453
-0.016042351
-0.013868679
-0.011982814
-0.010347087
-0.0089286651
-0.0076976034
-0.0066027514
-0.0056290175
-0.0047205292
-0.0039880718
-0.0033534236
-0.0028179471
-0.0023694345
-0.0020049439
-0.001689426
-0.0014010116
-0.0011282274
-0.00089105207
-0.00048849964
-0.00041681848
-0.028480754
-0.03277169
-0.037671605
-0.043237587
-0.049519585
-0.056548203
-0.064322237
-0.072730995
-0.081554563
-0.08940292
-0.095587899
-0.10088847
-0.10481923
-0.10726296
-0.10799732
-0.10694536
-0.10412841
-0.099653019
-0.093712706
-0.086569051
-0.078561675
-0.070061964
-0.061414276
-0.052910098
-0.044830863
-0.037454642
-0.030826609
-0.024171699
-0.018657856
-0.013823557
-0.0097583288
-0.006320201
-0.0034254192
-0.00098730657
0.0010467536
0.0027420125
0.0041312752
0.0052394001
0.0061496245
-0.028354328
-0.024729325
-0.021537424
-0.01874924
-0.016320101
-0.014201595
-0.01235377
-0.010742715
-0.0093347528
-0.008078627
-0.0069494837
-0.0058914303
-0.0050130956
-0.0042607007
-0.0036037544
-0.0030687907
-0.0026136767
-0.0022370801
-0.0018991612
-0.001591244
-0.0012787607
-0.0010135037
-0.00056961217
-0.00042024351
-0.032464156
-0.03714282
-0.0424595
-0.048467773
-0.055209607
-0.062702667
-0.070931093
-0.079750492
-0.088882513
-0.096875528
-0.10286265
-0.10780447
-0.11118381
-0.112915
-0.11280927
-0.11083623
-0.10707472
-0.10165926
-0.094836367
-0.08692021
-0.078281923
-0.069284428
-0.060254875
-0.051537392
-0.043488959
-0.036188429
-0.028690977
-0.022475343
-0.016999942
-0.012391857
-0.0084923033
-0.0051967952
-0.0024199125
-7.9113032e-05
0.0018738958
0.0035067643
0.004846323
0.0059241012
0.0068101099
-0.032323634
-0.028354328
-0.024842666
-0.021760189
-0.019060948
-0.016694729
-0.014620132
-0.01280107
-0.011203156
-0.0097681335
-0.008475556
-0.0072402012
-0.0062114293
-0.0053128355
-0.0045365636
-0.0038828444
-0.0033441361
-0.0028777196
-0.0024845767
-0.0021216215
-0.0017892593
-0.001438304
-0.001135632
-0.00065570567
-0.00042412316
-0.036802687
-0.041877998
-0.047617548
-0.054069803
-0.0612671
-0.069213447
-0.077869338
-0.087056748
-0.096446892
-0.10451206
-0.11020409
-0.11469473
-0.11742638
-0.11835817
-0.11733989
-0.11439551
-0.10965417
-0.1032839
-0.095594716
-0.086946443
-0.07770051
-0.068208965
-0.058879144
-0.050157759
-0.042162392
-0.033741303
-0.026754526
-0.020567266
-0.015360564
-0.010948552
-0.0072188392
-0.0040644779
-0.0014062163
0.00083568271
0.0027069806
0.0042788284
0.0055659304
0.006613197
0.0074744995
-0.036647064
-0.032323634
-0.028480754
-0.025091524
-0.022108969
-0.019481253
-0.017165424
-0.015124354
-0.013321225
-0.011695174
-0.01022071
-0.0087965981
-0.0075880911
-0.0065376603
-0.0056141357
-0.0048435555
-0.0041882355
-0.0036405452
-0.0031590872
-0.002745174
-0.0023544052
-0.0019929493
-0.0016043084
-0.0012575229
-0.00074283078
-0.00043175181
-0.041503139
-0.046980519
-0.053144892
-0.0600383
-0.067682126
-0.076061283
-0.085106754
-0.094630488
-0.10420382
-0.11225655
-0.1175597
-0.12150319
-0.12349215
-0.12354423
-0.12154938
-0.11758911
-0.11183631
-0.10451965
-0.095999839
-0.086630081
-0.076764288
-0.066869419
-0.057493123
-0.048792602
-0.03936549
-0.031533787
-0.024558967
-0.018688727
-0.013711889
-0.0095001499
-0.0059378702
-0.0029250036
-0.00038698659
0.0017554208
0.003548308
0.0050548532
0.0062891873
0.007305519
0.0081420961
-0.041331425
-0.036647064
-0.032464156
-0.028757858
-0.025480546
-0.022579026
-0.020008922
-0.017731835
-0.015710212
-0.013877603
-0.01220989
-0.010573514
-0.0091713659
-0.0079409471
-0.00686359
-0.0059483368
-0.0051782685
-0.00451584
-0.0039548477
-0.003454565
-0.0030159783
-0.0025948529
-0.0022001215
-0.0017739782
-0.001379084
-0.00082764857
-0.00044483605