/*--------------------------------*- C++ -*----------------------------------*\
| =========                 |                                                 |
| \\      /  F ield         | OpenFOAM: The Open Source CFD Toolbox           |
|  \\    /   O peration     | Version:  5.0                                   |
|   \\  /    A nd           | Web:      www.OpenFOAM.org                      |
|    \\/     M anipulation  |                                                 |
\*---------------------------------------------------------------------------*/
FoamFile
{
    version     2.0;
    format      ascii;
    class       surfaceScalarField;
    location    "255";
    object      phi;
}
// * * * * * * * * * * * * * * * * * * * * * * * * * * * * * * * * * * * * * //

dimensions      [0 3 -1 0 0 0 0];

internalField   nonuniform List<scalar> 
18180
(
0.001331047
-1.3973877
0.0025757285
-1.3070869
0.0012898097
-1.3986775
0.0037330846
-1.2229534
0.0024906627
-1.3082878
0.0012458483
-1.3999233
0.0048104063
-1.1444072
0.0036127554
-1.2240755
0.0024091736
-1.3094511
0.0012060635
-1.4011294
0.0058069267
-1.0710551
0.0046578272
-1.1454523
0.0034977535
-1.2251641
0.0023337945
-1.3105789
0.0011651977
-1.4022946
0.0067270987
-1.002481
0.0056277758
-1.0720251
0.0045129986
-1.1464675
0.0033925491
-1.2262229
0.0022579204
-1.3116716
0.0011239333
-1.4034185
0.0075716431
-0.93834037
0.0065249963
-1.0033782
0.0054582491
-1.0729703
0.004384267
-1.1474593
0.003287056
-1.227252
0.0021812021
-1.3127289
0.0010803331
-1.4044988
0.0083433966
-0.87831362
0.0073509756
-0.93916635
0.0063349651
-1.0042549
0.0053121734
-1.0738982
0.0042555022
-1.1484277
0.0031812638
-1.2282521
0.0021004664
-1.313749
0.0010339957
-1.4055328
0.0090446148
-0.82211686
0.0081076467
-0.87907029
0.0071448412
-0.93997623
0.0061776846
-1.0051204
0.0051665524
-1.0748093
0.004128186
-1.1493746
0.0030700898
-1.2292217
0.002014435
-1.3147294
0.00098428083
-1.4065171
0.0096784626
-0.76948835
0.0087969903
-0.82280621
0.0078892852
-0.87981473
0.0069820663
-0.94078061
0.0060214296
-1.0059753
0.0050252561
-1.0757064
0.0039943127
-1.1502989
0.0029516075
-1.2301589
0.0019218697
-1.315667
0.00093044093
-1.4074476
0.010248692
-0.72019362
0.009421349
-0.77011271
0.0085700642
-0.82348699
0.0077262769
-0.88055894
0.0068209815
-0.94158016
0.0058737065
-1.0068238
0.0048764616
-1.0765885
0.0038518905
-1.1511991
0.0028232124
-1.2310602
0.0018214134
-1.316558
0.00087231318
-1.4083199
0.010760301
-0.67401295
0.0099834055
-0.72075568
0.0091892452
-0.77073189
0.008411482
-0.82417219
0.0075656035
-0.88130357
0.0066739238
-0.94238038
0.005717715
-1.007665
0.0047188229
-1.0774554
0.0036969718
-1.1520729
0.0026834593
-1.2319223
0.0017126033
-1.3173983
0.00080981001
-1.4091297
0.011220271
-0.63074145
0.010486524
-0.67451607
0.0097494292
-0.72131586
0.0090390959
-0.7713595
0.0082558123
-0.8248624
0.007425708
-0.88205535
0.0065179256
-0.94318059
0.0055535052
-1.0084997
0.0045463549
-1.0783048
0.0035275209
-1.152917
0.0025318657
-1.2327415
0.0015951493
-1.3181836
0.00074309246
-1.4098728
0.011638741
-0.59017874
0.010935489
-0.63119042
0.010254029
-0.67502066
0.0096109749
-0.72188774
0.0088923454
-0.77199603
0.008128849
-0.82556554
0.0072761357
-0.88281356
0.006355385
-0.94398247
0.0053723331
-1.0093257
0.0043564697
-1.0791338
0.0033422297
-1.1537273
0.0023673225
-1.2335137
0.0014693119
-1.3189098
0.00067247061
-1.4105452
0.012030086
-0.55211743
0.011338079
-0.59058133
0.010707862
-0.63164425
0.010129613
-0.6755393
0.0094764238
-0.72247182
0.0087832845
-0.77265047
0.0079913622
-0.82628077
0.0071230494
-0.88358122
0.0061739708
-0.94478411
0.0051718993
-1.0101411
0.0041475696
-1.0799391
0.0031398119
-1.1544998
0.002190241
-1.2342346
0.0013356005
-1.319573
0.00059840264
-1.4111436
0.01241348
-0.51633291
0.011707353
-0.5524867
0.011118336
-0.5909918
0.010598634
-0.63211327
0.010009931
-0.67607281
0.0093893619
-0.7230779
0.0086626614
-0.77332177
0.0078546384
-0.82701236
0.0069492538
-0.88435651
0.0059724004
-0.94558461
0.004949122
-1.0109427
0.0039172888
-1.0807166
0.0029210841
-1.1552307
0.0020011337
-1.2349002
0.0011948435
-1.3201694
0.00052146243
-1.4116651
0.012810864
-0.48257496
0.012063443
-0.516689
0.011497129
-0.5528655
0.011023909
-0.59141708
0.010495873
-0.63259922
0.0099479774
-0.67663143
0.0092894946
-0.72370473
0.0085482643
-0.77401539
0.0076954615
-0.82775856
0.0067553161
-0.88513942
0.0057452256
-0.94638071
0.0047012639
-1.0117266
0.0036666379
-1.0814621
0.0026856241
-1.1559151
0.0018011619
-1.2355065
0.0010480853
-1.320696
0.00044231674
-1.4121074
0.013243058
-0.45056905
0.012433427
-0.48294494
0.011861567
-0.51705344
0.011415391
-0.55325698
0.010939327
-0.59186053
0.01046096
-0.6331122
0.009871903
-0.67721383
0.0092023753
-0.72435884
0.0084097676
-0.7747297
0.0075171474
-0.8285204
0.0065327808
-0.88592698
0.0054899401
-0.94716939
0.0044288997
-1.0124889
0.003394438
-1.082171
0.0024354767
-1.1565495
0.0015916633
-1.2360501
0.00089656751
-1.3211503
0.00036168375
-1.4124691
0.013724471
-0.42003949
0.01284826
-0.45098389
0.01223447
-0.48331784
0.011789034
-0.51742708
0.011349036
-0.55366669
0.010931913
-0.59233149
0.010410884
-0.63365118
0.0098159405
-0.6778274
0.0090896202
-0.72503869
0.0082541354
-0.77546669
0.0073075376
-0.82929515
0.0062797823
-0.88671682
0.0052059553
-0.94794644
0.0041302734
-1.0132247
0.0031033767
-1.0828389
0.0021715405
-1.1571293
0.0013744146
-1.2365279
0.00074164963
-1.3215302
0.00028030749
-1.4127494
0.014257547
-0.3907411
0.01333585
-0.42052708
0.012641829
-0.45139124
0.012167425
-0.48369624
0.011739166
-0.51781721
0.011367785
-0.55410256
0.010909138
-0.59282974
0.010388787
-0.63422403
0.0097329889
-0.67847077
0.0089626751
-0.72574723
0.0080648476
-0.776224
0.0070658726
-0.83008124
0.0059940401
-0.88750491
0.004891288
-0.94870746
0.0038082193
-1.0139296
0.0027937116
-1.083461
0.0018965243
-1.1576514
0.0011513206
-1.2369376
0.00058477739
-1.3218347
0.00019897912
-1.4129484
0.014829791
-0.36249322
0.013912718
-0.39131796
0.013106948
-0.4209922
0.012578128
-0.45180195
0.01213008
-0.48408715
0.011780869
-0.5182303
0.011372467
-0.55456589
0.010922253
-0.59336321
0.010338695
-0.63482973
0.0096396348
-0.67914773
0.0088000985
-0.72648248
0.0078427358
-0.77700086
0.006787704
-0.83087491
0.0056735599
-0.88828718
0.0045483193
-0.94944756
0.0034625118
-1.0145984
0.0024691049
-1.0840336
0.0016122342
-1.1581124
0.00092453275
-1.2372773
0.00042747325
-1.3220632
0.00011858475
-1.413067
0.015414463
-0.33520399
0.014577209
-0.36315771
0.01364337
-0.39185439
0.013047955
-0.42146202
0.012547244
-0.45221911
0.012190109
-0.48449639
0.011811652
-0.51866948
0.011420495
-0.55506413
0.010907
-0.59393151
0.010282658
-0.63547275
0.0095091096
-0.67985674
0.0086047896
-0.72724454
0.0075807545
-0.77779391
0.0064712284
-0.83167257
0.0053198263
-0.88905868
0.0041765262
-0.95016157
0.0030972408
-1.0152265
0.0021310626
-1.0845524
0.0013217268
-1.1585096
0.00069628744
-1.2375461
0.00027131125
-1.3222159
4.0177836e-05
-1.4131072
0.015974744
-0.30887505
0.015306941
-0.33593372
0.014249024
-0.36376336
0.013595217
-0.39240165
0.013016401
-0.42193118
0.012620614
-0.45264961
0.012243909
-0.48492865
0.011892403
-0.51914139
0.011440778
-0.55559791
0.010890707
-0.59453956
0.010188433
-0.63615208
0.0093467739
-0.68059872
0.0083667314
-0.72803051
0.0072775109
-0.77860019
0.0061166703
-0.83246942
0.0049320943
-0.88981425
0.0037799543
-0.95084429
0.0027137199
-1.0158092
0.0017836252
-1.0850143
0.0010275905
-1.1588409
0.00046868234
-1.2377435
0.00011816332
-1.3222939
-3.4304353e-05
-1.4130729
0.016469976
-0.28358641
0.016061335
-0.30962944
0.014903955
-0.33658865
0.014222638
-0.36439078
0.013556468
-0.39294172
0.013099266
-0.42240983
0.012692829
-0.45309853
0.012353361
-0.48538961
0.011947326
-0.51964794
0.011465135
-0.55617234
0.01083587
-0.595187
0.010064097
-0.6368694
0.0091393706
-0.68137136
0.008085162
-0.72883817
0.0069316491
-0.77941517
0.0057230985
-0.83326042
0.0045140051
-0.8905483
0.0033597927
-0.95149036
0.002316556
-1.0163421
0.0014292426
-1.085416
0.00073289549
-1.1591051
0.00024420632
-1.2378696
-3.0469097e-05
-1.3222978
-0.00010846171
-1.4129644
0.016862162
-0.25946849
0.016788154
-0.28431323
0.015572565
-0.31029805
0.014913798
-0.33727981
0.014172397
-0.36500671
0.013647498
-0.39348995
0.013184691
-0.4229017
0.012825698
-0.45357087
0.012440269
-0.48588255
0.012011439
-0.52019424
0.011451425
-0.55678789
0.010753299
-0.5958762
0.009893007
-0.63762304
0.0088869923
-0.68217319
0.0077568805
-0.7296634
0.0065420943
-0.78023417
0.0052934512
-0.83403987
0.0040665982
-0.89125511
0.0029208713
-0.95209467
0.0019082756
-1.0168211
0.0010718956
-1.085755
0.00044007694
-1.1593009
2.4385441e-05
-1.2379244
-0.00017528137
-1.3222309
-0.00018013215
-1.4127843
0.017121284
-0.23666859
0.017431862
-0.2601122
0.016209515
-0.28495018
0.01563439
-0.31101864
0.014850874
-0.33795829
0.01427349
-0.36563271
0.013741738
-0.39404699
0.0133356
-0.4234116
0.012940388
-0.45407099
0.012541327
-0.48641244
0.012038967
-0.52078178
0.011412933
-0.55744753
0.010623002
-0.59660619
0.009676272
-0.63841232
0.0085843681
-0.68300068
0.007380725
-0.73050203
0.0061108163
-0.78105153
0.0048285525
-0.83480182
0.0035946469
-0.89192888
0.0024658369
-0.95265223
0.0014935129
-1.0172427
0.00071433954
-1.0860293
0.00015176728
-1.1594283
-0.00018955225
-1.2379101
-0.00031452217
-1.3220965
-0.00024777526
-1.4125365
0.017228612
-0.21531985
0.017941674
-0.2371784
0.016767272
-0.26066996
0.016337782
-0.28565357
0.015560599
-0.31172837
0.014966956
-0.33865175
0.01437428
-0.36626525
0.013906701
-0.3946181
0.013473152
-0.42394436
0.013073915
-0.45460358
0.012608326
-0.4869818
0.012045136
-0.52141399
0.011326557
-0.55815108
0.010447188
-0.59737711
0.0094064267
-0.63923438
0.0082303195
-0.68385027
0.0069574634
-0.73134868
0.0056383534
-0.78186133
0.0043328688
-0.83554004
0.0031008553
-0.8925639
0.0019997647
-0.95315849
0.0010754318
-1.0176038
0.00036011407
-1.0862376
-0.00012997266
-1.1594879
-0.0003957492
-1.2378289
-0.0004472213
-1.3218971
-0.00031131444
-1.4122252
0.017177347
-0.19552053
0.01827798
-0.21565616
0.017202905
-0.23761404
0.016973123
-0.2613053
0.016256939
-0.28634991
0.015698662
-0.31246008
0.015074776
-0.33935225
0.014551949
-0.36691049
0.014062781
-0.39520772
0.013633889
-0.42450433
0.013176818
-0.45517207
0.012657769
-0.48759443
0.012004176
-0.5220916
0.011195573
-0.55889947
0.010216148
-0.59818683
0.0090823389
-0.64008639
0.007824223
-0.68471703
0.0064872897
-0.73219761
0.005128627
-0.78265709
0.0038090482
-0.83624824
0.0025905355
-0.89315467
0.0015262091
-0.95360926
0.00065833912
-1.0179021
1.1949019e-05
-1.0863795
-0.00040272733
-1.1594809
-0.00059280354
-1.2376833
-0.0005723395
-1.3216361
-0.00037025413
-1.4118549
0.016968847
-0.1773192
0.018416742
-0.19565929
0.017483264
-0.21593652
0.017492775
-0.23813369
0.016889084
-0.26193745
0.016424755
-0.287076
0.015816374
-0.31320167
0.01526689
-0.34006719
0.014724063
-0.36757178
0.01424604
-0.39581988
0.013768016
-0.42509553
0.013266217
-0.45578052
0.012661792
-0.48825204
0.011920275
-0.52281631
0.011008084
-0.5596914
0.009928851
-0.59903334
0.0087018493
-0.64096402
0.0073658829
-0.68559563
0.0059733591
-0.73304234
0.0045841
-0.78343214
0.0032624338
-0.83692014
0.0020675508
-0.89369601
0.0010501024
-0.95400103
0.00024557931
-1.0181357
-0.00032706174
-1.0864552
-0.00066459516
-1.1594091
-0.00077932879
-1.2374763
-0.00068918545
-1.3213171
-0.00042457525
-1.4114303
0.016615056
-0.16072662
0.01835329
-0.17725574
0.017588561
-0.19576459
0.017858177
-0.21630192
0.017408991
-0.23865359
0.017094081
-0.26260677
0.016556534
-0.28781616
0.016027226
-0.31396201
0.015455051
-0.34079818
0.014927057
-0.36825279
0.014406826
-0.39645869
0.013892778
-0.42572209
0.013312797
-0.45643152
0.012625261
-0.48895703
0.011779514
-0.52358774
0.010763179
-0.56052573
0.0095815127
-0.59991301
0.0082643464
-0.64186248
0.0068574924
-0.68647976
0.0054178185
-0.73387606
0.0040099323
-0.78417964
0.0026970734
-0.83754966
0.0015373167
-0.89418323
0.00057537808
-0.95433083
-0.00015902876
-1.0183037
-0.00065442085
-1.0864654
-0.00091369991
-1.1592748
-0.00095430155
-1.2372112
-0.00079727807
-1.3209444
-0.00047409166
-1.4109563
0.014485143
-0.17077291
0.018090685
-0.16046402
0.017515044
-0.17718223
0.018042047
-0.19594846
0.017777691
-0.21667062
0.017656546
-0.23921606
0.017244426
-0.26329466
0.0167916
-0.28858054
0.016233766
-0.31474073
0.015677626
-0.34154875
0.015111395
-0.36895736
0.01456229
-0.3971282
0.013977994
-0.42638729
0.013321841
-0.4571281
0.012532497
-0.48971001
0.011581078
-0.52440564
0.010455418
-0.56139964
0.0091730893
-0.60082175
0.0077708955
-0.64277589
0.0063007607
-0.6873627
0.0048254301
-0.73469156
0.0034102067
-0.78489278
0.0021187078
-0.83813105
0.0010042949
-0.89461215
0.00010656027
-0.95459641
-0.00055234513
-1.0184058
-0.00096766227
-1.0864114
-0.0011485962
-1.1590805
-0.0011168925
-1.2368916
-0.00089629529
-1.3205222
-0.00051883432
-1.4104374
0.012638842
-0.1649942
0.016099683
-0.16878191
0.017264489
-0.16021346
0.018026783
-0.17716696
0.017969373
-0.19614014
0.018069759
-0.21708383
0.017828685
-0.23980032
0.01750849
-0.26401155
0.017020288
-0.28936706
0.016478186
-0.31554129
0.01588473
-0.34232208
0.015294227
-0.3696893
0.014681836
-0.39783204
0.014029158
-0.42709461
0.013276237
-0.45787184
0.012382718
-0.49051165
0.011317901
-0.52526812
0.010083315
-0.56230986
0.0087033928
-0.60175425
0.0072226636
-0.64369779
0.0056998468
-0.68823712
0.0042001493
-0.7354815
0.0027908094
-0.78556488
0.0015322297
-0.83865898
0.00047366069
-0.89497925
-0.00035254492
-0.95479622
-0.00093122876
-1.0184422
-0.0012648185
-1.0862952
-0.0013680533
-1.1588293
-0.0012665514
-1.2365214
-0.00098610343
-1.320055
-0.00055879311
-1.4098786
0.010986241
-0.15920756
0.014347003
-0.16324152
0.015346968
-0.16686439
0.017815256
-0.16000194
0.01797275
-0.17717034
0.018303217
-0.1963736
0.018265096
-0.21752025
0.018124948
-0.24041678
0.017763321
-0.26475459
0.017290187
-0.29017906
0.016709595
-0.31636615
0.016093868
-0.34312172
0.01544479
-0.37045225
0.014771058
-0.39857394
0.014028075
-0.42784645
0.013175161
-0.45866429
0.012167323
-0.49136107
0.010988037
-0.52617284
0.0096453411
-0.56325181
0.0081729578
-0.60270454
0.006623017
-0.64462096
0.0050584121
-0.68909538
0.0035478108
-0.7362385
0.0021569341
-0.78618958
0.00094337384
-0.8391287
-5.0107505e-05
-0.89528168
-0.00079806213
-0.95492938
-0.0012930956
-1.018414
-0.0015441612
-1.0861191
-0.0015711992
-1.1585247
-0.0014029393
-1.2361045
-0.0010666733
-1.3195471
-0.00059407191
-1.4092846
0.009444773
-0.15358805
0.012723725
-0.15758428
0.013661995
-0.16155654
0.015972215
-0.16502135
0.017787232
-0.15981642
0.01833957
-0.17720669
0.018521792
-0.1966303
0.018594391
-0.21798969
0.018408855
-0.24106231
0.018062303
-0.2655267
0.017548939
-0.2910184
0.016946309
-0.31721859
0.016274179
-0.34395111
0.015568802
-0.37125
0.014811003
-0.39935687
0.013973815
-0.4286451
0.013008631
-0.4595056
0.011883893
-0.49225693
0.01058858
-0.52711608
0.009141329
-0.56422018
0.0075841975
-0.60366572
0.0059751645
-0.64553771
0.0043820356
-0.68992961
0.0028737526
-0.73695532
0.0015147489
-0.78676096
0.00035725075
-0.83953606
-0.00056239273
-0.89551735
-0.0012267123
-0.95499577
-0.0016356148
-1.0183225
-0.0018043921
-1.0858859
-0.0017574206
-1.1581702
-0.0015259269
-1.2356453
-0.0011381166
-1.319003
-0.00062478039
-1.4086598
0.0079467132
-0.14831954
0.011137517
-0.15200184
0.012107556
-0.15602984
0.014337012
-0.15992134
0.016016768
-0.16325088
0.018176964
-0.15965381
0.018581612
-0.17726651
0.018882037
-0.19691794
0.018908424
-0.21848926
0.018739267
-0.24173927
0.018351657
-0.26632942
0.01781598
-0.29188807
0.017157341
-0.31810175
0.01643164
-0.34481395
0.015646807
-0.3720858
0.014800609
-0.40018366
0.013855208
-0.42949168
0.012773739
-0.46039544
0.011528144
-0.49319649
0.010118601
-0.52809335
0.0085726048
-0.56520859
0.0069397194
-0.60463028
0.0052842255
-0.6464399
0.0036760239
-0.69073188
0.0021844185
-0.73762499
0.00086991191
-0.78727362
-0.00022079943
-0.83987765
-0.0010591668
-0.8956849
-0.0016354693
-0.95499591
-0.0019569486
-1.0181699
-0.0020445228
-1.0855988
-0.0019263936
-1.1577697
-0.0016355688
-1.2351478
-0.0012006254
-1.3184272
-0.00065109018
-1.4080087
0.0064420653
-0.14358494
0.0095158391
-0.14669787
0.01059442
-0.1504887
0.012803286
-0.15449612
0.014436899
-0.15834147
0.016463534
-0.16153745
0.018440901
-0.1595131
0.018967503
-0.17735198
0.019225133
-0.19723465
0.01927055
-0.21902054
0.019061457
-0.24244907
0.018651919
-0.26716536
0.018060223
-0.29279096
0.017349124
-0.31901924
0.01654647
-0.34571361
0.015677638
-0.37296283
0.014727724
-0.40105618
0.013668857
-0.43038679
0.012464866
-0.46133216
0.011098346
-0.49417624
0.0095782396
-0.52909899
0.0079410446
-0.56620991
0.0062439921
-0.60559004
0.0045552917
-0.64731917
0.0029469141
-0.69149437
0.0014858909
-0.73824097
0.00022843223
-0.78772285
-0.00078598674
-0.84015083
-0.0015366319
-0.89578374
-0.0020218453
-0.95493101
-0.0022556166
-1.0179589
-0.0022639286
-1.0852612
-0.0020780361
-1.1573272
-0.0017320739
-1.2346164
-0.0012544871
-1.3178238
-0.00067319027
-1.4073355
0.0049000564
-0.13955675
0.0078095421
-0.14187865
0.0090513346
-0.14515478
0.011278554
-0.14896397
0.012942714
-0.15300193
0.014919561
-0.1567975
0.016785259
-0.15988181
0.018845602
-0.1593912
0.019336753
-0.1774636
0.019616871
-0.19758097
0.019625942
-0.21958503
0.019396687
-0.24319384
0.018932082
-0.26803722
0.018288722
-0.29373055
0.017501692
-0.31997446
0.016617475
-0.34665345
0.015648351
-0.37388346
0.01458849
-0.40197581
0.013407901
-0.43132983
0.012079467
-0.46231328
0.010593389
-0.49519139
0.008968529
-0.53012647
0.0072502935
-0.56721622
0.0055017086
-0.60653646
0.0037947951
-0.64816705
0.0022010593
-0.69220954
0.00078474653
-0.73879729
-0.00040416929
-0.78810467
-0.001333698
-0.84035376
-0.0019915574
-0.89581402
-0.0023837484
-0.95480288
-0.0025305732
-1.0176922
-0.0024622907
-1.084877
-0.0022124889
-1.1568468
-0.0018157888
-1.2340551
-0.0013000497
-1.3171969
-0.00069130271
-1.4066442
0.0033083293
-0.13638697
0.0059947922
-0.137742
0.0074298076
-0.14025712
0.0096900686
-0.14356629
0.011441672
-0.14746293
0.013439214
-0.15152158
0.015283653
-0.15529589
0.017237003
-0.15827321
0.019235991
-0.15929044
0.019753728
-0.17760046
0.020003646
-0.19795867
0.019995891
-0.22018423
0.019714385
-0.24397615
0.01919988
-0.26894838
0.018481479
-0.29471034
0.017613931
-0.32097091
0.016631082
-0.34763618
0.015554675
-0.37484964
0.01437492
-0.40294283
0.013068988
-0.43231935
0.011615154
-0.46333505
0.010013372
-0.49623623
0.0082921408
-0.53116832
0.00650447
-0.56821898
0.0047189929
-0.60746066
0.0030091819
-0.64897517
0.0014454614
-0.69287026
8.7180942e-05
-0.73928864
-0.0010224578
-0.78841591
-0.0018598867
-0.84048543
-0.0024211272
-0.89577664
-0.0027195855
-0.95461387
-0.0027811444
-1.0173734
-0.0026395837
-1.0844499
-0.0023300846
-1.1563325
-0.0018871705
-1.2334679
-0.0013377207
-1.3165505
-0.00070566221
-1.4059385
0.0016701926
-0.13419824
0.0040718009
-0.13446398
0.0057052656
-0.13601746
0.0079894083
-0.13855646
0.0098605888
-0.14198521
0.011929667
-0.14595338
0.013828322
-0.15006625
0.015764304
-0.15382319
0.017675766
-0.15671298
0.019672337
-0.15920905
0.020167964
-0.17776477
0.020405789
-0.19836857
0.020350757
-0.2208206
0.020022865
-0.24479913
0.019435495
-0.26990239
0.018637574
-0.29573398
0.017671791
-0.32201162
0.016582689
-0.34866419
0.015387634
-0.37586236
0.014082887
-0.40395673
0.012648467
-0.43335266
0.011071037
-0.46439271
0.009359874
-0.49730397
0.0075524568
-0.5322163
0.0057091903
-0.56920917
0.0039021912
-0.60835367
0.0022057098
-0.64973542
0.0006868857
-0.69346996
-0.00060060254
-0.73971049
-0.0016215314
-0.78865426
-0.0023609212
-0.84054564
-0.0028230761
-0.89567315
-0.003028198
-0.95436682
-0.0030070237
-1.0170059
-0.0027960369
-1.0839839
-0.0024313211
-1.1557884
-0.0019467689
-1.2328589
-0.0013679435
-1.3158882
-0.00071651914
-1.405222
-0.13307654
1.1495387e-08
0.0020615128
-0.13218796
0.0038768813
-0.1326356
0.0061548541
-0.13418291
0.0081511418
-0.13684701
0.010317236
-0.14037278
0.01232274
-0.1444478
0.014319108
-0.14862106
0.016234907
-0.15238233
0.018154021
-0.15519467
0.020108116
-0.1591492
0.020597721
-0.17795671
0.020795187
-0.198813
0.020699152
-0.22149689
0.020302789
-0.24566642
0.019638268
-0.27090309
0.018742642
-0.29680484
0.017670446
-0.32309938
0.016462452
-0.34973901
0.015142371
-0.37692184
0.013707531
-0.40501579
0.012144431
-0.43442606
0.010447511
-0.46548035
0.0086353967
-0.49838691
0.0067543986
-0.53326151
0.0048705033
-0.57017749
0.0030586262
-0.60920658
0.0013915653
-0.6504401
-6.7765285e-05
-0.6940028
-0.0012728418
-0.74005918
-0.0021968787
-0.7888183
-0.0028337509
-0.84053496
-0.0031956279
-0.89550572
-0.0033088691
-0.95406497
-0.0032082289
-1.0165937
-0.0029321073
-1.0834832
-0.002516833
-1.1552183
-0.0019952007
-1.2322316
-0.0013911934
-1.3152136
-0.00072412868
-1.4044979
-0.13101504
9.791949e-09
-0.13307654
-0.0016701698
0.0019639124
-0.13027499
0.0041908096
-0.13067155
0.0062925444
-0.13232431
0.0085533293
-0.13508311
0.010691484
-0.13874152
0.012803239
-0.14293193
0.01480188
-0.14718803
0.016737794
-0.15096611
0.01863186
-0.15371841
0.020559466
-0.15911094
0.021016986
-0.1781785
0.021180262
-0.19929411
0.021022609
-0.22221671
0.020553738
-0.2465819
0.019793729
-0.27195417
0.018791771
-0.29792616
0.017599318
-0.32423625
0.016264857
-0.3508615
0.014812888
-0.3780272
0.013245932
-0.40611729
0.011556044
-0.43553459
0.0097460851
-0.46659104
0.0078439975
-0.4994765
0.0059035206
-0.53429453
0.0039955925
-0.57111445
0.0021957318
-0.61001075
0.00057423498
-0.6510821
-0.00081193335
-0.69446371
-0.001924116
-0.74033194
-0.0027445732
-0.78890748
-0.0032758544
-0.84045474
-0.0035375189
-0.89527707
-0.003561281
-0.95371192
-0.0033850758
-1.0161408
-0.0030484425
-1.0829515
-0.0025873609
-1.1546262
-0.002033137
-1.2315897
-0.0014079611
-1.3145297
-0.00072874957
-1.4037691
-0.12905113
8.3050928e-09
-0.13101504
-0.0020614934
-0.13419824
-0.0033083067
0.002124533
-0.12820871
0.0042911433
-0.12867015
0.0066182808
-0.13038926
0.0088859545
-0.13327758
0.011139608
-0.13707789
0.013276978
-0.14140703
0.015311264
-0.1457615
0.017241243
-0.14957549
0.019122691
-0.15228164
0.021002357
-0.15909632
0.021433306
-0.17843155
0.021543905
-0.19981541
0.021320813
-0.22298378
0.02076139
-0.24754956
0.019897019
-0.27305942
0.018773803
-0.29910064
0.017452324
-0.32542371
0.015982841
-0.35203145
0.014395277
-0.37917654
0.012696009
-0.40725726
0.010883748
-0.43667225
0.0089698111
-0.46771685
0.0069905516
-0.50056354
0.0050066615
-0.5353056
0.003091946
-0.57201067
0.0013214186
-0.61075793
-0.00023901148
-0.65165502
-0.0015392951
-0.69484853
-0.0025495653
-0.74052695
-0.0032612371
-0.7889221
-0.0036852841
-0.84030697
-0.0038479583
-0.8949904
-0.0037854905
-0.9533115
-0.0035381358
-1.0156511
-0.0031458455
-1.0823931
-0.0026437312
-1.1540156
-0.0020612808
-1.2309364
-0.0014187465
-1.3138397
-0.00073063816
-1.4030385
-0.12692661
7.5250135e-09
-0.12905113
-0.0019638958
-0.13218795
-0.0040717817
-0.13638697
-0.0049000343
0.0021774159
-0.12609498
0.0045213898
-0.12657326
0.006887967
-0.12839128
0.0092790231
-0.13141699
0.011581881
-0.1353828
0.013772715
-0.13986848
0.015821552
-0.14434181
0.017754414
-0.14820721
0.019605748
-0.15088503
0.021443042
-0.15910605
0.021831471
-0.17871911
0.021885654
-0.20038025
0.021579876
-0.22380227
0.020921054
-0.24857359
0.019936607
-0.27422223
0.018682223
-0.30033054
0.017221434
-0.32666231
0.015611546
-0.35324772
0.013886223
-0.38036676
0.012057094
-0.4084306
0.010129478
-0.43783192
0.0081227204
-0.46884902
0.006081351
-0.50163823
0.0040711577
-0.53628481
0.0021677136
-0.57285696
0.00044355004
-0.61144049
-0.0010410174
-0.6521533
-0.0022440346
-0.69515406
-0.0031448694
-0.74064332
-0.00374411
-0.78886327
-0.0040606333
-0.8400943
-0.0041266112
-0.89464928
-0.0039818846
-0.95286776
-0.0036681953
-1.0151287
-0.0032252471
-1.0818115
-0.0026868275
-1.15339
-0.0020803556
-1.2302748
-0.0014240488
-1.3131463
-0.00073004614
-1.4023084
-0.1247492
6.8092039e-09
-0.12692661
-0.0021245181
-0.13027498
-0.0038768651
-0.13446397
-0.0059947735
-0.13955675
-0.0064420437
0.0022974633
-0.12387106
0.0047106133
-0.12439591
0.007204801
-0.12631705
0.009667395
-0.12950251
0.012042252
-0.13365233
0.014269249
-0.13831618
0.016339003
-0.1429264
0.018260725
-0.14686219
0.020084808
-0.14952679
0.02186834
-0.15914292
0.02221057
-0.17904403
0.022192357
-0.20099273
0.021795321
-0.22467654
0.021021068
-0.24965805
0.019905718
-0.27544572
0.018508165
-0.30161727
0.016900888
-0.32795165
0.015146442
-0.35450794
0.01328393
-0.38159359
0.011329937
-0.40963106
0.0092962926
-0.43900549
0.0072103729
-0.46997804
0.0051233721
-0.50269044
0.0031051966
-0.53722229
0.0012311875
-0.5736446
-0.00042999204
-0.61205152
-0.0018250309
-0.65257231
-0.0029208405
-0.69537809
-0.003706346
-0.74068108
-0.0041910293
-0.78873288
-0.0044010313
-0.83981988
-0.0043735535
-0.89425761
-0.0041511362
-0.95238481
-0.0037762233
-1.0145777
-0.0032876709
-1.0812107
-0.0027175732
-1.1527528
-0.0020910903
-1.2296077
-0.0014243602
-1.312452
-0.00072721774
-1.4015812
-0.12245174
6.3422873e-09
-0.1247492
-0.0021774025
-0.1282087
-0.004190795
-0.13263559
-0.0057052498
-0.13774199
-0.007809524
-0.14358493
-0.0079466923
0.0023943485
-0.12155479
0.0049329483
-0.12212405
0.0075179167
-0.12416757
0.010070037
-0.12753029
0.012503226
-0.13188631
0.014771123
-0.1367483
0.016850323
-0.14151599
0.018761895
-0.14553928
0.020549429
-0.14820788
0.022276915
-0.15920927
0.022558474
-0.17941015
0.0224597
-0.20165711
0.021955624
-0.22561109
0.021054593
-0.25080693
0.019794843
-0.2767324
0.018245067
-0.30296145
0.016484975
-0.32929018
0.01458459
-0.3558086
0.012587917
-0.38285157
0.010516528
-0.4108513
0.0083888612
-0.44018398
0.0062391856
-0.47109386
0.0041246289
-0.50370987
0.0021173071
-0.53810841
0.00029085102
-0.57436544
-0.0012915908
-0.61258496
-0.0025847366
-0.65290841
-0.0035650276
-0.69551941
-0.0042309484
-0.74064116
-0.0046004405
-0.78853347
-0.0047061018
-0.83948733
-0.0045892281
-0.89381951
-0.0042941671
-0.95186687
-0.0038633279
-1.0140021
-0.0033342088
-1.0805941
-0.0027369104
-1.152107
-0.0020942094
-1.2289379
-0.0014201606
-1.3117591
-0.00072238725
-1.4008588
-0.1200574
5.9989247e-09
-0.12245174
-0.0022974507
-0.12609498
-0.0042911301
-0.13067154
-0.0061548399
-0.13601745
-0.0074297923
-0.14187864
-0.0095158218
-0.14831953
-0.0094447527
0.0025089318
-0.11913077
0.0051527365
-0.11975887
0.0078418025
-0.12193934
0.01047331
-0.12550038
0.012968178
-0.13008336
0.015267466
-0.13516544
0.017356001
-0.1401101
0.019249879
-0.14423973
0.020998195
-0.14692916
0.022657695
-0.15930849
0.022870895
-0.17982134
0.022676559
-0.20237804
0.022054047
-0.22661055
0.021011732
-0.25202382
0.019596788
-0.27808412
0.017886111
-0.30436259
0.015969609
-0.3306752
0.013924241
-0.35714493
0.011799035
-0.38413408
0.0096205229
-0.41208296
0.0074128664
-0.44135766
0.0052167901
-0.47218602
0.003093681
-0.50468625
0.0011164032
-0.53893397
-0.00064494197
-0.57501209
-0.0021339583
-0.61303574
-0.0033144066
-0.65315903
-0.0041725606
-0.69557779
-0.0047162965
-0.74052531
-0.0049713655
-0.7882682
-0.0049759233
-0.83910063
-0.0047744044
-0.89333928
-0.004412098
-0.9513181
-0.0039307259
-1.0134056
-0.0033659938
-1.079965
-0.0027457853
-1.1514554
-0.0020904233
-1.2282676
-0.0014119118
-1.3110695
-0.00071577693
-1.4001431
-0.11754847
5.7747963e-09
-0.1200574
-0.0023943365
-0.12387105
-0.0045213775
-0.12867014
-0.0062925317
-0.1341829
-0.0079893947
-0.14025711
-0.0090513198
-0.14669785
-0.0111375
-0.15358804
-0.010986221
0.0026222006
-0.11660024
0.0053797179
-0.11729679
0.0081661546
-0.11963218
0.010879271
-0.12341147
0.013428229
-0.12824413
0.015758415
-0.13356785
0.01784985
-0.13871007
0.019722606
-0.14296414
0.021421477
-0.14569294
0.023006395
-0.15944399
0.023137336
-0.18028212
0.0228364
-0.2031604
0.022080591
-0.22767941
0.020884886
-0.25331191
0.019303791
-0.2795018
0.017426103
-0.30581908
0.015351735
-0.33210269
0.013165041
-0.35851093
0.010919829
-0.38543338
0.0086467253
-0.41331682
0.0063753647
-0.44251624
0.0041515652
-0.4732439
0.0020396715
-0.50560951
0.00011144773
-0.53969036
-0.0015680048
-0.57557804
-0.0029503234
-0.61339982
-0.0040089429
-0.65332265
-0.0047401069
-0.69555398
-0.0051606584
-0.74033601
-0.0053033688
-0.78794076
-0.0052109871
-0.83866405
-0.004930123
-0.89282125
-0.0045062117
-0.95074261
-0.0039797093
-1.0127918
-0.0033841804
-1.0793266
-0.0027451339
-1.1508007
-0.0020804182
-1.2275991
-0.0014000537
-1.3103853
-0.00070760037
-1.3994355
-0.11492628
5.5418587e-09
-0.11754847
-0.0025089205
-0.12155478
-0.0047106017
-0.12657325
-0.0066182689
-0.1323243
-0.0081511296
-0.13855645
-0.0096900556
-0.14515477
-0.010594406
-0.15200183
-0.012723709
-0.15920755
-0.012638823
0.002739099
-0.11395962
0.0056070602
-0.1147377
0.0084923674
-0.11724528
0.011281428
-0.12126467
0.013883426
-0.12636914
0.016238603
-0.13195661
0.01832934
-0.13731681
0.020172525
-0.14171519
0.021815382
-0.14450193
0.023313206
-0.15961986
0.023351477
-0.1807972
0.0229294
-0.2040092
0.022027498
-0.22882202
0.020665592
-0.25467371
0.018909669
-0.28098537
0.016860682
-0.30732803
0.014629718
-0.33356737
0.012308325
-0.35989943
0.0099541054
-0.38674076
0.0076014507
-0.41454291
0.0052843544
-0.44364903
0.0030526736
-0.4742569
0.00097199769
-0.50647006
-0.00088862313
-0.54036974
-0.0024705667
-0.5760578
-0.003734494
-0.61367427
-0.0046639615
-0.65339879
-0.0052650391
-0.6954496
-0.0055629297
-0.74007645
-0.0055965213
-0.78755522
-0.0054121406
-0.83818203
-0.005057654
-0.89226981
-0.004577912
-0.95014441
-0.0040116179
-1.0121644
-0.0033899228
-1.0786818
-0.0027358655
-1.1501452
-0.0020648515
-1.2269343
-0.0013850115
-1.3097079
-0.00069805415
-1.3987374
-0.11218719
5.2055859e-09
-0.11492628
-0.0026221898
-0.11913077
-0.0049329371
-0.1243959
-0.0068879558
-0.13038925
-0.008553318
-0.136847
-0.0098605772
-0.14356628
-0.011278542
-0.15048869
-0.012107542
-0.15758427
-0.014346987
-0.16499419
-0.014485124
0.0028561831
-0.11120874
0.0058355631
-0.11208089
0.0088157028
-0.11477956
0.011679177
-0.11906042
0.014329103