/*--------------------------------*- C++ -*----------------------------------*\
| =========                 |                                                 |
| \\      /  F ield         | OpenFOAM: The Open Source CFD Toolbox           |
|  \\    /   O peration     | Version:  5.0                                   |
|   \\  /    A nd           | Web:      www.OpenFOAM.org                      |
|    \\/     M anipulation  |                                                 |
\*---------------------------------------------------------------------------*/
FoamFile
{
    version     2.0;
    format      ascii;
    class       volVectorField;
    location    "255";
    object      U;
}
// * * * * * * * * * * * * * * * * * * * * * * * * * * * * * * * * * * * * * //

dimensions      [0 1 -1 0 0 0 0];

internalField   nonuniform List<vector> 
9200
(
(1.0425397 -0.00054204025 -4.464225e-24)
(1.0428504 -0.0016526218 -9.4828354e-21)
(1.0440966 -0.00053914023 0)
(1.043447 -0.002635362 4.8756835e-21)
(1.0444021 -0.0016623653 -7.3091174e-21)
(1.0448011 -0.00053596403 0)
(1.044203 -0.0035899779 4.8779894e-22)
(1.0449935 -0.0026411212 -3.4177581e-22)
(1.0451058 -0.0016694562 0)
(1.0458276 -0.00053181586 0)
(1.0451076 -0.0044495141 -9.3302434e-21)
(1.045743 -0.0036058289 -5.4539315e-21)
(1.0456971 -0.0026487744 -4.0728997e-21)
(1.0461308 -0.0016804673 -2.5040531e-22)
(1.0466624 -0.00052642301 -3.3483945e-25)
(1.0460956 -0.0052595436 -8.6335027e-21)
(1.0466334 -0.0044693178 6.6683489e-22)
(1.0464427 -0.0036229096 -1.3150121e-20)
(1.0467247 -0.0026597435 -4.9922146e-21)
(1.0469667 -0.00168877 3.4194648e-23)
(1.0475402 -0.00051891403 1.0168607e-20)
(1.0471382 -0.0059970779 -8.077773e-21)
(1.0476034 -0.0052892975 -9.0534157e-21)
(1.047328 -0.0044926716 7.9448878e-21)
(1.0474706 -0.0036483103 4.7681844e-22)
(1.0475643 -0.0026678034 -5.0293732e-21)
(1.0478489 -0.0016948926 -4.8968787e-21)
(1.0483547 -0.00050893896 -7.7443629e-22)
(1.0481972 -0.0066765968 -3.5021916e-21)
(1.0486203 -0.0060355742 -6.3219678e-21)
(1.0482899 -0.0053233921 -8.6620661e-21)
(1.0483548 -0.0045294223 1.7866335e-22)
(1.0483121 -0.0036701724 1.2022046e-20)
(1.0484558 -0.0026718385 5.237039e-21)
(1.0486686 -0.0016956339 6.1807936e-21)
(1.0491485 -0.00049592289 -9.3680951e-21)
(1.0492475 -0.0072940038 9.7627478e-21)
(1.0496474 -0.006726127 -7.3308658e-21)
(1.0492958 -0.0060806556 2.6699298e-22)
(1.0493122 -0.0053786245 -4.3960803e-21)
(1.0491973 -0.004562988 3.3015383e-22)
(1.0492134 -0.0036889617 1.8466682e-20)
(1.0492853 -0.0026677067 -3.3213726e-21)
(1.0494727 -0.0016897341 1.028307e-20)
(1.0499021 -0.00047947303 1.9565756e-20)
(1.0502664 -0.0078542382 -7.3263906e-21)
(1.0506586 -0.0073547199 3.664889e-21)
(1.0503085 -0.0067843157 1.9852283e-22)
(1.0503099 -0.0061558247 -8.7021553e-22)
(1.0501531 -0.0054312167 1.5317617e-21)
(1.0501088 -0.0045953326 3.9325787e-22)
(1.0500541 -0.0036976529 -6.4592198e-21)
(1.0501062 -0.0026527226 -1.1075124e-20)
(1.0502382 -0.0016751995 -6.0285149e-21)
(1.0506186 -0.00045902306 -1.5186865e-21)
(1.0512364 -0.0083590838 3.3736043e-21)
(1.0516322 -0.0079266815 -1.564977e-22)
(1.0513019 -0.0074269183 -5.9019078e-21)
(1.0513098 -0.0068832797 6.0200937e-21)
(1.051146 -0.0062295137 -8.4968993e-21)
(1.0510734 -0.0054863858 1.8811892e-20)
(1.0509612 -0.0046165093 6.7232519e-23)
(1.0508962 -0.0036930093 -1.7900956e-20)
(1.0508902 -0.0026238733 8.6511056e-21)
(1.0509699 -0.0016498778 -1.797731e-20)
(1.0512929 -0.00043428832 2.5515989e-21)
(1.0521405 -0.0088124358 -1.4069101e-22)
(1.0525513 -0.0084427625 1.1823741e-21)
(1.0522543 -0.0080140571 4.9923608e-21)
(1.0522859 -0.0075517523 0)
(1.0521374 -0.0069821742 -1.1169049e-22)
(1.0520724 -0.0063111026 -2.4550679e-22)
(1.0519362 -0.0055298983 3.8275549e-21)
(1.051827 -0.0046232583 9.0805737e-21)
(1.0517024 -0.0036702281 6.1165005e-22)
(1.0516449 -0.0025783338 1.0687318e-20)
(1.0516624 -0.0016124041 6.9977823e-21)
(1.0519222 -0.00040500691 -1.5339298e-21)
(1.0529562 -0.0092189651 -1.2891237e-22)
(1.0534016 -0.0089059768 7.5655852e-22)
(1.0531491 -0.0085462022 0)
(1.0532164 -0.0081669185 0)
(1.0531009 -0.0076781882 3.0844783e-21)
(1.0530663 -0.0070959988 -3.9295387e-21)
(1.0529436 -0.006381182 8.2546041e-21)
(1.0528261 -0.0055594954 -1.031199e-20)
(1.052658 -0.0046088434 -9.0293348e-22)
(1.0524907 -0.0036254297 -1.1590504e-23)
(1.0523639 -0.002513804 -1.2057436e-20)
(1.0523128 -0.0015613262 1.2091642e-20)
(1.0525033 -0.00037102799 -2.2622106e-20)
(1.0536399 -0.0095853366 4.1503848e-22)
(1.0541659 -0.0093194944 -1.6137984e-22)
(1.0539725 -0.0090265484 2.7873925e-21)
(1.0540852 -0.0087284026 -3.0950978e-21)
(1.0540146 -0.0083231813 3.2885077e-21)
(1.0540283 -0.0078280506 -8.2640218e-22)
(1.0539425 -0.0071989173 -2.7425549e-21)
(1.0538556 -0.0064394128 3.0695189e-23)
(1.053683 -0.0055657392 -1.0108989e-20)
(1.0534847 -0.0045681907 -9.3412392e-21)
(1.0532464 -0.0035552904 -3.4071538e-21)
(1.0530448 -0.002427682 -9.2513285e-21)
(1.0529176 -0.001495605 -6.0051866e-21)
(1.053033 -0.00033228384 5.9089712e-21)
(1.0541007 -0.0099222446 4.7356691e-21)
(1.0548114 -0.0096882481 -3.4226176e-21)
(1.0547088 -0.0094584169 1.277365e-21)
(1.0548795 -0.0092388601 5.253993e-23)
(1.0548627 -0.0089159458 -7.8071275e-24)
(1.0549361 -0.0085127536 8.0157815e-22)
(1.0549056 -0.0079679512 -2.6513039e-21)
(1.0548731 -0.0072938506 3.5243281e-21)
(1.054738 -0.006473033 -7.8568003e-23)
(1.0545497 -0.0055431631 1.0094033e-21)
(1.0542794 -0.0044972936 2.1094058e-22)
(1.0539708 -0.0034561939 1.2531931e-21)
(1.0536837 -0.0023185197 1.1567189e-20)
(1.0534736 -0.0014144433 -5.2327865e-21)
(1.0535086 -0.0002887993 4.047092e-21)
(1.0541651 -0.010241431 -1.5418715e-21)
(1.0552656 -0.010021484 3.5886753e-21)
(1.0553293 -0.009846863 -1.3416061e-21)
(1.0555863 -0.0097007487 2.8740003e-21)
(1.0556332 -0.0094587075 -3.1585634e-21)
(1.0557738 -0.0091478235 8.1277648e-21)
(1.0558101 -0.0086934648 -7.2016377e-21)
(1.0558508 -0.008105527 1.395481e-22)
(1.0557795 -0.00736366 2.5953878e-21)
(1.0556442 -0.006477053 1.8762613e-22)
(1.0553887 -0.0054862219 2.3737971e-20)
(1.0550572 -0.0043906957 -5.6815587e-21)
(1.0546585 -0.0033258087 -3.8604267e-21)
(1.0542771 -0.0021849604 -1.961971e-21)
(1.0539777 -0.0013173751 -8.397627e-22)
(1.0539277 -0.0002406841 -4.1950463e-21)
(1.0535431 -0.010563858 0)
(1.0553816 -0.010331348 2.7712628e-21)
(1.0557696 -0.010200634 -2.2353066e-21)
(1.0561821 -0.010118119 0)
(1.0563145 -0.0099533952 0)
(1.05653 -0.0097347212 0)
(1.0566401 -0.0093719906 -2.8536235e-23)
(1.0567653 -0.008879202 -6.1813024e-21)
(1.0567776 -0.008218082 1.4029851e-21)
(1.0567227 -0.0074047992 -7.3880932e-21)
(1.0565286 -0.0064434805 -2.4004923e-22)
(1.0562231 -0.0053881067 -5.0980202e-21)
(1.0557999 -0.0042464027 7.5120474e-23)
(1.0553063 -0.0031617587 4.3626725e-21)
(1.0548214 -0.0020263005 1.4944251e-21)
(1.0544272 -0.001204231 2.2623174e-21)
(1.0542884 -0.00018812759 0)
(1.0518021 -0.010905935 8.2899137e-22)
(1.0548977 -0.010641329 -5.8142616e-21)
(1.0558954 -0.010530764 5.1894249e-21)
(1.0566131 -0.010498368 1.6048095e-21)
(1.0568873 -0.010403583 2.963506e-21)
(1.0571943 -0.010274361 0)
(1.0573843 -0.010004197 3.0715136e-21)
(1.0576004 -0.009610036 -2.1758391e-22)
(1.0577078 -0.0090405879 -1.0844338e-20)
(1.0577544 -0.0083045942 1.1324086e-21)
(1.0576521 -0.0074060269 4.3558916e-21)
(1.0574212 -0.0063649957 -5.46077e-22)
(1.0570282 -0.0052460348 -9.3721763e-21)
(1.0565133 -0.0040596361 1.5452162e-20)
(1.0559099 -0.0029628655 4.663245e-21)
(1.0553136 -0.0018421864 1.6439919e-20)
(1.0548198 -0.0010751572 6.081863e-21)
(1.0545893 -0.00013139331 4.1118015e-21)
(1.0483961 -0.011285194 4.2615608e-23)
(1.0534021 -0.010975395 -2.4297019e-21)
(1.0554619 -0.010858001 -1.6844944e-21)
(1.0567624 -0.010851641 3.3985291e-21)
(1.057306 -0.010815901 -3.1042645e-22)
(1.0577508 -0.010769201 4.1956986e-21)
(1.0580338 -0.010590128 2.4924483e-21)
(1.0583448 -0.010297665 -6.0464411e-21)
(1.0585537 -0.00982489 -2.1741311e-21)
(1.0587138 -0.0091802241 7.3659672e-21)
(1.058726 -0.0083499364 -7.8680409e-23)
(1.0586025 -0.0073602148 1.0311328e-20)
(1.0582922 -0.0062372833 -3.1487007e-21)
(1.057815 -0.0050536803 -1.1654108e-21)
(1.0571859 -0.0038299978 -2.1551709e-21)
(1.0564656 -0.0027281258 -2.8348409e-21)
(1.0557508 -0.0016328328 4.973306e-21)
(1.0551537 -0.00093058924 2.7618252e-22)
(1.0548295 -7.082768e-05 2.8833968e-21)
(1.0427301 -0.011709929 5.5294815e-22)
(1.0503479 -0.011361945 3.0880128e-21)
(1.0540734 -0.011203193 -1.2661792e-20)
(1.0564068 -0.011198073 -8.4989005e-22)
(1.0574673 -0.011199699 2.4048379e-21)
(1.0581614 -0.011224375 1.773352e-21)
(1.0585755 -0.011131486 4.6659835e-22)
(1.0589901 -0.010940913 6.1917624e-21)
(1.0593037 -0.010569544 -8.713723e-22)
(1.0595835 -0.010023834 -9.7582059e-21)
(1.0597233 -0.0092784236 1.3091846e-20)
(1.0597319 -0.0083477677 -2.3031563e-21)
(1.0595407 -0.0072608206 -4.9366137e-21)
(1.0591564 -0.006052881 4.3646413e-22)
(1.0585668 -0.0048103966 -1.3400157e-21)
(1.0578183 -0.0035544969 -1.0164488e-20)
(1.0569701 -0.0024575459 4.1999164e-22)
(1.0561307 -0.0013988239 -8.2442435e-21)
(1.0554276 -0.00077125138 -1.8817075e-21)
(1.0550091 -6.8806968e-06 -2.4067676e-21)
(1.0342592 -0.012176643 -3.0524618e-22)
(1.0451076 -0.011821972 4.0164128e-21)
(1.0511917 -0.011591174 -1.2434718e-21)
(1.0551721 -0.011560027 3.3570809e-21)
(1.0571666 -0.011573519 1.4352757e-21)
(1.0583366 -0.011647899 -2.3326412e-21)
(1.0589779 -0.01163246 4.2486133e-21)
(1.0595255 -0.01154024 6.7960733e-21)
(1.0599501 -0.01127218 -8.6716583e-21)
(1.0603515 -0.010832745 0)
(1.0606256 -0.010182022 -8.705276e-21)
(1.0607807 -0.0093303126 2.0499264e-22)
(1.0607358 -0.0082888492 9.5274748e-21)
(1.0604843 -0.0070996753 -4.1152689e-21)
(1.0599938 -0.005810162 5.2349403e-21)
(1.0592874 -0.0045115016 -9.19301e-21)
(1.0584025 -0.0032341162 -2.7259668e-21)
(1.0574201 -0.0021515144 1.9441374e-21)
(1.0564514 -0.0011411795 -3.4003584e-21)
(1.0556409 -0.0005981154 -7.4304393e-22)
(1.055128 5.9843287e-05 -1.3677382e-21)
(1.0225938 -0.01266864 -3.8605094e-21)
(1.0370717 -0.012363224 3.0476487e-21)
(1.0461818 -0.012040188 6.2566848e-21)
(1.0525288 -0.011965461 -7.6307496e-21)
(1.0560502 -0.011958614 -4.2121263e-21)
(1.0580915 -0.012056793 1.7826057e-21)
(1.0591635 -0.012100242 0)
(1.0599253 -0.012098292 6.404434e-21)
(1.060484 -0.011932161 1.5272896e-21)
(1.0610102 -0.011603137 -1.2344035e-20)
(1.0614203 -0.011056792 -3.8220507e-21)
(1.0617292 -0.010296746 1.070477e-21)
(1.0618471 -0.0093235032 9.385276e-23)
(1.0617583 -0.0081646355 -4.3017202e-21)
(1.0614109 -0.0068735361 4.2838104e-21)
(1.0608096 -0.0055031243 -3.754357e-21)
(1.0599652 -0.0041580917 1.1906961e-21)
(1.0589373 -0.002867728 -6.0097549e-21)
(1.0578131 -0.0018113448 -2.7314125e-21)
(1.056712 -0.00086124848 -5.5137295e-22)
(1.0557938 -0.00041237093 -1.0424393e-21)
(1.0551866 0.00012819783 0)
(1.0075787 -0.013158164 -2.5618099e-21)
(1.0257643 -0.012975506 -1.3059476e-21)
(1.0384081 -0.012556687 2.5352674e-22)
(1.0478293 -0.012437361 -6.7731125e-21)
(1.053601 -0.012382106 -2.3121981e-21)
(1.0570947 -0.012472256 2.5572476e-21)
(1.0589656 -0.012550392 -4.8354291e-21)
(1.0601233 -0.012620835 6.8342983e-21)
(1.0608844 -0.01255086 3.5104804e-21)
(1.0615521 -0.01233296 2.0980044e-22)
(1.0620999 -0.011897424 2.2131711e-23)
(1.0625641 -0.011241779 -1.4174318e-21)
(1.0628532 -0.010352105 1.1486274e-21)
(1.0629459 -0.0092494508 -7.9449266e-21)
(1.0627749 -0.0079698562 -1.0647613e-20)
(1.0623271 -0.0065752746 -9.0361736e-21)
(1.0615901 -0.0051321721 1.7594958e-21)
(1.0606 -0.0037477058 1.1332813e-20)
(1.0594172 -0.0024575969 -8.3052306e-23)
(1.0581466 -0.0014393033 -2.3673731e-21)
(1.056912 -0.00056111463 0)
(1.0558862 -0.00021568069 1.2079139e-21)
(1.0551884 0.00019427748 2.2333825e-22)
(0.98932718 -0.013611181 1.3811259e-20)
(1.0109389 -0.01363065 -2.7925208e-21)
(1.0273515 -0.01313103 7.195685e-21)
(1.0403998 -0.012987195 3.7385118e-21)
(1.0491668 -0.012867498 -8.2696049e-21)
(1.0548449 -0.012922594 0)
(1.0580748 -0.013003388 -1.0122867e-21)
(1.0599708 -0.013121486 4.9089088e-21)
(1.0610953 -0.013132912 3.582619e-21)
(1.0619604 -0.013021969 -5.182862e-22)
(1.0626577 -0.012700482 -6.9417801e-21)
(1.0632771 -0.012158461 -4.1769894e-21)
(1.0637395 -0.01136799 5.6235737e-21)
(1.0640239 -0.010339955 -8.3824451e-21)
(1.064051 -0.0091005083 1.212056e-20)
(1.0637936 -0.0076963686 1.9701334e-20)
(1.0632171 -0.0062040402 8.4865254e-22)
(1.0623351 -0.0046936847 4.7077107e-21)
(1.0611836 -0.0032828395 -9.9652292e-21)
(1.0598404 -0.0020045471 -4.178842e-22)
(1.0584194 -0.0010374702 3.3480655e-21)
(1.0570502 -0.00024439243 -6.1460808e-22)
(1.0559183 -1.1945694e-05 -9.9502889e-22)
(1.0551368 0.00026734941 1.735947e-22)
(0.96820501 -0.013993209 3.8496988e-21)
(0.99263133 -0.014286806 -7.2967988e-22)
(1.0127145 -0.013737391 -1.4665692e-23)
(1.0296621 -0.013609155 -1.6108464e-20)
(1.0420461 -0.013428146 5.753703e-21)
(1.0506882 -0.013434193 -9.8337935e-21)
(1.0560071 -0.013487162 -8.7237434e-22)
(1.0591816 -0.013619963 -8.8004583e-21)
(1.0609844 -0.013690056 4.1104956e-21)
(1.062188 -0.013673223 2.7144844e-21)
(1.0630804 -0.013464195 -6.4553799e-21)
(1.0638623 -0.013041759 4.1263145e-21)
(1.0644973 -0.012362584 -5.4253756e-21)
(1.0649762 -0.011428111 -1.4970427e-23)
(1.0652138 -0.010249997 1.0199542e-20)
(1.0651718 -0.0088676521 1.269266e-21)
(1.0647968 -0.007341671 -4.2325784e-23)
(1.0640809 -0.0057550406 7.894933e-21)
(1.0630346 -0.0041897099 0)
(1.061714 -0.0027634281 1.5446201e-21)
(1.060203 -0.0015119175 3.6854135e-22)
(1.0586301 -0.00060833932 -5.1708768e-22)
(1.0571276 8.8312156e-05 -9.5984163e-22)
(1.0558932 0.00020318511 1.0970659e-21)
(1.0550278 0.00034410704 1.5478402e-21)
(0.94477475 -0.014274427 -1.3540856e-20)
(0.97115697 -0.014895372 -4.9646932e-22)
(0.9944842 -0.014337716 2.1347339e-21)
(1.0152501 -0.014278931 1.7658763e-21)
(1.0316114 -0.014060859 1.5945703e-20)
(1.0438972 -0.014024033 1.5557967e-22)
(1.0521103 -0.014029068 -8.3564643e-22)
(1.0572912 -0.014144126 6.6189078e-22)
(1.0602879 -0.014241173 6.6026922e-21)
(1.062119 -0.014296351 -3.914016e-21)
(1.0633289 -0.014190083 4.5376713e-21)
(1.064309 -0.013888148 -1.7894892e-22)
(1.0651207 -0.013329208 -1.7071486e-21)
(1.065793 -0.012503677 2.5757686e-21)
(1.0662454 -0.011409015 3.3664825e-22)
(1.066434 -0.010072511 -1.4608083e-20)
(1.0662895 -0.0085464011 -2.1721257e-20)
(1.0657849 -0.0068997292 -1.1785548e-20)
(1.0649068 -0.0052293673 -1.5425087e-20)
(1.0636858 -0.0036193421 -4.194053e-22)
(1.0621854 -0.0021930931 1.191199e-20)
(1.0605034 -0.0009818909 -3.8927331e-22)
(1.0587781 -0.00015475791 -1.924478e-22)
(1.057145 0.0004359269 -1.209956e-21)
(1.0558129 0.00042578632 1.7771589e-21)
(1.0548683 0.00041981538 -5.1416413e-23)
(0.91971764 -0.014433049 6.1140922e-22)
(0.94706292 -0.015408071 -1.1161754e-21)
(0.97293838 -0.014888415 -9.0029813e-21)
(0.9970866 -0.014957138 9.4398228e-21)
(1.017435 -0.014743593 -1.3893429e-20)
(1.0337943 -0.014692163 8.3735898e-21)
(1.0456351 -0.014648277 3.7128108e-21)
(1.0536535 -0.014723091 8.420344e-21)
(1.0585621 -0.01481344 -9.3932213e-21)
(1.061512 -0.014908994 -3.9301403e-21)
(1.0633016 -0.014885771 1.515024e-21)
(1.064585 -0.014697315 -1.1079257e-20)
(1.0656012 -0.014262594 1.0952481e-20)
(1.0664682 -0.013558226 -1.2294517e-21)
(1.0671348 -0.012565662 2.9927135e-21)
(1.0675603 -0.01130048 -5.780658e-22)
(1.0676647 -0.0098007811 -4.8576579e-21)
(1.0674047 -0.0081294176 4.6090697e-21)
(1.0667445 -0.006370278 -5.5739388e-21)
(1.0656911 -0.0046251454 -9.4163009e-22)
(1.0642813 -0.0029860392 0)
(1.0625956 -0.001573798 3.7645037e-21)
(1.0607398 -0.00041824419 1.8063316e-21)
(1.0588637 0.00032089614 0)
(1.0571042 0.00079558839 1.6961579e-21)
(1.0556794 0.00065435144 -6.0101943e-22)
(1.0546586 0.000495877 -2.6306264e-21)
(0.89375243 -0.014458942 4.6836975e-21)
(0.92104964 -0.015782889 -1.7301412e-22)
(0.948603 -0.015347717 -7.6565909e-21)
(0.97540323 -0.015596362 9.3355282e-22)
(0.99937917 -0.015438011 -2.4043627e-21)
(1.019886 -0.015418466 -9.3181562e-21)
(1.035857 -0.01534764 -4.7624474e-22)
(1.0475012 -0.015379078 -6.8268671e-21)
(1.05517 -0.01543698 -2.2226858e-24)
(1.059946 -0.015537515 7.9321744e-21)
(1.0627791 -0.015567368 -3.8074722e-21)
(1.0646027 -0.015474689 1.032924e-21)
(1.0659123 -0.015160555 -2.752467e-21)
(1.0669946 -0.014584596 3.1801258e-21)
(1.0678754 -0.01370981 -7.552948e-22)
(1.0685381 -0.012538093 3.8892351e-21)
(1.0689004 -0.01109338 4.5231093e-21)
(1.0689072 -0.00942615 2.7060607e-20)
(1.0685028 -0.0076147274 9.3944218e-21)
(1.0676714 -0.0057502736 1.0792726e-20)
(1.0664249 -0.0039452193 7.3060919e-21)
(1.0648176 -0.0022914274 -2.8042483e-21)
(1.0629409 -0.00090999085 -5.1292703e-22)
(1.0609114 0.00017583623 0)
(1.0588879 0.00081494194 0)
(1.0570072 0.0011646706 -2.1029855e-23)
(1.0554953 0.00088663288 4.4596186e-21)
(1.054404 0.00057103234 5.8245101e-21)
(0.86756835 -0.014355068 0)
(0.89387916 -0.0159943 -8.5533398e-22)
(0.92217846 -0.015681372 6.9649261e-21)
(0.95070243 -0.016148701 3.2435497e-21)
(0.9776285 -0.016096222 9.7659366e-21)
(1.0019654 -0.016164908 5.0545181e-22)
(1.0222193 -0.016109235 -6.063465e-21)
(1.0380656 -0.016118401 -1.0761317e-20)
(1.0493305 -0.016136239 1.2843968e-20)
(1.0567963 -0.016212982 -3.8384153e-21)
(1.0613636 -0.016260148 4.9716364e-22)
(1.0641638 -0.016234485 3.9361e-21)
(1.0659789 -0.016026332 -9.8590237e-21)
(1.0673509 -0.015578548 5.844694e-21)
(1.0684606 -0.014832371 3.72232e-21)
(1.0693596 -0.013773485 6.9219042e-24)
(1.0699819 -0.012409314 3.7173485e-21)
(1.0702678 -0.010777769 -2.8217002e-21)
(1.0701457 -0.0089446427 1.3550927e-20)
(1.0695791 -0.0069979066 2.0013241e-21)
(1.0685548 -0.0050415405 6.4241621e-21)
(1.0671033 -0.0031906457 3.9650564e-21)
(1.0652894 -0.0015401761 -8.4681647e-22)
(1.0632196 -0.00020526428 -6.4962594e-21)
(1.0610181 0.00079590584 -3.2963993e-21)
(1.058852 0.0013240615 1.3676199e-21)
(1.0568565 0.0015402647 -4.2343981e-21)
(1.0552633 0.0011209035 3.6643322e-21)
(1.0541064 0.00064553116 -1.0191948e-20)
(0.84179652 -0.014116548 -1.4411861e-20)
(0.86627534 -0.016043524 0)
(0.89445956 -0.015858914 0)
(0.92368251 -0.016571904 0)
(0.95265776 -0.016668415 -2.5363231e-21)
(0.98015691 -0.016881275 8.7417874e-21)
(1.0044494 -0.016895524 -9.5731237e-22)
(1.0247245 -0.016925782 -1.422202e-21)
(1.0402342 -0.016920402 1.6690803e-20)
(1.0512716 -0.016962267 -1.5804356e-20)
(1.0584453 -0.016995615 9.7262662e-21)
(1.0628952 -0.017000647 -3.3709197e-21)
(1.0656228 -0.016872012 1.5410828e-21)
(1.0674731 -0.016540981 -8.1244922e-21)
(1.0688732 -0.015927014 3.7678686e-21)
(1.0700185 -0.014995637 4.7109179e-21)
(1.0709 -0.013735083 9.8673082e-22)
(1.0714696 -0.012168175 -9.787524e-21)
(1.071646 -0.010347441 -4.3159731e-21)
(1.0713754 -0.0083502755 -8.4846046e-21)
(1.0706213 -0.0062793699 -7.8029762e-21)
(1.0693887 -0.0042442672 3.2107635e-21)
(1.0677193 -0.0023659034 7.6678862e-21)
(1.0656938 -0.0007360539 -2.5155791e-21)
(1.06343 0.00053515929 -1.9721581e-21)
(1.0610602 0.0014378465 5.5173304e-23)
(1.0587577 0.0018444022 -3.2736927e-21)
(1.0566545 0.0019197545 2.2854325e-21)
(1.0549866 0.0013557127 -1.550684e-20)
(1.0537705 0.00071876239 -6.7893848e-21)
(0.81484506 -0.013720294 -1.1394668e-21)
(0.83898604 -0.015891517 -9.7525709e-22)
(0.86627341 -0.015870737 0)
(0.89514461 -0.016833563 0)
(0.92516351 -0.017110784 0)
(0.9549056 -0.017515327 0)
(0.98261831 -0.017655947 0)
(1.0071322 -0.017764491 3.1263556e-22)
(1.0271958 -0.017776592 -8.1271541e-21)
(1.0425239 -0.017797779 1.7668783e-20)
(1.0532271 -0.017802617 -9.3430102e-22)
(1.0602044 -0.017804832 1.0936741e-20)
(1.0644956 -0.017719946 -1.4132503e-20)
(1.0672023 -0.017481553 1.7228347e-21)
(1.0690589 -0.016992262 -5.1503168e-23)
(1.0705008 -0.016196019 5.110724e-21)
(1.0716483 -0.015057752 -9.8658609e-21)
(1.0725015 -0.01358236 -1.0647827e-21)
(1.0729842 -0.011806085 1.3649618e-20)
(1.0730302 -0.0097947184 6.085491e-21)
(1.0725824 -0.0076416979 1.0570145e-21)
(1.071622 -0.0054581181 9.5073001e-21)
(1.0701642 -0.0033623335 5.3959995e-22)
(1.0682683 -0.0014746576 -2.9205156e-21)
(1.0660274 0.00011520427 4.5434113e-21)
(1.0635717 0.0013064473 3.5210972e-21)
(1.061039 0.002096907 7.8296354e-22)
(1.0586075 0.0023724287 1.3762047e-21)
(1.0564044 0.0023006028 2.3885951e-22)
(1.0546687 0.0015895778 1.2232244e-20)
(1.053399 0.00079062549 4.4918502e-21)
(0.7862191 -0.013097103 1.5932911e-20)
(0.81044641 -0.015556107 -4.885585e-22)
(0.8382714 -0.015734503 4.4663905e-21)
(0.865904 -0.016928501 4.8417727e-21)
(0.89597013 -0.017386275 0)
(0.9269004 -0.018017602 0)
(0.95713115 -0.018335241 -3.9155825e-22)
(0.98529511 -0.018582207 9.5982802e-21)
(1.0097978 -0.018669006 -1.5845539e-20)
(1.0298044 -0.018709388 1.8674886e-20)
(1.0448263 -0.018696516 2.314686e-21)
(1.0552919 -0.018677769 -9.9370313e-21)
(1.0620246 -0.018601531 -4.725076e-22)
(1.0662154 -0.01842074 -5.9085442e-22)
(1.0688773 -0.018035159 -4.1556275e-21)
(1.0707608 -0.017370666 1.227982e-21)
(1.0722147 -0.016366628 1.122507e-21)
(1.0733563 -0.015005552 -4.3770957e-22)
(1.0741471 -0.013304258 5.0508701e-21)
(1.0745212 -0.011313593 2.7280054e-20)
(1.0744054 -0.0091161756 8.5852731e-21)
(1.0737586 -0.0068164159 -7.0392848e-21)
(1.0725707 -0.0045370146 1.0059968e-20)
(1.0708751 -0.0023989687 9.2398764e-21)
(1.0687452 -0.00052286159 3.2968255e-21)
(1.0662882 0.0010082332 2.5133675e-21)
(1.0636444 0.0021029251 1.1601341e-21)
(1.0609558 0.0027686189 -1.9554938e-21)
(1.0584037 0.0029045449 2.9035081e-21)
(1.0561094 0.0026804983 -1.0792868e-21)
(1.054313 0.0018213262 6.9976115e-21)
(1.0529961 0.00086074529 4.9913452e-22)
(0.75798227 -0.012249888 -5.3442684e-21)
(0.78011101 -0.01497716 1.7845531e-21)
(0.80903295 -0.015397043 -6.5973728e-21)
(0.83675673 -0.016823296 -4.8979575e-21)
(0.86593708 -0.017486578 0)
(0.89697801 -0.01834481 0)
(0.92866357 -0.018880531 0)
(0.95957622 -0.019320408 -1.6674507e-21)
(0.98798077 -0.019544414 1.2185906e-20)
(1.0126198 -0.019662354 1.3652994e-20)
(1.032433 -0.019669897 2.4612587e-21)
(1.0472434 -0.019637862 -2.1062201e-21)
(1.0574119 -0.019549018 1.9853188e-20)
(1.0639615 -0.019389315 -1.5585517e-20)
(1.0680298 -0.019074049 4.9321778e-21)
(1.0706749 -0.018523807 0)
(1.072561 -0.017655211 1.174403e-21)
(1.0740233 -0.016424896 1.4127393e-21)
(1.0751261 -0.014825509 1.2444867e-20)
(1.0758329 -0.01288954 -1.1393383e-21)
(1.076065 -0.010684953 -1.359761e-20)
(1.0757627 -0.0083075453 -4.8293141e-21)
(1.0748914 -0.0058758644 -1.098646e-20)
(1.0734593 -0.0035184845 -1.0644409e-20)
(1.0715143 -0.0013599906 4.712365e-22)
(1.0691465 0.00048377422 2.4267255e-21)
(1.0664749 0.0019365693 -1.4171688e-21)
(1.0636489 0.0029191857 -1.7935679e-22)
(1.0608129 0.0034483659 4.4525486e-21)
(1.0581495 0.0034374411 1.2848133e-21)
(1.0557727 0.0030573186 1.1085866e-21)
(1.053923 0.0020497577 -2.0774222e-20)
(1.052565 0.00092895432 7.8480456e-21)
(0.73092288 -0.011182381 -4.841255e-21)
(0.74997675 -0.014131714 2.8044315e-22)
(0.77794656 -0.014816458 -1.2142516e-20)
(0.80633632 -0.016493395 -6.536735e-21)
(0.83585983 -0.017412102 3.0550267e-21)
(0.8660234 -0.018496015 -2.1348663e-23)
(0.89806485 -0.019244268 1.4563714e-20)
(0.93063563 -0.019921704 -7.9079453e-21)
(0.96206042 -0.020341606 -7.3716698e-24)
(0.99083947 -0.02060229 -2.9664941e-20)
(1.0154776 -0.020689269 1.3357239e-20)
(1.0351883 -0.020680623 1.6204034e-20)
(1.0497154 -0.020583663 -1.6782019e-21)
(1.0596475 -0.020420806 -4.8265042e-21)
(1.0659891 -0.0201387 -6.3267631e-21)
(1.0699694 -0.019671357 -4.5670491e-21)
(1.0725794 -0.018924811 5.464569e-22)
(1.0744705 -0.01783131 1.4246965e-20)
(1.075911 -0.016354915 -2.4918221e-22)
(1.0769547 -0.014504626 -2.6440181e-21)
(1.0775429 -0.012329963 -4.0469033e-21)
(1.077606 -0.009913895 -1.8507836e-20)
(1.0770879 -0.0073684437 3.0106082e-21)
(1.0759713 -0.0048212798 -3.0220475e-21)
(1.0742787 -0.0024078108 -1.3445346e-20)
(1.0720763 -0.00025116222 -3.4554513e-21)
(1.069469 0.0015381743 -1.9367151e-21)
(1.0665869 0.0028939258 -3.3193676e-21)
(1.0635864 0.0037495347 6.0374969e-22)
(1.0606128 0.0041318212 -8.6458345e-22)
(1.0578481 0.0039679717 2.1327177e-21)
(1.0553981 0.0034291366 -7.712781e-23)
(1.0535024 0.0022739082 8.6861702e-21)
(1.0521093 0.00099501234 -1.5116857e-20)
(0.70583952 -0.0098997473 5.047447e-21)
(0.72089537 -0.013007056 -4.0367425e-22)
(0.74689034 -0.013971927 1.3980326e-20)
(0.77396795 -0.015917899 3.4493705e-21)
(0.80445735 -0.017098196 -1.0554417e-20)
(0.83490784 -0.018456199 -1.453091e-20)
(0.86625239 -0.019426654 -1.8438494e-21)
(0.89933275 -0.020333054 0)
(0.93267586 -0.020999169 -8.4671011e-21)
(0.96472728 -0.021464931 -3.2342434e-20)
(0.99375568 -0.02169934 2.3709025e-21)
(1.0184787 -0.021773952 -6.0934622e-21)
(1.0380063 -0.021703923 0)
(1.0523072 -0.021539283 -3.2946473e-21)
(1.0619709 -0.021263575 1.2206931e-20)
(1.0681421 -0.0208417 6.6785161e-21)
(1.0720198 -0.020188645 -5.5346045e-21)
(1.074604 -0.019223126 0)
(1.0764749 -0.017880857 -7.3429309e-21)
(1.0778764 -0.016142007 -9.7433077e-21)
(1.0788263 -0.014032075 -1.9252418e-20)
(1.0792673 -0.011617084 -5.6694512e-21)
(1.0791289 -0.0089978685 0)
(1.0783701 -0.006298536 -1.3197997e-20)
(1.076987 -0.0036569782 4.8996005e-22)
(1.0750216 -0.00121046 1.2021398e-22)
(1.0725563 0.00092009503 -5.5625375e-21)
(1.0697108 0.0026332901 1.8720451e-21)
(1.0666244 0.0038735678 4.349423e-22)
(1.0634589 0.0045885515 5.8471566e-21)
(1.0603583 0.0048147954 -9.8014996e-21)
(1.0575028 0.0044932753 -4.6773977e-21)
(1.0549889 0.0037942466 0)
(1.0530546 0.0024928588 -3.3200201e-22)
(1.0516323 0.0010587772 -4.646138e-21)
(0.68351244 -0.0084150506 3.6556783e-21)
(0.69375994 -0.011601388 1.0315483e-21)
(0.71678607 -0.012853463 1.2738969e-20)
(0.74148447 -0.015051885 1.0876595e-21)
(0.77107638 -0.016515212 -3.0701776e-21)
(0.80239466 -0.01812217 -7.2210505e-22)
(0.83412765 -0.019402556 -1.1637453e-20)
(0.86661654 -0.020558721 4.7437616e-22)
(0.90069225 -0.021458636 0)
(0.93489788 -0.02218437 1.0327652e-20)
(0.96747445 -0.022632946 -1.1286782e-20)
(0.99683166 -0.022861607 2.852418e-21)
(1.0215577 -0.022879225 -6.3013844e-21)
(1.0409549 -0.02274628 8.4073283e-21)
(1.0549888 -0.022475379 -1.7286651e-22)
(1.0644204 -0.022069902 1.3861929e-20)
(1.0704065 -0.021473362 -8.2797822e-21)
(1.0741974 -0.020610558 4.3869947e-21)
(1.0767365 -0.019398631 1.3902579e-20)
(1.0785746 -0.017787611 -6.6969388e-21)
(1.079904 -0.015772741 1.3781084e-20)
(1.0807312 -0.01339713 1.7023762e-21)
(1.0809899 -0.010745895 0)
(1.0806212 -0.0079346095 -3.6217746e-21)
(1.0795958 -0.005100727 1.373647e-22)
(1.0779291 -0.0023877248 5.1973945e-21)
(1.0756808 6.6135242e-05 4.5820165e-21)
(1.0729504 0.0021462035 2.3912101e-21)
(1.0698706 0.0037614193 4.6940592e-22)
(1.0665884 0.0048689607 0)
(1.0632687 0.0054308945 -3.8753784e-21)
(1.0600528 0.0054934259 -1.0392396e-20)
(1.0571173 0.0050107503 1.923898e-20)
(1.054549 0.0041511386 -6.3352121e-21)
(1.0525831 0.0027058702 5.2276612e-22)
(1.0511373 0.0011201036 1.6347145e-20)
(0.66466582 -0.0067503623 -3.3952069e-21)
(0.66946496 -0.0099251721 -1.3514606e-22)
(0.68859271 -0.011460204 -3.8292334e-21)
(0.70984587 -0.01388299 2.6250739e-23)
(0.73736601 -0.015640524 1.2424369e-20)
(0.76779282 -0.017540466 1.0289449e-20)
(0.80054562 -0.019087673 -1.7394241e-22)
(0.83344511 -0.020557881 -9.5716769e-21)
(0.8670862 -0.021726572 5.0630029e-22)
(0.90222045 -0.022696171 -8.825568e-21)
(0.93721943 -0.023419764 -4.4563209e-22)
(0.97039321 -0.023873273 5.4858513e-21)
(1.0000049 -0.024052476 -1.0421459e-21)
(1.0247834 -0.024012929 1.0165825e-20)
(1.0440027 -0.023778775 -2.9226812e-20)
(1.0578016 -0.023385181 6.5575027e-21)
(1.0669821 -0.022814271 4.3165644e-22)
(1.0728021 -0.022018175 5.2947803e-21)
(1.0764917 -0.020915264 -2.6519778e-21)
(1.0789795 -0.019433688 -7.8638169e-22)
(1.0807555 -0.017535596 1.096555e-20)
(1.0819851 -0.015234065 -9.264671e-21)
(1.0826528 -0.012592108 4.577811e-21)
(1.0826973 -0.0097118901 0)
(1.0820679 -0.0067251784 1.6902285e-20)
(1.0807537 -0.0037786453 1.3296012e-20)
(1.0787882 -0.0010205573 -2.0717311e-21)
(1.0762504 0.0014141368 6.6564618e-21)
(1.0732556 0.0034186399 5.7464084e-22)
(1.0699482 0.0049149352 -3.0061819e-22)
(1.0664806 0.0058735582 5.326911e-21)
(1.0630189 0.0062715619 -9.3549338e-21)
(1.0596998 0.006164137 -2.0997473e-22)
(1.0566953 0.0055180877 1.9504007e-20)
(1.0540817 0.0044985239 -1.1340989e-21)
(1.0520913 0.0029122904 -5.6532942e-22)
(1.0506272 0.0011789012 5.9192483e-21)
(0.64993079 -0.0049359222 3.5937561e-22)
(0.64885561 -0.0080034809 -1.0794511e-21)
(0.66327358 -0.0098018671 -4.8536142e-21)
(0.68008031 -0.012408598 -5.6133372e-22)
(0.70436453 -0.014445587 9.9745822e-25)
(0.73271371 -0.016634324 1.7996807e-22)
(0.76480006 -0.018490392 -6.6951481e-21)
(0.79873796 -0.020238251 3.8635122e-21)
(0.8328571 -0.021751784 0)
(0.86770035 -0.023010131 1.7913849e-21)
(0.90385985 -0.023989084 0)
(0.93971564 -0.024733836 0)
(0.97342802 -0.025150165 5.7616594e-21)
(1.0033421 -0.0252813 -5.360307e-22)
(1.0281245 -0.025146755 -4.933862e-21)
(1.0471936 -0.024795434 -6.2048355e-21)
(1.0607316 -0.02424291 1.6203593e-20)
(1.0696787 -0.023481157 -9.2510267e-21)
(1.0753198 -0.022452914 6.7355854e-22)
(1.078908 -0.021083928 7.741353e-22)
(1.0813204 -0.019309917 -1.4131751e-20)
(1.0830098 -0.017109459 -5.9245135e-21)
(1.0841027 -0.014515485 4.42759e-21)
(1.0845767 -0.011610005 1.1250018e-20)
(1.0843726 -0.0085138832 2.1756106e-21)
(1.0834554 -0.0053716224 1.8203324e-21)
(1.0818318 -0.0023384802 -4.653859e-21)
(1.079556 0.00043678483 -4.6455243e-21)
(1.0767255 0.002824468 -6.6311352e-22)
(1.0734703 0.0047287977 -2.8884192e-21)
(1.0699443 0.0060860576 -5.0549002e-21)
(1.0663033 0.0068811231 -2.7361329e-21)
(1.0627127 0.0071058459 1.7407375e-21)
(1.059303 0.0068237152 1.4336673e-20)
(1.0562404 0.0060132693 -3.7547814e-20)
(1.0535907 0.0048353085 -6.2189883e-21)
(1.0515823 0.0031116095 -5.7838634e-21)
(1.0501051 0.0012350978 0)
(0.63981278 -0.0030086123 2.9407465e-21)
(0.63267831 -0.0058750279 -1.2283157e-22)
(0.6417431 -0.007902911 -1.2546081e-21)
(0.65324019 -0.01063614 -4.7246909e-22)
(0.67318393 -0.012928333 -5.6370146e-21)
(0.69822336 -0.015384234 -4.3166357e-21)
(0.72835516 -0.017564852 -6.1828705e-22)