/*--------------------------------*- C++ -*----------------------------------*\
| =========                 |                                                 |
| \\      /  F ield         | OpenFOAM: The Open Source CFD Toolbox           |
|  \\    /   O peration     | Version:  5.0                                   |
|   \\  /    A nd           | Web:      www.OpenFOAM.org                      |
|    \\/     M anipulation  |                                                 |
\*---------------------------------------------------------------------------*/
FoamFile
{
    version     2.0;
    format      ascii;
    class       volScalarField;
    location    "135";
    object      p;
}
// * * * * * * * * * * * * * * * * * * * * * * * * * * * * * * * * * * * * * //

dimensions      [0 2 -2 0 0 0 0];

internalField   nonuniform List<scalar> 
9200
(
-0.00079013515
-0.00078363123
-0.0017823366
-0.00077625411
-0.0017767079
-0.0030409136
-0.00076861906
-0.0017584078
-0.0030283856
-0.0041624052
-0.00075555866
-0.0017364913
-0.0030001623
-0.0041491934
-0.0053180247
-0.00074075214
-0.0017020439
-0.0029654544
-0.0041141224
-0.0053044787
-0.0064221033
-0.0007214117
-0.001661973
-0.0029116465
-0.0040710453
-0.0052651311
-0.0064121183
-0.007507631
-0.00069919304
-0.0016115017
-0.0028475175
-0.0040032305
-0.0052176743
-0.0063725553
-0.00750362
-0.0085548306
-0.00067342757
-0.0015535035
-0.0027667794
-0.0039213662
-0.0051403434
-0.0063267841
-0.0074675593
-0.0085603364
-0.0095697692
-0.0006447745
-0.0014869998
-0.0026729854
-0.0038174674
-0.0050455661
-0.0062470206
-0.0074290042
-0.0085325092
-0.0095876194
-0.010543695
-0.00061348645
-0.0014131802
-0.0025650445
-0.0036956698
-0.0049233631
-0.0061475913
-0.0073532318
-0.0085082585
-0.0095724083
-0.010577228
-0.011476874
-0.00058015615
-0.0013325112
-0.0024446601
-0.0035546189
-0.0047783325
-0.0060161264
-0.0072565499
-0.0084448671
-0.0095691086
-0.010579561
-0.011529837
-0.012363224
-0.00054545938
-0.0012458312
-0.0023127972
-0.0033964055
-0.0046087258
-0.005857483
-0.0071239509
-0.0083602984
-0.0095261703
-0.010604554
-0.011554358
-0.012438403
-0.013199373
-0.00051020506
-0.0011538455
-0.002171039
-0.0032222935
-0.0044169748
-0.0056692095
-0.006960127
-0.0082360791
-0.00946322
-0.010590469
-0.011614255
-0.012489403
-0.013299845
-0.013981325
-0.00047521636
-0.001057214
-0.0020209855
-0.0030343363
-0.0042046861
-0.0054538399
-0.0067616068
-0.0080769472
-0.0093577775
-0.010558566
-0.011637721
-0.012591029
-0.013382772
-0.014109772
-0.014705583
-0.00044147041
-0.0009566296
-0.0018643417
-0.0028345898
-0.0039745436
-0.0052130184
-0.0065308627
-0.0078781896
-0.0092142182
-0.010482538
-0.01164734
-0.012660834
-0.013533651
-0.014228571
-0.014864401
-0.01536894
-0.0004087772
-0.00085326415
-0.0017028474
-0.002625235
-0.0037293155
-0.0049496971
-0.0062694823
-0.0076419869
-0.0090262909
-0.010365954
-0.011612118
-0.012722072
-0.01365792
-0.014434447
-0.015023078
-0.015560122
-0.015968696
-0.00037573211
-0.0007482459
-0.0015383616
-0.0024085229
-0.0034719556
-0.0046669493
-0.0059807193
-0.0073695666
-0.008795671
-0.010200615
-0.011534681
-0.012739039
-0.013780975
-0.014621397
-0.015290455
-0.015762099
-0.016193834
-0.016502694
-0.00033988336
-0.0006432959
-0.0013721067
-0.0021868953
-0.0032053628
-0.0043682386
-0.0056680612
-0.0070642059
-0.0085230397
-0.0099873731
-0.011404586
-0.012713162
-0.013861798
-0.014816179
-0.01554808
-0.016095803
-0.016442049
-0.016762937
-0.016969392
-0.00029701601
-0.00054128432
-0.0012050098
-0.0019625431
-0.0029324092
-0.0040572732
-0.0053353542
-0.0067296165
-0.00821155
-0.0097260652
-0.011221583
-0.012631405
-0.01390033
-0.014972259
-0.015823972
-0.016430588
-0.016846659
-0.017059701
-0.017265438
-0.017367887
-0.00024183767
-0.00044562984
-0.0010379732
-0.0017378358
-0.0026556822
-0.0037376428
-0.0049866947
-0.0063701712
-0.0078649247
-0.0094194536
-0.010984409
-0.012492108
-0.013880651
-0.015087962
-0.016066498
-0.016796569
-0.017265603
-0.017538699
-0.017612429
-0.017699977
-0.017697925
-0.0001688688
-0.00036023793
-0.00087144134
-0.0015155353
-0.0023777182
-0.0034125645
-0.0046262923
-0.0059904502
-0.0074877335
-0.0090711655
-0.010695186
-0.012292572
-0.013799399
-0.015144237
-0.016272115
-0.017136142
-0.017729364
-0.01804654
-0.018168421
-0.018098196
-0.018065861
-0.017959882
-7.3546115e-05
-0.00028903294
-0.00070567218
-0.0012984006
-0.0021011105
-0.0030852446
-0.0042580521
-0.0055950627
-0.0070849716
-0.0086859033
-0.010357126
-0.012034051
-0.013652133
-0.015135739
-0.016418432
-0.017443924
-0.018175726
-0.018615025
-0.018769433
-0.018732769
-0.018515626
-0.018363041
-0.018154768
4.6720426e-05
-0.00023532208
-0.00054093952
-0.0010891815
-0.00182826
-0.0027589627
-0.0038857681
-0.0051884373
-0.0066617777
-0.0082689059
-0.0099748667
-0.011719137
-0.013438901
-0.015055984
-0.016497873
-0.017694107
-0.018597356
-0.019177048
-0.019448668
-0.019429836
-0.019229418
-0.018863985
-0.018592101
-0.018284242
0.00019178533
-0.00020116163
-0.00037770879
-0.00089052062
-0.0015614393
-0.0024369735
-0.0035131462
-0.0047749328
-0.0062232147
-0.0078256952
-0.0095538093
-0.011352166
-0.013161386
-0.014903521
-0.016501602
-0.017876681
-0.018964893
-0.019723295
-0.020133964
-0.020224098
-0.020024588
-0.01965671
-0.019143205
-0.018754245
-0.018350477
0.00035852194
-0.00018676485
-0.00021676263
-0.00070477338
-0.0013028589
-0.0021226405
-0.0031437177
-0.0043588312
-0.0057742894
-0.0073618521
-0.0090998438
-0.010938503
-0.012823399
-0.014678822
-0.01642635
-0.017980201
-0.019265723
-0.020220935
-0.020814505
-0.021038959
-0.020936905
-0.020550548
-0.020013694
-0.019353944
-0.018851315
-0.018355469
0.00054166969
-0.00018953068
-5.9299168e-05
-0.00053377545
-0.0010547967
-0.0018191994
-0.0027809435
-0.003944328
-0.0053198916
-0.0068829509
-0.0086190767
-0.010484249
-0.012430086
-0.014384885
-0.016271058
-0.017999274
-0.019485556
-0.020654668
-0.02145408
-0.021862115
-0.021886038
-0.021582217
-0.021005431
-0.020300246
-0.019497688
-0.018885606
-0.01830075
0.0007358417
-0.00020165412
9.2414062e-05
-0.00037869737
-0.00081944386
-0.0015295438
-0.0024282819
-0.0035356354
-0.0048647916
-0.0063944799
-0.0081176806
-0.0099959
-0.011987618
-0.014026381
-0.016037611
-0.017930973
-0.019616586
-0.021007189
-0.022034677
-0.022654219
-0.022858609
-0.0226688
-0.022156566
-0.021387678
-0.02051672
-0.019576317
-0.018859284
-0.018190723
0.00093381995
-0.00020931877
0.00023169524
-0.00023990773
-0.00059873436
-0.0012563194
-0.0020891161
-0.0031369773
-0.0044137237
-0.0059018698
-0.0076017876
-0.0094801288
-0.011502783
-0.013609324
-0.015729929
-0.017775732
-0.019653696
-0.021268023
-0.022535859
-0.023394599
-0.02381239
-0.023795912
-0.023382085
-0.022656752
-0.021696442
-0.020663611
-0.019591292
-0.018774275
-0.018031329
0.0011230241
-0.00021438697
0.00034520223
-0.00011697351
-0.00039462127
-0.0010016926
-0.0017666058
-0.0027524868
-0.0039714222
-0.0054105783
-0.007077501
-0.0089436635
-0.01098272
-0.013140614
-0.015353631
-0.017536397
-0.019595525
-0.021429544
-0.022944275
-0.024059658
-0.024724181
-0.024918843
-0.024667082
-0.024021032
-0.023080679
-0.021931468
-0.020742104
-0.019544624
-0.018635161
-0.017825253
0.0013044571
-0.0002382068
0.00044474556
-8.0958365e-06
-0.00021032349
-0.00076712711
-0.0014635509
-0.0023860284
-0.0035425815
-0.0049261253
-0.0065509589
-0.0083932781
-0.010434746
-0.012627714
-0.014915536
-0.0172179
-0.019443502
-0.021488244
-0.023249509
-0.024633018
-0.025567267
-0.026012084
-0.025964796
-0.025465395
-0.024581895
-0.023426843
-0.022093469
-0.020754462
-0.019440119
-0.018446366
-0.017575631
0.001501242
-0.00027973125
0.00054708364
9.3888847e-05
-4.9937561e-05
-0.00055409025
-0.001182371
-0.0020409093
-0.0031317103
-0.004454029
-0.0060283826
-0.0078358504
-0.0098663086
-0.01207843
-0.01442329
-0.01682672
-0.019201546
-0.021443768
-0.023445568
-0.025101229
-0.026322168
-0.027045947
-0.027247713
-0.026941541
-0.026185228
-0.025061624
-0.023694765
-0.022183743
-0.020703551
-0.019281493
-0.01821144
-0.017286365
0.001703371
-0.00032629625
0.00064236377
0.00017915431
9.9412995e-05
-0.00036303344
-0.00092615416
-0.0017198147
-0.0027428375
-0.0039996172
-0.005516044
-0.0072784163
-0.0092850224
-0.01150083
-0.013885088
-0.016370467
-0.018875507
-0.021298662
-0.023529942
-0.025455503
-0.026972228
-0.027997855
-0.028483406
-0.028420329
-0.027841387
-0.026821662
-0.025458241
-0.02388472
-0.022204407
-0.020592564
-0.019072451
-0.017934203
-0.016960565
0.0019005783
-0.0003736498
0.00073761361
0.00023210731
0.00024710949
-0.00017904652
-0.0006974353
-0.0014258945
-0.0023794178
-0.0035676749
-0.0050201041
-0.0067281381
-0.0086987251
-0.010903258
-0.013309542
-0.015857554
-0.018472719
-0.02105781
-0.023503422
-0.025690805
-0.027505585
-0.028847844
-0.029646304
-0.029866924
-0.029520056
-0.0286573
-0.027370906
-0.025770639
-0.023997825
-0.022158056
-0.02042503
-0.018816875
-0.017618219
-0.016602315
0.0020855071
-0.000423215
0.00083364128
0.00028560731
0.00037178296
9.0654612e-06
-0.00047674378
-0.0011610664
-0.0020455913
-0.0031623088
-0.0045462427
-0.0061921287
-0.0081154631
-0.010294398
-0.012705674
-0.015297017
-0.018001615
-0.020727964
-0.023369557
-0.025805777
-0.027914338
-0.029580763
-0.030713116
-0.031252963
-0.031184417
-0.030537561
-0.029383386
-0.027830134
-0.025998683
-0.024035878
-0.022047775
-0.020204659
-0.01851857
-0.017267308
-0.016215091
0.0022515786
-0.00047330503
0.00092474616
0.00034551329
0.00048727345
0.00014814605
-0.00025453139
-0.00090167001
-0.0017443987
-0.0027883288
-0.0040994665
-0.0056770377
-0.0075433275
-0.009683258
-0.012082954
-0.014698468
-0.017471493
-0.020317315
-0.023134175
-0.025802231
-0.028194591
-0.030185541
-0.031665268
-0.032551912
-0.032803612
-0.032424148
-0.031464597
-0.030014766
-0.028197625
-0.026143073
-0.024001336
-0.021877029
-0.019935308
-0.018181405
-0.016885074
-0.015802479
0.0023925328
-0.00052042402
0.0010062999
0.00040100711
0.00059916046
0.00026194776
-8.0042242e-05
-0.00064137194
-0.0014488068
-0.0024492754
-0.0036856001
-0.0051887913
-0.0069900163
-0.009079011
-0.011451311
-0.014072133
-0.016892432
-0.01983521
-0.022804926
-0.025684689
-0.028346002
-0.030655364
-0.032488264
-0.033741714
-0.03434805
-0.034284104
-0.03357534
-0.032293926
-0.030547777
-0.028472658
-0.026205359
-0.023897205
-0.021649562
-0.019620947
-0.0178092
-0.016475151
-0.015367898
0.002502979
-0.00056153973
0.0010768819
0.00044660987
0.00070677448
0.00038196928
7.7098232e-05
-0.00044598749
-0.0011536291
-0.0021140989
-0.0033092259
-0.0047342138
-0.0064625031
-0.0084905252
-0.010820987
-0.01342886
-0.016275306
-0.019292022
-0.022390946
-0.025459902
-0.028371371
-0.030987323
-0.03317204
-0.03480428
-0.035792241
-0.036085076
-0.03568104
-0.034628146
-0.033019591
-0.030979911
-0.028655543
-0.026187846
-0.023726963
-0.021369354
-0.019265576
-0.017405729
-0.016041037
-0.014914534
0.0025787302
-0.00059423896
0.0011351812
0.00048346646
0.00080173278
0.00049730319
0.00023229467
-0.00026841642
-0.00092629215
-0.0017802883
-0.0029353184
-0.004318992
-0.005968795
-0.0079259638
-0.01020205
-0.012779983
-0.015631799
-0.018699145
-0.021902678
-0.025136479
-0.028276161
-0.031182061
-0.033710713
-0.035726007
-0.037114415
-0.037798295
-0.037746984
-0.036981795
-0.035573995
-0.033636902
-0.031309844
-0.028747549
-0.026093506
-0.023494469
-0.021040531
-0.018873207
-0.016974675
-0.015586074
-0.014445465
0.0026172482
-0.00061698045
0.0011799253
0.00051257318
0.00088248027
0.00059582153
0.00038179988
-8.5514924e-05
-0.00071018172
-0.001526614
-0.0025624494
-0.003904195
-0.0055160559
-0.007394669
-0.0096039355
-0.012136829
-0.014974293
-0.018069002
-0.021351838
-0.02472466
-0.028068092
-0.031243321
-0.034102329
-0.036497667
-0.038297214
-0.039398321
-0.039741384
-0.03931829
-0.038174923
-0.036405637
-0.03414252
-0.031537438
-0.028750844
-0.025925884
-0.023203879
-0.020667319
-0.018447796
-0.016519591
-0.015113465
-0.013963513
-0.00062840547
0.0026172481
0.0012095842
0.00053436018
0.00094820381
0.00067785916
0.00051234447
9.1832083e-05
-0.00049355082
-0.0012790375
-0.0022749707
-0.0034904992
-0.0050615206
-0.0069054629
-0.0090374324
-0.011510173
-0.014315366
-0.017414955
-0.020751422
-0.024236243
-0.027756868
-0.031177526
-0.034348462
-0.037114281
-0.039327749
-0.04086392
-0.041635265
-0.04160321
-0.040784516
-0.039250286
-0.0371173
-0.034534446
-0.031663677
-0.028668393
-0.025689004
-0.022859575
-0.020253965
-0.017993221
-0.016043888
-0.014626202
-0.013471335
0.0012239437
-0.00062840563
0.0025787301
0.0005483354
0.00099818937
0.00074442155
0.00062249173
0.00024526555
-0.0002846793
-0.0010279783
-0.0019850441
-0.003170706
-0.0046067913
-0.0064115122
-0.0085132192
-0.010912312
-0.013667199
-0.016750805
-0.020115627
-0.023684584
-0.02735407
-0.030993466
-0.034453793
-0.037574791
-0.040197611
-0.042178288
-0.043403485
-0.043804276
-0.043366193
-0.042132369
-0.040199278
-0.037704695
-0.034812067
-0.031690601
-0.028503855
-0.025387283
-0.022466074
-0.019804699
-0.017513228
-0.015550797
-0.014127104
-0.012971367
0.00055499997
0.0012239436
-0.00061698082
0.0025029788
0.0010309063
0.00079508779
0.00071201157
0.00037438165
-0.00010320672
-0.00078473681
-0.0016940517
-0.00283868
-0.0042474769
-0.0059151971
-0.0079803519
-0.010355926
-0.013043707
-0.016090144
-0.019459382
-0.023084533
-0.026873132
-0.03070215
-0.034425777
-0.037881669
-0.040902659
-0.043329233
-0.045025165
-0.04589254
-0.045884744
-0.045013739
-0.043350065
-0.041014897
-0.038165121
-0.03497606
-0.03162119
-0.028261488
-0.025025423
-0.022027969
-0.019323671
-0.017011423
-0.015043374
-0.013618773
-0.012465853
0.0010464956
0.00055499971
0.0012095836
-0.00059423966
0.0023925325
0.00082772083
0.00077996291
0.00047915446
4.9757855e-05
-0.00057371806
-0.0014128635
-0.0025055371
-0.0038624241
-0.0055119865
-0.0074420677
-0.0097860026
-0.012459837
-0.015448522
-0.018797652
-0.022451995
-0.026329294
-0.030316754
-0.03427444
-0.038040574
-0.041442679
-0.044309101
-0.04648404
-0.047842979
-0.048307614
-0.04785672
-0.046530619
-0.044427473
-0.041691845
-0.038497427
-0.035028339
-0.031459265
-0.027946029
-0.024608331
-0.021549848
-0.018814926
-0.016491231
-0.014524462
-0.013103613
-0.011956832
0.00084256497
0.0010464953
0.00054833477
0.0011799243
-0.00056154063
0.0022515783
0.0008241141
0.00055842865
0.0001736683
-0.00039664049
-0.0011690173
-0.0021829057
-0.00348104
-0.0050667447
-0.0069952494
-0.0092074052
-0.011856638
-0.014843291
-0.018147637
-0.021803205
-0.025739204
-0.02985259
-0.034012303
-0.038060098
-0.041821047
-0.045114518
-0.047768562
-0.049635052
-0.050605694
-0.050625498
-0.049701399
-0.047903226
-0.045356272
-0.042226633
-0.038701971
-0.034971923
-0.031209365
-0.02756259
-0.024141024
-0.021036264
-0.018282361
-0.015955883
-0.013996701
-0.012583823
-0.011446148
0.00084481418
0.00084256473
0.0010309056
0.00053435902
0.0011351799
-0.00052042521
0.0020855066
0.00060957374
0.00026741237
-0.00025326932
-0.00096423569
-0.0019027556
-0.0031124034
-0.0046327409
-0.0064859785
-0.0087154797
-0.011240593
-0.014211617
-0.017529279
-0.021156937
-0.025120195
-0.029326743
-0.033654346
-0.037951656
-0.042044438
-0.045746086
-0.048871737
-0.05125299
-0.052754062
-0.053287045
-0.052823779
-0.051401431
-0.0491198
-0.046130076
-0.042617546
-0.038780535
-0.034810832
-0.030876623
-0.027116554
-0.023628583
-0.020491666
-0.017729678
-0.015408374
-0.013462523
-0.012061424
-0.010935454
0.00063301684
0.00084481395
0.00082771988
0.00099818798
0.00051257166
0.0010768803
-0.00047330637
0.0019005777
0.00032806504
-0.00014481392
-0.00079860382
-0.0016677531
-0.002791882
-0.0042146666
-0.0059918829
-0.0081357651
-0.010701361
-0.01356225
-0.016876005
-0.020535802
-0.02449248
-0.028757383
-0.033217696
-0.037729427
-0.042122653
-0.046208049
-0.049790911
-0.052685771
-0.054732486
-0.05581207
-0.055861124
-0.054881243
-0.052941274
-0.050170577
-0.046744551
-0.042864589
-0.038736192
-0.034549937
-0.030466644
-0.026613504
-0.023076059
-0.019920321
-0.017160334
-0.01485153
-0.012924224
-0.011538227
-0.010426293
0.00035619688
0.00063301646
0.00082411311
0.00079508636
0.00094820203
0.00048346444
0.0010062979
-0.00042321658
0.0017033703
-7.4634361e-05
-0.00067345581
-0.0014778511
-0.0025229175
-0.003850791
-0.0055175363
-0.0075759919
-0.010043607
-0.01297422
-0.016199158
-0.019869547
-0.023881414
-0.02816593
-0.032721
-0.037410102
-0.042068546
-0.046508065
-0.050527372
-0.053927013
-0.056525554
-0.058175727
-0.058779904
-0.058302851
-0.056778305
-0.054307396
-0.05104803
-0.04719734
-0.042969396
-0.03857318
-0.034194845
-0.029985428
-0.026059107
-0.022488349
-0.019326247
-0.01657766
-0.014288091
-0.012383839
-0.01101575
-0.0099200437
-4.206325e-05
0.00035619645
0.00060957284
0.00077996144
0.00074441943
0.00088247787
0.00044660754
0.00092474394
-0.00037365151
0.0015012412
-0.00059247348
-0.0013344924
-0.0023057815
-0.0035453222
-0.0051047336
-0.0070400834
-0.009411043
-0.012231131
-0.015561116
-0.019172829
-0.023213172
-0.027580444
-0.032186561
-0.037012343
-0.0418978
-0.046657079
-0.051086084
-0.054974536
-0.058122738
-0.060357934
-0.061550621
-0.061628755
-0.06058849
-0.058497336
-0.055488516
-0.051746872
-0.047488063
-0.042935088
-0.03829678
-0.033751798
-0.029439212
-0.025458928
-0.021870116
-0.018713421
-0.015984995
-0.013720415
-0.011842817
-0.010495382
-0.0094175247
-0.00055483015
-4.2063525e-05
0.00032806411
0.00055842698
0.00071200936
0.00067785658
0.00080173003
0.0004010043
0.00083363868
-0.00032629818
0.0013044562
-0.0012417176
-0.0021420802
-0.0032987636
-0.0047582538
-0.0065735063
-0.0088072286
-0.011519376
-0.014725043
-0.018484586
-0.022506302
-0.026923547
-0.03164503
-0.036558877
-0.041628514
-0.046669123
-0.051475461
-0.055830048
-0.05951788
-0.062343655
-0.064148338
-0.064824883
-0.06433076
-0.062696081
-0.060022932
-0.05647586
-0.052264062
-0.047618165
-0.042766187
-0.037913206
-0.033227489
-0.028834215
-0.024818334
-0.021226108
-0.018085962
-0.015385084
-0.013149748
-0.011302641
-0.0099792205
-0.0089193525
-0.0011985219
-0.00055483041
-7.4635511e-05
0.00026741054
0.00047915229
0.00062248911
0.00059581831
0.00070677113
0.00034551016
0.00073761075
-0.00027973327
0.001123023
-0.0020361489
-0.0031130096
-0.0044787799
-0.0061819312
-0.0082812837
-0.010841756
-0.013926872
-0.017548501
-0.021768592
-0.026218442
-0.031015481
-0.036082716
-0.04128325
-0.046561055
-0.051707172
-0.056498788
-0.060708905
-0.064122279
-0.066553217
-0.067861375
-0.067966682
-0.066859525
-0.064605801
-0.061342238
-0.057263117
-0.052598754
-0.047590866
-0.042468505
-0.037429393
-0.032628707
-0.028176537
-0.024142977
-0.020561411
-0.017447082
-0.014778911
-0.012577901
-0.010767328
-0.0094690133
-0.0084045747
-0.0019867391
-0.0011985224
-0.00059247472
-0.00014481565
0.00017366598
0.00037437875
0.00051234116
0.00049729956
0.00059915674
0.00028560368
0.00064236047
-0.00023820904
0.00093381867
-0.00299278
-0.0042684336
-0.0058662696
-0.0078399286
-0.010251036
-0.013168917
-0.016657138
-0.020725943
-0.025433475
-0.030326469
-0.035499255
-0.040897025
-0.046354541
-0.051796061
-0.05698929
-0.061697212
-0.065687472
-0.068749756
-0.070713384
-0.071461535
-0.070945246
-0.069190618
-0.066300286
-0.062445126
-0.057846462
-0.052752237
-0.047411086
-0.042048889
-0.036852536
-0.031962262
-0.02747283
-0.02343907
-0.019879771
-0.016797335
-0.014168774
-0.012012316
-0.010239722
-0.0089335249
-0.0078671198
-0.0029365956
-0.0019867396
-0.0012417187
-0.00067345762
-0.00025327193
4.9754667e-05
0.00024526221
0.00038179619
0.00038196503
0.00048726916
0.00023210333
0.00054707989
-0.00021438932
0.00073584021
-0.0041322745
-0.0056288939
-0.00748435
-0.0097552652
-0.012507634
-0.015812558
-0.019734417
-0.024278865
-0.02949796
-0.034843189
-0.040381303
-0.04608609
-0.051762032
-0.057313516
-0.062487384
-0.067036131
-0.070727004
-0.07336007
-0.074785353
-0.074913853
-0.073731456
-0.071301942
-0.067765038
-0.06332412
-0.058224593
-0.052727941
-0.047085139
-0.041514668
-0.036190044
-0.031235865
-0.026730593
-0.022710954
-0.019181141
-0.016139698
-0.013566418
-0.011456944
-0.009671259
-0.008377449
-0.0073177794
-0.0040685354
-0.0029365959
-0.0020361501
-0.0013344945
-0.00079860659
-0.00039664363
-0.00010321037
9.182807e-05
0.00023229033
0.00026194308
0.00037177831
0.0001791499
0.00044474121
-0.0002093214
0.00054166808
-0.0054752156
-0.0072171974
-0.0093560299
-0.011952453
-0.015075031
-0.018796727
-0.023180682
-0.028227272
-0.033976595
-0.039777726
-0.045662823
-0.051642422
-0.057488584
-0.063087555
-0.06816806
-0.072476696
-0.075785718
-0.077911535
-0.078730159
-0.078184566
-0.076298336
-0.073174103
-0.068988405
-0.063974634
-0.058398757
-0.052531085
-0.046620083
-0.040873638
-0.035450695
-0.03045845
-0.025954803
-0.02195786
-0.018469306
-0.015491816
-0.012976994
-0.010831384
-0.0090898288
-0.0078060113
-0.0067585736
-0.0054031615
-0.004068536
-0.0029927815
-0.0021420825
-0.0014778538
-0.00096423895
-0.00057372201
-0.00028468377
-8.5519321e-05
7.7093545e-05
0.00014814079
0.0002471041
9.3884179e-05
0.00034519757
-0.00020165699
0.00035852021
-0.0070442198
-0.0090563091
-0.011505521
-0.014455431
-0.017977106
-0.022143675
-0.027016286
-0.032587414
-0.038879987
-0.045134225
-0.051339454
-0.057551827
-0.063510867
-0.069086582
-0.073993028
-0.077976286
-0.080819541
-0.0823619
-0.082509556
-0.081241774
-0.078621426
-0.074790838
-0.069961816
-0.064395031
-0.058372418
-0.052167915
-0.046023764
-0.040135566
-0.034644949
-0.029635618
-0.025143814
-0.021184689
-0.017769421
-0.014859863
-0.012280255
-0.01020115
-0.0084879293
-0.0072239337
-0.0061890591
-0.0069630007
-0.0054031621
-0.0041322758
-0.0031130118
-0.0023057843
-0.0016677568
-0.0011690215
-0.00078474123
-0.00049355572
-0.00026842143
-8.0047514e-05
9.0599298e-06
9.9407071e-05
-8.10095e-06
0.0002316903
-0.00018953378
0.00019178353
-0.0088622147
-0.011170217
-0.013956674
-0.01728792
-0.021236237
-0.025873969
-0.03125832
-0.037371614
-0.04421355
-0.050911484
-0.05739979
-0.063793611
-0.069799568
-0.075273545
-0.079919476
-0.083489226
-0.085783068
-0.086669006
-0.086086905
-0.084055887
-0.080679307
-0.07613905
-0.070680064
-0.064586263
-0.058150336
-0.051645845
-0.045306761
-0.03931247
-0.03377898
-0.028764618
-0.024303964
-0.020425416
-0.017088564
-0.01407093
-0.011590383
-0.0095443977
-0.0078750826
-0.0066298476
-0.0056101729
-0.0087709735
-0.0069630011
-0.0054752168
-0.0042684361
-0.0032987669
-0.0025229214
-0.0019027598
-0.0014128681
-0.0010279835
-0.00071018738
-0.0004459928
-0.00025453709
-0.00017905247
-4.9943975e-05
-0.00011697892
9.2408936e-05
-0.00018676808
4.671857e-05
-0.01095304
-0.013582671
-0.016733055
-0.020472315
-0.024873113
-0.030005342
-0.035920174
-0.04258729
-0.049977151
-0.057100862
-0.06382555
-0.0703411
-0.076319445
-0.081606197
-0.085900728
-0.088967564
-0.09063033
-0.090791403
-0.089427566
-0.086600053
-0.082454019
-0.077209294
-0.071140837
-0.064550848
-0.057738872
-0.050975963
-0.044482603
-0.038410951
-0.032848586
-0.027853575
-0.023479525
-0.019688284
-0.016189374
-0.013302095
-0.010864978
-0.0088766622
-0.0072489052
-0.0060254794
-0.0050221989
-0.010850856
-0.0087709738
-0.0070442214
-0.0056288965
-0.0044787831
-0.0035453262
-0.0027918865
-0.0021829107
-0.0016940571
-0.0012790431
-0.00092629818
-0.00064137789
-0.00047675013
-0.00036303977
-0.00021033013
-0.00023991344
-5.9304519e-05
-0.00020116503
-7.3547979e-05
-0.013340367
-0.01631709
-0.019857
-0.024029362
-0.028905822
-0.034551918
-0.041010776
-0.048237077
-0.05616281
-0.063686363
-0.070592785
-0.077161313
-0.083029527
-0.088037547
-0.091887135
-0.094361928
-0.095315488
-0.094689216
-0.092499253
-0.088851083
-0.083931338
-0.077995311
-0.071343563
-0.064293323
-0.057149179
-0.050173161
-0.043558017
-0.037424904
-0.031864069
-0.026958894
-0.022680176
-0.018656687
-0.015326094
-0.012486389
-0.010129881
-0.0081949295
-0.0066119534
-0.0054110531
-0.004425808
-0.013226282
-0.010850856
-0.0088622165
-0.0072171999
-0.0058662729
-0.0047582582
-0.0038507961
-0.0031124089
-0.0025055427
-0.0019850499
-0.0015266202
-0.0011536358
-0.00090167638
-0.00069744195
-0.00055409707
-0.00039462822
-0.00037870322
-0.00021676803
-0.00023532553
-0.00016887063
-0.016047511
-0.019395735
-0.023349228
-0.027977326
-0.033349092
-0.039523595
-0.046534886
-0.054314459
-0.062754849
-0.070647355
-0.077670728
-0.084215225
-0.089883172
-0.094516935
-0.097826923
-0.099622492
-0.099794144
-0.098324564
-0.095273058
-0.090789709
-0.085100498
-0.078492604
-0.07129011
-0.063824351
-0.056397239
-0.049243821
-0.04252428
-0.036367147
-0.030896143
-0.026092019
-0.021493373
-0.017679214
-0.014401414
-0.011662811
-0.0093802058
-0.007502497
-0.0059642386
-0.0047876114
-0.0038215332
-0.01592053
-0.013226283
-0.010953042
-0.0090563117
-0.0074843538
-0.0061819359
-0.0051047387
-0.0042146723
-0.003481046
-0.0028386864
-0.0022749772
-0.001780295
-0.001448814
-0.0011610732
-0.00092616126
-0.00076713418
-0.0005987414
-0.00053378144
-0.00037771424
-0.00028903643
-0.00024183943
-0.019096664
-0.022839256
-0.027228087
-0.032331396
-0.038213952
-0.044926744
-0.052489166
-0.060808484
-0.069735653
-0.077955711
-0.08502253
-0.091457114
-0.09682944
-0.10099093
-0.10366698
-0.10470009
-0.10402395
-0.10166295
-0.097724586
-0.09240023
-0.085952336
-0.07869947
-0.070989985
-0.063160598
-0.055488397
-0.048175611
-0.04139718
-0.035325329
-0.029958353
-0.024724031
-0.020381479
-0.016622576
-0.013471334
-0.010825053
-0.0086196281
-0.0067991872
-0.0053071369
-0.0041559043
-0.0032099907
-0.018955769
-0.015920531
-0.013340369
-0.01117022
-0.009356034
-0.0078399333
-0.0065735117
-0.0055175425
-0.0046327477
-0.0038624311
-0.0031707127
-0.0025624563
-0.0021141063
-0.0017444064
-0.0014259016
-0.0011823783
-0.0010016999
-0.00081945104
-0.00070477935
-0.00054094485
-0.00036024134
-0.00029701765
-0.022508418
-0.026666015
-0.031509004
-0.037103275
-0.043507798
-0.050761134
-0.058867257
-0.067705326
-0.077080093
-0.085577676
-0.092603391
-0.098836427
-0.10381424
-0.10740378
-0.10935382
-0.1095474
-0.10796434
-0.10467499
-0.099832987
-0.093668244
-0.086480683
-0.078623564
-0.070460051
-0.062305424
-0.054405372
-0.046987683
-0.040284471
-0.034315566
-0.028380773
-0.023454672
-0.019168656
-0.015564148
-0.012527875
-0.0099768645
-0.0078485221
-0.0060866188
-0.004641554
-0.0035169203
-0.0025916941
-0.022352563
-0.01895577
-0.016047513
-0.013582674
-0.011505525
-0.0097552702
-0.0082812898
-0.0070400901
-0.0059918898
-0.0050667519
-0.0042474842
-0.0034905068
-0.0029353262
-0.0024492832
-0.0020455993
-0.0017198222
-0.0014635585
-0.0012563269
-0.0010548038
-0.00089052656
-0.00070567738
-0.00044563313
-0.00033988485
-0.026301112
-0.030891535
-0.03620403
-0.042300895
-0.049232304
-0.057022475
-0.065657097
-0.074984003
-0.084759074
-0.0934701
-0.1003631
-0.10629964
-0.11078007
-0.11369841
-0.11483478
-0.11411899
-0.11157923
-0.10733517
-0.10157843
-0.094582319
-0.086690685
-0.07828144
-0.069700437
-0.061234801
-0.053171049
-0.045811782
-0.039205299
-0.032497121
-0.026928877
-0.022058192
-0.017958895
-0.014493633
-0.011574854
-0.0091187749
-0.0070682755
-0.0053658526
-0.0039687783
-0.0028709742
-0.0019674409
-0.02612924
-0.022352564
-0.019096666
-0.016317093
-0.013956679
-0.011952459
-0.010251043
-0.0088072357
-0.0075759994
-0.0064859866
-0.0055119947
-0.0046067994
-0.003904203
-0.0033092339
-0.0027883371
-0.0023794263
-0.0020409169
-0.0017666134
-0.0015295513
-0.001302866
-0.0010891873
-0.00087144627
-0.00054128742
-0.00037573342
-0.030490298
-0.03552802
-0.041321427
-0.047927148
-0.055384594
-0.063701107
-0.072840979
-0.082626196
-0.092731911
-0.10158381
-0.10824938
-0.11378888
-0.11766679
-0.11981794
-0.12005947
-0.11837288
-0.11483868
-0.10961786
-0.1029436
-0.095144608
-0.086598189
-0.077668513
-0.06867801
-0.059975701
-0.051945837
-0.044670605
-0.037111939
-0.030835704
-0.025318378
-0.020671329
-0.016738747
-0.013414928
-0.010612687
-0.0082521685
-0.0062804602
-0.0046384728
-0.0032886083
-0.0022192153
-0.0013379071
-0.030301371
-0.026129241
-0.02250842
-0.019395739
-0.01673306
-0.014455437
-0.012507641
-0.010841763
-0.0094110514
-0.008135774
-0.006995258
-0.0059152056
-0.0050615291
-0.0043190006
-0.0036856088
-0.0031623174
-0.002742846
-0.0023860363
-0.0020891239
-0.0018192068
-0.0015614461
-0.0012984062
-0.0010379779
-0.00064329878
-0.00040877833
-0.03508824
-0.040583902
-0.046864787
-0.053980198
-0.061956636
-0.070781191
-0.080401118
-0.090592683
-0.10094983
-0.10986982
-0.11620512
-0.12124181
-0.12441379
-0.12570701
-0.12498062
-0.12227239
-0.11771201
-0.11149873
-0.10392725
-0.095370197
-0.086192309
-0.076739474
-0.067424211
-0.058722824
-0.05075655
-0.042265682
-0.035212087
-0.028977288
-0.023726152
-0.019276095
-0.015512261
-0.01232823
-0.0096428366
-0.0073790814
-0.0054866503
-0.0039032791
-0.002603279
-0.0015623431
-0.00070378304
-0.034881242
-0.030301371
-0.026301114
-0.022839261
-0.019857006
-0.017287926
-0.015075038
-0.013168926
-0.011519385
-0.010043616
-0.0087154892
-0.0074420773
-0.0064115217
-0.0055160652
-0.0047342228
-0.0040994754
-0.003567684
-0.0031317191
-0.0027524947
-0.0024282896
-0.0021226478
-0.0018282667
-0.0015155407
-0.0012050141
-0.00074824853
-0.00044147135
-0.040103426
-0.046063141
-0.052832958
-0.0604531
-0.068934422
-0.078244369
-0.088302749
-0.098833187
-0.10936813
-0.11827444
-0.1241659
-0.12859485
-0.13096162
-0.1313126
-0.12955644
-0.12578494
-0.12016761
-0.11297213
-0.10454411
-0.095240371
-0.085411906
-0.075530417
-0.066175118
-0.057507661
-0.048001314
-0.04009697
-0.033068357
-0.027148221
-0.022127763
-0.017876992
-0.014279317
-0.011235
-0.0086677729
-0.0065009819
-0.0046844174
-0.0031634935
-0.001913603
-0.00090145058
-6.5742495e-05
-0.039877369
-0.034881243
-0.030490301
-0.026666019
-0.023349233
-0.020472322
-0.017977114
-0.015812567
-0.013926882
-0.012231141
-0.010701372
-0.009207416
-0.0079803621
-0.0069054728
-0.0059688046
-0.0051888009
-0.0045462523
-0.0039996264
-0.0035425902
-0.0031369853
-0.0027809511
-0.0024369806
-0.0021011168
-0.0017378409
-0.0013721107
-0.00085326654
-0.00047521714
-0.045539982
-0.051964948
-0.059219647
-0.06733322
-0.07629958
-0.086062097
-0.096502135
-0.10730816
-0.11794011
-0.12673206
-0.13206519
-0.13578554