/*--------------------------------*- C++ -*----------------------------------*\
| =========                 |                                                 |
| \\      /  F ield         | OpenFOAM: The Open Source CFD Toolbox           |
|  \\    /   O peration     | Version:  5.0                                   |
|   \\  /    A nd           | Web:      www.OpenFOAM.org                      |
|    \\/     M anipulation  |                                                 |
\*---------------------------------------------------------------------------*/
FoamFile
{
    version     2.0;
    format      ascii;
    class       surfaceScalarField;
    location    "135";
    object      phi;
}
// * * * * * * * * * * * * * * * * * * * * * * * * * * * * * * * * * * * * * //

dimensions      [0 3 -1 0 0 0 0];

internalField   nonuniform List<scalar> 
18180
(
0.0017885252
-1.3785582
0.0034532555
-1.2896214
0.0017448483
-1.3803031
0.004996381
-1.206536
0.0033618263
-1.2912384
0.0016938603
-1.3819969
0.0064256212
-1.1288847
0.004866494
-1.2080407
0.0032681027
-1.2928126
0.0016534172
-1.3836503
0.0077440987
-1.0563355
0.0062620967
-1.1302803
0.0047341766
-1.2095068
0.0031911152
-1.2943503
0.0016110104
-1.3852613
0.0089571837
-0.98850265
0.0075534429
-1.0576269
0.006096169
-1.1316423
0.0046273245
-1.210943
0.0031124726
-1.2958518
0.0015704119
-1.3868318
0.010067747
-0.92505553
0.0087442914
-0.98969349
0.0073598205
-1.0588905
0.0059667048
-1.1329816
0.0045185312
-1.212349
0.0030371029
-1.2973185
0.0015272981
-1.388359
0.011080225
-0.86568389
0.0098379766
-0.92614922
0.00852818
-0.99086185
0.0072149034
-1.0601387
0.0058349245
-1.134298
0.0044155592
-1.2137275
0.0029573902
-1.2987486
0.001481759
-1.3898408
0.011998778
-0.81010963
0.01083815
-0.86668406
0.0096046283
-0.92722566
0.0083748729
-0.99202182
0.0070673578
-1.0613712
0.005712797
-1.1355953
0.0043064602
-1.2150765
0.002873258
-1.3001401
0.0014320199
-1.3912728
0.012828305
-0.75807492
0.011748703
-0.81102018
0.010592274
-0.86767171
0.0094495438
-0.92830033
0.0082185648
-0.99317303
0.0069345663
-1.0625929
0.0055828343
-1.1368716
0.0041916943
-1.216395
0.0027812323
-1.3014893
0.0013778067
-1.3926506
0.013574168
-0.70934797
0.012573942
-0.75890016
0.01149467
-0.81192258
0.01044151
-0.86866367
0.0092910035
-0.92937277
0.0080835541
-0.99432202
0.0067922779
-1.0638024
0.0054469464
-1.1381269
0.0040654547
-1.2176792
0.002680601
-1.3027921
0.0013187765
-1.3939694
0.014242444
-0.66371171
0.013318592
-0.71009262
0.012315709
-0.7597212
0.01135368
-0.81283475
0.010286606
-0.86965928
0.0091616647
-0.93045088
0.0079374346
-0.99546717
0.006644832
-1.0650003
0.0052961031
-1.1393575
0.0039269706
-1.2189256
0.0025702787
-1.3040436
0.0012545287
-1.3952239
0.014840171
-0.62096544
0.013987866
-0.66438098
0.013059773
-0.71083668
0.012189261
-0.76055678
0.011207542
-0.81375569
0.010170176
-0.87066779
0.0090194457
-0.93153289
0.0077878166
-0.99661016
0.0064791144
-1.0661833
0.0051299359
-1.1405605
0.0037739118
-1.2201292
0.0024498049
-1.3052389
0.0011851295
-1.3964091
0.01537582
-0.58091803
0.01458778
-0.62156535
0.013731798
-0.665053
0.012951892
-0.71159931
0.012056242
-0.76140548
0.011110436
-0.81469595
0.010038874
-0.87168722
0.0088768249
-0.9326219
0.0076168335
-0.99774788
0.0062956739
-1.067349
0.0049447515
-1.1417314
0.0036058216
-1.2212852
0.0023193408
-1.3063731
0.0011108142
-1.3975199
0.015859821
-0.54338126
0.015125862
-0.58145611
0.014337507
-0.62217106
0.013645695
-0.66574681
0.012835595
-0.71237867
0.011983959
-0.76227901
0.010996166
-0.81565324
0.0099116574
-0.87272205
0.0087097921
-0.93371486
0.0074268223
-0.99887903
0.0060888308
-1.0684931
0.0047398135
-1.1428653
0.0034229336
-1.2223888
0.0021790236
-1.3074413
0.0010320542
-1.3985519
0.016304904
-0.50816362
0.015612333
-0.54386773
0.014883881
-0.58200248
0.014275483
-0.62280085
0.013549023
-0.66646024
0.012792629
-0.71318734
0.011891856
-0.76317469
0.010891791
-0.81663337
0.0097570238
-0.87376928
0.0085232539
-0.93481129
0.0072088706
-0.99999907
0.0058577658
-1.069611
0.0045146502
-1.1439571
0.0032251111
-1.2234349
0.0020297258
-1.3084389
0.00094941679
-1.3995014
0.016724974
-0.47506249
0.016061103
-0.50861239
0.015380001
-0.54436385
0.014847187
-0.58257419
0.014200702
-0.62345253
0.013538779
-0.66720639
0.012726871
-0.71402235
0.011816663
-0.76409957
0.010757054
-0.8176334
0.0095834032
-0.87482943
0.0083045096
-0.93590693
0.0069629357
-1.0011042
0.0056014598
-1.0706978
0.0042693659
-1.1450013
0.0030136765
-1.2244189
0.0018724656
-1.309362
0.00086360845
-1.400365
0.017133413
-0.44386382
0.016489903
-0.47549129
0.01583769
-0.50907008
0.015368837
-0.5448855
0.014795915
-0.5831694
0.014225373
-0.62413912
0.013502665
-0.66798218
0.012686041
-0.71489173
0.011708274
-0.76505079
0.010604881
-0.81865488
0.0093735877
-0.87589851
0.0080545969
-0.93699859
0.0066864834
-1.0021893
0.005319531
-1.071748
0.0040056875
-1.1459933
0.0027898279
-1.2253362
0.001708579
-1.310207
0.00077540444
-1.4011404
0.017540212
-0.41434951
0.016919063
-0.44429298
0.016271715
-0.47592532
0.015851465
-0.50955271
0.01534151
-0.54543109
0.014856514
-0.58380054
0.014221372
-0.62485783
0.013500153
-0.66879629
0.012609371
-0.71579283
0.011585
-0.76603091
0.010412863
-0.81969416
0.0091301347
-0.87697405
0.0077689607
-0.93808107
0.0063791618
-1.0032489
0.0050138282
-1.0727562
0.0037244087
-1.1469279
0.0025554739
-1.2261831
0.0015395185
-1.3109711
0.00068562993
-1.401826
0.017948699
-0.38631345
0.017367783
-0.41479823
0.016698721
-0.44471998
0.016309758
-0.47638361
0.015847342
-0.51005854
0.01543805
-0.54601263
0.014886129
-0.5844653
0.014259942
-0.62561762
0.013459492
-0.66964641
0.012521229
-0.71672905
0.011418645
-0.76703669
0.010185546
-0.82074957
0.008845975
-0.87805106
0.0074474953
-0.9391494
0.0060423806
-1.0042774
0.0046850541
-1.0737168
0.0034284172
-1.1478009
0.0023126124
-1.2269562
0.0013668653
-1.3116523
0.00059513371
-1.4024211
0.018353329
-0.35958094
0.017849262
-0.38679493
0.017134207
-0.41523372
0.01676131
-0.44517153
0.016326717
-0.47686298
0.015978647
-0.51059914
0.015501848
-0.54662835
0.014967305
-0.58517266
0.014258496
-0.62641662
0.013411482
-0.67053667
0.012387302
-0.71769771
0.01121618
-0.76806732
0.0099128995
-0.82181649
0.0085214259
-0.87912499
0.0070906705
-0.94019769
0.0056766451
-1.005269
0.004336457
-1.0746248
0.0031197334
-1.148608
0.002063516
-1.2276529
0.0011922539
-1.3122494
0.00050475184
-1.4029259
0.018739385
-0.33402641
0.018366003
-0.36009768
0.017588499
-0.38724922
0.017223769
-0.41569617
0.016795858
-0.44564068
0.016490506
-0.47737484
0.016075846
-0.51117314
0.015625816
-0.54728686
0.015007241
-0.58592141
0.014254358
-0.62725949
0.013315589
-0.67146495
0.012217289
-0.71869882
0.01096426
-0.76911868
0.0095958418
-0.82289091
0.0081556291
-0.88018995
0.0066989697
-0.94122002
0.0052855562
-1.0062181
0.0039701953
-1.0754753
0.0028013298
-1.1493458
0.001810537
-1.2282711
0.001017311
-1.312762
0.00041529202
-1.4033412
0.019084808
-0.30958206
0.018907007
-0.33456742
0.018062865
-0.36057204
0.017710496
-0.38773595
0.017271486
-0.4161718
0.016989203
-0.44613937
0.016619057
-0.47791805
0.016241616
-0.51178894
0.0157081
-0.54798771
0.015049451
-0.5867165
0.014200935
-0.62814484
0.013184417
-0.67243208
0.011994313
-0.71972887
0.010664567
-0.77018741
0.0092318471
-0.82396712
0.0077490635
-0.88124004
0.0062757329
-0.94221019
0.0048709989
-1.0071189
0.0035901471
-1.0762641
0.0024761619
-1.1500114
0.0015560491
-1.2288099
0.00084361577
-1.3131903
0.00032750943
-1.4036687
0.019363689
-0.28623493
0.019447886
-0.31012294
0.018547269
-0.33505182
0.018225981
-0.36108753
0.017766715
-0.38823118
0.01749162
-0.41667422
0.017146059
-0.44666637
0.01682445
-0.47850088
0.016365913
-0.51244675
0.01579788
-0.54873614
0.015041732
-0.5875573
0.014113744
-0.62907417
0.0129975
-0.67343527
0.011720946
-0.72078525
0.010312627
-0.77126819
0.0088213921
-0.82503945
0.0073044508
-0.88226876
0.0058228393
-0.94316203
0.0044375866
-1.0079664
0.0031992622
-1.0769872
0.0021473713
-1.1506027
0.0013023839
-1.2292686
0.00067266041
-1.3135355
0.00024209488
-1.4039108
0.019550523
-0.2640151
0.019953883
-0.28674092
0.019020716
-0.31059639
0.018762658
-0.3355885
0.018286509
-0.36160732
0.018012048
-0.38875161
0.017673316
-0.41720148
0.017387955
-0.44722988
0.016989109
-0.47912408
0.01650316
-0.51315203
0.015837818
-0.54953223
0.015002387
-0.58844594
0.013968813
-0.63004548
0.012758356
-0.67447268
0.011390569
-0.72186319
0.0099089213
-0.77235572
0.0083662826
-0.82610128
0.0068236337
-0.88326955
0.0053450749
-0.94406952
0.0039883604
-1.0087555
0.0028016835
-1.0776415
0.0018180434
-1.1511184
0.0010517811
-1.2296478
0.00050583154
-1.3137992
0.00015968177
-1.4040705
0.019624205
-0.24297697
0.020384988
-0.2644462
0.01945404
-0.28717425
0.019300523
-0.31113425
0.018824588
-0.33612658
0.018557468
-0.36215274
0.018215484
-0.38929378
0.017948255
-0.41776178
0.017590196
-0.44783097
0.017172351
-0.47979327
0.01659135
-0.51390556
0.015848873
-0.55037872
0.014904125
-0.58938125
0.013770621
-0.63105775
0.012458134
-0.67554024
0.011003667
-0.72295794
0.009454079
-0.77344351
0.0078682384
-0.82714589
0.0063112472
-0.88423572
0.0048457057
-0.94492687
0.0035283091
-1.0094821
0.0024009158
-1.0782244
0.0014910597
-1.1515577
0.00080637446
-1.2299483
0.00034439935
-1.3139839
8.0908269e-05
-1.4041514
0.019570516
-0.22317853
0.020702054
-0.24329404
0.019814172
-0.26480634
0.019809616
-0.28768334
0.019362457
-0.31167212
0.019123627
-0.33669274
0.018780535
-0.36271779
0.01852044
-0.38986596
0.01818467
-0.41835625
0.017816758
-0.44847537
0.017307966
-0.48050989
0.016653957
-0.51471065
0.015800654
-0.55127524
0.01475238
-0.59036301
0.013508083
-0.6321077
0.012097297
-0.67663387
0.010559487
-0.72406335
0.0089496052
-0.77452488
0.0073314732
-0.82816611
0.0057707003
-0.88516072
0.0043301514
-0.94572871
0.0030611903
-1.0101424
0.0020008655
-1.0787342
0.001169247
-1.1519205
0.00056820637
-1.2301721
0.00018954426
-1.3140926
6.5760821e-06
-1.4041579
0.019381597
-0.20466561
0.020872792
-0.22334927
0.020068984
-0.24354885
0.020254356
-0.26525107
0.019871202
-0.28819209
0.019693429
-0.31224192
0.019365372
-0.33727757
0.019113651
-0.363311
0.018787763
-0.39046905
0.018451159
-0.41899065
0.017997649
-0.44916506
0.017421791
-0.48127772
0.016657738
-0.51556773
0.015699526
-0.55222239
0.014533876
-0.5913888
0.013181609
-0.63319201
0.01167358
-0.67774796
0.010059222
-0.72517296
0.0083990404
-0.77559244
0.0067594061
-0.82915482
0.0052076079
-0.88603818
0.003802603
-0.94647012
0.0025918255
-1.0107333
0.001604862
-1.0791698
0.0008554384
-1.1522078
0.00033888165
-1.2303214
4.2695037e-05
-1.3141287
-6.2031244e-05
-1.4040959
0.019056565
-0.18746488
0.020876757
-0.20466957
0.020192295
-0.22347258
0.020598348
-0.24389284
0.020315871
-0.26569574
0.020238495
-0.28873715
0.019954034
-0.31283058
0.019726473
-0.3378904
0.019409513
-0.36393275
0.019090825
-0.39110872
0.018674277
-0.41966728
0.018160945
-0.44990421
0.017478006
-0.48209799
0.016609964
-0.51647817
0.015530119
-0.55321863
0.014248958
-0.59245615
0.012787348
-0.63430578
0.011187759
-0.6788765
0.009505524
-0.72627945
0.0078056675
-0.77663871
0.0061576257
-0.83010483
0.0046265336
-0.88686211
0.0032685132
-0.94714681
0.0021241101
-1.0112526
0.0012164252
-1.0795308
0.00055187084
-1.1524208
0.00012011859
-1.2303989
-9.5683963e-05
-1.314095
-0.00012858232
-1.4039673
0.018603758
-0.17158188
0.020703096
-0.18729122
0.020168481
-0.20464576
0.020807943
-0.22368217
0.020660778
-0.24423775
0.020723233
-0.26618048
0.020518926
-0.28930204
0.020344412
-0.31344852
0.020049806
-0.33853069
0.019746617
-0.36458854
0.019352941
-0.39178738
0.018884263
-0.4203906
0.018268535
-0.45069474
0.017484759
-0.48297278
0.016493295
-0.51744134
0.015292714
-0.55426239
0.01389216
-0.59356096
0.012325573
-0.63544359
0.010641428
-0.6800124
0.0089013782
-0.72737516
0.0071748201
-0.7776559
0.0055309385
-0.83100924
0.0040334074
-0.887627
0.0027324331
-0.94775513
0.0016623672
-1.0116985
0.00083844203
-1.0798174
0.00026044685
-1.1525611
-8.7406065e-05
-1.2304072
-0.00022639731
-1.3139972
-0.0001905501
-1.4037768
0.016235704
-0.18414226
0.020345001
-0.17122378
0.019988674
-0.18711141
0.020853961
-0.20469177
0.020874528
-0.22389592
0.021110027
-0.24462455
0.02102454
-0.26668609
0.020940495
-0.28989813
0.020695347
-0.31409406
0.020419701
-0.33920377
0.020045116
-0.36528072
0.019606506
-0.39250963
0.019040997
-0.42116306
0.018329417
-0.4515394
0.017422899
-0.48390239
0.01630796
-0.51845659
0.014980232
-0.55535046
0.013463186
-0.59469858
0.011796682
-0.63659884
0.010037111
-0.68114814
0.0082516465
-0.72845198
0.0065113873
-0.77863635
0.0048855879
-0.83186142
0.0034333861
-0.88832795
0.0021994321
-0.94829219
0.0012101801
-1.0120703
0.00047365142
-1.0800306
-1.7124298e-05
-1.1526314
-0.00028300519
-1.2303505
-0.00034814128
-1.3138396
-0.00024728073
-1.4035295
0.014167597
-0.17981138
0.018126825
-0.18192408
0.019645421
-0.17088053
0.020719177
-0.18697663
0.020933672
-0.20475092
0.021364197
-0.22415009
0.021432825
-0.24503283
0.021478883
-0.26722448
0.021319855
-0.29052264
0.021097998
-0.31477236
0.020753119
-0.33991178
0.020339633
-0.36601385
0.019809643
-0.39327827
0.019154311
-0.42198795
0.01832281
-0.45243931
0.017292622
-0.48488705
0.016045315
-0.51952167
0.014591776
-0.55647905
0.012961146
-0.59586304
0.011202596
-0.63776433
0.009378998
-0.68227549
0.0075611148
-0.72950171
0.0058217359
-0.7795725
0.0042272344
-0.83265527
0.0028322273
-0.88896075
0.001673865
-0.94875588
0.00077110918
-1.0123677
0.00012430708
-1.080172
-0.00027960011
-1.1526348
-0.00046571565
-1.230233
-0.00046068116
-1.3136262
-0.00029926961
-1.4032302
0.012309697
-0.17533724
0.016162799
-0.17784735
0.017501605
-0.17978026
0.020405051
-0.1705664
0.020823054
-0.18686601
0.021457842
-0.20484456
0.021708711
-0.22442598
0.021920232
-0.24547418
0.021887445
-0.26779207
0.021755855
-0.29118049
0.021466034
-0.31548528
0.021087012
-0.34065915
0.020586744
-0.36679095
0.019973023
-0.39409698
0.019201987
-0.42286713
0.01824891
-0.45339559
0.017083794
-0.48592553
0.01570384
-0.52063374
0.014125103
-0.55764301
0.012387228
-0.59704767
0.010546649
-0.63893198
0.0086715766
-0.68338595
0.006836071
-0.73051604
0.0051118902
-0.78045715
0.0035622299
-0.83338527
0.0022350534
-0.88952194
0.0011601125
-0.94914488
0.00034812286
-1.0125915
-0.00020760656
-1.080244
-0.00052579915
-1.1525747
-0.00063510421
-1.2300585
-0.00056386691
-1.3133616
-0.00034613231
-1.4028841
0.010575727
-0.17086802
0.014339039
-0.17351348
0.0156006
-0.17594635
0.018330534
-0.17770575
0.020535198
-0.17027855
0.02137338
-0.18678155
0.021824514
-0.20496037
0.022227307
-0.22473306
0.022358059
-0.24594479
0.022357142
-0.26839336
0.022158863
-0.29187332
0.021838811
-0.31623708
0.021376609
-0.34144902
0.02079799
-0.36761591
0.020073181
-0.39496818
0.01918427
-0.42380249
0.018096192
-0.45440799
0.016794276
-0.48701596
0.015279917
-0.52178855
0.013580575
-0.55883635
0.011743761
-0.59824478
0.0098328404
-0.64009324
0.0079208456
-0.68447072
0.006082728
-0.73148688
0.0043886615
-0.78128358
0.0028964135
-0.83404663
0.001647069
-0.89000889
0.00066193782
-0.9494587
-5.6080614e-05
-1.0127431
-0.00052050334
-1.0802493
-0.00075491886
-1.1524549
-0.00079080555
-1.2298316
-0.00065749938
-1.3130503
-0.00038819222
-1.4024959
0.0088929803
-0.16657299
0.012555801
-0.16908478
0.013837844
-0.17175072
0.016473671
-0.17408949
0.018533633
-0.17570418
0.021105799
-0.17001096
0.021762078
-0.18671912
0.022369651
-0.20510271
0.022693363
-0.22506836
0.022860713
-0.24644836
0.022795341
-0.26902984
0.022570594
-0.2926051
0.022170454
-0.31703092
0.021634352
-0.34228538
0.02094883
-0.36849156
0.020110484
-0.39589439
0.019088368
-0.42479466
0.017861932
-0.45547565
0.016419085
-0.48815513
0.014773012
-0.52298099
0.012959387
-0.56005198
0.011034079
-0.59944602
0.0090666739
-0.64123907
0.0071330101
-0.68552101
0.0053081912
-0.73240641
0.0036585144
-0.78204568
0.0022357875
-0.83463535
0.0010728817
-0.89041984
0.00018282759
-0.94969761
-0.0004393054
-1.0128243
-0.00081312884
-1.0801911
-0.00096641478
-1.1522793
-0.00093268885
-1.2295564
-0.0007417855
-1.3126967
-0.00042550924
-1.4020704
0.0072061857
-0.16262988
0.010732867
-0.16475006
0.012117591
-0.16736453
0.014723794
-0.17000084
0.016729164
-0.17228502
0.01916084
-0.17375922
0.021513226
-0.16976211
0.022326868
-0.18667633
0.022861713
-0.20527106
0.023226545
-0.22543419
0.023333417
-0.24698644
0.023245798
-0.26970504
0.022944413
-0.29337906
0.022474313
-0.31787088
0.021834796
-0.34317135
0.021039848
-0.36942093
0.020070999
-0.39687702
0.018911018
-0.42584375
0.017539815
-0.45659638
0.015956751
-0.48933887
0.014183099
-0.5242047
0.012264059
-0.56128196
0.010262993
-0.60064234
0.0082541375
-0.6423602
0.0063152778
-0.68652809
0.0045194158
-0.73326731
0.0029281792
-0.78273808
0.0015858145
-0.83514828
0.00051683079
-0.89075384
-0.00027429311
-0.94986262
-0.00079974771
-1.0128376
-0.0010845949
-1.0800729
-0.0011599938
-1.152052
-0.0010608424
-1.2292374
-0.00081686897
-1.3123053
-0.00045828404
-1.4016121
0.0054801718
-0.15921462
0.0088140762
-0.16071109
0.010361037
-0.1629935
0.01298071
-0.16562144
0.015013207
-0.16828489
0.017390604
-0.17051478
0.01962172
-0.17186772
0.022090578
-0.16952582
0.022841343
-0.18665596
0.023421075
-0.20546559
0.023731657
-0.22583243
0.023821227
-0.24756187
0.02366163
-0.27042226
0.023294504
-0.29419925
0.02272422
-0.31876031
0.021978855
-0.34411035
0.021056101
-0.37040603
0.019950993
-0.397917
0.01864464
-0.42694857
0.017127429
-0.45776705
0.015405969
-0.49056174
0.013511749
-0.52545239
0.011498529
-0.5625175
0.0094360664
-0.60182427
0.0074023332
-0.64344725
0.0054749245
-0.6874836
0.0037237524
-0.73406289
0.0022039472
-0.78335621
0.00095172749
-0.83558318
-1.7324882e-05
-0.89101081
-0.0007069371
-0.94995543
-0.0011360447
-1.0127862
-0.0013343459
-1.0798986
-0.0013356379
-1.1517772
-0.0011754793
-1.2288788
-0.0008830685
-1.3118805
-0.00048673297
-1.4011254
0.0036998795
-0.15648843
0.0067708649
-0.15717141
0.0085126079
-0.15886266
0.011162951
-0.16117575
0.013285268
-0.1638935
0.015684614
-0.1665789
0.017888661
-0.16878172
0.020241877
-0.17001902
0.022621417
-0.1693059
0.02342089
-0.18665578
0.023954895
-0.20568883
0.024253755
-0.22626496
0.024277765
-0.248178
0.024057668
-0.27118542
0.02359422
-0.29506925
0.022921547
-0.319703
0.022050699
-0.34510495
0.020993469
-0.3714485
0.01974171
-0.39901407
0.018285902
-0.42810705
0.016622167
-0.45898325
0.014767269
-0.49181726
0.012761883
-0.52671574
0.010667741
-0.56374917
0.0085600829
-0.60298202
0.0065186623
-0.64449099
0.0046197744
-0.68837962
0.0029282471
-0.73478719
0.0014919467
-0.78389643
0.0003381915
-0.83593869
-0.00052629842
-0.89119144
-0.001113145
-0.94997833
-0.0014472349
-1.0126733
-0.001562152
-1.079672
-0.0014935265
-1.1514591
-0.0012769769
-1.2284848
-0.00094074903
-1.3114265
-0.00051107431
-1.4006143
0.0018679708
-0.15458551
0.0046021027
-0.15431966
0.0065428461
-0.15520165
0.0092138656
-0.15691357
0.011462234
-0.15935271
0.013939685
-0.16214858
0.016199848
-0.16489008
0.018531527
-0.16707137
0.020817162
-0.16821476
0.023214592
-0.1690996
0.023978109
-0.18667899
0.024506388
-0.20594146
0.024747984
-0.22673518
0.024718128
-0.24883846
0.024407098
-0.2719983
0.023845505
-0.29599321
0.023049715
-0.32070201
0.022045924
-0.3461574
0.020842109
-0.3725489
0.019438936
-0.4001671
0.017830901
-0.42931578
0.016023452
-0.46023943
0.014042425
-0.4930978
0.011937641
-0.52798564
0.0097779466
-0.56496703
0.007642355
-0.60410571
0.0056112422
-0.64548246
0.0037575114
-0.68920889
0.0021398843
-0.73543512
0.0007977879
-0.78435602
-0.00025060918
-0.83621438
-0.0010073972
-0.89129719
-0.0014914061
-0.94993416
-0.0017327648
-1.0125027
-0.0017680632
-1.0793975
-0.0016340438
-1.1511021
-0.0013658138
-1.2280598
-0.00099032328
-1.3109472
-0.00053156094
-1.4000827
-0.15360246
6.6561877e-09
0.0023311955
-0.15231461
0.0044497172
-0.15222653
0.0071062065
-0.15309399
0.0094868577
-0.1549382
0.012070296
-0.15748332
0.014449664
-0.16039839
0.016844186
-0.16320274
0.019134777
-0.16538899
0.021447313
-0.16644748
0.023788235
-0.16890972
0.024552533
-0.18672514
0.02503346
-0.20622693
0.025229132
-0.22724618
0.025115742
-0.24954711
0.024712508
-0.2728653
0.024031213
-0.29697471
0.023104157
-0.32176024
0.0219537
-0.347269
0.020596992
-0.37370696
0.019037511
-0.40137371
0.017277929
-0.43057026
0.015331829
-0.46152884
0.013234625
-0.49439479
0.011044548
-0.52925224
0.0088361557
-0.56616083
0.006691093
-0.60518556
0.0046882402
-0.64641319
0.0028958927
-0.6899649
0.001365216
-0.73600255
0.00012662028
-0.78473325
-0.00081111352
-0.83641067
-0.0014584361
-0.89133016
-0.001840706
-0.94982622
-0.0019924335
-1.0122783
-0.0019523895
-1.0790792
-0.0017577288
-1.1507101
-0.0014425566
-1.2276075
-0.0010322529
-1.3104466
-0.0005484414
-1.3995343
-0.15127128
1.3088803e-08
-0.15360246
-0.0018679576
0.0022553971
-0.15012029
0.0048434643
-0.14996379
0.0073326188
-0.15093975
0.010018421
-0.15288632
0.012551045
-0.1555847
0.015072085
-0.15862629
0.0174563
-0.16152427
0.01978272
-0.16372439
0.022058825
-0.16471807
0.024378264
-0.16873545
0.025105968
-0.18679764
0.025549852
-0.20654765
0.025671311
-0.22780175
0.025473831
-0.25030843
0.024956434
-0.27379052
0.024146741
-0.29801729
0.023073168
-0.32287971
0.021768261
-0.34844026
0.020251752
-0.3749212
0.018534594
-0.40263038
0.016626246
-0.43186467
0.014549406
-0.46284362
0.012348486
-0.49569872
0.010089094
-0.53050518
0.0078504514
-0.56732019
0.0057147588
-0.60621208
0.0037580588
-0.64727535
0.0020423635
-0.69064204
0.00061038757
-0.73648632
-0.00051702995
-0.78502734
-0.0013403493
-0.83652875
-0.0018777848
-0.89129308
-0.0021604628
-0.94965819
-0.002226375
-1.0120043
-0.0021156577
-1.0787212
-0.0018652509
-1.1502874
-0.0015078422
-1.227132
-0.0010670149
-1.309928
-0.00056197565
-1.3989723
-0.1490159
1.5606637e-08
-0.15127128
-0.0023311697
-0.15458552
-0.0036998665
0.0024571643
-0.14773399
0.0050056557
-0.14763683
0.0077601939
-0.14868153
0.010444557
-0.15077984
0.013125927
-0.15363854
0.015669978
-0.15683997
0.018101493
-0.15984304
0.020414825
-0.16208039
0.022682593
-0.1630224
0.024950179
-0.16857966
0.025650465
-0.18689826
0.026030772
-0.20690712
0.026078287
-0.22840621
0.025774932
-0.25112693
0.025134352
-0.27477813
0.02417967
-0.2991238
0.022950355
-0.32406181
0.021482098
-0.34967061
0.019802434
-0.37618904
0.01792814
-0.40393227
0.015876793
-0.43319206
0.013679746
-0.46417488
0.01138978
-0.49699941
0.0090790182
-0.53173375
0.0068293852
-0.56843482
0.0047222387
-0.60717626
0.0028289446
-0.64806193
0.0012040499
-0.69123571
-0.0001190469
-0.7368843
-0.001129263
-0.78523842
-0.0018359256
-0.83657061
-0.0022643416
-0.8911892
-0.002450509
-0.94943405
-0.0024350097
-1.011685
-0.002258577
-1.0783279
-0.0019573839
-1.1498379
-0.0015623498
-1.2266366
-0.0010951062
-1.3093949
-0.00057242125
-1.3983999
-0.14655875
1.8653749e-08
-0.1490159
-0.0022553658
-0.15231461
-0.0046020772
-0.15648843
-0.0054801592
0.0025419139
-0.14527025
0.0053059429
-0.14518258
0.0081063257
-0.14634329
0.010946674
-0.14860058
0.013683207
-0.15165177
0.01629069
-0.15502917
0.018734834
-0.15816305
0.021054507
-0.16045231
0.023289045
-0.16136127
0.025514767
-0.16844397
0.026162472
-0.18702996
0.026480361
-0.20730919
0.026432971
-0.22906425
0.026014669
-0.25200725
0.025233351
-0.27583182
0.024123116
-0.30029656
0.022727146
-0.32530685
0.021090182
-0.35095836
0.019245688
-0.37750659
0.017217868
-0.40527334
0.015031965
-0.43454428
0.012727725
-0.46551282
0.01036569
-0.49828608
0.0080227395
-0.5329271
0.0057821312
-0.56949471
0.0037224434
-0.60806976
0.0019089462
-0.64876683
0.00038755757
-0.69174231
-0.00081815333
-0.73719541
-0.0017068303
-0.78536752
-0.002296064
-0.83653889
-0.0026174966
-0.89102222
-0.0027110463
-0.94915802
-0.0026190051
-1.0113246
-0.002382007
-1.0779033
-0.0020349754
-1.1493653
-0.0016067914
-1.2261249
-0.0011170259
-1.3088502
-0.00058003323
-1.3978199
-0.14401686
2.0565135e-08
-0.14655875
-0.0024571275
-0.15012029
-0.0044496868
-0.15431966
-0.0067708404
-0.15921463
-0.0072061737
0.0026973408
-0.14266164
0.0055498538
-0.14262611
0.0085106669
-0.14390729
0.011435389
-0.14635276
0.014256088
-0.14961717
0.016902963
-0.15319729
0.019371007
-0.15647955
0.021678507
-0.15884177
0.02388765
-0.15973415
0.026049118
-0.16833061
0.026646369
-0.18719597
0.026882313
-0.20775853
0.026731121
-0.2297807
0.026179926
-0.25295382
0.025246232
-0.27695493
0.023967574
-0.30153698
0.022397505
-0.32661418
0.020587869
-0.35230054
0.018579977
-0.3788687
0.016404917
-0.4066463
0.014095594
-0.43591215
0.011699771
-0.4668469
0.0092842777
-0.49954762
0.0069295091
-0.53407448
0.0047180969
-0.57049036
0.0027242426
-0.60888506
0.001005696
-0.64938497
-0.00040109028
-0.69215937
-0.001482715
-0.73741953
-0.0022471124
-0.78541647
-0.0027195678
-0.83643682
-0.0029370997
-0.89079616
-0.0029425978
-0.94883442
-0.0027792373
-1.0109273
-0.0024869208
-1.0774513
-0.0020989271
-1.1488731
-0.0016418919
-1.2256001
-0.0011332712
-1.308297
-0.00058506092
-1.3972348
-0.14131954
2.1718203e-08
-0.14401686
-0.0025418735
-0.14773399
-0.0048434279
-0.15222653
-0.0065428164
-0.15717141
-0.0088140525
-0.16262988
-0.0088929688
0.0028229231
-0.13993471
0.0058338923
-0.13994933
0.0089042316
-0.14137613
0.011934999
-0.14403167
0.014822066
-0.14753627
0.017514254
-0.15134054
0.019993149
-0.15479419
0.022292676
-0.1572468
0.02445756
-0.15814259
0.026557916
-0.16824216
0.027087006
-0.18740066
0.027232402
-0.20825981
0.026959742
-0.23056051
0.026263371
-0.25397096
0.025162754
-0.27815011
0.023706114
-0.30284559
0.021955522
-0.32798183
0.019972345
-0.35369291
0.017805124
-0.3802689
0.015491965
-0.40804267
0.013073185
-0.43728556
0.010603378
-0.468166
0.0081546497
-0.50077276
0.0058090307
-0.53516541
0.0036468267
-0.57141295
0.0017362243
-0.60961558
0.00012631926
-0.64991238
-0.001156579
-0.69248551
-0.0021091571
-0.73755748
-0.0027481735
-0.78538786
-0.003105783
-0.83626813
-0.0032234085
-0.89051535
-0.0031459678
-0.94846769
-0.0029167475
-1.0104975
-0.0025743777
-1.0769759
-0.0021501717
-1.1483649
-0.0016683802
-1.225065
-0.0011443307
-1.3077377
-0.00058774485
-1.3966471
-0.13849664
2.236512e-08
-0.14131954
-0.0026972972
-0.14527024
-0.0050056156
-0.14996379
-0.0071061715
-0.15520165
-0.0085125796
-0.16071109
-0.010732844
-0.166573
-0.010575716
0.0029697397
-0.13707056
0.0061098035
-0.1371549
0.0093057397
-0.13874687
0.012428948
-0.14163856
0.015385268
-0.14540729
0.018113022
-0.14946041
0.020603748
-0.15310526
0.02288057
-0.1556698
0.025002418
-0.15658709
0.027027236
-0.16818239
0.027480006
-0.18764826
0.027518087
-0.20881816
0.027111522
-0.23140867
0.026254294
-0.2550625
0.024975267
-0.27941926
0.023331643
-0.30422171
0.021397113
-0.3294066
0.019242065
-0.35512985
0.016922554
-0.38169949
0.01448345
-0.40945293
0.011971474
-0.43865366
0.0094472898
-0.46945864
0.0069865913
-0.50195032
0.0046713494
-0.53618994
0.0025777555
-0.57225448
0.00076658445
-0.61025585
-0.00072271836
-0.65034624
-0.0018743184
-0.69272035
-0.0026946382
-0.73761102
-0.0032087017
-0.78528495
-0.0034545634
-0.83603698
-0.0034770449
-0.89018428
-0.0033221898
-0.94806225
-0.0030327071
-1.0100392
-0.0026454947
-1.0764806
-0.0021896574
-1.1478436
-0.0016869764
-1.2245223
-0.0011506772
-1.3071748
-0.0005883152
-1.3960587
-0.13552692
2.2799926e-08
-0.13849664
-0.0028228781
-0.14266164
-0.0053059006
-0.14763683
-0.0073325803
-0.15309399
-0.0092138316
-0.15886266
-0.01036101
-0.16475006
-0.01255578
-0.17086802
-0.012309687
0.0031116537
-0.13407241
0.0063911975
-0.13424036
0.0097026213
-0.13602054
0.012919257
-0.13917255
0.015937066
-0.14323133
0.018699565
-0.14755623
0.021190711
-0.1514154
0.023443816
-0.1541112
0.02551062
-0.15507048
0.02745263
-0.16815501
0.027813555
-0.18794373
0.027732153
-0.20943879
0.027175601
-0.23232997
0.026144569
-0.2562318
0.024675656
-0.28076328
0.022838852
-0.30566345
0.020719327
-0.33088386
0.01839712
-0.35660441
0.015935518
-0.38315156
0.013385183
-0.41086664
0.010798633
-0.440005
0.008241149
-0.4707132
0.005790445
-0.50306942
0.0035265943
-0.53713878
0.0015200652
-0.57300796
-0.00017705924
-0.61080151
-0.0015356912
-0.65068487
-0.0025504196
-0.69286457
-0.0032370397
-0.73758268
-0.0036279877
-0.78511152
-0.0037662165
-0.83574781
-0.0036989382
-0.88980753
-0.0034724854
-0.94762247
-0.0031283829
-1.0095563
-0.0027014242
-1.0759688
-0.0022183298
-1.1473122
-0.0016983806
-1.2239746
-0.0011527645
-1.3066104
-0.00058699346
-1.3954718
-0.13241529
2.2563647e-08
-0.13552692
-0.0029696949
-0.13993471
-0.0055498102
-0.14518257
-0.0077601524
-0.15093975
-0.0094868202
-0.15691357
-0.011162919
-0.16299351
-0.012117565
-0.16908478
-0.014339019
-0.17533724
-0.014167588
0.003256629
-0.13093784
0.0066693128
-0.13120705
0.010096097
-0.13319738
0.013399895
-0.13663538
0.016476969
-0.14100874
0.019264655
-0.14563018
0.021753767
-0.14972535
0.023973572
-0.15257416
0.0259781
-0.15359595
0.02782305
-0.16816451
0.028080545
-0.18829212
0.027863896
-0.21012708
0.027143629
-0.23332903
0.025925312
-0.25748146
0.024257528
-0.28218195
0.022223391
-0.30716751
0.019920837
-0.33240758
0.017439453
-0.35810835
0.014848757
-0.38461513
0.012204586
-0.41227259
0.0095639524
-0.4413278
0.0069953812
-0.47191814
0.0045768533
-0.50411968
0.0023848168
-0.53800353
0.00048248515
-0.5736675
-0.0010877714
-0.61124943
-0.0023076222
-0.65092766
-0.0031818003
-0.69291981
-0.0037349233
-0.73747574
-0.0040058789
-0.78487186
-0.0040414501
-0.8354053
-0.0038902782
-0.88938973
-0.0035982221
-0.94715263
-0.0032051079
-1.0090526
-0.0027433283
-1.0754438
-0.0022371119
-1.1467735
-0.0017032684
-1.2234241
-0.0011510346
-1.3060463
-0.00058398459
-1.3948878
-0.12915868
2.1452401e-08
-0.13241529
-0.0031116095
-0.13707056
-0.0058338479
-0.1426261
-0.0081062828
-0.14868152
-0.010018382
-0.1549382
-0.011462199
-0.16117574
-0.012980679
-0.16736453
-0.013837819
-0.17351348
-0.01616278
-0.17981138
-0.016235695
0.0033998745
-0.1276684
0.0069448196
-0.12805577
0.010481773
-0.13027926
0.013869463
-0.13402787
0.01699767
-0.13874175
0.019807101
-0.14368351
0.022285787
-0.14803757
0.024465265
-0.15106132
0.026395388
-0.15216829
0.028131564
-0.16821553
0.028270682
-0.18869891
0.027904976
-0.21088843