/*--------------------------------*- C++ -*----------------------------------*\
| =========                 |                                                 |
| \\      /  F ield         | OpenFOAM: The Open Source CFD Toolbox           |
|  \\    /   O peration     | Version:  5.0                                   |
|   \\  /    A nd           | Web:      www.OpenFOAM.org                      |
|    \\/     M anipulation  |                                                 |
\*---------------------------------------------------------------------------*/
FoamFile
{
    version     2.0;
    format      ascii;
    class       volScalarField;
    location    "135";
    object      pMean;
}
// * * * * * * * * * * * * * * * * * * * * * * * * * * * * * * * * * * * * * //

dimensions      [0 2 -2 0 0 0 0];

internalField   nonuniform List<scalar> 
9200
(
-0.00053371313
-0.00052628731
-0.0011961661
-0.00051904531
-0.0011855009
-0.0020426205
-0.00050919166
-0.001166835
-0.0020232459
-0.002800324
-0.00049602592
-0.0011405623
-0.0019926826
-0.0027766693
-0.003585717
-0.00048098788
-0.0011054858
-0.0019501094
-0.0027362956
-0.0035578657
-0.004343556
-0.00046311063
-0.0010648851
-0.0018933427
-0.0026804865
-0.0035089561
-0.0043141248
-0.0050955848
-0.00044346022
-0.0010171847
-0.0018270206
-0.0026054294
-0.0034420254
-0.00425935
-0.0050662374
-0.0058303616
-0.00042189734
-0.00096446749
-0.0017491512
-0.0025172656
-0.0033509687
-0.0041852728
-0.0050080098
-0.0058034938
-0.00655159
-0.0003989991
-0.00090668889
-0.001662624
-0.0024133778
-0.0032433794
-0.0040826693
-0.0049303881
-0.0057447961
-0.0065295104
-0.0072538663
-0.00037503668
-0.00084498345
-0.0015676758
-0.0022973937
-0.0031158188
-0.0039606205
-0.00482028
-0.0056679969
-0.0064735892
-0.0072391318
-0.0079376939
-0.0003504442
-0.00077993914
-0.0014660969
-0.002169684
-0.0029726357
-0.003814443
-0.0046882312
-0.0055552712
-0.0064024097
-0.007189427
-0.0079328445
-0.0085981423
-0.00032560673
-0.00071234996
-0.0013590599
-0.0020325577
-0.0028143424
-0.0036489544
-0.0045280119
-0.0054185931
-0.0062925751
-0.0071288932
-0.0078929854
-0.0086057883
-0.009233965
-0.00030089354
-0.00064287639
-0.0012480343
-0.0018876052
-0.0026437563
-0.0034644962
-0.0043448382
-0.0052497925
-0.0061573664
-0.0070277345
-0.0078484926
-0.0085795076
-0.0092567416
-0.0098407431
-0.00027655726
-0.00057217836
-0.0011343331
-0.0017367968
-0.0024628989
-0.0032643478
-0.0041387283
-0.0050543088
-0.0059863012
-0.0069005233
-0.0077623836
-0.008556582
-0.0092479242
-0.009881145
-0.010416287
-0.00025258163
-0.00050094922
-0.0010191991
-0.0015819173
-0.0022742908
-0.0030509008
-0.0039132487
-0.0048316649
-0.0057848538
-0.0067340433
-0.0076503275
-0.0084920818
-0.0092521802
-0.0098935337
-0.010476715
-0.010956935
-0.00022842321
-0.00043000623
-0.0009037581
-0.0014247074
-0.0020802527
-0.002827192
-0.0036710557
-0.0045855841
-0.0055517724
-0.0065335419
-0.0074960024
-0.0084026848
-0.0092161153
-0.0099305608
-0.010514063
-0.011039592
-0.011459944
-0.00020286592
-0.00036035674
-0.00078895729
-0.0012668069
-0.0018830638
-0.0025960646
-0.0034156277
-0.0043188439
-0.0052907565
-0.00629673
-0.0073042071
-0.0082685842
-0.0091572863
-0.0099298556
-0.010589455
-0.011105313
-0.011566923
-0.011922568
-0.00017392898
-0.00029331847
-0.00067549713
-0.0011097792
-0.0016848282
-0.0023603557
-0.0031502829
-0.0040352767
-0.0050045564
-0.0060270964
-0.0070713058
-0.0080938507
-0.0090520446
-0.009909689
-0.010630967
-0.011224249
-0.011664412
-0.012055589
-0.012342559
-0.00013895049
-0.0002305033
-0.00056394182
-0.00095514908
-0.0014874326
-0.002122722
-0.0028783696
-0.0037386278
-0.0046972663
-0.0057271873
-0.0068003393
-0.0078732215
-0.0089034729
-0.009842269
-0.01065767
-0.011314704
-0.011831869
-0.012187832
-0.012503054
-0.012718021
-9.4942447e-05
-0.00017377284
-0.00045468419
-0.00080439474
-0.001292548
-0.0018855778
-0.0026030452
-0.0034327537
-0.0043730024
-0.0054012338
-0.0064934517
-0.0076090438
-0.0087043595
-0.0097294629
-0.010637363
-0.011396419
-0.011977758
-0.012408187
-0.012672634
-0.012907081
-0.013047508
-3.9095774e-05
-0.0001250796
-0.0003478881
-0.00065902761
-0.0011016974
-0.0016510738
-0.0023272166
-0.0031213369
-0.0040361047
-0.0050536377
-0.006154863
-0.0073028235
-0.0084560852
-0.00956181
-0.010570438
-0.01143258
-0.012122409
-0.012615447
-0.012949909
-0.013116089
-0.013265874
-0.013330038
3.0657748e-05
-8.6183351e-05
-0.00024364381
-0.00052057811
-0.0009162179
-0.0014211156
-0.0020534937
-0.0028078143
-0.0036907944
-0.0046891788
-0.00578915
-0.006958582
-0.0081592587
-0.0093394402
-0.010444896
-0.011421928
-0.012224369
-0.012830582
-0.013224047
-0.013453561
-0.013515929
-0.01357808
-0.013565086
0.00011516587
-5.8401588e-05
-0.00014211585
-0.00039045959
-0.00073728917
-0.0011974574
-0.0017842061
-0.0024953214
-0.0033410852
-0.0043126143
-0.0054014665
-0.0065809197
-0.0078174855
-0.0090617745
-0.010259325
-0.011349668
-0.012280554
-0.013007411
-0.013516684
-0.013799264
-0.013916193
-0.013870275
-0.013842818
-0.013752585
0.0002137349
-4.2534399e-05
-4.3637922e-05
-0.00026989237
-0.00056596651
-0.00098174522
-0.0015214273
-0.0021866662
-0.0029906831
-0.0039285519
-0.0049970776
-0.006175269
-0.00743521
-0.0087317422
-0.010011654
-0.011212558
-0.012273153
-0.01314093
-0.013777025
-0.014175683
-0.01433749
-0.014335122
-0.014177696
-0.014059674
-0.013892937
0.00032412979
-3.8997286e-05
5.1320604e-05
-0.00015981816
-0.0004032082
-0.00077555208
-0.0012670168
-0.0018843498
-0.002642957
-0.0035413116
-0.0045811957
-0.0057473507
-0.0070180101
-0.0083534073
-0.0097038559
-0.011006721
-0.012196822
-0.013210153
-0.013998126
-0.014527548
-0.014803144
-0.014835095
-0.014708152
-0.014437232
-0.014228693
-0.013986926
0.00044283069
-4.74244e-05
0.00014247289
-6.0850087e-05
-0.00024992863
-0.00058035409
-0.0010226667
-0.0015906563
-0.0023009359
-0.0031548591
-0.0041587999
-0.0053029663
-0.0065719719
-0.0079323158
-0.0093393534
-0.010732854
-0.012045568
-0.0132074
-0.014155734
-0.014845995
-0.015253727
-0.015394396
-0.01528897
-0.015033536
-0.014648426
-0.014350375
-0.014035554
0.00056559323
-6.5697992e-05
0.00022953096
2.6732535e-05
-0.00010689329
-0.00039743859
-0.00078995451
-0.0013077289
-0.0019673653
-0.002772801
-0.0037345349
-0.0048477628
-0.0061034427
-0.0074747926
-0.0089234428
-0.01039344
-0.011818487
-0.013124259
-0.014239631
-0.015103493
-0.015678595
-0.015949912
-0.015945299
-0.015696324
-0.015310074
-0.014811316
-0.014425587
-0.014040137
0.00068801231
-8.9232621e-05
0.00031107738
0.0001029031
2.5329389e-05
-0.00022797217
-0.00057032989
-0.0010375803
-0.0016447813
-0.0023984226
-0.0033126676
-0.0043870916
-0.005618738
-0.0069876505
-0.0084625148
-0.0099932608
-0.011516792
-0.012957887
-0.014238724
-0.015287155
-0.016047001
-0.016489364
-0.016610839
-0.01645188
-0.016054928
-0.015537043
-0.014926365
-0.014455462
-0.014002709
0.00080338341
-0.00011242847
0.00038359064
0.00016771987
0.00014619629
-7.2875802e-05
-0.00036503548
-0.00078209653
-0.0013355395
-0.0020347627
-0.0028971117
-0.0039259343
-0.0051239555
-0.0064778382
-0.0079637276
-0.0095385504
-0.011144444
-0.012707878
-0.014147903
-0.015382978
-0.01634332
-0.016978953
-0.017271945
-0.017231291
-0.016910728
-0.016362989
-0.015714146
-0.014994359
-0.01444152
-0.013925461
0.00091363725
-0.00013654775
0.0004457372
0.00022198395
0.00025469026
6.7299627e-05
-0.00017509384
-0.00054295179
-0.0010418109
-0.0016847033
-0.0024914993
-0.0034689026
-0.0046248562
-0.0059521988
-0.0074345937
-0.0090366433
-0.010707249
-0.012377019
-0.013964772
-0.015383279
-0.01655048
-0.017400328
-0.017892013
-0.018019851
-0.017806531
-0.017318847
-0.016619271
-0.015841435
-0.01501644
-0.014385742
-0.013810578
0.0010335655
-0.00016504643
0.00049819592
0.00027129369
0.00034937971
0.00019207872
-1.3505999e-06
-0.00032152878
-0.00076560249
-0.0013509841
-0.0020992477
-0.0030202995
-0.0041268313
-0.005417307
-0.0068826805
-0.0084954985
-0.010212498
-0.011970373
-0.013690575
-0.01528331
-0.016657956
-0.017733258
-0.018450067
-0.018778485
-0.018726941
-0.018332186
-0.017673848
-0.016823036
-0.015919481
-0.014994159
-0.014290247
-0.013660516
0.001156301
-0.00019700595
0.00054247044
0.0003173843
0.00043449005
0.00030167581
0.00015495189
-0.00011896668
-0.00050863965
-0.0010361076
-0.0017235839
-0.0025842062
-0.0036349424
-0.0048793959
-0.0063153919
-0.0079233425
-0.0096684315
-0.011494907
-0.013329266
-0.015082374
-0.016658304
-0.017964167
-0.018922717
-0.019483789
-0.019630824
-0.019387329
-0.018804485
-0.017973894
-0.016974137
-0.01594936
-0.014929303
-0.01415729
-0.013478025
0.0012759418
-0.00023017205
0.00059048434
0.00034663483
0.00051382768
0.00040430008
0.00029286403
6.3467027e-05
-0.00027233307
-0.00074220405
-0.0013675253
-0.0021645308
-0.0031540021
-0.0043443705
-0.0057398503
-0.0073283892
-0.0090838251
-0.01095892
-0.012887156
-0.014782912
-0.016548485
-0.018082606
-0.019293198
-0.020109307
-0.020492635
-0.020441569
-0.01999567
-0.019220231
-0.018217795
-0.017072941
-0.015932527
-0.014823988
-0.013989406
-0.013265617
0.0013882726
-0.00026428442
0.0006399446
0.00037137112
0.00057699171
0.00050218077
0.00042136173
0.00022522178
-5.846871e-05
-0.00047108717
-0.0010337381
-0.001764946
-0.0026886313
-0.0038178788
-0.0051628719
-0.0067186719
-0.008467647
-0.010371574
-0.012372323
-0.014390202
-0.016329
-0.018082805
-0.019547804
-0.020635038
-0.02128305
-0.021467591
-0.021203671
-0.020547166
-0.01957692
-0.018404963
-0.017120316
-0.015870822
-0.014680627
-0.013789326
-0.013025751
0.0014893992
-0.00029797173
0.00068655225
0.00039891335
0.00063613915
0.00057175257
0.00054365619
0.00037784461
0.00013178952
-0.00022495135
-0.00072451097
-0.0013887285
-0.0022432351
-0.003305383
-0.004591021
-0.0061019764
-0.0078288291
-0.009742483
-0.011794091
-0.013911755
-0.016003669
-0.017962889
-0.019677678
-0.021043842
-0.02197889
-0.022433513
-0.022399856
-0.02191054
-0.021037725
-0.019872728
-0.018535418
-0.01711758
-0.015766372
-0.014501754
-0.013559627
-0.012760893
0.0015755256
-0.00032928578
0.00072807791
0.00042459826
0.00069372836
0.00063383826
0.00063550916
0.00052312716
0.00031192161
-5.1882536e-06
-0.00044258702
-0.0010387267
-0.0018218268
-0.0028121461
-0.0040306814
-0.0054858671
-0.0071761532
-0.0090814252
-0.011162559
-0.013356769
-0.015579037
-0.017724756
-0.019678138
-0.021323474
-0.022559493
-0.023313137
-0.023550194
-0.023280924
-0.022556248
-0.021463984
-0.02010654
-0.018609746
-0.017066453
-0.01562154
-0.014289982
-0.013302902
-0.012473513
0.0016432762
-0.00035649074
0.00076388024
0.00044587028
0.00074890971
0.00069767047
0.00072049066
0.00062868903
0.00048443488
0.00020416719
-0.00018997003
-0.00071832592
-0.0014279476
-0.0023430254
-0.0034880608
-0.0048777529
-0.0065182396
-0.0083981732
-0.010488249
-0.012735605
-0.015063824
-0.017373539
-0.019548685
-0.021466036
-0.023008996
-0.024082307
-0.024625748
-0.024622644
-0.024102839
-0.023135602
-0.02182338
-0.020277931
-0.018629062
-0.016968993
-0.01543886
-0.014047968
-0.013021722
-0.012166096
0.0016899255
-0.00037813041
0.00079335651
0.00046314867
0.00079776618
0.00075832133
0.0008036292
0.00072786549
0.00061064049
0.00040505235
5.171704e-05
-0.00043016396
-0.0010657193
-0.0019023696
-0.002968993
-0.0042849028
-0.0058635992
-0.0077024406
-0.0097818709
-0.012059364
-0.01446836
-0.016917064
-0.019292549
-0.02146816
-0.023315936
-0.024721407
-0.02559901
-0.025904417
-0.025640768
-0.024858318
-0.02364426
-0.022114152
-0.020387147
-0.018594955
-0.016827547
-0.015220988
-0.013778381
-0.012718626
-0.011841027
0.0017136795
-0.00039321361
0.0008159291
0.00047685339
0.00083949037
0.00081050941
0.00088360394
0.00082678018
0.0007308183
0.00054987697
0.00028485523
-0.00015322899
-0.00073865044
-0.0014951854
-0.0024787941
-0.0037142585
-0.0052206577
-0.0070039093
-0.0090542277
-0.011339593
-0.013804101
-0.01636527
-0.018916191
-0.021330655
-0.023473617
-0.025215127
-0.026446592
-0.027095657
-0.027136908
-0.026595
-0.025540922
-0.024078772
-0.022335356
-0.020435059
-0.018509431
-0.016644696
-0.014970668
-0.013483877
-0.012396084
-0.011500584
-0.00040092692
0.0017136795
0.00083087156
0.00048715099
0.00087360946
0.00085420184
0.00095403812
0.00092231722
0.00084898479
0.00069010746
0.00045277254
0.0001148745
-0.00042307286
-0.0011259915
-0.0020234952
-0.0031722211
-0.0045975728
-0.0063122525
-0.0083162044
-0.010588135
-0.013083265
-0.015729665
-0.018428725
-0.021058101
-0.023479911
-0.025553036
-0.027149151
-0.028169306
-0.028557992
-0.028311271
-0.027476529
-0.026145146
-0.02443663
-0.022486835
-0.020423117
-0.018374868
-0.016423205
-0.014690696
-0.013167071
-0.012056467
-0.011146894
0.00083805091
-0.00040092699
0.0016899255
0.00049373397
0.00089961199
0.00088958548
0.0010139875
0.0010057623
0.00096326027
0.000828629
0.00061814608
0.00030713298
-0.00011609305
-0.00076831101
-0.0016087985
-0.0026659913
-0.0040019838
-0.0056369517
-0.0075787855
-0.0098170792
-0.012318629
-0.01502291
-0.017841346
-0.020658294
-0.023336961
-0.02572956
-0.027692184
-0.029101924
-0.029873538
-0.029971709
-0.029416133
-0.028277456
-0.026666521
-0.024716276
-0.022569191
-0.020353298
-0.018193952
-0.016165977
-0.014383877
-0.012830499
-0.01170202
-0.010781967
0.00049677382
0.00083805086
-0.00039321366
0.0016432762
0.00091654708
0.00091651804
0.0010629822
0.0010762697
0.0010634735
0.00096320743
0.00078067928
0.00050020002
0.00010448607
-0.00041889064
-0.0012054362
-0.002202688
-0.0034424418
-0.0049870383
-0.0068528774
-0.0090387596
-0.011523433
-0.014258544
-0.017166848
-0.02014167
-0.023050702
-0.025743845
-0.028066206
-0.02987469
-0.031056074
-0.031542794
-0.031322793
-0.030440917
-0.028990952
-0.027101668
-0.024917098
-0.022583732
-0.020228046
-0.017969622
-0.015876
-0.014052983
-0.012476583
-0.011334867
-0.010407708
0.00092439227
0.00049677372
0.00083087131
-0.00037813061
0.0015755256
0.00093412143
0.0011004787
0.0011337731
0.0011486153
0.0010813384
0.00093858656
0.00068954144
0.00033075589
-0.00016707382
-0.00080956179
-0.0017502215
-0.0029277437
-0.0043725467
-0.0061490163
-0.0082655789
-0.010711355
-0.01345085
-0.016419293
-0.019520774
-0.022630296
-0.025599375
-0.028266806
-0.030473812
-0.032082343
-0.03299324
-0.033160475
-0.032597799
-0.031376063
-0.029611362
-0.027448325
-0.025039393
-0.02253242
-0.020050207
-0.017705013
-0.015556292
-0.013700698
-0.012107622
-0.010957021
-0.010025915
0.00094247861
0.00092439215
0.00049373375
0.00081592875
-0.00035649093
0.0014893991
0.0011251658
0.0011775275
0.0012181781
0.001181492
0.0010772791
0.00087364322
0.00055156629
9.7317629e-05
-0.00052238354
-0.0013041142
-0.002422964
-0.0038041945
-0.0054788785
-0.0075096775
-0.0098963277
-0.012614791
-0.015613823
-0.018809873
-0.022087584
-0.025303469
-0.028294414
-0.030890799
-0.032933941
-0.034295369
-0.034894453
-0.034710212
-0.033784149
-0.032213212
-0.030134305
-0.027705357
-0.02508432
-0.022417809
-0.01982297
-0.017403385
-0.015209826
-0.013329578
-0.011725797
-0.010570396
-0.0096382335
0.0011369321
0.00094247851
0.00091654681
0.00048715056
0.00079335595
-0.00032928612
0.0013882725
0.0012058161
0.0012712275
0.0012631445
0.001194942
0.0010355219
0.00076594513
0.00035407378
-0.00021324003
-0.00097745142
-0.0019227861
-0.0032442702
-0.0048553814
-0.0067845185
-0.009092186
-0.011765823
-0.014766564
-0.018024708
-0.021436636
-0.024866732
-0.028153886
-0.031122415
-0.033597833
-0.035425986
-0.036492811
-0.036740521
-0.036176228
-0.034870383
-0.032945359
-0.030556718
-0.027872719
-0.025053852
-0.022242981
-0.019549779
-0.017068016
-0.014839461
-0.012942073
-0.011333215
-0.010176792
-0.0092461735
0.0012186338
0.001136932
0.00093412106
0.00089961147
0.00047685282
0.00076387957
-0.00029797208
0.0012759417
0.0013058939
0.00132538
0.0012909447
0.0011728287
0.00095457413
0.00060293345
8.5338278e-05
-0.00061630251
-0.001551753
-0.0026864997
-0.0042381279
-0.0061054796
-0.0083142674
-0.010919508
-0.013894419
-0.017182372
-0.020693458
-0.024302562
-0.027853994
-0.031170411
-0.034066538
-0.036367141
-0.037927523
-0.03865292
-0.038512439
-0.03754367
-0.035846404
-0.033566974
-0.030876863
-0.027951419
-0.024950719
-0.022011451
-0.019234195
-0.016702094
-0.014447961
-0.012540599
-0.010931903
-0.0097778556
-0.0088512168
0.0013221512
0.0012186336
0.0011251654
0.00091651747
0.00087360877
0.00046314787
0.00072807702
-0.00026428493
0.0011563008
0.0013660316
0.001364123
0.0012847801
0.0011145263
0.00082209674
0.0003739666
-0.00026964733
-0.0011299684
-0.0022660906
-0.0036197027
-0.005429574
-0.0075806698
-0.010093127
-0.013014666
-0.016301073
-0.019875819
-0.023626804
-0.027406916
-0.031041076
-0.034338037
-0.037106577
-0.039175477
-0.040414689
-0.040753611
-0.040191798
-0.038798936
-0.036703669
-0.034074073
-0.03109432
-0.027943495
-0.02477831
-0.021726981
-0.018879722
-0.016308744
-0.014038162
-0.01212757
-0.010523663
-0.0093750066
-0.0084546146
0.0013850808
0.0013221511
0.0012058157
0.0011004781
0.00088958463
0.00083948942
0.00044586932
0.00068655123
-0.0002301726
0.0010335652
0.0014120066
0.0013700805
0.0012448985
0.0010078829
0.00062830604
6.4472469e-05
-0.00072783009
-0.0017741937
-0.0031445235
-0.0047481389
-0.0068459726
-0.0093077339
-0.012146549
-0.015399717
-0.019003009
-0.022857535
-0.026827831
-0.030744745
-0.034415458
-0.037637869
-0.040219196
-0.041997456
-0.042862652
-0.042772927
-0.041761196
-0.039929965
-0.037435342
-0.034464253
-0.031209985
-0.027851923
-0.024540439
-0.021393341
-0.01848987
-0.015891324
-0.013612979
-0.011704947
-0.010109786
-0.0089695067
-0.0080567075
0.0014345905
0.0013850807
0.0013058936
0.0011775268
0.0010629813
0.00085420077
0.00079776504
0.00042459706
0.00063994338
-0.00019700669
0.00091363697
0.001425931
0.0013441847
0.0011592299
0.00084385079
0.00035911604
-0.00034153804
-0.0013084473
-0.0025717979
-0.004212694
-0.0061000706
-0.0085156045
-0.011314271
-0.014499453
-0.018095391
-0.022014798
-0.026134663
-0.030295355
-0.034306614
-0.037960275
-0.04104725
-0.043378198
-0.044806004
-0.045246101
-0.044689524
-0.043204627
-0.040926476
-0.038036406
-0.034736729
-0.031226011
-0.027680317
-0.024241023
-0.021014409
-0.018068603
-0.01545339
-0.013174546
-0.011273711
-0.0096916916
-0.0085630867
-0.0076583864
0.001452356
0.0014345904
0.0013660312
0.0012712268
0.0011337722
0.0010139864
0.00081050805
0.00074890829
0.00039891196
0.00059048299
-0.0001650472
0.00080338298
0.0014092586
0.00127441
0.0010193421
0.00060878529
-6.498583e-07
-0.00086261378
-0.0020332333
-0.0035474236
-0.005498707
-0.0077049996
-0.010467933
-0.013627764
-0.017175878
-0.021120159
-0.025347783
-0.029710128
-0.034023546
-0.038078363
-0.041654334
-0.044539964
-0.046554932
-0.047572858
-0.047539802
-0.046483162
-0.04450783
-0.041780169
-0.038503778
-0.034892315
-0.03114547
-0.027432539
-0.023884238
-0.020594819
-0.017620238
-0.01499723
-0.012723403
-0.010835806
-0.0092730947
-0.0081578402
-0.0072466723
0.0014401936
0.0014523558
0.0014120061
0.0013253793
0.0012181771
0.0010762685
0.00095403668
0.00075831974
0.00069372673
0.00037136948
0.00054246889
-0.00013654872
0.00068801187
0.0013499526
0.001152777
0.00081189681
0.00028816456
-0.00046890252
-0.0015195289
-0.0029259567
-0.0047281457
-0.0070322601
-0.0095940482
-0.012732681
-0.016275275
-0.020198048
-0.024489591
-0.029009233
-0.033582143
-0.038001571
-0.042041015
-0.045472217
-0.048086558
-0.049718761
-0.05026915
-0.049719175
-0.048135169
-0.045658589
-0.042484955
-0.038836323
-0.034933058
-0.030971857
-0.027112913
-0.0234754
-0.020139754
-0.017147199
-0.014522741
-0.012262255
-0.0103985
-0.0088570665
-0.0077297464
-0.0068173741
0.0013860024
0.0014401934
0.0014259306
0.0013641223
0.0012631435
0.0011486141
0.0010057609
0.00088360228
0.00069766859
0.00063613724
0.00034663301
0.00049819427
-0.00011242948
0.00056559265
0.001240355
0.00096617301
0.0005229102
-0.00013534272
-0.0010655475
-0.002335206
-0.0040127069
-0.00614287
-0.008844807
-0.011799041
-0.015339617
-0.019282541
-0.023585679
-0.028215417
-0.033001742
-0.037743751
-0.042213378
-0.046170763
-0.049384512
-0.051654755
-0.052837652
-0.052866059
-0.051760859
-0.049628856
-0.046647078
-0.043037058
-0.039034457
-0.034861643
-0.030709377
-0.026727399
-0.023020643
-0.019651718
-0.016648518
-0.014033725
-0.011802996
-0.0099655709
-0.008402817
-0.0072848172
-0.0063769444
0.0012823281
0.0013860022
0.001409258
0.0013700797
0.0012909437
0.0011814907
0.001063472
0.00092231544
0.00080362724
0.00063383616
0.00057698961
0.00031738225
0.00044573539
-8.9233801e-05
0.00044283013
0.0010674858
0.00070102506
0.00013554097
-0.00068092233
-0.0018127172
-0.0033348099
-0.0053215169
-0.0078222864
-0.010968806
-0.014352192
-0.018317687
-0.02267322
-0.027354946
-0.032304826
-0.037322687
-0.042182472
-0.046637556
-0.050439098
-0.05335814
-0.055210009
-0.055878863
-0.055335466
-0.053643265
-0.05094999
-0.047466105
-0.043434591
-0.039099469
-0.034681779
-0.030364505
-0.026283115
-0.022522463
-0.019128648
-0.016129397
-0.013548335
-0.011350177
-0.0094661128
-0.0079364465
-0.0068266867
-0.0059275818
0.0011162238
0.0012823278
0.0013499518
0.0013441837
0.001284779
0.0011949407
0.0010813368
0.00096325841
0.00082677815
0.00072048849
0.00057175022
0.00051382534
0.00027129149
0.00038358877
-6.5699144e-05
0.00032412918
0.00081805276
0.00034085616
-0.0003688278
-0.001370025
-0.0027347451
-0.004545492
-0.0068822585
-0.0097983846
-0.013437365
-0.017285308
-0.021694191
-0.026467782
-0.031517685
-0.03675987
-0.041963722
-0.046880033
-0.051247347
-0.054813068
-0.05735684
-0.058716192
-0.058809681
-0.05765064
-0.055347193
-0.052087193
-0.0481107
-0.043676714
-0.039034021
-0.034400205
-0.02994532
-0.025782406
-0.021977398
-0.018577536
-0.015615864
-0.013071662
-0.010794169
-0.0089593729
-0.0074535244
-0.0063588817
-0.0054685756
0.00087456298
0.0011162235
0.0012403543
0.0012744088
0.0012448971
0.0011728271
0.0010772773
0.00096320555
0.00084898269
0.00072786316
0.00063550674
0.00050217827
0.00043448757
0.00022198161
0.00031107541
-4.7425626e-05
0.00021373436
0.00047580399
-0.0001325286
-0.0010110659
-0.0022261973
-0.0038579389
-0.005996282
-0.0087262004
-0.01210415
-0.01628341
-0.020629137
-0.025493622
-0.030682599
-0.036080815
-0.04157681
-0.046910368
-0.051812254
-0.056010772
-0.059255637
-0.061341845
-0.062136393
-0.06159821
-0.059787012
-0.056856393
-0.053031577
-0.048577129
-0.043764323
-0.038844724
-0.034025839
-0.029453784
-0.025220003
-0.021394647
-0.018034028
-0.015113473
-0.012442407
-0.010237886
-0.008432267
-0.0069608293
-0.0058803377
-0.0050007843
0.00054117822
0.00087456271
0.001067485
0.0011527757
0.0011592282
0.0011145244
0.00103552
0.00093858457
0.00082862679
0.00073081586
0.00062868647
0.0005436536
0.00040429737
0.00034937709
0.00016771749
0.00022952901
-3.899845e-05
0.00011516537
2.2808913e-05
-0.00073951065
-0.0018140821
-0.0032748721
-0.0052105035
-0.0077177039
-0.010885728
-0.014772765
-0.019539159
-0.024411992
-0.029736611
-0.035329476
-0.041045521
-0.046745533
-0.052141763
-0.056949052
-0.060890907
-0.063726229
-0.06527265
-0.065433782
-0.064214319
-0.061722918
-0.058157275
-0.053775613
-0.048863648
-0.043703331
-0.038541124
-0.03355992
-0.02888228
-0.024607756
-0.020821432
-0.017504188
-0.014396571
-0.011820582
-0.0096556729
-0.0078954621
-0.0064565616
-0.0053922975
-0.0045243309
9.8257131e-05
0.00054117797
0.00081805179
0.00096617147
0.0010193402
0.0010078807
0.00095457185
0.00087364089
0.00078067689
0.00069010499
0.00061063785
0.00052312436
0.00042135895
0.00030167301
0.00025468761
0.00010290068
0.00014247092
-4.2535555e-05
3.0657343e-05
-0.00056097257
-0.0015024776
-0.0028026236
-0.0045435724
-0.0068222479
-0.0097414609
-0.01339371
-0.017836914
-0.023234418
-0.028658559
-0.034439653
-0.040414669
-0.046406499
-0.05224916
-0.057630572
-0.062254568
-0.065846344
-0.068181476
-0.06910795
-0.068572704
-0.066630596
-0.063439408
-0.059237598
-0.054314008
-0.048974694
-0.043503534
-0.03812322
-0.032991748
-0.028245741
-0.024006796
-0.020264432
-0.016681864
-0.013696267
-0.011165745
-0.009064603
-0.0073468445
-0.0059424769
-0.004894927
-0.0040397533
-0.00047402593
9.8256776e-05
0.00047580295
0.0007010235
0.00081189476
0.00084384828
0.00082209396
0.0007659423
0.00068953876
0.00061814341
0.00054987418
0.00048443197
0.00037784166
0.00029286117
0.00019207584
0.0001461936
2.6730174e-05
5.1318735e-05
-5.8402671e-05
-3.9096078e-05
-0.0012975595
-0.0024457963
-0.0040035937
-0.00606147
-0.0087241287
-0.012099975
-0.01628262
-0.021327398
-0.027395298
-0.033390031
-0.039613962
-0.04593796
-0.052151381
-0.058063845
-0.063343011
-0.067687515
-0.07083201
-0.07257626
-0.072806855
-0.0715199
-0.068822261
-0.06491872
-0.060087452
-0.054648818
-0.048919776
-0.04316304
-0.03757623
-0.032339736
-0.027621962
-0.023424539
-0.019318379
-0.015886504
-0.012953712
-0.010503669
-0.0084616331
-0.0067885408
-0.0054185992
-0.0043889856
-0.0035474475
-0.0011974828
-0.00047402633
2.2807996e-05
0.0003408546
0.00052290789
0.00060878245
0.000628303
0.00060293022
0.00055156305
0.00050019688
0.0004527695
0.00040504936
0.00031191855
0.0002252187
0.00015494893
6.7296756e-05
2.5326755e-05
-6.08524e-05
-4.3639742e-05
-8.6184374e-05
-9.4942683e-05
-0.0022110948
-0.0035958992
-0.0054455517
-0.0078587812
-0.010948032
-0.014825617
-0.019583879
-0.025272592
-0.032045088
-0.038622779
-0.045264358
-0.051891897
-0.058260427
-0.064158739
-0.069238994
-0.073201861
-0.075799905
-0.076865025
-0.076330403
-0.074244558
-0.07076541
-0.066145287
-0.060705557
-0.054788534
-0.048694242
-0.042661654
-0.036922436
-0.031701653
-0.027019209
-0.022334001
-0.018410876
-0.015037623
-0.012205952
-0.009830231
-0.0078490998
-0.006220466
-0.004885897
-0.0038750684
-0.0030479105
-0.0020962083
-0.001197483
-0.00056097341
-0.00013253028
0.00013553855
0.00028816161
0.00035911264
0.00037396286
0.00035406988
0.00033075207
0.00030712952
0.00028485196
0.00020416393
0.00013178627
6.3463907e-05
-1.35357e-06
-7.2878687e-05
-0.0001068959
-0.00015982036
-0.00014211753
-0.00012508056
-0.0001389506
-0.003327647
-0.004980807
-0.0071580575
-0.0099667759
-0.013526077
-0.017950059
-0.02332778
-0.029698729
-0.037202923
-0.044367065
-0.051388342
-0.058261299
-0.064706501
-0.070495924
-0.07527253
-0.078747611
-0.080700375
-0.081003503
-0.079641837
-0.076716268
-0.072437947
-0.0671134
-0.06109861
-0.054724609
-0.048270722
-0.042025733
-0.036283457
-0.03108681
-0.025761703
-0.021295157
-0.017435999
-0.014186452
-0.011447834
-0.0091477583
-0.0072270571
-0.0056437091
-0.0043451114
-0.0033539666
-0.0025415429
-0.0031960885
-0.0020962085
-0.0012975604
-0.00073951233
-0.00036883008
-0.00013534572
-6.536136e-07
6.4468245e-05
8.5333969e-05
9.7313245e-05
0.00010448187
0.00011487061
5.1713407e-05
-5.1916665e-06
-5.8472027e-05
-0.00011896986
-0.00017509687
-0.00022797503
-0.00024993117
-0.0002698945
-0.00024364543
-0.00017377371
-0.00017392908
-0.004674832
-0.006629429
-0.0091717473
-0.012417139
-0.016489975
-0.021504042
-0.027542343
-0.034628493
-0.042882331
-0.050626031
-0.057975203
-0.065023474
-0.071454737
-0.07703064
-0.081392601
-0.084272086
-0.085484151
-0.084949379
-0.08270423
-0.078905788
-0.073828727
-0.067827157
-0.061252796
-0.054420284
-0.047679661
-0.041405417
-0.035669933
-0.02963759
-0.02457094
-0.020171735
-0.016462794
-0.013326276
-0.010681521
-0.00845643
-0.0065965615
-0.0050591678
-0.0037972498
-0.0028258281
-0.0020290287
-0.0045245079
-0.0031960888
-0.0022110957
-0.0015024791
-0.0010110681
-0.0006809254
-0.00046890642
-0.00034154248
-0.00026965216
-0.00021324508
-0.00016707889
-0.0001160978
-0.00015323318
-0.00018997386
-0.00022495502
-0.00027233657
-0.000321532
-0.00036503853
-0.00039744147
-0.00040321073
-0.00039046162
-0.00034788959
-0.00023050413
-0.0002028659
-0.0062812997
-0.0085718902
-0.011517839
-0.015241341
-0.019870591
-0.025516401
-0.032251814
-0.040080789
-0.049090271
-0.05739403
-0.065006872
-0.072147548
-0.078462516
-0.083712044
-0.087544387
-0.089722267
-0.090103843
-0.088659515
-0.085480879
-0.08079578
-0.07493843
-0.068266087
-0.061119181
-0.053909858
-0.047105324
-0.040813096
-0.034002418
-0.028272562
-0.023273959
-0.019055258
-0.015482114
-0.01245915
-0.0099071001
-0.0077571502
-0.0059587604
-0.0044680649
-0.003241885
-0.0022915403
-0.0015108977
-0.006109995
-0.0045245082
-0.0033276476
-0.0024457976
-0.0018140842
-0.001370028
-0.0010655512
-0.00086261828
-0.00072783537
-0.00061630821
-0.00052238911
-0.00041889616
-0.00042307798
-0.00043016858
-0.00044259123
-0.00047109104
-0.00050864327
-0.00054295515
-0.00057033308
-0.00058035701
-0.00056596901
-0.0005205801
-0.00045468561
-0.00029331917
-0.00022842321
-0.0081767837
-0.010839034
-0.0142274
-0.018470133
-0.023697256
-0.030012646
-0.037477843
-0.046066579
-0.055823983
-0.064659008
-0.072456815
-0.079594108
-0.085680038
-0.090484407
-0.093671548
-0.095046341
-0.094511054
-0.092089704
-0.087947821
-0.082382989
-0.075738518
-0.068365694
-0.06073534
-0.053418326
-0.046562453
-0.03889921
-0.032439321
-0.026774137
-0.021990696
-0.017933142
-0.01449611
-0.011584927
-0.009125453
-0.0070513959
-0.0053150242
-0.0038689298
-0.0026808629
-0.001751599
-0.0009876648
-0.0079821182
-0.006109995
-0.0046748324
-0.0035959005
-0.0028026256
-0.0022262
-0.0018127207
-0.0015195334
-0.0013084527
-0.0011299743
-0.00097745765
-0.00080956805
-0.00076831719
-0.00073865613
-0.00071833092
-0.00072451549
-0.00074220827
-0.00076560642
-0.00078210005
-0.00078995781
-0.00077555512
-0.00073729174
-0.00065902957
-0.00056394316
-0.00036035742
-0.00025258156
-0.010391641
-0.013461524
-0.017330898
-0.022132902
-0.0279965
-0.035016328
-0.043234513
-0.052588882
-0.063075809
-0.072400544
-0.080289255
-0.087315436
-0.093051706
-0.097288906
-0.099718645
-0.10019131
-0.098654659
-0.095209222
-0.090097912
-0.083629516
-0.076145181
-0.068165713
-0.060374918
-0.05296362
-0.044373333
-0.037113254
-0.030708663
-0.025298005
-0.020703944
-0.016807759
-0.013504255
-0.010704424
-0.0083383669
-0.0063405039
-0.0046625549
-0.0032644367
-0.0021147593
-0.0012068382
-0.00045982248
-0.010171043
-0.0079821182
-0.0062813
-0.004980808
-0.0040035953
-0.0032748745
-0.0027347484
-0.0023352104
-0.0020332385
-0.0017741997
-0.0015517597
-0.0013041212
-0.0012054431
-0.0011259982
-0.0010657254
-0.0010387323
-0.0010337431
-0.0010361122