/*--------------------------------*- C++ -*----------------------------------*\
| =========                 |                                                 |
| \\      /  F ield         | OpenFOAM: The Open Source CFD Toolbox           |
|  \\    /   O peration     | Version:  5.0                                   |
|   \\  /    A nd           | Web:      www.OpenFOAM.org                      |
|    \\/     M anipulation  |                                                 |
\*---------------------------------------------------------------------------*/
FoamFile
{
    version     2.0;
    format      ascii;
    class       volScalarField;
    location    "135";
    object      pPrime2Mean;
}
// * * * * * * * * * * * * * * * * * * * * * * * * * * * * * * * * * * * * * //

dimensions      [0 4 -4 0 0 0 0];

internalField   nonuniform List<scalar> 
9200
(
1.6841794e-08
1.6672702e-08
9.4354457e-08
1.6337216e-08
9.3968214e-08
2.7168432e-07
1.607609e-08
9.2051366e-08
2.703966e-07
5.1420498e-07
1.5544539e-08
9.0239932e-08
2.6565393e-07
5.1280068e-07
8.4053264e-07
1.5020867e-08
8.7069566e-08
2.6088202e-07
5.0521972e-07
8.3991873e-07
1.2301922e-06
1.4378801e-08
8.3681545e-08
2.5265889e-07
4.9779446e-07
8.3012066e-07
1.2325992e-06
1.6848309e-06
1.3754511e-08
7.9508425e-08
2.4349871e-07
4.8432395e-07
8.2123548e-07
1.2227467e-06
1.6929026e-06
2.1924226e-06
1.3173315e-08
7.5059211e-08
2.3221249e-07
4.6889568e-07
8.0306401e-07
1.2159399e-06
1.68604e-06
2.2101595e-06
2.7474095e-06
1.2732089e-08
7.0376886e-08
2.1997608e-07
4.4936079e-07
7.8157757e-07
1.1965601e-06
1.6861872e-06
2.2112798e-06
2.7790369e-06
3.3382503e-06
1.252204e-08
6.5758452e-08
2.0704575e-07
4.2756781e-07
7.5323165e-07
1.1726749e-06
1.6707196e-06
2.2259954e-06
2.7938122e-06
3.3888724e-06
3.9567214e-06
1.2651288e-08
6.1426667e-08
1.9426319e-07
4.0389276e-07
7.2060874e-07
1.1386519e-06
1.6499598e-06
2.2227149e-06
2.831974e-06
3.4243572e-06
4.0314806e-06
4.5888412e-06
1.3229693e-08
5.7623805e-08
1.8235324e-07
3.7973716e-07
6.841493e-07
1.097644e-06
1.615332e-06
2.2140265e-06
2.8512886e-06
3.4967566e-06
4.0950091e-06
4.6929758e-06
5.2245049e-06
1.4354044e-08
5.4575301e-08
1.7208243e-07
3.5633153e-07
6.4595296e-07
1.0497802e-06
1.5702446e-06
2.1875548e-06
2.8666384e-06
3.5513395e-06
4.2135797e-06
4.7925956e-06
5.363616e-06
5.8496595e-06
1.6092812e-08
5.2502142e-08
1.6413426e-07
3.3499823e-07
6.0792331e-07
9.9762388e-07
1.5141276e-06
2.146632e-06
2.860721e-06
3.6056516e-06
4.3185256e-06
4.970431e-06
5.5079355e-06
6.0283029e-06
6.4521472e-06
1.8460501e-08
5.1652192e-08
1.5907033e-07
3.1695527e-07
5.7216706e-07
9.435988e-07
1.4498426e-06
2.0893094e-06
2.836304e-06
3.6365362e-06
4.4300175e-06
5.1423863e-06
5.7579171e-06
6.2247102e-06
6.6750143e-06
7.0201208e-06
2.1383892e-08
5.231073e-08
1.5723609e-07
3.0328791e-07
5.4064485e-07
8.9059001e-07
1.3802176e-06
2.0183478e-06
2.7892875e-06
3.6455062e-06
4.518046e-06
5.3315385e-06
6.0142895e-06
6.5595044e-06
6.9314985e-06
7.2902463e-06
7.5429444e-06
2.471578e-08
5.4797315e-08
1.5871018e-07
2.9489574e-07
5.150491e-07
8.4145618e-07
1.3089079e-06
1.9366311e-06
2.7217142e-06
3.6253226e-06
4.5823127e-06
5.5004798e-06
6.3037911e-06
6.9184228e-06
7.3637935e-06
7.6127383e-06
7.8621937e-06
8.0118036e-06
2.8228985e-08
5.9488565e-08
1.6331286e-07
2.9241871e-07
4.9673482e-07
7.9882476e-07
1.2396941e-06
1.8484288e-06
2.6359407e-06
3.5765344e-06
4.6114075e-06
5.6466529e-06
6.5809074e-06
7.331903e-06
7.8420214e-06
8.1522174e-06
8.2555357e-06
8.3808197e-06
8.4193067e-06
3.1565455e-08
6.674417e-08
1.7060924e-07
2.9620529e-07
4.866377e-07
7.6490061e-07
1.1762417e-06
1.7584303e-06
2.5364301e-06
3.5001787e-06
4.6034003e-06
5.7533961e-06
6.8405082e-06
7.7465792e-06
8.4031747e-06
8.7654697e-06
8.9111933e-06
8.8473443e-06
8.8373574e-06
8.7601526e-06
3.4218481e-08
7.6711353e-08
1.8000044e-07
3.0643266e-07
4.8523587e-07
7.4137983e-07
1.1218097e-06
1.6714205e-06
2.4285428e-06
3.4002747e-06
4.5569326e-06
5.8152409e-06
7.0597504e-06
8.15486e-06
8.9863166e-06
9.4970482e-06
9.6732647e-06
9.6241262e-06
9.3776612e-06
9.2251293e-06
9.0310674e-06
3.5577347e-08
8.9124331e-08
1.9088835e-07
3.2294846e-07
4.9255435e-07
7.2937478e-07
1.0790134e-06
1.5918734e-06
2.3181961e-06
3.282393e-06
4.4746234e-06
5.8271591e-06
7.2285271e-06
8.5271104e-06
9.5817725e-06
1.0279366e-05
1.0595409e-05
1.0544705e-05
1.0277739e-05
9.8377599e-06
9.5395874e-06
9.2307151e-06
3.5089579e-08
1.0314806e-07
2.0276183e-07
3.4516811e-07
5.0820886e-07
7.294554e-07
1.049754e-06
1.5236603e-06
2.2112807e-06
3.1532828e-06
4.3614609e-06
5.7891575e-06
7.3366875e-06
8.8476378e-06
1.0152868e-05
1.1101812e-05
1.1606132e-05
1.1674452e-05
1.1363697e-05
1.0859341e-05
1.0220925e-05
9.7783399e-06
9.3597485e-06
3.2518591e-08
1.1742262e-07
2.1534408e-07
3.7218013e-07
5.3138739e-07
7.4157982e-07
1.0351592e-06
1.4698904e-06
2.1132031e-06
3.0201403e-06
4.2245188e-06
5.704483e-06
7.3800976e-06
9.0997362e-06
1.0677698e-05
1.1921176e-05
1.2695388e-05
1.2939628e-05
1.2713311e-05
1.2112148e-05
1.1359033e-05
1.0522782e-05
9.9410443e-06
9.4206031e-06
2.8209324e-08
1.3047169e-07
2.2867362e-07
4.028453e-07
5.6092327e-07
7.6515961e-07
1.0355345e-06
1.4328605e-06
2.0286114e-06
2.8900358e-06
4.0720495e-06
5.5795443e-06
7.3587395e-06
9.2734212e-06
1.1131697e-05
1.2709231e-05
1.3814551e-05
1.4333161e-05
1.42542e-05
1.3688477e-05
1.2776377e-05
1.1769307e-05
1.0741376e-05
1.0029339e-05
9.4171637e-06
2.3208988e-08
1.4155903e-07
2.4305354e-07
4.3585988e-07
5.9540805e-07
7.990789e-07
1.0504726e-06
1.4139399e-06
1.9612116e-06
2.769461e-06
3.9127676e-06
5.4229308e-06
7.2769833e-06
9.3635076e-06
1.1497283e-05
1.3432663e-05
1.4929717e-05
1.5803191e-05
1.5985279e-05
1.5520178e-05
1.4580116e-05
1.3343696e-05
1.2085438e-05
1.0876955e-05
1.0046665e-05
9.3543713e-06
1.9158355e-08
1.5084648e-07
2.5822391e-07
4.6971499e-07
6.3343833e-07
8.4158757e-07
1.0788868e-06
1.4135185e-06
1.9136075e-06
2.6640337e-06
3.7551864e-06
5.2445839e-06
7.1426213e-06
9.3704395e-06
1.1761973e-05
1.406473e-05
1.5998584e-05
1.7311694e-05
1.7854384e-05
1.7615557e-05
1.6710238e-05
1.5368699e-05
1.3804859e-05
1.2305315e-05
1.0932039e-05
9.9978968e-06
9.2375365e-06
1.7983411e-08
1.5865135e-07
2.731023e-07
5.0282029e-07
6.7352579e-07
8.9033437e-07
1.1190952e-06
1.4310427e-06
1.8872362e-06
2.5782589e-06
3.6071348e-06
5.0549239e-06
6.9660036e-06
9.2994735e-06
1.1919975e-05
1.458344e-05
1.6984161e-05
1.880809e-05
1.9822018e-05
1.9926123e-05
1.918841e-05
1.7796679e-05
1.6038885e-05
1.4153388e-05
1.24297e-05
1.0911182e-05
9.8889956e-06
9.072268e-06
2.1391413e-08
1.6575857e-07
2.8664103e-07
5.3373322e-07
7.140491e-07
9.4295032e-07
1.1689545e-06
1.4650423e-06
1.8823864e-06
2.5153699e-06
3.4754094e-06
4.8641593e-06
6.7589956e-06
9.1599248e-06
1.1971714e-05
1.4974134e-05
1.7852966e-05
2.0244854e-05
2.1831191e-05
2.2414625e-05
2.1974357e-05
2.0666212e-05
1.8755594e-05
1.657805e-05
1.4386534e-05
1.2461131e-05
1.0819983e-05
9.7261214e-06
8.8663723e-06
3.0159422e-08
1.7414564e-07
2.9729648e-07
5.6117549e-07
7.5341609e-07
9.9724894e-07
1.2259557e-06
1.513063e-06
1.8982442e-06
2.4772257e-06
3.365477e-06
4.6817766e-06
6.5340518e-06
8.9640326e-06
1.1923374e-05
1.522955e-05
1.8578766e-05
2.1575613e-05
2.3824737e-05
2.5020946e-05
2.5037887e-05
2.3950392e-05
2.2014186e-05
1.9565873e-05
1.6978143e-05
1.4504191e-05
1.2403884e-05
1.0664461e-05
9.5158167e-06
8.6282607e-06
4.4711979e-08
1.8250522e-07
3.0374178e-07
5.8424226e-07
7.8986751e-07
1.0511167e-06
1.2872039e-06
1.5717832e-06
1.9329349e-06
2.4641649e-06
3.2812382e-06
4.516125e-06
6.3034983e-06
8.7258541e-06
1.1785831e-05
1.5349904e-05
1.9143368e-05
2.2760105e-05
2.5742992e-05
2.7680626e-05
2.8320435e-05
2.7631728e-05
2.5806384e-05
2.3199774e-05
2.0211547e-05
1.7234878e-05
1.4509616e-05
1.2264294e-05
1.0451758e-05
9.2660218e-06
8.3658249e-06
6.7144532e-08
1.8516958e-07
3.0847745e-07
6.0638128e-07
8.2157651e-07
1.1020928e-06
1.3493306e-06
1.6375878e-06
1.983454e-06
2.4749444e-06
3.2249e-06
4.374012e-06
6.0789495e-06
8.460302e-06
1.1573448e-05
1.5342104e-05
1.9537531e-05
2.3765851e-05
2.7529925e-05
3.0321762e-05
3.1754332e-05
3.1659329e-05
3.0133703e-05
2.7495259e-05
2.419579e-05
2.0681422e-05
1.7348396e-05
1.4408733e-05
1.205069e-05
1.0190208e-05
8.985104e-06
8.0861185e-06
9.7236554e-08
1.8364746e-07
3.1428136e-07
6.3372985e-07
8.5043308e-07
1.1480888e-06
1.4090867e-06
1.7072162e-06
2.0458708e-06
2.5068372e-06
3.1968737e-06
4.2603459e-06
5.8707216e-06
8.1823918e-06
1.1302911e-05
1.521863e-05
1.9760728e-05
2.457017e-05
2.9135739e-05
3.2872069e-05
3.5258369e-05
3.5968225e-05
3.4960165e-05
3.2479272e-05
2.8974686e-05
2.4980527e-05
2.0970049e-05
1.7322718e-05
1.420998e-05
1.1772533e-05
9.8889186e-06
8.681517e-06
7.7939244e-06
1.3365306e-07
1.8137808e-07
3.2460157e-07
6.4597978e-07
8.8037265e-07
1.1947153e-06
1.4639394e-06
1.7769732e-06
2.1156294e-06
2.5558067e-06
3.1956366e-06
4.1778338e-06
5.6872753e-06
7.9064838e-06
1.0992266e-05
1.4996272e-05
1.982038e-05
2.5160811e-05
3.0520204e-05
3.5262278e-05
3.8745322e-05
4.0473e-05
4.023118e-05
3.8138863e-05
3.4606865e-05
3.0208027e-05
2.5539399e-05
2.1077353e-05
1.7165522e-05
1.3923624e-05
1.1440123e-05
9.557025e-06
8.3625195e-06
7.4941126e-06
1.7422604e-07
1.7867763e-07
3.3931067e-07
6.4383169e-07
9.005739e-07
1.2459812e-06
1.5193228e-06
1.8430894e-06
2.1878813e-06
2.6171612e-06
3.217721e-06
4.1268182e-06
5.5347401e-06
7.6454499e-06
1.0660017e-05
1.469499e-05
1.9730682e-05
2.5535868e-05
3.1654473e-05
3.7430884e-05
4.212585e-05
4.5075158e-05
4.5864565e-05
4.4438978e-05
4.1110733e-05
3.6459657e-05
3.1166795e-05
2.5864929e-05
2.1008569e-05
1.688747e-05
1.3561278e-05
1.1063885e-05
9.2028763e-06
8.0339061e-06
7.1918105e-06
2.1601265e-07
1.7585752e-07
3.55891e-07
6.4551764e-07
9.1508075e-07
1.275357e-06
1.5792781e-06
1.9121342e-06
2.2580881e-06
2.6857323e-06
3.2581362e-06
4.1051689e-06
5.41648e-06
7.4098713e-06
1.0324035e-05
1.4336898e-05
1.951141e-05
2.5702993e-05
3.2522065e-05
3.9327418e-05
4.531456e-05
4.966696e-05
5.1756979e-05
5.1310364e-05
4.8480955e-05
4.3793285e-05
3.7989396e-05
3.1831452e-05
2.5957093e-05
2.0773565e-05
1.6501589e-05
1.3135287e-05
1.0653951e-05
8.8340593e-06
7.7013373e-06
6.8916253e-06
2.5549631e-07
1.7335073e-07
3.7231881e-07
6.4830201e-07
9.3328698e-07
1.2894586e-06
1.6161614e-06
1.9865638e-06
2.3328886e-06
2.7559164e-06
3.3109275e-06
4.1085213e-06
5.3327744e-06
7.2073395e-06
1.00004e-05
1.3944992e-05
1.9186816e-05
2.5678374e-05
3.3118866e-05
4.091486e-05
4.8234819e-05
5.4138427e-05
5.7786883e-05
5.8654189e-05
5.6672818e-05
5.2243802e-05
4.6111575e-05
3.9158138e-05
3.2192336e-05
2.5822771e-05
2.0386163e-05
1.602256e-05
1.2658232e-05
1.021998e-05
8.4575678e-06
7.3698348e-06
6.5977256e-06
2.8903918e-07
1.713892e-07
3.8765658e-07
6.4983265e-07
9.5502706e-07
1.309526e-06
1.6389276e-06
2.031928e-06
2.4151332e-06
2.833572e-06
3.3696518e-06
4.1312147e-06
5.2807915e-06
7.041848e-06
9.702294e-06
1.3541602e-05
1.8784332e-05
2.548568e-05
3.3452593e-05
4.2170894e-05
5.0822948e-05
5.8383598e-05
6.3821859e-05
6.634319e-05
6.5604209e-05
6.1803924e-05
5.5618541e-05
4.800144e-05
3.9940442e-05
3.2249647e-05
2.5475113e-05
1.9863299e-05
1.5466022e-05
1.2142544e-05
9.7709866e-06
8.0795968e-06
7.0438923e-06
6.3133993e-06
3.1337456e-07
1.7002281e-07
4.0107703e-07
6.5047301e-07
9.7589893e-07
1.3315599e-06
1.6676178e-06
2.0619156e-06
2.4615832e-06
2.9207892e-06
3.4381963e-06
4.1664996e-06
5.2555256e-06
6.9134533e-06
9.4389212e-06
1.3146772e-05
1.8332677e-05
2.5154868e-05
3.354206e-05
4.3088308e-05
5.3031153e-05
6.2306642e-05
6.9725873e-05
7.4228355e-05
7.5153958e-05
7.2422893e-05
6.6553754e-05
5.8505641e-05
4.9413322e-05
4.0324037e-05
3.2012977e-05
2.4932572e-05
1.9224113e-05
1.484802e-05
1.1600124e-05
9.3152799e-06
7.7056627e-06
6.7272608e-06
6.0412991e-06
3.2614655e-07
1.6917904e-07
4.1181446e-07
6.5071896e-07
9.9462376e-07
1.3499634e-06
1.701777e-06
2.0981873e-06
2.4912479e-06
2.9667174e-06
3.5189575e-06
4.2143611e-06
5.250554e-06
6.8193878e-06
9.2147701e-06
1.2776543e-05
1.7859679e-05
2.4720192e-05
3.3416239e-05
4.3674962e-05
5.4829407e-05
6.5826822e-05
7.5367152e-05
8.2146328e-05
8.516658e-05
8.4000976e-05
7.8914022e-05
7.0777642e-05
6.0821029e-05
5.0314354e-05
4.0310191e-05
3.1500424e-05
2.4217782e-05
1.8489102e-05
1.4184391e-05
1.1042097e-05
8.8602235e-06
7.3404646e-06
6.4230325e-06
5.7834483e-06
1.6880115e-07
3.2614658e-07
4.1904936e-07
6.5082549e-07
1.0105037e-06
1.3648644e-06
1.7336351e-06
2.1409331e-06
2.5307712e-06
2.9958728e-06
3.5510948e-06
4.2778436e-06
5.2594864e-06
6.7547589e-06
9.0310049e-06
1.2441723e-05
1.7389796e-05
2.4217467e-05
3.3112529e-05
4.3953402e-05
5.6206609e-05
6.8882408e-05
8.0625399e-05
8.9928635e-05
9.5458827e-05
9.6391128e-05
9.263951e-05
8.4878516e-05
7.4344865e-05
6.2500301e-05
5.0689958e-05
3.9912901e-05
3.073721e-05
2.3356365e-05
1.7679218e-05
1.3490309e-05
1.0478508e-05
8.4121793e-06
6.987922e-06
6.1336355e-06
5.5415179e-06
4.2251263e-07
1.6880107e-07
3.1337452e-07
6.5065277e-07
1.0228966e-06
1.3767856e-06
1.7616176e-06
2.1797222e-06
2.5798221e-06
3.0367455e-06
3.5659682e-06
4.2868285e-06
5.2862955e-06
6.703283e-06
8.8857013e-06
1.2149546e-05
1.6942098e-05
2.3680752e-05
3.2673654e-05
4.3959728e-05
5.7171217e-05
7.14336e-05
8.5398103e-05
9.7410941e-05
0.00010582915
0.00010940298
0.00010761089
0.00010080867
9.0125968e-05
7.7145765e-05
6.3502342e-05
5.0543855e-05
3.9157738e-05
2.9754234e-05
2.2375646e-05
1.681512e-05
1.2779773e-05
9.918195e-06
7.9764546e-06
6.6511418e-06
5.861069e-06
5.3169165e-06
6.5042936e-07
4.2251262e-07
1.6917886e-07
2.890392e-07
1.0307784e-06
1.3859039e-06
1.7850186e-06
2.2129709e-06
2.6255265e-06
3.0902983e-06
3.5989612e-06
4.2777853e-06
5.2502995e-06
6.6717579e-06
8.7487091e-06
1.1903549e-05
1.6532248e-05
2.3139097e-05
3.2143424e-05
4.3740627e-05
5.7751056e-05
7.3464769e-05
8.9605868e-05
0.00010444195
0.00011606844
0.00012281129
0.00012364938
0.00011849968
0.00010824593
9.4485431e-05
7.9098342e-05
6.381094e-05
4.9897274e-05
3.807988e-05
2.8586213e-05
2.1303477e-05
1.5916339e-05
1.2065312e-05
9.3686516e-06
7.5574264e-06
6.3326563e-06
5.6069546e-06
5.1108593e-06
1.0341555e-06
6.5042921e-07
4.1904931e-07
1.7002246e-07
2.5549628e-07
1.3915602e-06
1.8033562e-06
2.2408133e-06
2.66592e-06
3.1416603e-06
3.6493653e-06
4.2930947e-06
5.1927933e-06
6.5686319e-06
8.6311247e-06
1.165477e-05
1.6172562e-05
2.2619144e-05
3.156226e-05
4.3348335e-05
5.7991215e-05
7.4985712e-05
9.3196864e-05
0.00011089159
0.00012597135
0.00013636698
0.00014052225
0.00013780864
0.00012871264
0.00011470163
9.7815954e-05
8.0152555e-05
6.3435049e-05
4.8786966e-05
3.6721945e-05
2.7270009e-05
2.0166958e-05
1.5000703e-05
1.135773e-05
8.8361651e-06
7.1586382e-06
6.0344645e-06
5.3726122e-06
4.9242199e-06
1.3940794e-06
1.0341553e-06
6.5065238e-07
4.1181439e-07
1.7138877e-07
2.1601267e-07
1.8152822e-06
2.2624046e-06
2.7001122e-06
3.1875614e-06
3.7001264e-06
4.3315195e-06
5.1702516e-06
6.4353712e-06
8.4283508e-06
1.1422002e-05
1.578919e-05
2.2145745e-05
3.0970084e-05
4.2834875e-05
5.7948624e-05
7.6031078e-05
9.615021e-05
0.00011665833
0.00013534742
0.00014981004
0.00015795237
0.00015851878
0.00015144811
0.00013790467
0.00011995476
0.00010001499
8.0292748e-05
6.2407269e-05
4.7262534e-05
3.5131384e-05
2.5842653e-05
1.8991403e-05
1.4083881e-05
1.0666231e-05
8.3259244e-06
6.7829831e-06
5.7581531e-06
5.1589901e-06
4.7575213e-06
1.8208215e-06
1.3940791e-06
1.0307778e-06
6.5082479e-07
4.0107688e-07
1.7335015e-07
1.7422603e-07
2.275521e-06
2.7268038e-06
3.2265162e-06
3.7468941e-06
4.3751318e-06
5.1795222e-06
6.3494525e-06
8.176053e-06
1.107968e-05
1.5411867e-05
2.1613149e-05
3.0408434e-05
4.2254799e-05
5.7685003e-05
7.6655514e-05
9.8477547e-05
0.00012167534
0.00014403175
0.00016288338
0.00017563135
0.00018034536
0.00017628202
0.00016411321
0.00014575155
0.00012382658
0.00010102436
7.9537389e-05
6.0781045e-05
4.5382979e-05
3.3357834e-05
2.4339703e-05
1.7799504e-05
1.317944e-05
9.998591e-06
7.8421965e-06
6.432643e-06
5.5048688e-06
4.9667536e-06
4.6109695e-06
2.280287e-06
1.8208211e-06
1.3915591e-06
1.0228956e-06
6.5071803e-07
3.8765639e-07
1.7585687e-07
1.3365311e-07
2.7436994e-06
3.2571746e-06
3.7875793e-06
4.4179595e-06
5.2025432e-06
6.3067629e-06
7.9858896e-06
1.0650742e-05
1.4877721e-05
2.1068078e-05
2.9731641e-05
4.1670497e-05
5.7269764e-05
7.692566e-05
0.00010022004
0.00012591494
0.0001518945
0.00017534674
0.00019323504
0.00020294681
0.00020295153
0.00019323965
0.00017535388
0.00015197056
0.00012619227
0.00010083282
7.7936846e-05
5.8626349e-05
4.3212986e-05
3.1450355e-05
2.2793756e-05
1.6611275e-05
1.2299072e-05
9.3613011e-06
7.3882034e-06
6.1092278e-06
5.275493e-06
4.7962676e-06
4.4847657e-06
2.7509919e-06
2.2802863e-06
1.8152806e-06
1.3859022e-06
1.0105023e-06
6.5047176e-07
3.7231853e-07
1.7867685e-07
9.7236594e-08
3.2766799e-06
3.8200637e-06
4.4566678e-06
5.230879e-06
6.2911137e-06
7.8551788e-06
1.0303526e-05
1.4191426e-05
2.0280725e-05
2.9011222e-05
4.0886495e-05
5.6789849e-05
7.6923167e-05
0.00010144033
0.00012938862
0.00015884901
0.00018699009
0.0002104402
0.0002259401
0.00023110769
0.00022508126
0.00020879644
0.00018475283
0.00015633938
0.00012698799
9.9475276e-05
7.5568603e-05
5.6024578e-05
4.0818846e-05
2.9455295e-05
2.123423e-05
1.5444324e-05
1.1452733e-05
8.7593242e-06
6.9662775e-06
5.8140058e-06
5.0706167e-06
4.647773e-06
4.379158e-06
3.2850825e-06
2.7509908e-06
2.275519e-06
1.8033537e-06
1.376783e-06
9.9462185e-07
6.4983117e-07
3.5589063e-07
1.8137725e-07
6.7144625e-08
3.8409147e-06
4.4884876e-06
5.2597268e-06
6.2910285e-06
7.7720364e-06
1.0037435e-05
1.3612485e-05
1.923317e-05
2.7899207e-05
4.0010945e-05
5.5987611e-05
7.6761599e-05
0.00010222566
0.00013214083
0.00016485568
0.00019764572
0.00022694146
0.00024891858
0.00026032788
0.0002593188
0.00024598179
0.00022237005
0.00019195382
0.00015871067
0.00012621372
9.7028592e-05
7.2530732e-05
5.3062859e-05
3.8265153e-05
2.7415236e-05
1.9687418e-05
1.4313918e-05
1.0648186e-05
8.1963046e-06
6.5784249e-06
5.5481112e-06
4.8904672e-06
4.5214566e-06
4.2943023e-06
3.8500699e-06
3.2850813e-06
2.7436966e-06
2.2624011e-06
1.7850149e-06
1.3648612e-06
9.7589667e-07
6.4830022e-07
3.3931016e-07
1.8364654e-07
4.4712045e-08
4.5093202e-06
5.2852013e-06
6.2995608e-06
7.7212197e-06
9.8483012e-06
1.314473e-05
1.8326657e-05
2.6356472e-05
3.8497471e-05
5.5024019e-05
7.6105866e-05
0.00010271555
0.0001342524
0.00016992
0.00020719682
0.00024246758
0.0002714717
0.00029013228
0.00029552267
0.00028666836
0.00026487918
0.00023342999
0.00019668622
0.00015902064
0.00012393058
9.3603854e-05
6.8934008e-05
4.9829173e-05
3.5612894e-05
2.5369322e-05
1.8176645e-05
1.3232286e-05
9.8912707e-06
7.6755387e-06
6.2265871e-06
5.3117336e-06
4.7349496e-06
4.4176096e-06
4.229737e-06
4.51876e-06
3.8500682e-06
3.2766759e-06
2.7267987e-06
2.2408084e-06
1.7616129e-06
1.3499594e-06
9.5502423e-07
6.4551562e-07
3.2460095e-07
1.8516863e-07
3.0159513e-08
5.3023797e-06
6.3112948e-06
7.6926739e-06
9.7166135e-06
1.2795806e-05
1.75713e-05
2.499705e-05
3.6296297e-05
5.3032497e-05
7.5193573e-05
0.00010247853
0.00013588375
0.00017409734
0.00021558192
0.00025679503
0.00029320461
0.00032000433
0.000333164
0.00033046622
0.00031217268
0.0002810279
0.00024153484
0.00019878309
0.00015729056
0.00012025334
8.9336302e-05
6.4894867e-05
4.640922e-05
3.2919333e-05
2.3352799e-05
1.6721065e-05
1.2208872e-05
9.1874173e-06
7.2002241e-06
5.910976e-06
5.1041383e-06
4.604696e-06
4.3360199e-06
4.177059e-06
5.3103329e-06
4.5187575e-06
3.8409092e-06
3.257168e-06
2.7001053e-06
2.2129643e-06
1.7336291e-06
1.3315551e-06
9.3328373e-07
6.4382937e-07
3.1428058e-07
1.8250422e-07
2.1391443e-08
6.3204134e-06
7.6786418e-06
9.6278986e-06
1.2540819e-05
1.6991959e-05
2.3841825e-05
3.4329184e-05
4.9979619e-05
7.265959e-05
0.00010186004
0.00013648222
0.00017755773
0.00022280316
0.00026976063
0.00031375623
0.00034941159
0.00037163279
0.00037683807
0.00036396026
0.00033483482
0.00029376279
0.00024636373
0.00019819
0.00015362074
0.00011533795
8.4375303e-05
6.0530841e-05
4.2885498e-05
3.0237192e-05
2.1395509e-05
1.5335945e-05
1.125252e-05
8.5417996e-06
6.7704924e-06
5.6300531e-06
4.9267816e-06
4.4999553e-06
4.2662629e-06
4.1352169e-06
6.3251595e-06
5.3103297e-06
4.5093132e-06
3.8200548e-06
3.2265066e-06
2.6659106e-06
2.1797141e-06
1.7017699e-06
1.3095203e-06
9.1507688e-07
6.4597725e-07
3.0847657e-07
1.7414465e-07
1.7983397e-08
7.6722094e-06
9.5715192e-06
1.2359458e-05
1.6557411e-05
2.293964e-05
3.263427e-05
4.7216196e-05
6.853805e-05
9.8746073e-05
0.00013653964
0.00017959482
0.00022902039
0.00028127531
0.00033282162
0.00037782662
0.00041025599
0.00042511103
0.00041975431
0.00039473018
0.00035371162
0.00030254771
0.00024773699
0.00019496321
0.00014817732
0.00010936881
7.8877431e-05
5.595858e-05
3.9335878e-05
2.7612525e-05
1.9521856e-05
1.4035502e-05
1.0371486e-05
7.9544864e-06
6.3835684e-06
5.3864799e-06
4.7811915e-06
4.405648e-06
4.2094078e-06
4.1088735e-06
7.6703198e-06
6.3251558e-06
5.3023707e-06
4.4884755e-06
3.7875663e-06
3.1875489e-06
2.625515e-06
2.1409232e-06
1.6676093e-06
1.2894521e-06
9.0056955e-07
6.3372701e-07
3.0374075e-07
1.6575758e-07
1.9158266e-08
9.5393389e-06
1.2237465e-05
1.6240207e-05
2.225159e-05
3.1292988e-05
4.4810271e-05
6.4757648e-05
9.3327087e-05
0.00013285675
0.00018089603
0.00023333112
0.00029145869
0.00035017201
0.00040475974
0.00044831769
0.00047448485
0.00047887107
0.0004603506
0.00042150499
0.0003679824
0.00030701337
0.00024562251
0.00018925763
0.00014117611
0.00010254833
7.3003379e-05
5.1291186e-05
3.5830292e-05
2.5083989e-05
1.7754542e-05
1.2832733e-05
9.5660999e-06
7.4208469e-06
6.0444974e-06
5.1833286e-06
4.6417847e-06
4.3292505e-06
4.1679203e-06
4.099734e-06
9.526407e-06
7.6703151e-06
6.3204017e-06
5.2851857e-06
4.4566509e-06
3.7468772e-06
3.1416444e-06
2.5798078e-06
2.0981756e-06
1.6389178e-06
1.2753494e-06
8.8036768e-07
6.0637815e-07
2.9729527e-07
1.5865043e-07
2.3208814e-08
1.2165071e-05
1.6021544e-05
2.174144e-05
3.0257567e-05
4.2886587e-05
6.1438209e-05
8.8279791e-05
0.00012592194
0.0001767317
0.00023668219
0.00029915735
0.00036584443
0.00042978439
0.00048510185
0.00052404586
0.00054041893
0.00053107553
0.00049699265
0.0004431076
0.00037700967
0.00030697772
0.00024012803
0.00018130851
0.0001328692
9.5091751e-05
6.6914304e-05
4.6633499e-05
3.2429334e-05
2.2687357e-05
1.6113695e-05
1.1728845e-05
8.8294121e-06
6.9495025e-06
5.7582011e-06
4.9807945e-06
4.5290265e-06
4.2677556e-06
4.1443021e-06
4.109047e-06
1.213461e-05
9.5264014e-06
7.6721954e-06
6.3112754e-06
5.2597047e-06
4.4179368e-06
3.7001049e-06
3.0902791e-06
2.5307543e-06
2.0619018e-06
1.61615e-06
1.2459728e-06
8.5042757e-07
5.8423878e-07
2.8663952e-07
1.5084559e-07
2.8209088e-08
1.5889637e-05
2.1384931e-05
2.9481484e-05
4.1387486e-05
5.8761431e-05
8.3814545e-05
0.00011933984
0.00016810406
0.00023223294
0.00030565795
0.00037836449
0.00045279877
0.00051991936
0.00057281769
0.00060329638
0.00060598634
0.00057970747
0.00052808238
0.0004585437
0.00038038075
0.00030244678
0.00023148315
0.00017141458
0.00012353628
8.7222317e-05
6.0764951e-05
4.2079247e-05
2.9188846e-05
2.0453583e-05
1.4602504e-05
1.0714129e-05
8.1742053e-06
6.5478221e-06
5.4635719e-06
4.8192131e-06
4.4313982e-06
4.2251375e-06
4.1395319e-06
4.1379072e-06
1.5833079e-05
1.2134604e-05
9.5393222e-06
7.678618e-06
6.2995327e-06
5.2308495e-06
4.3751035e-06
3.6493391e-06
3.0367222e-06
2.4912278e-06
2.0319122e-06
1.5792653e-06
1.1947057e-06
8.2157026e-07
5.6117168e-07
2.7310049e-07
1.4155818e-07
3.2518293e-08
2.1167657e-05
2.8934698e-05
4.0254486e-05
5.6659999e-05
8.0187448e-05
0.00011347444
0.00015971935
0.0002218206
0.0003012665
0.00038945849
0.00047191852
0.0005524603
0.00061978219
0.00066624867
0.00068382877
0.00066880155
0.000622693
0.00055217267
0.00046707033
0.00037792384
0.00029360126
0.00022001956
0.00015992598
0.00011347868
7.916408e-05
5.4698309e-05
3.7714284e-05
2.6155999e-05
1.8389481e-05
1.3208286e-05
9.8063451e-06
7.6119267e-06
6.1259363e-06
5.2319916e-06
4.6716485e-06
4.3557933e-06
4.2021642e-06
4.1552818e-06
4.1876029e-06
2.1073288e-05
1.5833071e-05
1.2165051e-05
9.5714907e-06
7.6926398e-06
6.2909914e-06
5.2025061e-06
4.3314844e-06
3.5989294e-06
2.9958454e-06
2.46156e-06
1.9865456e-06
1.5193082e-06
1.1480781e-06
7.8986047e-07
5.3372891e-07
2.582217e-07
1.3047083e-07
3.5089251e-08
2.8599184e-05
3.9452049e-05
5.5060641e-05
7.7320991e-05
0.00010867828
0.00015219166
0.00021139368
0.0002891208
0.00038564977
0.00048943232
0.00058031813
0.00066434309
0.0007278677
0.00076307618
0.00076293628
0.00072629036
0.00065804498
0.00056807222
0.00046823702
0.00036970411
0.00028077627
0.00020615551
0.00014723728
0.00010301192
7.1132217e-05
4.8845157e-05
3.3609884e-05
2.3344217e-05
1.6479691e-05
1.1955092e-05
9.0231511e-06
7.0139347e-06
5.8000245e-06
5.0120327e-06
4.5519617e-06
4.3026385e-06
4.2010229e-06
4.1930558e-06
4.2595294e-06
2.8452525e-05
2.1073279e-05
1.5889614e-05
1.2237432e-05
9.6278577e-06
7.7211743e-06
6.2910664e-06
5.1794763e-06
4.2930525e-06
3.5659308e-06
2.9666852e-06
2.4151066e-06
1.9121136e-06
1.4639231e-06
1.1020807e-06
7.53408e-07
5.028154e-07
2.4305091e-07
1.1742171e-07
3.5577009e-08
3.8957368e-05
5.3921446e-05
7.5125282e-05
0.00010486198
0.00014599737
0.00020195612
0.00027647797
0.00037203909
0.000486937
0.00060649812
0.00070343328
0.00078719012
0.00084188477
0.00086035116
0.00083756281
0.00077585412
0.00068401472
0.00057492573
0.0004618988
0.0003560083
0.00026444222
0.00019038869
0.00013378245
9.2453681e-05
6.3323755e-05
4.3311221e-05
2.9790628e-05
2.0736389e-05
1.4756912e-05
1.0869444e-05
8.1847482e-06
6.5599958e-06
5.4804505e-06
4.8285355e-06
4.4593404e-06
4.2746629e-06
4.2234365e-06
4.2545812e-06
4.3551964e-06
3.874079e-05
2.8452516e-05
2.1167631e-05
1.6021505e-05
1.235941e-05
9.7165587e-06
7.7719784e-06
6.3067046e-06
5.1701962e-06
4.277735e-06
3.5510508e-06
2.9207524e-06
2.3328585e-06
1.8430659e-06
1.4090682e-06
1.051103e-06
7.1403986e-07
4.6970933e-07
2.2867047e-07
1.0314703e-07
3.4218136e-08
5.3216233e-05
7.3552022e-05
0.0001019203
0.00014103388
0.00019414216
0.00026493252
0.00035713785
0.00047244535
0.00060629959
0.00074097257
0.0008403222
0.00091885019
0.0009587474
0.00095459145
0.00090447028
0.00081505766
0.00069920073
0.00057225552
0.00044821391
0.00033732309
0.0002451986
0.00017329878
0.00012001903
8.2097533e-05
5.5893497e-05
3.8139418e-05
2.6241198e-05
1.8377288e-05
1.3260386e-05
9.7040705e-06
7.5590685e-06
6.1036678e-06
5.209818e-06
4.6798749e-06
4.3967365e-06
4.2736468e-06
4.2714942e-06
4.3415357e-06
4.4760266e-06
5.2907269e-05
3.874078e-05
2.8599154e-05
2.1384887e-05
1.6240151e-05
1.2540755e-05
9.848231e-06
7.8551066e-06
6.3493815e-06
5.1927271e-06
4.2867696e-06
3.5189071e-06
2.8335299e-06
2.2580539e-06
1.7769466e-06
1.3493096e-06
9.9723336e-07
6.7351512e-07
4.3585333e-07
2.1534039e-07
8.9123138e-08
3.1565141e-08
7.2575125e-05
9.9800862e-05
0.00013718284
0.00018783433
0.00025531288
0.00034338777
0.00045547734
0.00059194941
0.00074437855
0.00089235217
0.00098905915
0.0010562232
0.0010746468
0.0010419358
0.00096044452
0.00084179306
0.00070262649
0.00055997731
0.00042762261
0.00031432951
0.00022379212
0.00015553059
0.0001063769
7.2168391e-05
4.8914044e-05
3.3324324e-05
2.3024065e-05
1.6324336e-05
1.165293e-05
8.8493677e-06
6.9179548e-06
5.7145973e-06
4.9851635e-06
4.5693239e-06
4.366505e-06
4.3019023e-06
4.3470833e-06
4.455376e-06
4.6231403e-06
7.2147211e-05
5.2907257e-05
3.8957336e-05
2.8934649e-05
2.1741376e-05
1.6557335e-05
1.2795723e-05
1.0037348e-05
7.9858016e-06
6.4352864e-06
5.2502216e-06
4.2777756e-06
3.4381387e-06
2.7558688e-06
2.1878427e-06
1.7071859e-06
1.28718e-06
9.429326e-07
6.3342609e-07
4.0283768e-07
2.0275751e-07
7.6709943e-08
2.8228669e-08
9.8482137e-05
0.00013439401
0.00018290559
0.00024748257
0.00033185304
0.00043959227
0.0005734247
0.00073174473
0.00090105779
0.0010590936
0.0011466203
0.0011953151
0.0011851698
0.00111836
0.0010025188
0.00085441105
0.00069379614
0.00053838958
0.0004008398
0.00028794815
0.00020110805
0.00013770207
9.3179372e-05
6.2784454e-05
4.2404584e-05
2.8955056e-05
2.0220626e-05
1.4122383e-05
1.0494784e-05
7.9607111e-06
6.3706255e-06
5.3873093e-06
4.8098678e-06
4.4993063e-06
4.370799e-06
4.3613491e-06
4.4517479e-06
4.597042e-06
4.7971437e-06
9.7905586e-05
7.21472e-05
5.32162e-05
3.9451995e-05
2.9481412e-05
2.2251503e-05
1.6991862e-05
1.3144625e-05
1.0303419e-05
8.1759472e-06
6.5685317e-06
5.2862057e-06
4.2142837e-06
3.3695866e-06
2.6856784e-06
2.1155857e-06
1.6375534e-06
1.2259287e-06
8.903142e-07
5.95394e-07
3.7217134e-07
1.908834e-07
6.6742504e-08
2.4715504e-08
0.00013265259
0.00017931677
0.00024131428
0.0003223713
0.00042616105
0.00055571026
0.00071255647
0.00089249953
0.0010752175
0.0012384113
0.0013089528
0.0013312981
0.0012855
0.001179935
0.0010281652
0.00085183343
0.00067272471
0.000508155
0.00036893807
0.00025935755
0.0001780196
0.0001202692
8.0613683e-05
5.4014804e-05
3.6494457e-05
2.5142752e-05
1.7221526e-05
1.2565411e-05
9.2771813e-06
7.2039665e-06
5.9066527e-06
5.1253364e-06
4.6862724e-06
4.4720227e-06
4.4116369e-06
4.4534997e-06
4.5863966e-06
4.7671631e-06
4.9977927e-06
0.00013189381
9.7905577e-05
7.257509e-05
5.3921386e-05
4.0254407e-05
3.025747e-05
2.2939528e-05
1.7571176e-05
1.3612357e-05
1.0650612e-05
8.4282255e-06
6.6716424e-06
5.259384e-06
4.1664118e-06
3.3108538e-06
2.6171004e-06
2.0458214e-06
1.571744e-06
1.1689238e-06
8.4156471e-07
5.6090729e-07
3.4515805e-07
1.7999483e-07
5.9486645e-08
2.1383605e-08
0.00017706516
0.00023679404
0.00031482863
0.00041498842
0.0005405875
0.00069363896
0.00087400901
0.0010737928
0.0012644123
0.0014264289
0.0014709566
0.0014586693
0.0013706875
0.0012230761
0.0010354649
0.00083359713
0.00063990931
0.00047042711
0.00033342991
0.00022976654
0.00015515821
0.00010352004
6.8840606e-05
4.6051445e-05
3.1329463e-05
2.1077443e-05
1.5143877e-05
1.0913706e-05
8.2455798e-06
6.5603331e-06
5.530207e-06
4.9306917e-06
4.6167212e-06
4.4894207e-06
4.4902484e-06
4.5791598e-06
4.751764e-06
4.9655983e-06
5.2240163e-06
0.00017608843
0.0001318938
9.8482101e-05
7.3551962e-05
5.5060557e-05
4.1387377e-05
3.129286e-05
2.3841683e-05
1.8326506e-05
1.419127e-05
1.1079526e-05
8.63098e-06
6.7031512e-06
5.2504381e-06
4.1311157e-06
3.2580531e-06
2.5557381e-06
1.9833982e-06
1.5130188e-06
1.1190606e-06