/*--------------------------------*- C++ -*----------------------------------*\
| =========                 |                                                 |
| \\      /  F ield         | OpenFOAM: The Open Source CFD Toolbox           |
|  \\    /   O peration     | Version:  5.0                                   |
|   \\  /    A nd           | Web:      www.OpenFOAM.org                      |
|    \\/     M anipulation  |                                                 |
\*---------------------------------------------------------------------------*/
FoamFile
{
    version     2.0;
    format      ascii;
    class       volVectorField;
    location    "135";
    object      U;
}
// * * * * * * * * * * * * * * * * * * * * * * * * * * * * * * * * * * * * * //

dimensions      [0 1 -1 0 0 0 0];

internalField   nonuniform List<vector> 
9200
(
(1.0281737 -0.00074317949 -1.4821976e-23)
(1.0286042 -0.0022084058 -1.1852124e-20)
(1.030263 -0.00074836897 0)
(1.0291337 -0.0035376478 6.0779893e-21)
(1.030677 -0.0022338126 -9.0553941e-21)
(1.0312246 -0.00075059967 0)
(1.0297416 -0.0047960195 6.0843411e-22)
(1.0311921 -0.003569933 -4.8250675e-22)
(1.031633 -0.0022529075 0)
(1.0326219 -0.00075492452 0)
(1.0304535 -0.0059409034 -1.1495909e-20)
(1.0317815 -0.0048469939 -6.4530313e-21)
(1.0321434 -0.0035983127 -5.040547e-21)
(1.0330212 -0.0022839993 -3.1214075e-22)
(1.0337702 -0.00075749533 6.6075889e-25)
(1.0312263 -0.0070071836 -1.0603313e-20)
(1.0324684 -0.0060058118 8.9478711e-22)
(1.0327246 -0.0048922431 -1.6154662e-20)
(1.0335283 -0.0036426652 -6.0407012e-21)
(1.0341644 -0.0023123495 1.1951499e-22)
(1.0349918 -0.00075908845 1.2870782e-20)
(1.0320389 -0.0079796828 -9.7080054e-21)
(1.0332104 -0.0070914039 -1.1053582e-20)
(1.0334019 -0.0060651301 9.7673356e-21)
(1.0341039 -0.0049631512 5.5921299e-22)
(1.0346706 -0.0036838935 -6.2855443e-21)
(1.0353836 -0.0023425002 -6.0746022e-21)
(1.0361308 -0.00075824103 -9.0580932e-22)
(1.0328599 -0.0088711965 -3.9817856e-21)
(1.0339838 -0.0080824366 -7.5061754e-21)
(1.0341308 -0.0071689831 -1.0471043e-20)
(1.0347743 -0.0061599082 3.8792201e-22)
(1.0352436 -0.0050303585 1.4695074e-20)
(1.0358948 -0.0037273395 6.3796683e-21)
(1.0365217 -0.0023680376 7.9810822e-21)
(1.0372642 -0.00075454837 -1.2083563e-20)
(1.0336681 -0.0096806428 1.1568159e-20)
(1.0347584 -0.0089947033 -8.9096947e-21)
(1.0348879 -0.0081786028 4.6384465e-22)
(1.0354922 -0.0072945083 -5.3743527e-21)
(1.0359108 -0.0062511066 8.0796747e-22)
(1.0364741 -0.005103333 2.2748892e-20)
(1.0370393 -0.0037636504 -4.9426297e-21)
(1.0376592 -0.0023885489 1.3342288e-20)
(1.0383479 -0.00074728442 2.5396726e-20)
(1.0344436 -0.01041382 -8.5375081e-21)
(1.0355125 -0.0098253441 4.680527e-21)
(1.0356424 -0.0091114873 1.9696806e-22)
(1.0362341 -0.0083364617 -1.5672587e-21)
(1.0366223 -0.0074167448 1.7928087e-21)
(1.0371483 -0.0063525685 1.2051783e-21)
(1.0376265 -0.0051674897 -7.9413967e-21)
(1.0381909 -0.0037919566 -1.3924881e-20)
(1.0387478 -0.0024004432 -7.4863999e-21)
(1.0393999 -0.00073596594 -1.8618865e-21)
(1.0351711 -0.01107419 3.9387049e-21)
(1.0362274 -0.010580547 1.2455247e-22)
(1.036373 -0.009963629 -7.205237e-21)
(1.0369686 -0.0093054751 7.1172115e-21)
(1.0373542 -0.0084917572 -1.0918767e-20)
(1.0378649 -0.0075558838 2.3399112e-20)
(1.0383097 -0.0064441292 3.396856e-22)
(1.0387976 -0.0052228798 -2.2830909e-20)
(1.0392943 -0.0038065952 1.1198947e-20)
(1.0398107 -0.0024021856 -2.307112e-20)
(1.0404066 -0.0007201565 3.5134884e-21)
(1.0358369 -0.011666825 -2.1655954e-22)
(1.0368887 -0.011263163 8.8210302e-22)
(1.0370612 -0.010741389 5.7667555e-21)
(1.0376745 -0.010195875 0)
(1.0380745 -0.0094977389 -9.9780267e-23)
(1.0385992 -0.0086721913 -9.8345521e-22)
(1.0390337 -0.0076845057 4.776616e-21)
(1.0395033 -0.0065274424 1.1475631e-20)
(1.039922 -0.0052604269 -3.1638253e-22)
(1.0403809 -0.0038050289 1.3822521e-20)
(1.0408301 -0.0023915875 9.2358014e-21)
(1.0413685 -0.00069940643 -1.9677504e-21)
(1.0364261 -0.012196968 -1.6327158e-22)
(1.0374847 -0.011877892 1.0774114e-21)
(1.037693 -0.011447259 0)
(1.0383334 -0.011014077 0)
(1.0387622 -0.010427303 3.8728293e-21)
(1.039318 -0.0097252043 -5.7506293e-21)
(1.0397729 -0.0088419646 1.0849273e-20)
(1.0402499 -0.0078072655 -1.2653179e-20)
(1.0406518 -0.0065896093 -1.0413953e-21)
(1.0410421 -0.005277263 -5.9584983e-25)
(1.0414249 -0.0037837671 -1.6256389e-20)
(1.0418082 -0.0023669568 1.7279103e-20)
(1.0422803 -0.00067353094 -3.1570685e-20)
(1.0369151 -0.012671028 7.5189376e-22)
(1.0380038 -0.012429332 -2.0973536e-22)
(1.0382574 -0.012085886 3.4966578e-21)
(1.0389322 -0.011761807 -3.9359135e-21)
(1.039399 -0.011286747 4.2166672e-21)
(1.0400001 -0.010705573 -1.3177098e-21)
(1.0404932 -0.0099421728 -3.261656e-21)
(1.041009 -0.009009959 9.567933e-23)
(1.0414234 -0.0079063351 -1.1711286e-20)
(1.0418106 -0.0066280366 -1.0663625e-20)
(1.0421206 -0.0052678252 -4.3855011e-21)
(1.0424346 -0.0037403861 -1.193005e-20)
(1.0427392 -0.0023270141 -7.8855434e-21)
(1.0431385 -0.00064235242 8.3946567e-21)
(1.0372581 -0.013096954 4.9749236e-21)
(1.0384279 -0.012923291 -4.5923954e-21)
(1.0387439 -0.012661793 1.3620051e-21)
(1.0394608 -0.012443227 1.1722875e-22)
(1.0399722 -0.012076943 -6.7464286e-23)
(1.040627 -0.011619382 1.379892e-21)
(1.0411726 -0.010973655 -3.1147472e-21)
(1.0417459 -0.010163497 4.1537102e-21)
(1.0422077 -0.0091526898 -5.0954549e-22)
(1.0426222 -0.007980467 1.0669842e-21)
(1.04293 -0.0066348217 2.6697592e-22)
(1.0431781 -0.0052285072 8.1712475e-22)
(1.0433999 -0.0036728098 1.572713e-20)
(1.0436195 -0.0022704126 -7.5784618e-21)
(1.0439394 -0.00060584321 6.1131669e-21)
(1.0373675 -0.013483362 -2.4256456e-21)
(1.0387211 -0.013367303 4.2687708e-21)
(1.0391371 -0.013180655 -1.8885006e-21)
(1.0399101 -0.013062231 3.6502472e-21)
(1.0404725 -0.012801547 -4.0279469e-21)
(1.0411862 -0.012466342 9.757039e-21)
(1.0417927 -0.011942145 -9.4600259e-21)
(1.0424381 -0.011254098 2.7911959e-22)
(1.0429673 -0.01035858 3.1611404e-21)
(1.0434458 -0.0092709591 -1.0722305e-21)
(1.0437876 -0.0080182158 2.9512815e-20)
(1.0440426 -0.0066054186 -8.5560202e-21)
(1.0441933 -0.0051561762 -5.1977926e-21)
(1.0443189 -0.0035788349 -2.245366e-21)
(1.0444453 -0.0021965856 -5.2371101e-22)
(1.0446801 -0.00056406329 -6.4825641e-21)
(1.037091 -0.013843491 0)
(1.03881 -0.013770946 3.4817722e-21)
(1.0394054 -0.013649523 -2.3872252e-21)
(1.0402679 -0.013623785 0)
(1.0408923 -0.01346392 0)
(1.0416687 -0.013249295 0)
(1.042341 -0.012846124 1.2264191e-22)
(1.0430664 -0.012286995 -7.2535519e-21)
(1.0436784 -0.011507955 3.2692362e-21)
(1.0442425 -0.010531478 -8.8543429e-21)
(1.0446583 -0.0093491417 2.1528117e-22)
(1.0449587 -0.0080149942 -6.2277455e-21)
(1.0451148 -0.0065354828 4.1642505e-22)
(1.0451706 -0.0050478221 5.7807109e-21)
(1.0451867 -0.0034575802 1.5519e-21)
(1.0452131 -0.0021051082 3.4047876e-21)
(1.0453578 -0.00051717577 0)
(1.0361928 -0.014187783 -2.8214399e-22)
(1.0385577 -0.014149265 -6.7969721e-21)
(1.0394825 -0.014077086 7.268775e-21)
(1.0405083 -0.014134183 2.6264648e-21)
(1.0412214 -0.014068542 4.1662964e-21)
(1.042068 -0.013970611 0)
(1.042809 -0.01368764 4.6918299e-21)
(1.043618 -0.013259209 -7.872046e-22)
(1.0443212 -0.012605456 -1.4152989e-20)
(1.0449874 -0.01174366 3.5684847e-21)
(1.045501 -0.010661659 5.1647702e-21)
(1.0458897 -0.0093832077 2.6234782e-23)
(1.046097 -0.007964335 -1.2610534e-20)
(1.0461635 -0.0064205186 1.9538799e-20)
(1.0461011 -0.0049018232 4.7936316e-21)
(1.0459996 -0.0033081672 2.4300496e-20)
(1.0459199 -0.0019959786 8.9205406e-21)
(1.0459704 -0.00046542609 7.0858005e-21)
(1.0343572 -0.014527659 1.9344937e-22)
(1.0377411 -0.014518113 -2.9028168e-21)
(1.0392408 -0.014476404 -1.9862546e-21)
(1.040574 -0.014601661 4.5539572e-21)
(1.0414388 -0.014621166 -4.6577627e-22)
(1.0423759 -0.014633924 4.6325549e-21)
(1.043191 -0.014468123 9.1635201e-22)
(1.0440846 -0.014171662 -9.5292473e-21)
(1.0448826 -0.013646652 -3.5587482e-21)
(1.0456593 -0.012911533 8.2741525e-21)
(1.046289 -0.0119351 -6.5584621e-22)
(1.0467925 -0.010746236 1.2517735e-20)
(1.0470976 -0.0093639806 -5.2571612e-21)
(1.047223 -0.0078607829 -9.2081142e-22)
(1.047167 -0.0062589215 -1.8661381e-21)
(1.0469821 -0.0047165551 -4.0286904e-21)
(1.0467539 -0.0031306449 7.6654761e-21)
(1.0465631 -0.0018694883 -2.0267056e-23)
(1.0465165 -0.00040913689 5.8299985e-21)
(1.031214 -0.014869518 1.7107822e-21)
(1.0360461 -0.014896118 3.5939649e-21)
(1.0384674 -0.014861149 -1.6927534e-20)
(1.0403497 -0.015038926 -1.3889905e-21)
(1.0414941 -0.015129298 2.8671773e-21)
(1.0425746 -0.015243506 1.9328436e-21)
(1.0434813 -0.015190499 7.7887727e-22)
(1.044461 -0.015024576 7.3177561e-21)
(1.0453542 -0.014631275 -1.4336327e-21)
(1.0462445 -0.014028977 -1.3643212e-20)
(1.0469996 -0.013172879 1.528619e-20)
(1.047638 -0.012081198 -2.1530179e-21)
(1.0480709 -0.01077277 -5.5249246e-21)
(1.0483053 -0.0092854526 4.633368e-22)
(1.0483111 -0.0077015152 -8.5589928e-22)
(1.0481313 -0.006047276 -1.4131326e-20)
(1.0478085 -0.004491794 2.2498891e-21)
(1.0474465 -0.0029253547 -1.2380487e-20)
(1.0471409 -0.001726245 -2.9342223e-21)
(1.0469951 -0.00034869387 -5.4711972e-21)
(1.0263892 -0.015213001 -2.1108623e-22)
(1.0330859 -0.015298423 4.7697733e-21)
(1.036854 -0.015247126 -8.4911696e-22)
(1.039635 -0.015460696 4.4156739e-21)
(1.0412825 -0.015604628 1.3181988e-21)
(1.0426224 -0.015806572 -3.1826659e-21)
(1.0436659 -0.015858592 6.6807508e-21)
(1.0447422 -0.015819429 1.162739e-20)
(1.0457314 -0.015558355 -9.4730194e-21)
(1.0467341 -0.015094374 0)
(1.0476184 -0.014367153 -1.0032313e-20)
(1.0484023 -0.013390889 2.0184885e-21)
(1.0489855 -0.012165791 1.2260897e-20)
(1.0493624 -0.010735018 -7.1408918e-21)
(1.0494845 -0.0091430288 6.0200627e-21)
(1.0493701 -0.0074819241 -1.198646e-20)
(1.0490445 -0.0057856632 -2.0282215e-21)
(1.0485768 -0.0042274452 3.7942432e-21)
(1.0480748 -0.0026932211 -6.3371869e-21)
(1.0476519 -0.0015671214 -8.0202723e-22)
(1.0474061 -0.00028453357 -4.3552047e-21)
(1.0195678 -0.015549643 -5.2469235e-21)
(1.0284491 -0.015732818 3.6973294e-21)
(1.0340114 -0.015647012 8.3309831e-21)
(1.0381284 -0.015884639 -9.6684634e-21)
(1.0406153 -0.016061209 -5.8087472e-21)
(1.0424259 -0.016333752 1.9850327e-21)
(1.0437083 -0.016478318 0)
(1.044918 -0.01655888 6.8524395e-21)
(1.0460107 -0.016428325 3.8563842e-22)
(1.0471235 -0.016105163 -1.5750195e-20)
(1.0481361 -0.015514984 -3.7625601e-21)
(1.0490693 -0.014665701 2.0746605e-21)
(1.0498154 -0.013545291 -2.4164595e-22)
(1.0503604 -0.012182741 -4.9305134e-21)
(1.0506366 -0.010626121 6.1049427e-21)
(1.0506454 -0.0089311026 -5.5832619e-21)
(1.0503831 -0.0072017889 1.5242368e-21)
(1.0499046 -0.0054732343 -8.4941621e-21)
(1.0492832 -0.003924587 -2.5110173e-21)
(1.048637 -0.0024355696 -4.9069365e-22)
(1.0480954 -0.0013932243 -2.6936186e-21)
(1.0477499 -0.00021713025 0)
(1.0105516 -0.015863464 -2.9120362e-21)
(1.0217653 -0.016196102 -1.6869072e-21)
(1.0295136 -0.016066937 2.1547986e-22)
(1.0354353 -0.016326414 -9.0157926e-21)
(1.0391991 -0.016516071 -3.5393872e-21)
(1.0418092 -0.016838799 3.4011744e-21)
(1.0435248 -0.017059239 -5.1540734e-21)
(1.0449584 -0.017247853 9.4998546e-21)
(1.0461841 -0.01724264 4.3223714e-21)
(1.0474101 -0.017060328 4.9154075e-22)
(1.048548 -0.016612273 -5.6303116e-23)
(1.0496287 -0.015901158 -3.6387796e-21)
(1.0505431 -0.01489995 1.3275528e-21)
(1.0512708 -0.013630408 -6.1749452e-21)
(1.0517303 -0.012122541 -1.1891525e-20)
(1.0519045 -0.010439555 -1.1022609e-20)
(1.0517687 -0.0086483135 1.5134242e-21)
(1.051352 -0.0068585614 1.5264884e-20)
(1.0507062 -0.0051108592 2.9153157e-22)
(1.049925 -0.0035846876 -3.9396219e-21)
(1.0491316 -0.0021541273 0)
(1.0484714 -0.0012058577 4.9734065e-21)
(1.0480273 -0.00014698538 2.0750635e-22)
(0.99929621 -0.016133374 1.5936122e-20)
(1.0127724 -0.016672744 -3.8536433e-21)
(1.0229642 -0.016503354 9.316953e-21)
(1.0311087 -0.016795491 4.6551648e-21)
(1.0366385 -0.016984905 -1.0698724e-20)
(1.0404887 -0.017338976 0)
(1.0429516 -0.017614487 -1.0644664e-21)
(1.0447899 -0.017894806 5.8817868e-21)
(1.0462267 -0.018005031 5.5567486e-21)
(1.0475884 -0.017959976 2.2761425e-21)
(1.0488518 -0.017656538 -8.3487443e-21)
(1.0500756 -0.017091442 -5.8438216e-21)
(1.0511573 -0.016223841 7.7221033e-21)
(1.0520745 -0.015065036 -9.9200669e-21)
(1.0527348 -0.013633768 1.4940685e-20)
(1.0531075 -0.011977837 2.250464e-20)
(1.0531453 -0.010172308 -1.847379e-21)
(1.0528564 -0.0082910307 6.0929846e-21)
(1.0522655 -0.0064540152 -1.5459134e-20)
(1.0514457 -0.0046998733 2.1854623e-21)
(1.0504998 -0.0032098705 7.0712758e-21)
(1.049558 -0.0018509256 -4.4997101e-21)
(1.0487804 -0.0010064885 1.8136717e-21)
(1.04824 -7.4624505e-05 1.6300738e-22)
(0.98592015 -0.016336605 3.7428245e-21)
(1.0013651 -0.017136244 -1.7262863e-21)
(1.0140657 -0.016942052 -5.5913843e-22)
(1.0247152 -0.017291002 -2.1299169e-20)
(1.0324717 -0.017477737 7.2287924e-21)
(1.0380688 -0.017851086 -1.2714233e-20)
(1.0417158 -0.018161088 -9.0436715e-22)
(1.0442619 -0.018512217 -1.1846544e-20)
(1.046074 -0.018722675 4.679897e-21)
(1.0476386 -0.018806502 3.8550326e-21)
(1.0490438 -0.018646415 -7.1127779e-21)
(1.0504081 -0.018232404 7.1144894e-21)
(1.0516523 -0.017509392 -6.2976844e-21)
(1.0527585 -0.016479202 -2.515551e-22)
(1.0536287 -0.015145329 1.0577988e-20)
(1.0542208 -0.013547306 1.7803047e-21)
(1.0544696 -0.011743567 -5.1302678e-22)
(1.054361 -0.0098196189 9.8877124e-21)
(1.0538954 -0.0078603239 0)
(1.0531222 -0.0059878402 1.8156765e-21)
(1.0521195 -0.0042426915 4.6861087e-22)
(1.0510059 -0.0028026352 -7.5148315e-22)
(1.0499161 -0.0015282399 -6.1630045e-22)
(1.0490236 -0.00079670391 -2.6388589e-21)
(1.04839 -6.1322992e-07 -3.7641409e-22)
(0.97068433 -0.016452232 -1.4316408e-20)
(0.98761539 -0.017552675 1.6374524e-22)
(1.0026746 -0.01735967 2.8400486e-21)
(1.015911 -0.017800013 2.3679825e-21)
(1.0262353 -0.017994458 2.0744891e-20)
(1.0340727 -0.018387021 5.3636193e-22)
(1.0394248 -0.018716496 -8.5322546e-22)
(1.0431134 -0.019116901 8.5799577e-22)
(1.0455879 -0.019407149 9.0127958e-21)
(1.0475052 -0.019605676 -4.0177127e-21)
(1.0491085 -0.019582793 5.9743146e-21)
(1.0506238 -0.019321041 -5.4217094e-22)
(1.0520259 -0.01875073 -3.2604327e-21)
(1.0533161 -0.017863504 2.718458e-21)
(1.0543975 -0.016648427 -5.7795035e-22)
(1.0552207 -0.015132186 -1.4890378e-20)
(1.0557055 -0.013363582 -2.0043144e-20)
(1.0558187 -0.011413761 -1.4367221e-20)
(1.0555364 -0.0093813491 -1.9524387e-20)
(1.0548835 -0.0073551843 -3.5863573e-22)
(1.0539147 -0.0054634532 1.6600668e-20)
(1.0527246 -0.0037425142 1.4293692e-21)
(1.0514426 -0.0023659824 -3.7809957e-21)
(1.0502066 -0.0011885295 2.3934875e-21)
(1.0492027 -0.00057817671 -9.8994109e-22)
(1.0484795 7.4361392e-05 7.7926875e-23)
(0.95395167 -0.016464828 6.3092551e-22)
(0.97176023 -0.017885738 -2.774463e-22)
(0.98882904 -0.01772747 -1.1296005e-20)
(1.0045051 -0.018298481 1.249132e-20)
(1.0175442 -0.018523059 -1.7550582e-20)
(1.0280071 -0.018949435 1.1049576e-20)
(1.0355913 -0.01929397 5.6240073e-21)
(1.0409561 -0.01972697 1.0495669e-20)
(1.0445195 -0.020074771 -1.2879143e-20)
(1.0470626 -0.020367999 -5.424477e-21)
(1.0489982 -0.020469922 1.49574e-21)
(1.0507111 -0.020356556 -1.4719819e-20)
(1.0522769 -0.019943087 1.4209767e-20)
(1.0537448 -0.019210245 -2.8099714e-21)
(1.055033 -0.01813188 3.2798606e-21)
(1.0560904 -0.016722402 9.6566868e-23)
(1.0568264 -0.015015566 -6.7653091e-21)
(1.0571909 -0.013075345 6.9018827e-21)
(1.0571383 -0.010986641 -7.5150888e-21)
(1.0566687 -0.0088555241 -3.2137222e-22)
(1.0558113 -0.0067786679 0)
(1.0546405 -0.0048828973 5.7860936e-21)
(1.053259 -0.0032026665 1.6628401e-21)
(1.0518094 -0.0019033719 0)
(1.0504307 -0.00083440423 -2.5318488e-21)
(1.0493199 -0.00035267516 -5.7227552e-22)
(1.048511 0.00014904098 -9.0160689e-22)
(0.93614058 -0.016368041 4.8572902e-21)
(0.95416029 -0.018104947 -6.2612853e-23)
(0.97274477 -0.018016093 -9.2537337e-21)
(0.99049366 -0.018754648 1.1467636e-21)
(1.0061624 -0.019040024 -3.2771671e-21)
(1.019443 -0.019527789 -1.2267757e-20)
(1.0296934 -0.019897079 -6.323208e-22)
(1.0372928 -0.020357043 -8.9412343e-21)
(1.0424871 -0.020744013 4.1063964e-22)
(1.0460755 -0.021109133 1.0264242e-20)
(1.0485994 -0.021317004 -6.5259933e-21)
(1.0506299 -0.021341554 -2.228047e-22)
(1.0523966 -0.021083879 -4.5911691e-21)
(1.054044 -0.020512757 3.5169924e-21)
(1.055532 -0.019586145 -2.5878399e-21)
(1.0568202 -0.018305048 4.3017534e-21)
(1.0578133 -0.016688395 1.31797e-21)
(1.0584481 -0.014786893 3.1479971e-20)
(1.0586595 -0.012678802 1.0646382e-20)
(1.0584245 -0.010459039 9.060525e-21)
(1.0577467 -0.0082443953 9.5124898e-21)
(1.0566752 -0.0061324614 -2.5083339e-21)
(1.0552949 -0.0042508229 -6.3345923e-22)
(1.0537214 -0.0026270958 0)
(1.0521065 -0.0014191169 0)
(1.0505902 -0.00046886197 2.6535959e-22)
(1.0493773 -0.00012259359 1.1438707e-21)
(1.048491 0.00021917613 2.6424268e-21)
(0.91769082 -0.016155667 0)
(0.93523808 -0.018197615 -1.6351365e-22)
(0.95478902 -0.018195774 7.7674468e-21)
(0.97406009 -0.019133843 4.6511532e-21)
(0.9920454 -0.019513345 1.2650217e-20)
(1.0080931 -0.020098301 9.3032824e-22)
(1.0212601 -0.020516178 -7.853036e-21)
(1.031574 -0.021012553 -1.4186394e-20)
(1.0389864 -0.021430673 1.6285693e-20)
(1.04417 -0.021847773 -4.4413323e-21)
(1.0476905 -0.022138806 7.1620217e-22)
(1.0502785 -0.022283687 4.402017e-21)
(1.0523517 -0.022173882 -1.4853549e-20)
(1.0542075 -0.021766518 6.4037869e-21)
(1.0558938 -0.021002584 4.2525066e-21)
(1.0574057 -0.019868735 -1.8360881e-21)
(1.0586543 -0.018367591 4.2175974e-21)
(1.0595688 -0.016536465 -4.6494225e-21)
(1.0600676 -0.014440066 1.7565618e-20)
(1.0601067 -0.012169364 -1.9992477e-22)
(1.0596645 -0.0098319622 8.0451667e-21)
(1.0587652 -0.0075490266 5.0811135e-21)
(1.0574685 -0.0054212255 -7.6993429e-22)
(1.0558759 -0.0035710055 -1.1670081e-20)
(1.054111 -0.0020203434 -4.2595642e-21)
(1.0523351 -0.00091654352 1.2993947e-21)
(1.0506867 -9.6300453e-05 -3.8686432e-22)
(1.0493779 0.00010872073 1.5844811e-21)
(1.0484203 0.00029648997 -5.6265425e-21)
(0.89901807 -0.015826629 -1.4820773e-20)
(0.9154679 -0.01812802 0)
(0.9354382 -0.018228964 0)
(0.95554426 -0.019402384 0)
(0.9753491 -0.01990784 -3.2183328e-21)
(0.9938666 -0.020627773 1.1291144e-20)
(1.0099564 -0.021128053 -1.0046707e-21)
(1.0232854 -0.021685397 -1.398136e-21)
(1.0334435 -0.022141742 2.1579661e-20)
(1.0408365 -0.022600832 -2.083366e-20)
(1.045907 -0.022953985 1.1624825e-20)
(1.0494495 -0.023196613 -4.0774399e-21)
(1.0520518 -0.023219004 3.2794536e-21)
(1.0542082 -0.022970306 -8.8232012e-21)
(1.0561143 -0.022374631 7.180986e-21)
(1.0578459 -0.021402803 5.369792e-21)
(1.0593436 -0.020040005 -1.0808121e-21)
(1.0605386 -0.018308216 -1.1127564e-20)
(1.0613382 -0.016258017 -2.5596245e-21)
(1.0616797 -0.013968869 -8.4158287e-21)
(1.061518 -0.011546374 -9.4818315e-21)
(1.0608517 -0.0091055549 2.8055561e-21)
(1.0597158 -0.0067737314 1.0525914e-20)
(1.0581877 -0.0046488998 -4.8991236e-21)
(1.0563807 -0.0028489342 -1.6029352e-21)
(1.0544276 -0.0013869103 -1.0421905e-21)
(1.0524966 -0.00039885501 2.0233521e-22)
(1.0507231 0.00028338374 2.2032829e-21)
(1.0493253 0.00034583701 -7.8724383e-21)
(1.0482997 0.00037421519 -4.1862332e-21)
(0.87894915 -0.015346704 -1.0010567e-21)
(0.89537536 -0.017887367 -8.9510188e-22)
(0.915164 -0.018154976 0)
(0.93539267 -0.019529126 0)
(0.95640413 -0.020188393 0)
(0.97688323 -0.021078427 0)
(0.99564471 -0.021698691 0)
(1.0120397 -0.02235267 3.0161007e-22)
(1.0253028 -0.022870346 -1.0037543e-20)
(1.0354774 -0.023376914 2.3154875e-20)
(1.0427363 -0.023780365 -9.6770112e-22)
(1.0477891 -0.024098731 1.2933509e-20)
(1.0513037 -0.024231557 -1.858539e-20)
(1.0539664 -0.02412807 4.4704485e-21)
(1.0561716 -0.023698921 -3.3649313e-22)
(1.0581382 -0.022898548 6.7080411e-21)
(1.0598795 -0.021692968 -1.1886641e-20)
(1.0613499 -0.020087361 -1.8066187e-23)
(1.0624546 -0.01811573 1.4419069e-20)
(1.0631162 -0.015845026 6.5934485e-21)
(1.0632687 -0.013370621 1.2542622e-21)
(1.0628856 -0.010808729 9.858963e-21)
(1.0619757 -0.0082833549 4.8190072e-22)
(1.0605933 -0.005922313 -3.9736673e-21)
(1.0588286 -0.0038213824 4.4129707e-21)
(1.0568085 -0.0020895961 7.706196e-21)
(1.054672 -0.00073149007 1.860464e-21)
(1.0525927 0.0001298609 -5.757031e-23)
(1.0507023 0.00066788146 2.3165852e-22)
(1.049223 0.00058381645 7.0161024e-21)
(1.0481367 0.00044918347 2.8907097e-21)
(0.85706703 -0.014633038 1.7185646e-20)
(0.87371329 -0.017471273 -4.0048015e-22)
(0.89434375 -0.017929199 5.3895739e-21)
(0.91411138 -0.019503519 6.2712702e-21)
(0.93566627 -0.020319421 0)
(0.95745126 -0.021411497 0)
(0.97840905 -0.022188656 -3.4993696e-22)
(0.99764801 -0.022979336 1.2444139e-20)
(1.0141251 -0.023593895 -2.0163238e-20)
(1.0274948 -0.024170526 2.3730002e-20)
(1.0375597 -0.024628062 2.3691812e-21)
(1.0447841 -0.025008627 -1.3378263e-20)
(1.0497656 -0.025229422 2.850395e-22)
(1.0533033 -0.025250518 -9.8613126e-22)
(1.0559959 -0.024977255 -6.5939267e-21)
(1.058265 -0.024350331 1.3383477e-21)
(1.0602599 -0.0233156 5.1682007e-21)
(1.0619997 -0.021859287 -6.4579936e-22)
(1.0634065 -0.019996997 1.9612876e-21)
(1.0643966 -0.017780167 3.1441223e-20)
(1.0648861 -0.015292481 6.6813391e-21)
(1.0648254 -0.012642631 -8.1733621e-21)
(1.0641971 -0.0099587525 1.3641463e-20)
(1.0630295 -0.0073687006 9.9026513e-21)
(1.0613915 -0.0050008036 1.8490351e-21)
(1.0593886 -0.0029442647 4.644545e-21)
(1.0571586 -0.0012988197 2.2704355e-21)
(1.0548453 -5.8628379e-05 -9.1848696e-22)
(1.0526262 0.00066679324 1.0110953e-21)
(1.0506276 0.001054205 -9.6942137e-22)
(1.0490747 0.000821268 4.6328616e-21)
(1.0479315 0.00052335289 3.4022244e-22)
(0.83493519 -0.013688377 -5.8690181e-21)
(0.85002943 -0.016806192 1.5921263e-21)
(0.87196736 -0.017500263 -7.7302856e-21)
(0.89223457 -0.019287596 -5.8038536e-21)
(0.9136454 -0.020310547 0)
(0.9360193 -0.021588301 0)
(0.95853904 -0.022556749 0)
(0.98015282 -0.023523633 -1.9876181e-21)
(0.99966946 -0.024276436 1.6634831e-20)
(1.0163953 -0.024959457 1.7916906e-20)
(1.0297387 -0.025492952 2.4872882e-21)
(1.0397958 -0.025937876 -2.7273904e-21)
(1.0469253 -0.026231733 2.6668895e-20)
(1.0518902 -0.026354739 -1.9176132e-20)
(1.0554229 -0.026218485 5.2794095e-21)
(1.058166 -0.025757617 0)
(1.060471 -0.024899893 2.3123746e-21)
(1.0624861 -0.023610938 3.7107957e-22)
(1.0641895 -0.021885401 1.2652333e-20)
(1.0655082 -0.019756938 -6.5312621e-22)
(1.0663477 -0.017293967 -1.5147864e-20)
(1.0666378 -0.014595793 -3.9642932e-21)
(1.0663359 -0.011785589 -1.2517467e-20)
(1.0654437 -0.0089989333 -1.2987616e-20)
(1.0640048 -0.0063673896 1.925293e-21)
(1.0621062 -0.0040151601 2.2764487e-21)
(1.0598657 -0.0020242291 -1.3471304e-21)
(1.0574312 -0.00048220759 -9.1632598e-23)
(1.0549496 0.00062699887 1.9585803e-21)
(1.0526002 0.0012080426 -8.3864822e-23)
(1.0505026 0.0014402857 1.0796407e-21)
(1.0488833 0.0010573079 -1.4578817e-20)
(1.0476904 0.0005952889 5.7980755e-21)
(0.81323314 -0.01250923 -5.3514067e-21)
(0.82587438 -0.015865214 2.2782458e-22)
(0.84750323 -0.016822984 -1.3947561e-20)
(0.86866042 -0.018865572 -8.5378553e-21)
(0.89084001 -0.020133766 3.8764264e-21)
(0.91311844 -0.02160659 1.3449021e-22)
(0.93648273 -0.022759906 1.8935144e-20)
(0.95981865 -0.023940783 -1.035544e-20)
(0.98193544 -0.024874248 -4.869227e-22)
(1.0018818 -0.025706699 -3.8537627e-20)
(1.0187258 -0.026353227 1.6986117e-20)
(1.0321452 -0.026883729 2.1465378e-20)
(1.042127 -0.027251433 -1.7369208e-21)
(1.0492183 -0.027460203 -7.7031638e-21)
(1.0541378 -0.027438622 -9.1977679e-21)
(1.0576908 -0.027127146 -4.900691e-21)
(1.060461 -0.026442821 1.052313e-21)
(1.0627982 -0.025331883 1.5584343e-20)
(1.0648011 -0.023765779 -6.362649e-22)
(1.0664443 -0.021757323 -2.7721689e-21)
(1.0676379 -0.019356927 -2.765878e-21)
(1.0682969 -0.016650366 -2.1289894e-20)
(1.0683557 -0.013753618 2.5692013e-21)
(1.0677893 -0.01080072 -1.0309335e-21)
(1.066615 -0.0079344148 -1.6380326e-20)
(1.0648956 -0.0052854459 -4.6450462e-21)
(1.0627335 -0.0029726937 -3.2492039e-21)
(1.060259 -0.0010678367 -3.1805658e-21)
(1.0576275 0.00035433643 -6.1483619e-22)
(1.0549873 0.0013208614 -6.0510687e-22)
(1.0525178 0.0017503657 1.2733262e-21)
(1.0503309 0.0018236633 -1.4994447e-22)
(1.048653 0.00128982 6.3521777e-21)
(1.0474156 0.00066535663 -1.1582685e-20)
(0.79269675 -0.011093055 5.7503014e-21)
(0.80197838 -0.014623764 -3.3574994e-22)
(0.82235099 -0.015872464 1.613729e-20)
(0.84279947 -0.018182839 4.843092e-21)
(0.86627254 -0.019710928 -1.3235441e-20)
(0.88932442 -0.021462028 -1.8308449e-20)
(0.9127803 -0.022808943 -2.449404e-21)
(0.93708802 -0.024182837 0)
(0.961161 -0.025339663 -1.1260586e-20)
(0.98390673 -0.026366128 -4.2779473e-20)
(1.0041662 -0.027170859 1.8331932e-21)
(1.0212284 -0.027824761 -8.0603678e-21)
(1.0346523 -0.028287174 0)
(1.0446159 -0.028581124 -3.0668141e-21)
(1.051637 -0.028657228 1.7369838e-20)
(1.0565397 -0.028473567 7.1126016e-21)
(1.0600932 -0.027948779 -9.718637e-21)
(1.0628919 -0.027016474 0)
(1.0652326 -0.025625276 -6.2415092e-21)
(1.0672015 -0.023764184 -7.8454104e-21)
(1.0687475 -0.021462032 -2.1362188e-20)
(1.0697842 -0.018787812 -4.2875356e-21)
(1.0702275 -0.015845637 0)
(1.0700272 -0.012765498 -1.5622966e-20)
(1.0691732 -0.0096920626 2.1458787e-21)
(1.0677027 -0.0067709132 -1.8228115e-23)
(1.0656958 -0.004130512 -6.6448886e-21)
(1.063271 -0.0018807908 3.3142699e-21)
(1.0605683 -8.2137296e-05 4.1969217e-22)
(1.0577492 0.0012050994 2.0409354e-21)
(1.0549613 0.0020185023 -4.9752941e-21)
(1.0523825 0.0022906194 -2.5455435e-21)
(1.0501161 0.0022023382 0)
(1.048387 0.0015183171 -2.4641315e-22)
(1.0471114 0.00073325818 -3.6884918e-21)
(0.77408357 -0.0094477064 4.1488576e-21)
(0.77917916 -0.013070524 1.0827814e-21)
(0.79731629 -0.014622306 1.4797946e-20)
(0.81609151 -0.017196665 1.7195567e-21)
(0.83936233 -0.019008912 -3.6262477e-21)
(0.86362825 -0.021006896 -1.27957e-21)
(0.88800755 -0.02267589 -1.5715325e-20)
(0.91251807 -0.024263442 4.0437299e-22)
(0.93778075 -0.025619991 0)
(0.96267786 -0.026886481 1.3695715e-20)
(0.98596281 -0.027897387 -1.4589411e-20)
(1.0066296 -0.028721741 3.091938e-21)
(1.0238406 -0.029317966 -8.4034491e-21)
(1.0373261 -0.029717546 1.137119e-20)
(1.0472356 -0.029889655 1.7899752e-21)
(1.0542161 -0.029816285 1.7505436e-20)
(1.0590835 -0.029430762 -1.6905468e-20)
(1.0626436 -0.028666547 1.2080383e-21)
(1.0654464 -0.027455542 1.6489136e-20)
(1.0677722 -0.025762302 -1.1364069e-20)
(1.0696713 -0.02359038 1.6676905e-20)
(1.0710874 -0.020987849 -1.5481739e-21)
(1.0719294 -0.018043192 0)
(1.0721253 -0.014877239 -4.203524e-21)
(1.0716379 -0.011633905 4.8904329e-22)
(1.0704769 -0.0084645955 6.5542073e-21)
(1.0686985 -0.0055160383 4.4104882e-21)
(1.0664012 -0.0029105734 2.2787731e-21)
(1.0637168 -0.00074752588 1.6052998e-21)
(1.0607943 0.00092596456 0)
(1.0577986 0.0020644079 -9.833403e-22)
(1.054875 0.002715721 -5.3701697e-21)
(1.0521982 0.0028258183 1.4075724e-20)
(1.0498619 0.0025745903 -5.0456041e-21)
(1.0480891 0.0017416376 3.5777713e-22)
(1.046781 0.00079887001 1.3180069e-20)
(0.75813021 -0.0075932828 -3.9373293e-21)
(0.75836322 -0.011208236 -1.156896e-22)
(0.77331381 -0.013064342 -4.5345443e-21)
(0.78936184 -0.015879562 -1.8185861e-23)
(0.81133753 -0.018006394 1.5706486e-20)
(0.83536917 -0.020304516 1.3180138e-20)
(0.8612151 -0.022228124 -1.2393771e-22)
(0.88673558 -0.024145869 -1.2610089e-20)
(0.91235996 -0.02573431 4.4576235e-22)
(0.93862048 -0.027209617 -1.1763538e-20)
(0.96429026 -0.028478118 -4.2418914e-22)
(0.98819822 -0.029523505 7.3156658e-21)
(1.0092131 -0.030303369 -7.696073e-22)
(1.0266302 -0.030848913 1.2469548e-20)
(1.0401391 -0.031137344 -4.0105417e-20)
(1.0500239 -0.031171671 6.4886584e-21)
(1.0569441 -0.03090775 3.3476298e-21)
(1.0617852 -0.030293152 8.8995033e-21)
(1.0653317 -0.029255669 -6.3580187e-21)
(1.0681247 -0.027740596 -1.9398312e-21)
(1.0704024 -0.025724518 1.2063522e-20)
(1.0721995 -0.023230094 -1.2834362e-20)
(1.0734462 -0.020325483 7.662143e-21)
(1.0740583 -0.017118096 0)
(1.0739739 -0.01374563 1.7381602e-20)
(1.0731747 -0.01036261 1.5563542e-20)
(1.0716898 -0.007125468 -3.5294451e-21)
(1.0695959 -0.0041780679 9.2415494e-21)
(1.067008 -0.0016345466 5.5227549e-22)
(1.0640705 0.00041902222 -1.5565567e-21)
(1.0609385 0.0019495669 2.4212758e-21)
(1.0577786 0.0029268684 -7.110988e-21)
(1.0547318 0.0034085984 -2.8544414e-22)
(1.0519685 0.0033534144 1.4661895e-20)
(1.0495721 0.0029388332 -1.2095804e-21)
(1.0477628 0.0019591217 -4.7812665e-22)
(1.0464277 0.00086212447 4.8776315e-21)
(0.74550357 -0.0055614751 4.5198639e-22)
(0.74041058 -0.0090588211 -1.1112363e-21)
(0.7513106 -0.011200553 -5.8522036e-21)
(0.76359442 -0.014220901 -1.0869247e-21)
(0.78310156 -0.016649432 6.081428e-23)
(0.80583285 -0.019259574 1.0687572e-22)
(0.83176066 -0.021492472 -8.3503397e-21)
(0.85878212 -0.023675278 4.5907332e-21)
(0.88554196 -0.025632495 0)
(0.91231245 -0.027359329 2.4409459e-21)
(0.93956139 -0.028849345 0)
(0.9660727 -0.030171476 0)
(0.99056242 -0.031189399 7.7375959e-21)
(1.0119827 -0.031933437 -8.2624543e-22)
(1.0295701 -0.032380209 -6.6209309e-21)
(1.0431321 -0.032542577 -9.3759717e-21)
(1.0529701 -0.032396989 2.2094764e-20)
(1.0598399 -0.031914579 -6.6509322e-21)
(1.0646368 -0.031034495 3.7280191e-21)
(1.0681599 -0.029695274 2.0774516e-21)
(1.0709136 -0.027850678 -1.6595204e-20)
(1.073113 -0.025495073 -3.29321e-21)
(1.0747681 -0.022671013 4.5988127e-21)
(1.0758076 -0.019467238 9.2510681e-21)
(1.0761527 -0.016010541 1.9031118e-21)
(1.0757581 -0.01245289 2.389648e-21)
(1.0746246 -0.0089578256 -4.4076651e-21)
(1.0728029 -0.0056828623 -6.0165785e-21)
(1.0703891 -0.0027664981 -7.4303044e-22)
(1.067514 -0.00031156883 -5.915258e-21)
(1.0643324 0.0016106244 -4.9270316e-21)
(1.0610032 0.0029819686 -2.4889352e-21)
(1.0576926 0.0037873708 -6.2696203e-22)
(1.0545357 0.004093578 1.0833532e-20)
(1.0516973 0.0038710634 -2.8553629e-20)
(1.0492503 0.0032938152 -4.6907023e-21)
(1.0474114 0.0021701779 -4.6826424e-21)
(1.0460548 0.00092290772 0)
(0.73675438 -0.0033940496 3.4665583e-21)
(0.72613015 -0.0066628068 -1.0886449e-22)
(0.73227189 -0.0090519779 -1.5364197e-21)
(0.7398547 -0.01221823 -8.7989186e-22)
(0.75573291 -0.014929643 -7.6010317e-21)
(0.77593394 -0.017832359 -5.7149996e-21)
(0.80075571 -0.020414494 -4.9612829e-22)