/*--------------------------------*- C++ -*----------------------------------*\
| =========                 |                                                 |
| \\      /  F ield         | OpenFOAM: The Open Source CFD Toolbox           |
|  \\    /   O peration     | Version:  5.0                                   |
|   \\  /    A nd           | Web:      www.OpenFOAM.org                      |
|    \\/     M anipulation  |                                                 |
\*---------------------------------------------------------------------------*/
FoamFile
{
    version     2.0;
    format      ascii;
    class       volVectorField;
    location    "135";
    object      UMean;
}
// * * * * * * * * * * * * * * * * * * * * * * * * * * * * * * * * * * * * * //

dimensions      [0 1 -1 0 0 0 0];

internalField   nonuniform List<vector> 
9200
(
(1.0201807 -0.00052425057 -1.7040434e-23)
(1.0205153 -0.0015332356 -7.9884267e-21)
(1.0216351 -0.00053198466 0)
(1.0207647 -0.0024620062 4.0807465e-21)
(1.0219543 -0.0015566966 -6.1062811e-21)
(1.0223108 -0.00053736669 0)
(1.020963 -0.0033265861 4.0963202e-22)
(1.0221884 -0.0024955743 -3.8333889e-22)
(1.0226247 -0.0015772012 0)
(1.0232959 -0.00054640837 0)
(1.0211543 -0.0041139671 -7.6058267e-21)
(1.0223655 -0.0033754492 -4.0633869e-21)
(1.0228521 -0.0025276788 -3.3835361e-21)
(1.0236008 -0.0016116985 -2.1200773e-22)
(1.0241119 -0.00055461875 1.369798e-24)
(1.0213251 -0.004841518 -6.9904592e-21)
(1.022533 -0.0041751182 6.7232333e-22)
(1.0230194 -0.0034227566 -1.0741983e-20)
(1.0238209 -0.0025799497 -3.9289395e-21)
(1.0244108 -0.0016463474 1.5532431e-22)
(1.0249927 -0.00056370224 8.9405893e-21)
(1.0214647 -0.0055030918 -6.2058152e-21)
(1.0226763 -0.0049174662 -7.3191101e-21)
(1.0231765 -0.0042353682 6.5069686e-21)
(1.023978 -0.0034998123 3.4658253e-22)
(1.0246257 -0.0026330087 -4.2928169e-21)
(1.0252867 -0.0016871787 -4.1120192e-21)
(1.0258189 -0.00057167728 -5.7042977e-22)
(1.0215523 -0.0061073053 -2.3473528e-21)
(1.022784 -0.0055926565 -4.7671159e-21)
(1.0233069 -0.0049926452 -6.8068462e-21)
(1.0241241 -0.0043345585 4.2666108e-22)
(1.0247751 -0.0035784388 9.7356739e-21)
(1.0255 -0.0026954298 4.2110864e-21)
(1.0261092 -0.0017271688 5.7109835e-21)
(1.0266595 -0.00057888661 -8.6264219e-21)
(1.0215711 -0.006654934 7.2595571e-21)
(1.0228366 -0.0062111745 -5.8620988e-21)
(1.0234001 -0.0056822058 4.4081167e-22)
(1.024241 -0.0051173358 -3.5606917e-21)
(1.0249131 -0.004436319 9.4058144e-22)
(1.0256469 -0.0036718771 1.5293729e-20)
(1.0263217 -0.0027564452 -4.1275448e-21)
(1.0269488 -0.0017680871 9.6229593e-21)
(1.0274683 -0.00058415015 1.8294341e-20)
(1.0215037 -0.0071510428 -5.2453111e-21)
(1.0228175 -0.0067726571 3.2861828e-21)
(1.0234363 -0.0063156815 8.6597603e-23)
(1.0243182 -0.0058321649 -1.5406562e-21)
(1.0250194 -0.0052456297 1.1104936e-21)
(1.0257827 -0.0045587297 1.5239437e-21)
(1.0264674 -0.0037640447 -5.3400372e-21)
(1.0271654 -0.0028189205 -9.6642823e-21)
(1.0277578 -0.0018053308 -5.1239958e-21)
(1.028275 -0.00058737893 -1.2646728e-21)
(1.0213339 -0.0075991111 2.4211213e-21)
(1.0227106 -0.0072825511 3.6375948e-22)
(1.0233995 -0.0068919387 -4.747695e-21)
(1.0243358 -0.0064921726 4.4769623e-21)
(1.025084 -0.0059868906 -7.7856375e-21)
(1.0258849 -0.0054017865 1.5995012e-20)
(1.0266025 -0.0046802237 4.8103404e-22)
(1.0273168 -0.0038601424 -1.6186538e-20)
(1.0279801 -0.0028755451 8.0898315e-21)
(1.0285679 -0.0018390285 -1.647681e-20)
(1.0290549 -0.00058783 2.6847786e-21)
(1.0210448 -0.0080035841 -1.5936634e-22)
(1.0225007 -0.0077440396 9.4577096e-23)
(1.023274 -0.007416588 3.4944222e-21)
(1.0242786 -0.0070950586 0)
(1.0250868 -0.006674523 -2.9524725e-23)
(1.0259432 -0.0061775304 -1.35091e-21)
(1.026702 -0.0055576729 3.2915745e-21)
(1.0274588 -0.0048089151 8.0598296e-21)
(1.0281395 -0.0039491268 -1.2014468e-21)
(1.0288007 -0.0029266432 9.9889123e-21)
(1.0293529 -0.001866001 6.8094805e-21)
(1.0298207 -0.00058525091 -1.4140585e-21)
(1.0206175 -0.0083688019 -1.0396795e-22)
(1.0221726 -0.008161578 8.366493e-22)
(1.0230454 -0.0078926103 0)
(1.0241314 -0.0076465024 0)
(1.025013 -0.0073050468 2.6686963e-21)
(1.025937 -0.0069017504 -4.8017924e-21)
(1.0267555 -0.0063687855 8.0382879e-21)
(1.0275638 -0.0057255034 -8.544026e-21)
(1.0282913 -0.0049298291 -6.4163091e-22)
(1.0289753 -0.004032229 1.1960982e-23)
(1.0295986 -0.002967171 -1.2313082e-20)
(1.0301268 -0.0018855272 1.374539e-20)
(1.0305591 -0.00057920747 -2.4477772e-20)
(1.0200273 -0.0086994645 5.3336215e-22)
(1.0217093 -0.0085394479 -1.478083e-22)
(1.0226991 -0.0083244696 2.3504631e-21)
(1.0238804 -0.0081490117 -2.7308223e-21)
(1.0248478 -0.0078841119 2.9805066e-21)
(1.0258516 -0.0075694079 -1.1934321e-21)
(1.0267421 -0.0071307006 -2.0887506e-21)
(1.0276209 -0.00657791 1.2407021e-22)
(1.0284053 -0.0058855663 -7.2734748e-21)
(1.0291445 -0.0050455322 -6.5172222e-21)
(1.0297919 -0.0041018451 -3.1823343e-21)
(1.0303904 -0.002996014 -8.6518807e-21)
(1.0308755 -0.0018955441 -5.8222426e-21)
(1.0312733 -0.00056944233 6.6104664e-21)
(1.0192382 -0.0090004926 2.7951027e-21)
(1.0210889 -0.0088824613 -3.3484956e-21)
(1.0222191 -0.0087163978 7.2662827e-22)
(1.023512 -0.0086068462 1.2460275e-22)
(1.0245785 -0.0084137167 -1.003533e-22)
(1.0256727 -0.0081860518 1.3274023e-21)
(1.0266476 -0.0078370245 -1.9509212e-21)
(1.0276082 -0.0073846108 2.6333922e-21)
(1.0284695 -0.006779924 -7.6810572e-22)
(1.0292758 -0.0060424913 5.6309065e-22)
(1.0299833 -0.0051457755 1.9074825e-22)
(1.0306095 -0.0041567426 -4.6847678e-23)
(1.0311597 -0.0030099162 1.2056464e-20)
(1.0316029 -0.0018950163 -6.094434e-21)
(1.0319565 -0.00055573686 5.0235553e-21)
(1.0181954 -0.0092771679 -1.5693326e-21)
(1.0202796 -0.0091959757 2.7013422e-21)
(1.021585 -0.0090730629 -1.3875636e-21)
(1.0230114 -0.0090239461 2.4941317e-21)
(1.024192 -0.0088979314 -2.7983385e-21)
(1.025388 -0.0087529292 6.2730406e-21)
(1.0264579 -0.008493028 -7.0141041e-21)
(1.0275112 -0.0081373263 3.0400146e-22)
(1.0284614 -0.0076326806 2.1308118e-21)
(1.0293558 -0.0069821399 -2.0532483e-21)
(1.0301373 -0.0061829279 2.0710906e-20)
(1.0308307 -0.0052294784 -7.3357041e-21)
(1.0314091 -0.0041920108 -3.9848174e-21)
(1.0319122 -0.0030072555 -1.4444384e-21)
(1.0323014 -0.0018826993 -2.2461233e-23)
(1.0326073 -0.00053795233 -5.405949e-21)
(1.0168178 -0.0095349759 0)
(1.0192318 -0.0094864215 2.3690285e-21)
(1.0207673 -0.0093994951 -1.2776842e-21)
(1.0223601 -0.0094048267 0)
(1.0236749 -0.0093405073 0)
(1.0249856 -0.0092736768 0)
(1.026161 -0.0090991661 2.4972786e-22)
(1.0273159 -0.008840894 -4.5473103e-21)
(1.0283663 -0.0084338199 3.8996242e-21)
(1.0293605 -0.0078855531 -5.8659373e-21)
(1.0302388 -0.0071678773 6.5874424e-22)
(1.0310161 -0.0063063264 -4.3047267e-21)
(1.0316658 -0.0052900286 5.7079888e-22)
(1.0321987 -0.0042053875 4.3878963e-21)
(1.0326389 -0.0029860291 8.9171131e-22)
(1.0329702 -0.0018577549 2.8188436e-21)
(1.0332221 -0.00051601966 0)
(1.0149944 -0.0097787019 -4.8719032e-22)
(1.0178691 -0.0097613454 -4.1943015e-21)
(1.0197195 -0.0097014821 5.1217797e-21)
(1.0215313 -0.009754472 2.2375541e-21)
(1.02301 -0.0097457379 3.1885568e-21)
(1.0244527 -0.0097515382 0)
(1.0257457 -0.0096585899 4.1161469e-21)
(1.0270108 -0.0094947239 -1.1026736e-21)
(1.02817 -0.009187687 -1.0592949e-20)
(1.0292747 -0.0087406939 4.8203876e-21)
(1.0302625 -0.0081229862 3.3972156e-21)
(1.0311481 -0.0073374816 7.0396351e-22)
(1.0318892 -0.0064040873 -9.8676315e-21)
(1.0324987 -0.0053245908 1.4259065e-20)
(1.0329673 -0.0041938133 2.7008515e-21)
(1.0333397 -0.0029448414 2.0078429e-20)
(1.033605 -0.0018195337 7.2852722e-21)
(1.0337984 -0.00048992746 6.2523092e-21)
(1.0125895 -0.010011776 1.5674738e-22)
(1.0160821 -0.010028876 -1.8374286e-21)
(1.0183688 -0.009985535 -1.1818867e-21)
(1.0204821 -0.010078685 3.2098337e-21)
(1.0221727 -0.010118368 -3.7476241e-22)
(1.023774 -0.01019044 2.5118664e-21)
(1.0252004 -0.010174026 -1.676563e-21)
(1.0265855 -0.010101278 -8.7548567e-21)
(1.0278614 -0.0098925833 -3.4315866e-21)
(1.0290838 -0.0095512523 4.8483438e-21)
(1.0301924 -0.0090342531 -1.0640689e-21)
(1.0312 -0.0083466177 8.6430478e-21)
(1.0320592 -0.0074802099 -5.0605127e-21)
(1.032769 -0.0064729487 -2.0241592e-22)
(1.0333165 -0.0053290132 -7.0391484e-22)
(1.033716 -0.0041551392 -3.2830406e-21)
(1.0340095 -0.0028826285 6.524565e-21)
(1.0342033 -0.0017675761 -2.2400503e-22)
(1.0343339 -0.00045975208 5.4704171e-21)
(1.0094585 -0.010234789 1.406414e-21)
(1.0137304 -0.010296703 2.1438974e-21)
(1.016609 -0.01025842 -1.1107424e-20)
(1.0191444 -0.010384285 -1.1461733e-21)
(1.0211237 -0.010463992 1.75357e-21)
(1.0229273 -0.01059483 1.011959e-21)
(1.0245108 -0.010649029 7.3372278e-22)
(1.0260291 -0.010662569 4.5891342e-21)
(1.0274303 -0.010550178 -1.394266e-21)
(1.0287769 -0.010314212 -1.132257e-20)
(1.0300135 -0.0099046758 9.781411e-21)
(1.0311543 -0.0093176489 -7.865108e-22)
(1.0321473 -0.0085433922 -3.3785023e-21)
(1.0329866 -0.0075926036 2.6265593e-22)
(1.0336411 -0.0065073989 6.4648383e-23)
(1.034122 -0.0053002598 -1.1490585e-20)
(1.0344383 -0.0040875965 2.8300496e-21)
(1.0346457 -0.0027986318 -1.0411634e-20)
(1.0347623 -0.0017017153 -2.5010243e-21)
(1.0348265 -0.00042562935 -5.319961e-21)
(1.0054715 -0.010444621 -8.0658656e-23)
(1.010655 -0.010569933 2.812366e-21)
(1.0143005 -0.010526591 -1.5594676e-22)
(1.017416 -0.010679115 2.9621372e-21)
(1.0197987 -0.010789182 4.5937344e-22)
(1.0218765 -0.010970078 -2.3640831e-21)
(1.0236566 -0.011087672 5.9341145e-21)
(1.0253289 -0.011181607 1.147956e-20)
(1.0268668 -0.011161685 -5.0569568e-21)
(1.0283442 -0.01103024 0)
(1.0297146 -0.010729825 -6.2437535e-21)
(1.0309954 -0.010252765 3.4269001e-21)
(1.0321345 -0.0095755538 9.363132e-21)
(1.0331208 -0.0087099114 -7.247249e-21)
(1.0339148 -0.0076675708 3.9838646e-21)
(1.0345097 -0.0065035119 -9.3200423e-21)
(1.0349067 -0.0052358756 -4.9353478e-22)
(1.0351321 -0.0039898349 3.7264443e-21)
(1.0352451 -0.0026925343 -5.9557812e-21)
(1.0352799 -0.0016220193 -5.3834801e-22)
(1.0352746 -0.00038775512 -4.5498105e-21)
(1.0005396 -0.010634241 -3.8225644e-21)
(1.0067021 -0.010849191 2.0895079e-21)
(1.0112806 -0.010794207 5.2913013e-21)
(1.0151568 -0.010970708 -6.1029232e-21)
(1.0180991 -0.011101325 -4.136714e-21)
(1.0205623 -0.011322704 1.0653082e-21)
(1.0226051 -0.011494965 0)
(1.0244667 -0.011662019 3.3907759e-21)
(1.0261593 -0.011729469 -1.505942e-21)
(1.0277767 -0.011699562 -1.1547417e-20)
(1.0292862 -0.011509265 -1.508454e-21)
(1.0307117 -0.011145952 2.3664887e-21)
(1.0320041 -0.010578081 -5.780772e-22)
(1.033151 -0.0098048169 -3.1945307e-21)
(1.0341046 -0.0088373136 5.2987097e-21)
(1.0348491 -0.0077004417 -4.9887451e-21)
(1.0353647 -0.0064578351 1.1768185e-21)
(1.0356694 -0.005133619 -7.1150934e-21)
(1.0357929 -0.003861155 -1.3337434e-21)
(1.035805 -0.0025643327 -2.616172e-22)
(1.0357541 -0.0015287953 -2.754583e-21)
(1.0356772 -0.00034637585 0)
(0.99463522 -0.010793468 -1.9875427e-21)
(1.0017519 -0.011129204 -9.1346396e-22)
(1.0073859 -0.011061558 7.9944985e-23)
(1.0121975 -0.011265013 -5.8534671e-21)
(1.0158867 -0.011408087 -2.7403264e-21)
(1.0188905 -0.011660421 2.3984635e-21)
(1.021301 -0.011877154 -2.4905611e-21)
(1.023413 -0.012108485 7.5333859e-21)
(1.0252916 -0.012256585 2.9205333e-21)
(1.0270638 -0.012323714 6.2533035e-22)
(1.0287198 -0.012242084 -1.4271086e-22)
(1.0302938 -0.011995498 -4.9042788e-21)
(1.0317439 -0.011543314 8.5676653e-22)
(1.0330588 -0.010877865 -4.3584195e-22)
(1.0341878 -0.0099947896 -7.4857812e-21)
(1.0351051 -0.0089202907 -8.0981082e-21)
(1.0357788 -0.0076864368 5.5064327e-22)
(1.0362059 -0.0063671144 1.2517895e-20)
(1.0364042 -0.0049923519 4.980747e-22)
(1.0364179 -0.0037012331 -3.6257669e-21)
(1.0363231 -0.0024144327 0)
(1.0361834 -0.0014225542 5.5130285e-21)
(1.0360336 -0.00030178146 1.3274874e-22)
(0.98780113 -0.01091046 1.1116881e-20)
(0.99574378 -0.011398749 -1.8425644e-21)
(1.0024816 -0.011323716 5.6502533e-21)
(1.00836 -0.011564071 2.7391826e-21)
(1.0129889 -0.01171557 -6.9248799e-21)
(1.0167253 -0.011991271 0)
(1.0196547 -0.012241806 -4.9036912e-22)
(1.0221171 -0.012527016 3.6774064e-21)
(1.0242369 -0.012747209 5.1176109e-21)
(1.0261912 -0.012905052 5.2106817e-21)
(1.0280059 -0.012928833 -5.5935981e-21)
(1.0297336 -0.012799153 -5.0510602e-21)
(1.0313442 -0.012468167 6.5821681e-21)
(1.0328314 -0.011919671 -6.8113299e-21)
(1.0341443 -0.011139766 1.1125122e-20)
(1.0352523 -0.010139616 1.503537e-20)
(1.0361111 -0.0089525192 -4.1941829e-21)
(1.0367039 -0.0076213449 4.8877622e-21)
(1.0370258 -0.006229507 -1.4278385e-20)
(1.0371081 -0.0048111155 3.5317214e-21)
(1.0370038 -0.0035103505 7.2201497e-21)
(1.0367974 -0.0022435609 -5.4563536e-21)
(1.0365669 -0.0013039982 2.8370939e-21)
(1.0363434 -0.00025429481 1.0729007e-22)
(0.9801459 -0.0109734 2.348126e-21)
(0.9886911 -0.011641824 -6.7176305e-22)
(0.9964891 -0.011570424 -5.7692942e-22)
(1.0034867 -0.011864357 -1.2950763e-20)
(1.0092178 -0.012026451 4.4517801e-21)
(1.0138911 -0.01232241 -8.4074543e-21)
(1.0175334 -0.012597312 -3.9486037e-22)
(1.0204945 -0.012925196 -8.8963406e-21)
(1.0229487 -0.013206952 2.6568078e-21)
(1.0251351 -0.013447182 3.2853594e-21)
(1.0271317 -0.013571002 -3.8834126e-21)
(1.0290226 -0.013556294 7.7138725e-21)
(1.0307973 -0.013348892 -4.0789938e-21)
(1.0324586 -0.01292564 -4.7694124e-22)
(1.0339601 -0.012261147 5.5382622e-21)
(1.0352691 -0.011357474 1.5919864e-21)
(1.0363338 -0.010231333 -8.7445784e-22)
(1.0371232 -0.0089287763 7.7540903e-21)
(1.0376161 -0.0075021817 0)
(1.0378215 -0.0060431279 1.340636e-21)
(1.0377767 -0.0045899825 3.7390392e-22)
(1.0375479 -0.0032892083 -6.5363366e-22)
(1.0372263 -0.0020527632 -1.9174628e-22)
(1.036904 -0.0011739917 -3.9175884e-21)
(1.0366071 -0.00020426674 -1.2820862e-21)
(0.97182608 -0.010972551 -9.4380204e-21)
(0.98068229 -0.011839433 -1.3124644e-22)
(0.98940362 -0.011787388 1.718275e-21)
(0.99747258 -0.0121561 1.4120063e-21)
(1.0043995 -0.012337984 1.3126511e-20)
(1.0101891 -0.012657645 6.5134811e-22)
(1.0147604 -0.012951345 -3.5048681e-22)
(1.0184163 -0.013311709 6.0421716e-22)
(1.0213478 -0.01364316 7.0619894e-21)
(1.0238534 -0.013955259 -1.696366e-21)
(1.0260763 -0.014171441 4.6661889e-21)
(1.0281498 -0.014267361 -8.1536722e-22)
(1.0300955 -0.014183524 -3.9075019e-21)
(1.0319328 -0.013890364 1.4193303e-21)
(1.0336243 -0.013352778 -1.6873187e-21)
(1.0351395 -0.012561094 -7.6184679e-21)
(1.0364226 -0.011521381 -7.8717011e-21)
(1.0374328 -0.010263675 -1.1006225e-20)
(1.0381324 -0.008844666 -1.5756747e-20)
(1.0385123 -0.0073261129 -1.472198e-22)
(1.0385872 -0.0058076137 1.4515398e-20)
(1.0384068 -0.004329379 2.3853424e-21)
(1.0380479 -0.003038988 -5.0258549e-21)
(1.0376087 -0.0018433466 3.8526946e-21)
(1.0371944 -0.0010335334 -2.2383733e-21)
(1.0368251 -0.00015207944 1.2469395e-22)
(0.96302212 -0.010901909 4.0285449e-22)
(0.97186914 -0.011972782 -6.1733916e-22)
(0.98129666 -0.011958933 -6.5445968e-21)
(0.99028803 -0.012424142 7.0962946e-21)
(0.99840674 -0.01264127 -1.0549183e-20)
(1.0054265 -0.012995596 7.3041326e-21)
(1.0111293 -0.013308764 4.5911702e-21)
(1.0157055 -0.013694927 6.8571e-21)
(1.0193098 -0.014064638 -1.0099013e-20)
(1.0222724 -0.014436366 -4.4275018e-21)
(1.0248016 -0.014734678 5.3943462e-22)
(1.0270965 -0.014934305 -1.191474e-20)
(1.0292288 -0.014971258 1.1303524e-20)
(1.0312466 -0.014810342 -3.84022e-21)
(1.0331289 -0.014407479 1.9384552e-21)
(1.0348518 -0.013742724 1.1044038e-21)
(1.0363601 -0.012808347 -6.2025418e-21)
(1.0376063 -0.011624174 6.8013386e-21)
(1.0385406 -0.010230646 -6.6199279e-21)
(1.0391355 -0.0086962132 5.3290841e-22)
(1.0393857 -0.0070918478 0)
(1.0393193 -0.005522704 5.4803485e-21)
(1.0389948 -0.0040305528 9.6670975e-22)
(1.038502 -0.0027612716 0)
(1.0379441 -0.0016168425 -4.3270388e-21)
(1.0374386 -0.00088373218 -3.8894968e-22)
(1.0369983 -9.8180117e-05 2.8362044e-22)
(0.95391458 -0.010759861 3.0454252e-21)
(0.96244087 -0.012025965 -8.6103975e-23)
(0.97230618 -0.012069526 -5.4020115e-21)
(0.98198694 -0.012650076 5.7795657e-22)
(0.99118551 -0.012921866 -2.1304252e-21)
(0.99945132 -0.013328247 -7.9598746e-21)
(1.0064316 -0.013669205 -4.3388824e-22)
(1.0121483 -0.014080674 -6.2654414e-21)
(1.0166586 -0.014480329 7.8114775e-22)
(1.0202726 -0.014899345 7.5375499e-21)
(1.0232392 -0.015267335 -6.9955151e-21)
(1.0258289 -0.015560895 -2.2396418e-21)
(1.0281813 -0.015712947 -5.0168132e-21)
(1.0303916 -0.015683326 2.0474064e-21)
(1.0324671 -0.015420054 -4.2503873e-21)
(1.0343974 -0.014893316 2.6609958e-21)
(1.0361329 -0.014082927 -4.4411888e-21)
(1.037624 -0.012994594 2.2712657e-20)
(1.0388117 -0.011658148 7.4776371e-21)
(1.0396538 -0.010126969 2.9169098e-21)
(1.0401248 -0.0084808748 8.1836131e-21)
(1.0402317 -0.0067983434 -1.2477273e-21)
(1.0400127 -0.0051894541 -5.1641111e-22)
(1.0395382 -0.0036950713 0)
(1.0389088 -0.0024580535 0)
(1.0382322 -0.0013749687 3.6077328e-22)
(1.0376372 -0.00072580405 -1.0558339e-21)
(1.0371282 -4.3301617e-05 2.3266751e-22)
(0.94466748 -0.010549756 0)
(0.95259514 -0.011989033 -6.1118006e-22)
(0.96261931 -0.012105337 4.7966033e-21)
(0.97269879 -0.012815184 2.588484e-21)
(0.98276741 -0.013161531 7.690984e-21)
(0.99218333 -0.013641042 8.1747277e-22)
(1.0004928 -0.014025606 -5.1159715e-21)
(1.00752 -0.014469785 -9.9102654e-21)
(1.0131748 -0.014897036 1.1083136e-20)
(1.01768 -0.015353641 -2.5783399e-21)
(1.0212753 -0.015778124 6.3308604e-22)
(1.0242841 -0.016153183 2.4684277e-21)
(1.0269226 -0.0164114 -1.4635609e-20)
(1.0293538 -0.016508868 3.5976466e-21)
(1.0316311 -0.016386614 2.7487135e-21)
(1.0337695 -0.016005827 -4.0186796e-21)
(1.0357316 -0.015334175 2.8326557e-21)
(1.0374708 -0.014364168 -5.2469269e-21)
(1.0389234 -0.013110397 1.5292203e-20)
(1.0400354 -0.011616599 -3.1868875e-21)
(1.040764 -0.0099485711 6.7486014e-21)
(1.041095 -0.0081965408 4.3753906e-21)
(1.0410444 -0.0064459975 -4.0942749e-22)
(1.0406641 -0.0048091667 -1.2335213e-20)
(1.0400344 -0.0033252036 -3.6519006e-21)
(1.0392673 -0.0021316806 8.6197979e-22)
(1.0384733 -0.0011196771 2.0894283e-21)
(1.0377912 -0.00056119104 -4.0879204e-23)
(1.0372168 1.2314286e-05 -1.7706858e-21)
(0.93541036 -0.010271338 -9.0171916e-21)
(0.94251355 -0.011858794 0)
(0.95244729 -0.012054529 0)
(0.96260779 -0.012902421 0)
(0.97326633 -0.013341065 -1.9161688e-21)
(0.98363214 -0.013915105 6.8362579e-21)
(0.99320633 -0.014364023 -4.1777915e-22)
(1.0016223 -0.014856068 -4.6012019e-22)
(1.0086199 -0.015316747 1.4991064e-20)
(1.0142707 -0.015806996 -1.5509662e-20)
(1.0187389 -0.01627684 7.4105475e-21)
(1.0223543 -0.016719617 -2.7484584e-21)
(1.0253957 -0.017071897 4.386257e-21)
(1.0281066 -0.017288632 -4.7738446e-21)
(1.030609 -0.0173052 9.2199619e-21)
(1.032961 -0.017074541 3.5352398e-21)
(1.0351491 -0.016553106 -4.1502587e-21)
(1.037136 -0.015720073 -7.6911268e-21)
(1.0388585 -0.014575342 1.5330916e-21)
(1.0402553 -0.013147562 -4.4501822e-21)
(1.0412689 -0.011493698 -7.7581824e-21)
(1.0418656 -0.0096920015 1.1565336e-21)
(1.0420391 -0.0078426004 9.8575986e-21)
(1.041819 -0.0060356221 -5.6181426e-21)
(1.0412695 -0.0043841551 -7.4518701e-22)
(1.0404816 -0.0029234813 -1.5895761e-21)
(1.039577 -0.0017846685 2.571412e-21)
(1.0386681 -0.00085298558 1.5536654e-21)
(1.037902 -0.00039101666 -1.410761e-21)
(1.0372654 6.90738e-05 -1.7750182e-21)
(0.92550384 -0.009900093 -5.3167988e-22)
(0.93236828 -0.011625917 -7.2784684e-22)
(0.94199508 -0.011919164 0)
(0.95192512 -0.012897185 0)
(0.96286056 -0.013442413 0)
(0.97389674 -0.014129728 0)
(0.98455578 -0.014665253 0)
(0.99432119 -0.015226045 8.9634352e-23)
(1.0027735 -0.015734436 -6.3256068e-21)
(1.0097925 -0.016262511 1.6852949e-20)
(1.0154029 -0.016772074 -3.9969951e-22)
(1.0198724 -0.017270214 8.2170081e-21)
(1.0234988 -0.017702426 -1.5071244e-20)
(1.0265983 -0.018026942 6.858173e-21)
(1.0293776 -0.018176097 -6.7220265e-22)
(1.0319618 -0.018095772 5.8479638e-21)
(1.0343787 -0.017732016 -9.0627521e-21)
(1.0366117 -0.017051319 1.8768942e-21)
(1.0386048 -0.016038385 8.542008e-21)
(1.040294 -0.014706762 4.3157844e-21)
(1.0416115 -0.013098352 1.0010253e-21)
(1.0425062 -0.011284404 6.2662546e-21)
(1.0429504 -0.00935529 2.2100469e-22)
(1.0429511 -0.0074190436 -3.757645e-21)
(1.0425503 -0.0055692172 2.7950879e-21)
(1.0418261 -0.0039170513 9.0778987e-21)
(1.0408784 -0.0024929163 2.1732717e-21)
(1.0398378 -0.0014196702 -1.0572057e-21)
(1.0388174 -0.00057677217 1.6678463e-22)
(1.0379712 -0.00021621283 2.233191e-21)
(1.0372763 0.00012626308 1.3467702e-21)
(0.91478161 -0.0093841245 1.0405939e-20)
(0.92149061 -0.01127994 -2.3382225e-22)
(0.93142018 -0.011696732 2.6603375e-21)
(0.94086104 -0.012798563 3.2155569e-21)
(0.95176566 -0.013448969 0)
(0.96314838 -0.014264497 0)
(0.97461952 -0.01490755 -6.9181501e-23)
(0.98557416 -0.015560088 8.0102166e-21)
(0.99547372 -0.016137108 -1.3169737e-20)
(1.0040027 -0.016716159 1.6106083e-20)
(1.0110034 -0.017268132 9.2008598e-22)
(1.0166093 -0.017814336 -1.0846972e-20)
(1.0210696 -0.018313033 1.5005464e-21)
(1.0247338 -0.018731141 -1.1227195e-21)
(1.0278903 -0.019002443 -7.2993887e-21)
(1.0307516 -0.019068202 7.6779763e-22)
(1.0334115 -0.018865289 1.004367e-20)
(1.0358914 -0.018348089 -6.9122919e-22)
(1.0381533 -0.017486546 -4.7248108e-21)
(1.0401372 -0.016278002 2.3509939e-20)
(1.0417695 -0.014748723 4.5730215e-22)
(1.0429857 -0.012955939 -6.4393894e-21)
(1.0437382 -0.010985058 1.331584e-20)
(1.0440113 -0.0089372547 7.0819925e-21)
(1.0438245 -0.0069272052 -4.7675963e-22)
(1.0432342 -0.005049279 5.3551004e-21)
(1.0423311 -0.0034111778 2.6040411e-21)
(1.041224 -0.0020366766 1.7873926e-22)
(1.0400504 -0.0010392352 -6.1714348e-22)
(1.0389228 -0.0002929121 -6.5693687e-22)
(1.0380009 -3.8079757e-05 2.1375256e-21)
(1.0372514 0.00018359517 1.7540479e-22)
(0.90400951 -0.0087324012 -3.5375905e-21)
(0.9096882 -0.010781685 1.0733351e-21)
(0.92011255 -0.011360614 -3.7614972e-21)
(0.92961607 -0.012597248 -3.0630336e-21)
(0.94020443 -0.01336178 0)
(0.95160395 -0.014300147 0)
(0.96355837 -0.015068524 0)
(0.97543894 -0.015835318 -1.0750666e-21)
(0.98664921 -0.016504999 1.1877861e-20)
(0.99671125 -0.017155591 1.2605675e-20)
(1.0052766 -0.017762131 9.0252922e-22)
(1.0122905 -0.018357407 -2.0440381e-21)
(1.0178785 -0.018913706 2.2139182e-20)
(1.0223562 -0.019411117 -1.3979914e-20)
(1.0260589 -0.019790702 2.7159388e-21)
(1.0292891 -0.01999355 0)
(1.0322301 -0.01994977 3.2503626e-21)
(1.034967 -0.019602653 -1.8939993e-21)
(1.0374971 -0.018907818 6.3924319e-21)
(1.0397744 -0.017846389 5.8612322e-22)
(1.0417262 -0.016427277 -1.080361e-20)
(1.043279 -0.014692471 -7.4984088e-22)
(1.0443685 -0.012714696 -9.771763e-21)
(1.044957 -0.010592952 -1.1396647e-20)
(1.0450404 -0.008438177 3.1481281e-21)
(1.0446536 -0.0063691235 1.3449298e-21)
(1.0438666 -0.0044791937 -8.5710419e-22)
(1.0427827 -0.0028701277 1.6294415e-23)
(1.0415178 -0.0015581442 -6.1964892e-22)
(1.0402154 -0.00064610185 -1.0658471e-21)
(1.0389858 -3.3081943e-06 8.0320858e-22)
(1.037993 0.0001423083 -7.5436717e-21)
(1.0371933 0.00024085064 3.3711872e-21)
(0.89349856 -0.0079433944 -3.1958718e-21)
(0.89772038 -0.010120126 1.2974139e-22)
(0.90781845 -0.010862864 -7.1382611e-21)
(0.91755217 -0.012249067 -4.4110661e-21)
(0.92837847 -0.013174987 1.9485668e-21)
(0.93949578 -0.014239485 1.9131525e-22)
(0.95158936 -0.015126185 1.1266597e-20)
(0.96406364 -0.016027813 -6.4234122e-21)
(0.97633347 -0.016814244 -8.1402749e-22)
(0.98781697 -0.017560897 -2.603473e-20)
(0.99800368 -0.018242362 1.1604108e-20)
(1.0066311 -0.018897632 1.6468787e-20)
(1.0136415 -0.019510957 -7.2165044e-22)
(1.0192365 -0.020077331 -8.3239168e-21)
(1.0237325 -0.020550371 -9.1702211e-21)
(1.0274926 -0.020877153 -2.6067434e-21)
(1.0307979 -0.020985495 1.4736568e-21)
(1.0338237 -0.020809797 9.5365709e-21)
(1.0366285 -0.020292219 -1.0799963e-21)
(1.0391977 -0.019397721 -1.6051342e-21)
(1.0414693 -0.018117378 1.036238e-21)
(1.0433666 -0.016475479 -1.6693873e-20)
(1.044813 -0.014530202 7.1429748e-22)
(1.0457512 -0.012370054 2.5666775e-21)
(1.0461535 -0.010106907 -1.4660049e-20)
(1.0460305 -0.0078592608 -4.6423265e-21)
(1.0454327 -0.0057479365 -3.7850097e-21)
(1.0444442 -0.0038628003 -2.0898396e-21)
(1.0431794 -0.0022978986 -1.5975362e-21)
(1.0417601 -0.0010607684 -2.3188828e-22)
(1.0403341 -0.00024297385 3.2391245e-22)
(1.0390083 0.00029043555 -1.6462406e-22)
(1.0379499 0.00032411214 3.5311771e-21)
(1.037104 0.00029836277 -7.0850936e-21)
(0.88358726 -0.0070160955 3.4743742e-21)
(0.8859311 -0.0092815083 -1.9481673e-22)
(0.89524034 -0.010199835 8.2494336e-21)
(0.90440554 -0.011746539 2.2031971e-21)
(0.91571078 -0.012841175 -6.6411589e-21)
(0.92705435 -0.014069541 -9.2266821e-21)
(0.93895344 -0.015084706 -1.3995865e-21)
(0.95166261 -0.016112545 0)
(0.9646594 -0.017038736 -7.3422469e-21)
(0.97732771 -0.017907207 -2.8951799e-20)
(0.98905241 -0.018688819 -2.1189207e-22)
(0.99938351 -0.019424007 -6.0429868e-21)
(1.0080539 -0.020104159 0)
(1.0150826 -0.020737299 -6.6415537e-22)
(1.0206842 -0.021292182 1.6725999e-20)
(1.0252182 -0.021727881 3.6316574e-21)
(1.02904 -0.021976403 -1.2712526e-20)
(1.0324291 -0.021967616 0)
(1.0355346 -0.021632265 -4.587591e-22)
(1.0383997 -0.020919662 2.5864372e-22)
(1.0409896 -0.019802698 -1.5015517e-20)
(1.0432338 -0.01828684 4.4736845e-22)
(1.0450492 -0.0164125 0)
(1.0463624 -0.014255204 -1.3481714e-20)
(1.0471236 -0.011918987 4.028912e-21)
(1.0473188 -0.0095268758 -2.1857678e-22)
(1.0469744 -0.0072030161 -5.9322783e-21)
(1.046157 -0.0050674569 4.0576741e-21)
(1.0449642 -0.0032045341 2.8390427e-22)
(1.0435203 -0.0016986579 -2.1694511e-21)
(1.0419515 -0.00054807148 3.8227416e-22)
(1.040408 0.00016750988 -3.2796273e-22)
(1.0389924 0.00058649421 0)
(1.0378738 0.00050623859 -1.4054539e-22)
(1.0369859 0.00035491815 -2.3651446e-21)
(0.87462683 -0.0059555603 2.4695414e-21)
(0.8747161 -0.0082598252 7.4210146e-22)
(0.88276563 -0.0093580059 7.3977264e-21)
(0.89088689 -0.011059563 8.2607475e-22)
(0.90190701 -0.012330011 -1.7002078e-21)
(0.91367497 -0.013726613 -9.34997e-22)
(0.925892 -0.014927829 -8.6595299e-21)
(0.93848446 -0.016095867 4.5381063e-23)
(0.95183652 -0.017150541 0)
(0.96535869 -0.018166724 9.0293157e-21)
(0.97840246 -0.019075743 -9.7511899e-21)
(0.99038326 -0.019916475 1.4321902e-21)
(1.0008392 -0.020683016 -6.5780615e-21)
(1.0095706 -0.021391522 9.5836329e-21)
(1.0166148 -0.022024538 4.549898e-21)
(1.0222418 -0.022556516 1.4163159e-20)
(1.0268198 -0.022930455 -2.5098727e-20)
(1.0307152 -0.023078363 -6.4288033e-21)
(1.0341873 -0.022923858 1.2855553e-20)
(1.0373689 -0.022402293 -1.544406e-20)
(1.0402791 -0.021468518 1.4368689e-20)
(1.0428697 -0.020108254 -7.6274243e-21)
(1.0450598 -0.018342332 0)
(1.046765 -0.01622928 -3.5350759e-21)
(1.0479164 -0.013862245 9.2810459e-22)
(1.0484756 -0.011359762 6.4161135e-21)
(1.0484441 -0.008854306 2.657252e-21)
(1.0478654 -0.0064728769 1.4059211e-21)
(1.0468223 -0.0043323152 2.5452335e-21)
(1.0454246 -0.0025091542 0)
(1.0438053 -0.0010767493 2.1171227e-21)
(1.042093 -2.3537524e-05 2.9635092e-22)
(1.0404391 0.00058278483 6.921129e-21)
(1.0389405 0.00088323907 -3.0798584e-21)
(1.0377672 0.00068763297 1.768363e-22)
(1.0368415 0.0004104988 8.6340049e-21)
(0.86696035 -0.0047737706 -2.3676362e-21)
(0.8644978 -0.00705757 -6.8166232e-23)
(0.87083272 -0.0083318264 -2.2884659e-21)
(0.87739631 -0.010173194 -2.7835824e-23)
(0.88758037 -0.011634474 7.9820124e-21)
(0.89904115 -0.013210734 7.1748038e-21)
(0.9118415 -0.014589033 1.3804755e-23)
(0.92479095 -0.015953955 -6.7941125e-21)
(0.93811852 -0.017157652 6.3958862e-23)
(0.95211229 -0.018308255 -7.5199077e-21)
(0.96614884 -0.019373412 -1.0813546e-22)
(0.97957996 -0.020348369 5.2603937e-21)
(0.99179947 -0.021227429 1.9817318e-22)
(1.002395 -0.022030448 8.574305e-21)
(1.0111823 -0.022749057 -3.5720623e-20)
(1.0182588 -0.023372196 2.2655691e-21)
(1.023917 -0.023858228 7.5842758e-21)
(1.0285528 -0.024148795 1.1597544e-20)
(1.0325249 -0.024167265 -1.1073121e-20)
(1.0360807 -0.023839086 -3.4915379e-21)
(1.0393272 -0.023102368 8.1914142e-21)
(1.0422654 -0.021922673 -1.4378003e-20)
(1.0448314 -0.020299683 1.0736701e-20)
(1.0469385 -0.018272325 0)
(1.0485027 -0.015918084 1.1218138e-20)
(1.0494637 -0.01334749 1.3836323e-20)
(1.0497967 -0.010692297 -4.7708503e-21)
(1.0495208 -0.0080918281 1.0257359e-20)
(1.0486974 -0.0056733427 3.5370098e-22)
(1.0474248 -0.0035476756 -2.7134816e-21)
(1.045824 -0.0017817421 -1.5013589e-21)
(1.0440347 -0.00043654633 -3.1355046e-21)
(1.0421862 0.00050940354 -2.8925784e-22)
(1.0404294 0.0010003895 7.6620834e-21)
(1.0388549 0.0011790439 -1.0241768e-21)
(1.0376325 0.00086740032 -3.2731508e-22)
(1.0366733 0.00046484756 3.2882404e-21)
(0.86089969 -0.0034893066 2.9096874e-22)
(0.85569736 -0.0056879583 -7.2256116e-22)
(0.8599097 -0.0071227775 -2.9838675e-21)
(0.86441279 -0.0090805435 -5.7327262e-22)
(0.87317667 -0.010724007 8.1869821e-23)
(0.88377974 -0.012489376 -3.3142581e-23)
(0.89645675 -0.014056578 -4.4292989e-21)
(0.9100185 -0.015611369 2.2011588e-21)
(0.92378032 -0.017032694 0)
(0.93784624 -0.018342169 1.517525e-21)
(0.95248442 -0.019547172 0)
(0.96704612 -0.020688053 0)
(0.98085234 -0.021709789 5.7959831e-21)
(0.99332311 -0.022633908 -7.9830292e-22)
(1.004052 -0.023456948 -5.5788162e-21)
(1.0129098 -0.024177605 -9.9176987e-21)
(1.020023 -0.0247694 2.1089906e-20)
(1.0257267 -0.025189007 3.2279018e-21)
(1.0304261 -0.025367714 8.604143e-21)
(1.0344796 -0.025228029 3.9659709e-21)
(1.0381124 -0.024695088 -1.3438611e-20)
(1.0414105 -0.02371502 4.5683896e-21)
(1.0443537 -0.022265319 2.7632824e-21)
(1.0468669 -0.020362969 5.8554768e-22)
(1.0488589 -0.01806638 5.1459638e-22)
(1.0502504 -0.015472608 2.5987871e-21)
(1.0509922 -0.012708857 -2.3417392e-21)
(1.0510765 -0.0099179414 -6.3801064e-21)
(1.0505409 -0.0072434024 -6.3786562e-22)
(1.049465 -0.0048097024 -8.566616e-21)
(1.0479618 -0.0027192236 -3.4434671e-21)
(1.0461617 -0.0010275212 -1.587091e-21)
(1.0442092 0.00021758764 -2.9364408e-21)
(1.0422327 0.0010474549 5.2697723e-21)
(1.0403813 0.0014180093 -1.5308994e-20)
(1.038738 0.0014724815 -2.6340494e-21)
(1.0374721 0.0010447333 -3.0373757e-21)
(1.0364836 0.00051787086 0)
(0.85670325 -0.0021265044 2.0884632e-21)
(0.84870334 -0.0041747626 -6.5188072e-23)
(0.85046646 -0.0057435173 -7.9011678e-22)
(0.85246178 -0.0077807459 -4.5079369e-22)
(0.85922848 -0.0095911748 -3.9428594e-21)