/*--------------------------------*- C++ -*----------------------------------*\
| =========                 |                                                 |
| \\      /  F ield         | OpenFOAM: The Open Source CFD Toolbox           |
|  \\    /   O peration     | Version:  5.0                                   |
|   \\  /    A nd           | Web:      www.OpenFOAM.org                      |
|    \\/     M anipulation  |                                                 |
\*---------------------------------------------------------------------------*/
FoamFile
{
    version     2.0;
    format      ascii;
    class       volSymmTensorField;
    location    "135";
    object      UPrime2Mean;
}
// * * * * * * * * * * * * * * * * * * * * * * * * * * * * * * * * * * * * * //

dimensions      [0 2 -2 0 0 0 0];

internalField   nonuniform List<symmTensor> 
9200
(
(3.2939195e-05 -3.1515369e-07 -2.5571649e-27 1.3416017e-08 1.0523248e-28 2.5922447e-47)
(3.2782007e-05 -1.0134845e-06 -8.250805e-24 1.2122863e-07 6.3277233e-25 3.8854213e-42)
(3.4922455e-05 -3.4468598e-07 0 1.3793969e-08 0 0)
(3.494163e-05 -1.6494937e-06 4.372826e-24 3.0839875e-07 -5.1882442e-25 1.0197889e-42)
(3.4792614e-05 -1.1273966e-06 -7.2626908e-24 1.2601413e-07 4.9242085e-25 2.4445074e-42)
(3.5847164e-05 -3.5692801e-07 0 1.3880862e-08 0 0)
(3.866733e-05 -2.3492977e-06 4.6105172e-25 5.6646009e-07 -7.052181e-26 1.0299983e-44)
(3.7006894e-05 -1.8199008e-06 -3.7292239e-25 3.1915943e-07 3.4927796e-26 1.0094664e-44)
(3.5733735e-05 -1.1866054e-06 0 1.2834105e-07 0 0)
(3.7324379e-05 -3.7506581e-07 0 1.4099092e-08 0 0)
(4.3768024e-05 -3.0272389e-06 -9.1811749e-24 8.6673322e-07 1.6656435e-24 3.6647077e-42)
(4.0776446e-05 -2.5920767e-06 -5.6971745e-24 5.8827227e-07 8.0525822e-25 1.3067945e-42)
(3.7979412e-05 -1.9101274e-06 -4.2609034e-24 3.246462e-07 4.4342302e-25 7.4467339e-43)
(3.7236148e-05 -1.2753356e-06 -2.7005082e-25 1.3244504e-07 1.7540101e-26 2.9000453e-45)
(3.8582166e-05 -3.8802449e-07 -3.8844165e-28 1.4219986e-08 1.8587822e-30 4.5542572e-49)
(5.0100963e-05 -3.7350737e-06 -9.0127968e-24 1.202126e-06 1.8177544e-24 3.1399787e-42)
(4.5885448e-05 -3.3270591e-06 8.2001969e-25 9.0128385e-07 -1.1738161e-25 3.0588999e-44)
(4.1766217e-05 -2.7259333e-06 -1.4325624e-23 6.0021856e-07 1.9546203e-24 7.6952935e-42)
(3.9535911e-05 -2.0450123e-06 -5.4925484e-24 3.3449455e-07 5.5354025e-25 1.1184542e-42)
(3.8520919e-05 -1.3507886e-06 5.0225319e-26 1.3585687e-07 -2.9108262e-27 3.7353984e-45)
(3.9984064e-05 -3.9897793e-07 1.1889881e-23 1.4324824e-08 -2.2550945e-25 4.9451774e-42)
(5.7713665e-05 -4.4275399e-06 -8.5059654e-24 1.5537391e-06 1.9215577e-24 2.6626807e-42)
(5.2192883e-05 -4.0962901e-06 -1.0838212e-23 1.253436e-06 1.9309316e-24 3.7028006e-42)
(4.6880442e-05 -3.4993176e-06 9.1351282e-24 9.2105645e-07 -1.4628345e-24 2.8272919e-42)
(4.3367092e-05 -2.9287309e-06 5.3795679e-25 6.2150086e-07 -7.2251293e-26 1.0217157e-44)
(4.0870698e-05 -2.1602664e-06 -5.8300022e-24 3.4275622e-07 5.667313e-25 1.1843673e-42)
(3.9963233e-05 -1.428833e-06 -5.7668878e-24 1.3956725e-07 3.5341294e-25 1.1244259e-42)
(4.1344942e-05 -4.0522638e-07 -9.5253888e-25 1.4353353e-08 1.6330728e-26 2.8225438e-44)
(6.6658524e-05 -5.1110001e-06 -3.2272822e-24 1.9132797e-06 9.0046918e-25 6.1951386e-43)
(5.9725226e-05 -4.8419558e-06 -7.7581179e-24 1.6238552e-06 1.5426549e-24 1.7310088e-42)
(5.3171369e-05 -4.3142485e-06 -1.0364325e-23 1.2841983e-06 1.884657e-24 3.2813185e-42)
(4.8513745e-05 -3.7651911e-06 3.4501716e-25 9.5692731e-07 -3.7787495e-26 2.815578e-44)
(4.474351e-05 -3.1062216e-06 1.4450996e-23 6.400633e-07 -1.8586973e-24 6.6150899e-42)
(4.2384502e-05 -2.2798658e-06 6.336472e-24 3.5193161e-07 -5.9485515e-25 1.272307e-42)
(4.1366822e-05 -1.4966882e-06 7.6003461e-24 1.4271607e-07 -4.5669541e-25 1.9188885e-42)
(4.2734244e-05 -4.0594376e-07 -1.1873745e-23 1.4299945e-08 2.0410042e-25 4.3966571e-42)
(7.7045109e-05 -5.7615618e-06 1.1089302e-23 2.2703679e-06 -2.8225036e-24 3.9122413e-42)
(6.8529671e-05 -5.5762849e-06 -1.0004508e-23 2.0047454e-06 1.9807565e-24 2.4815341e-42)
(6.0660651e-05 -5.1064971e-06 5.7307308e-25 1.6676861e-06 -7.0760096e-26 3.064175e-44)
(5.4814261e-05 -4.6564428e-06 -5.6502018e-24 1.3405e-06 9.8957118e-25 8.9117902e-43)
(4.9923017e-05 -4.0028447e-06 6.8378634e-25 9.8908111e-07 -8.3483825e-26 1.3633382e-43)
(4.6331666e-05 -3.2965843e-06 2.3384788e-23 6.6130451e-07 -2.9232201e-24 1.6105565e-41)
(4.3860923e-05 -2.3832636e-06 -4.2678927e-24 3.5976713e-07 4.1559449e-25 9.3833865e-43)
(4.2817913e-05 -1.5545699e-06 1.3159617e-23 1.4526615e-07 -7.6974956e-25 5.406311e-42)
(4.4096568e-05 -4.0006659e-07 2.5742937e-23 1.4151719e-08 -4.1732236e-25 1.9577269e-41)
(8.9008476e-05 -6.3706524e-06 -8.2317346e-24 2.6189962e-06 2.2778597e-24 2.2866903e-42)
(7.8703613e-05 -6.2704854e-06 5.9934156e-24 2.384617e-06 -1.0719972e-24 8.5101288e-43)
(6.9386596e-05 -5.8919027e-06 1.7688458e-25 2.0641101e-06 -5.3092506e-26 3.4238442e-45)
(6.2282691e-05 -5.529657e-06 -1.9305866e-24 1.7489647e-06 2.5199875e-25 3.492005e-43)
(5.6236849e-05 -4.9691623e-06 1.978222e-24 1.3923123e-06 -3.4802098e-25 1.0579106e-43)
(5.1585494e-05 -4.26554e-06 8.94972e-25 1.0269708e-06 -1.2567036e-25 3.5940901e-43)
(4.7886603e-05 -3.4662012e-06 -8.557027e-24 6.802475e-07 1.0390821e-24 2.0078491e-42)
(4.5411331e-05 -2.4716243e-06 -1.4684135e-23 3.6627547e-07 1.2982837e-24 6.0913518e-42)
(4.4243752e-05 -1.5955788e-06 -8.0713716e-24 1.4674353e-07 4.4454242e-25 1.8055759e-42)
(4.5434529e-05 -3.8631149e-07 -2.1063133e-24 1.390573e-08 2.9970306e-26 1.1632674e-43)
(0.00010272301 -6.9253898e-06 4.0056651e-24 2.9548191e-06 -1.1337642e-24 4.8225515e-43)
(9.037971e-05 -6.9152557e-06 8.0120109e-25 2.756881e-06 6.6275123e-26 1.4906151e-43)
(7.9439392e-05 -6.6399772e-06 -8.746974e-24 2.4613157e-06 1.8022383e-24 1.6584942e-42)
(7.0947019e-05 -6.4058488e-06 8.3470318e-24 2.1755896e-06 -1.7320162e-24 1.6190335e-42)
(6.3692188e-05 -5.9246121e-06 -1.2833813e-23 1.8254125e-06 2.3133184e-24 4.1699184e-42)
(5.7963626e-05 -5.3260473e-06 2.6853512e-23 1.4550105e-06 -4.5284631e-24 1.7738297e-41)
(5.3221212e-05 -4.5043583e-06 1.8774946e-25 1.0617061e-06 -3.3657085e-26 3.7059894e-44)
(4.9556397e-05 -3.6210457e-06 -2.4901607e-23 6.9736197e-07 2.9794014e-24 1.6592608e-41)
(4.6938078e-05 -2.5324457e-06 1.1899901e-23 3.7016272e-07 -1.0321058e-24 3.923605e-42)
(4.5667475e-05 -1.6170001e-06 -2.4902043e-23 1.4699091e-07 1.3411989e-24 1.6799503e-41)
(4.6720562e-05 -3.6412063e-07 3.5632428e-24 1.3575724e-08 -5.2505705e-26 3.6810247e-43)
(0.00011839103 -7.4189912e-06 -3.5284225e-25 3.2761611e-06 6.0013633e-26 1.005809e-44)
(0.00010373658 -7.4931609e-06 -2.5567955e-25 3.1161133e-06 -4.4222872e-25 4.4730523e-43)
(9.094445e-05 -7.3425665e-06 6.862366e-24 2.8523328e-06 -1.6316203e-24 1.0735333e-42)
(8.0888995e-05 -7.2519971e-06 0 2.6073473e-06 0 0)
(7.2306648e-05 -6.8947472e-06 -1.0588645e-25 2.2823787e-06 2.9487733e-26 1.4712415e-45)
(6.5464779e-05 -6.3896618e-06 -1.1289554e-24 1.9203139e-06 1.4500833e-25 3.8835705e-43)
(5.9673108e-05 -5.6572344e-06 5.7202941e-24 1.5139266e-06 -9.5077317e-25 7.5667217e-43)
(5.5023319e-05 -4.7328555e-06 1.337635e-23 1.0949343e-06 -1.9136045e-24 4.3288343e-42)
(5.1209383e-05 -3.7384959e-06 9.3575315e-25 7.0945052e-07 -2.4913359e-26 3.901914e-43)
(4.8492449e-05 -2.5627326e-06 1.5293652e-23 3.711347e-07 -1.2703667e-24 6.0789858e-42)
(4.7041577e-05 -1.6138721e-06 9.9890117e-24 1.4577602e-07 -5.2344489e-25 2.6622568e-42)
(4.7935047e-05 -3.326582e-07 -2.2581093e-24 1.3184903e-08 2.7709832e-26 1.2656888e-43)
(0.00013621246 -7.8487666e-06 -1.7989131e-25 3.5838588e-06 5.2465771e-26 1.1215067e-45)
(0.0001189975 -7.9915581e-06 2.2496162e-24 3.4595271e-06 -2.5117064e-25 1.1548391e-43)
(0.00010407511 -7.9827361e-06 0 3.2310016e-06 0 0)
(9.2226528e-05 -8.0604977e-06 0 3.0367089e-06 0 0)
(8.2153518e-05 -7.8442092e-06 5.2798966e-24 2.7493368e-06 -1.0463649e-24 5.4963592e-43)
(7.409482e-05 -7.4878754e-06 -7.7518818e-24 2.4181992e-06 1.3752845e-24 2.0343045e-42)
(6.7232327e-05 -6.8287315e-06 1.3700527e-23 2.0112949e-06 -2.4738127e-24 4.4109639e-42)
(6.161155e-05 -5.989142e-06 -1.6048444e-23 1.5731645e-06 2.6161753e-24 5.4807573e-42)
(5.6821617e-05 -4.9156735e-06 -1.3771011e-24 1.1205215e-06 1.8390756e-25 4.1499908e-44)
(5.29347e-05 -3.8179931e-06 -1.9484302e-26 7.1619955e-07 8.7145314e-28 5.74238e-47)
(4.9997388e-05 -2.5526212e-06 -1.772802e-23 3.6853305e-07 1.4520222e-24 8.2964772e-42)
(4.8363191e-05 -1.5835319e-06 1.7497989e-23 1.4311349e-07 -9.3176122e-25 9.0115455e-42)
(4.9064386e-05 -2.9176137e-07 -3.3720263e-23 1.2769944e-08 4.1037805e-25 3.0370577e-41)
(0.00015629928 -8.2194278e-06 6.0203537e-25 3.8814198e-06 -2.2714611e-25 1.4514381e-43)
(0.00013641242 -8.3988342e-06 -4.2904873e-25 3.7867506e-06 5.7065931e-26 2.7917538e-45)
(0.00011905334 -8.549943e-06 5.5779362e-24 3.5937255e-06 -1.0569014e-24 5.1561174e-43)
(0.00010512892 -8.8128188e-06 -6.2150924e-24 3.4563812e-06 1.1805686e-24 6.7868879e-43)
(9.334217e-05 -8.7659771e-06 6.3440756e-24 3.2181986e-06 -1.23575e-24 7.542177e-43)
(8.3914796e-05 -8.5830146e-06 -2.0389803e-24 2.9342164e-06 3.4268789e-25 1.6796767e-43)
(7.5892584e-05 -8.0558748e-06 -4.5120212e-24 2.5505558e-06 8.9188879e-25 3.7704216e-43)
(6.930114e-05 -7.2868072e-06 9.0877257e-26 2.1066516e-06 -1.7343748e-26 2.1227295e-45)
(6.3568767e-05 -6.2690037e-06 -1.6290355e-23 1.6218894e-06 2.5400489e-24 5.2497326e-42)
(5.8745812e-05 -5.0566579e-06 -1.4980024e-23 1.1384991e-06 1.9053917e-24 4.5989143e-42)
(5.4618574e-05 -3.8407772e-06 -5.3181989e-24 7.1562424e-07 5.7475636e-25 6.4214933e-43)
(5.1479113e-05 -2.4987852e-06 -1.4249516e-23 3.6240358e-07 1.0566611e-24 4.7267103e-42)
(4.9603899e-05 -1.5230589e-06 -9.1908003e-24 1.3906123e-07 4.2296308e-25 2.0330994e-42)
(5.0081536e-05 -2.4115485e-07 9.0537309e-24 1.2377139e-08 -9.8710454e-26 2.1557821e-42)
(0.0001784906 -8.5431076e-06 4.3462433e-24 4.1748392e-06 -2.0588296e-24 1.7856781e-42)
(0.00015619623 -8.7083288e-06 -1.1879018e-23 4.1003133e-06 1.1418685e-24 2.017408e-42)
(0.00013613639 -9.0362274e-06 1.4707365e-24 3.9390932e-06 -5.0501198e-25 9.1186604e-44)
(0.00011982131 -9.4969136e-06 3.4625723e-25 3.8614787e-06 -2.5130337e-26 5.6101621e-45)
(0.00010603563 -9.6408036e-06 -2.1814858e-25 3.6805728e-06 1.1970372e-26 4.7023005e-45)
(9.502351e-05 -9.668831e-06 2.5041684e-24 3.4597021e-06 -3.8637801e-25 2.6816125e-43)
(8.5706438e-05 -9.2993046e-06 -4.5836418e-24 3.1167058e-06 9.6428875e-25 3.5561343e-43)
(7.8074743e-05 -8.6703279e-06 6.0997762e-24 2.6944722e-06 -1.1923162e-24 6.4360319e-43)
(7.1420465e-05 -7.6890376e-06 -3.3477864e-25 2.1888978e-06 8.4507563e-26 8.536171e-44)
(6.5715476e-05 -6.5080946e-06 1.7035337e-24 1.6612275e-06 -2.4492666e-25 5.8231687e-44)
(6.064941e-05 -5.1260451e-06 3.5059669e-25 1.144632e-06 -4.5663438e-26 2.4965601e-45)
(5.6323546e-05 -3.8039153e-06 2.2468706e-24 7.076829e-07 -1.3949863e-25 1.800087e-43)
(5.2879838e-05 -2.3947875e-06 1.818432e-23 3.5288466e-07 -1.3252341e-24 7.9388773e-42)
(5.07446e-05 -1.4303729e-06 -8.0689274e-24 1.3385288e-07 3.7968522e-25 1.7574239e-42)
(5.0977729e-05 -1.8117136e-07 6.3237249e-24 1.2062659e-08 -6.4954711e-26 1.1234835e-42)
(0.00020203355 -8.8415597e-06 1.1032144e-24 4.4724616e-06 9.7742057e-25 4.7907312e-43)
(0.00017837555 -8.9196243e-06 9.1416922e-24 4.4057561e-06 -1.3748403e-24 8.4227056e-43)
(0.00015556606 -9.4403283e-06 -4.3382773e-24 4.2684663e-06 5.5315352e-25 3.504957e-43)
(0.00013657877 -1.0102922e-05 6.8753086e-24 4.2491795e-06 -1.2279677e-24 6.7275185e-43)
(0.00012045556 -1.0456537e-05 -7.1588799e-24 4.1302632e-06 1.3708047e-24 7.7867582e-43)
(0.00010757529 -1.0724812e-05 1.5659574e-23 3.9849374e-06 -3.4387021e-24 3.6299211e-42)
(9.6760974e-05 -1.0553666e-05 -1.5463125e-23 3.7009179e-06 3.1131038e-24 4.2457231e-42)
(8.7970465e-05 -1.0098336e-05 4.1812423e-25 3.3217134e-06 -7.6060243e-26 1.1485201e-44)
(8.0345668e-05 -9.2275574e-06 4.8235312e-24 2.8232711e-06 -9.2979451e-25 3.8159483e-43)
(7.3804068e-05 -8.05764e-06 -2.7562392e-26 2.2613613e-06 1.3690963e-25 6.8545073e-43)
(6.7877051e-05 -6.6622356e-06 4.2174573e-23 1.682939e-06 -6.3653407e-24 3.214776e-41)
(6.2623191e-05 -5.1218895e-06 -9.4924087e-24 1.1388754e-06 1.3674141e-24 2.6234227e-42)
(5.7952256e-05 -3.6940272e-06 -6.3967542e-24 6.9209428e-07 6.4315033e-25 8.9947179e-43)
(5.4198064e-05 -2.2381205e-06 -3.3036642e-24 3.4063465e-07 1.8339557e-25 2.1719919e-43)
(5.176907e-05 -1.304896e-06 -1.4906043e-24 1.2787331e-07 2.6029014e-26 6.3074551e-44)
(5.173148e-05 -1.1223861e-07 -6.7388429e-24 1.1886107e-08 5.9713991e-26 1.2751443e-42)
(0.00022513956 -9.1447082e-06 0 4.7851105e-06 0 0)
(0.0002024939 -9.0468121e-06 1.1250065e-23 4.7118617e-06 -8.6448802e-25 1.1522048e-42)
(0.00017743056 -9.7677538e-06 -2.7351012e-24 4.5857753e-06 1.0014684e-24 2.7369941e-43)
(0.00015568244 -1.0624238e-05 0 4.6189199e-06 0 0)
(0.00013688061 -1.1202861e-05 0 4.5627865e-06 0 0)
(0.00012178613 -1.1737861e-05 0 4.5021049e-06 0 0)
(0.00010920072 -1.1797513e-05 3.8081653e-25 4.2923833e-06 -2.1283238e-26 2.4266946e-44)
(9.9062085e-05 -1.1566551e-05 -1.2097983e-23 3.9797073e-06 2.6523071e-24 2.0975354e-42)
(9.0371238e-05 -1.0842436e-05 4.5183353e-24 3.5107768e-06 -8.8641987e-25 1.8437216e-42)
(8.2968794e-05 -9.7662111e-06 -1.4335397e-23 2.944138e-06 2.7113426e-24 3.1291527e-42)
(7.6249612e-05 -8.3306916e-06 -4.0285733e-25 2.3099823e-06 -6.8842587e-28 8.835026e-44)
(7.016752e-05 -6.7313302e-06 -9.4375828e-24 1.6872675e-06 1.349029e-24 1.4977696e-42)
(6.4540758e-05 -5.0223049e-06 4.2041363e-26 1.1198998e-06 -5.2931314e-26 2.2405525e-44)
(5.9535657e-05 -3.5081136e-06 7.4889799e-24 6.6984492e-07 -6.8850334e-25 1.1467891e-42)
(5.5401089e-05 -2.026623e-06 2.6210106e-24 3.2662557e-07 -1.150778e-25 1.3262427e-43)
(5.2655797e-05 -1.1463734e-06 3.681007e-24 1.2159652e-07 -1.4901891e-25 3.5908504e-43)
(5.2334935e-05 -3.5200853e-08 0 1.191242e-08 0 0)
(0.0002445896 -9.472167e-06 6.4361534e-24 5.1220244e-06 -3.1732935e-26 9.0843685e-43)
(0.00022715343 -9.1250429e-06 -1.9714634e-23 5.030338e-06 2.098422e-24 2.8373351e-42)
(0.00020139291 -1.0035174e-05 1.9076511e-23 4.8978109e-06 -2.2262521e-24 5.0426088e-42)
(0.00017731681 -1.1060872e-05 9.2884521e-24 4.9726141e-06 -6.7498141e-25 1.5290909e-42)
(0.00015562046 -1.1876106e-05 1.0341575e-23 4.9762483e-06 -1.4622388e-24 1.6299144e-42)
(0.00013793895 -1.269665e-05 0 5.0047892e-06 0 0)
(0.0001232359 -1.3017666e-05 1.0190595e-23 4.8818686e-06 -1.7246148e-24 2.276561e-42)
(0.0001114819 -1.305231e-05 -1.7281337e-24 4.6565943e-06 2.2930778e-25 2.594376e-43)
(0.00010155694 -1.2531055e-05 -2.467059e-23 4.2435135e-06 5.2254286e-24 9.3814254e-42)
(9.3221241e-05 -1.1591116e-05 4.1507155e-24 3.6967814e-06 -9.2631184e-25 2.8281792e-42)
(8.5712501e-05 -1.0202318e-05 8.8431253e-24 3.0350003e-06 -1.6272454e-24 1.114602e-42)
(7.8898088e-05 -8.5115665e-06 -1.1181028e-24 2.3356546e-06 6.8029865e-26 1.4759032e-43)
(7.2441982e-05 -6.6827766e-06 -1.77115e-23 1.6703853e-06 2.6031322e-24 5.8104782e-42)
(6.64577e-05 -4.8229017e-06 2.8501652e-23 1.0888707e-06 -3.1108849e-24 1.4244269e-41)
(6.100579e-05 -3.2397881e-06 8.645916e-24 6.4252416e-07 -5.4718435e-25 1.3180674e-42)
(5.6471629e-05 -1.7598822e-06 2.7758902e-23 3.1212514e-07 -1.6821581e-24 1.8819879e-41)
(5.3394186e-05 -9.5626214e-07 1.0200639e-23 1.1563942e-07 -3.5113545e-25 2.546682e-42)
(5.2776462e-05 4.8862349e-08 6.9935601e-24 1.2203584e-08 -4.7537291e-26 1.56193e-42)
(0.00025571138 -9.8100115e-06 -1.0193055e-24 5.4928202e-06 -9.3511552e-26 1.2811955e-44)
(0.00024951771 -9.2099575e-06 -1.1932852e-23 5.3732476e-06 6.6370328e-25 9.2012134e-43)
(0.00022625544 -1.0273092e-05 -3.6138793e-24 5.2138839e-06 8.1168923e-25 1.5640328e-43)
(0.00020132741 -1.1425864e-05 1.3116379e-23 5.3160382e-06 -1.5391486e-24 1.8283635e-42)
(0.00017692305 -1.2479673e-05 -1.4087958e-24 5.3711785e-06 1.5782432e-25 2.9375845e-44)
(0.00015636575 -1.3596139e-05 7.7622095e-24 5.4887353e-06 -2.120345e-24 9.1143954e-43)
(0.00013914907 -1.4202338e-05 -2.9115354e-24 5.461108e-06 -8.6782813e-25 4.2931104e-42)
(0.00012542895 -1.4541189e-05 -2.0809129e-23 5.3415347e-06 3.7391242e-24 9.6490047e-42)
(0.00011402178 -1.427008e-05 -6.8262582e-24 5.0091693e-06 1.3390829e-24 1.2620843e-42)
(0.00010460533 -1.353197e-05 1.5772242e-23 4.5129638e-06 -3.4197033e-24 3.1600785e-42)
(9.626421e-05 -1.2235495e-05 -4.7444889e-25 3.8476962e-06 1.4657525e-25 1.4619732e-43)
(8.8750288e-05 -1.0545464e-05 2.1951004e-23 3.0978687e-06 -3.9598484e-24 6.5942825e-42)
(8.1585153e-05 -8.5542055e-06 -6.223687e-24 2.3304844e-06 1.2344181e-24 1.3192051e-42)
(7.476543e-05 -6.5097075e-06 -2.4746066e-24 1.6337191e-06 2.2085594e-25 1.1863191e-43)
(6.8270747e-05 -4.511597e-06 -4.3785807e-24 1.0478297e-06 2.9775936e-25 3.405734e-43)
(6.2361223e-05 -2.8881478e-06 -5.0598082e-24 6.1241427e-07 4.1829229e-25 5.4209227e-43)
(5.7390818e-05 -1.4397064e-06 8.5747187e-24 2.9872679e-07 -4.8470095e-25 1.8707677e-42)
(5.3970019e-05 -7.3667615e-07 4.8811259e-25 1.1066404e-07 8.5553039e-27 1.2798753e-44)
(5.3051451e-05 1.3864955e-07 5.1382799e-24 1.2814208e-08 -3.8185643e-26 1.1156731e-42)
(0.00025313299 -1.0052359e-05 -8.2629286e-24 5.9050186e-06 -8.2809487e-25 7.7073775e-43)
(0.00026506257 -9.3606689e-06 1.4880001e-23 5.7526411e-06 -9.1803478e-25 1.2911134e-42)
(0.00024943475 -1.0527329e-05 -4.557872e-23 5.5449199e-06 5.8302386e-24 2.0134014e-41)
(0.00022679469 -1.175164e-05 -6.4709873e-24 5.6585913e-06 2.9850641e-25 4.8509762e-43)
(0.00020075963 -1.3027376e-05 6.1407588e-24 5.7514584e-06 -1.2497533e-24 3.6765383e-43)
(0.00017737584 -1.4438517e-05 3.2680579e-24 5.9520661e-06 -9.5157379e-25 1.6788532e-43)
(0.00015728511 -1.5346002e-05 2.2910526e-24 6.0234863e-06 -3.0278579e-25 9.9483454e-44)
(0.00014118072 -1.6019743e-05 1.4965666e-23 6.0239263e-06 -3.5023024e-24 2.4376013e-42)
(0.00012795305 -1.6044404e-05 -3.1126616e-24 5.7957697e-06 5.8731744e-25 2.2940462e-43)
(0.00011722447 -1.5564872e-05 -2.6433188e-23 5.3805597e-06 5.7397312e-24 1.1106221e-41)
(0.000107933 -1.4433417e-05 3.0308243e-23 4.7443574e-06 -6.4634425e-24 1.0734048e-41)
(9.9707116e-05 -1.2793569e-05 -5.0868892e-24 3.9671129e-06 9.0945139e-25 3.9789752e-43)
(9.1896989e-05 -1.0732654e-05 -1.097148e-23 3.1189505e-06 1.8152994e-24 1.501629e-42)
(8.4388671e-05 -8.4491238e-06 9.5135478e-25 2.2958738e-06 -1.2538037e-25 1.1991536e-44)
(7.7020147e-05 -6.1925364e-06 -3.0268211e-24 1.5786164e-06 2.0192616e-25 1.9684006e-43)
(7.0003882e-05 -4.0852376e-06 -1.9329444e-23 9.999314e-07 1.9649464e-24 6.9909204e-42)
(6.3563719e-05 -2.453542e-06 3.9500629e-25 5.8252931e-07 -2.5163248e-25 3.6572927e-43)
(5.8142283e-05 -1.0691606e-06 -1.461375e-23 2.8812796e-07 6.7669402e-25 5.0031076e-42)
(5.4375946e-05 -4.9093999e-07 -3.2981637e-24 1.0736826e-07 8.841474e-26 2.791046e-43)
(5.3157516e-05 2.3269986e-07 -4.5636015e-24 1.3787839e-08 3.2470593e-26 1.0559878e-42)
(0.00023256724 -9.9382e-06 7.5193815e-26 6.3639396e-06 2.3197856e-25 2.2363239e-44)
(0.00026802742 -9.5803072e-06 2.4516925e-23 6.179475e-06 -9.423066e-25 3.4248456e-42)
(0.00026661471 -1.083821e-05 3.0399333e-24 5.9017157e-06 8.7000601e-25 5.1049638e-43)
(0.00025147207 -1.2085409e-05 1.5092847e-23 6.0111585e-06 -1.5409431e-24 1.7276403e-42)
(0.00022642736 -1.354608e-05 2.4858809e-25 6.1243599e-06 -8.2588843e-25 2.3142172e-43)
(0.00020106961 -1.5235838e-05 -9.5692127e-24 6.3963734e-06 1.3366142e-24 9.0079905e-43)
(0.00017799624 -1.6450347e-05 2.1153579e-23 6.5645561e-06 -2.7470036e-24 6.350795e-42)
(0.0001590912 -1.7481442e-05 3.3869431e-23 6.6943397e-06 -4.9166179e-24 2.1761567e-41)
(0.00014362028 -1.7839581e-05 -1.9768656e-23 6.5907234e-06 5.0760257e-24 4.479991e-42)
(0.0001312507 -1.7673738e-05 0 6.2869705e-06 0 0)
(0.00012080564 -1.6772456e-05 -2.1400965e-23 5.7140553e-06 4.8287459e-24 4.8714132e-42)
(0.00011177984 -1.5264002e-05 1.4388793e-24 4.9434756e-06 -4.8737376e-25 1.4360298e-42)
(0.00010334808 -1.3183203e-05 2.2733592e-23 4.0336309e-06 -4.4689093e-24 6.6467916e-42)
(9.5248754e-05 -1.075254e-05 -8.9242808e-24 3.0990237e-06 1.9569138e-24 2.7401033e-42)
(8.7174926e-05 -8.1665684e-06 1.1653458e-23 2.2314699e-06 -1.5166439e-24 1.707941e-42)
(7.9230445e-05 -5.7236591e-06 -1.8987629e-23 1.509394e-06 2.1866907e-24 5.497732e-42)
(7.1581471e-05 -3.5418831e-06 -5.8561537e-24 9.5002971e-07 2.2196789e-25 6.0242101e-43)
(6.4597096e-05 -1.939232e-06 3.4385832e-24 5.5617451e-07 -3.5676861e-25 5.0332916e-43)
(5.8714566e-05 -6.5342427e-07 -6.1158471e-24 2.8214392e-07 3.4513339e-25 1.3260731e-42)
(5.4606984e-05 -2.2307721e-07 -1.2820033e-24 1.0640315e-07 8.6717472e-27 3.063285e-44)
(5.3096204e-05 3.2945687e-07 -3.0490571e-24 1.5154238e-08 3.0997002e-26 8.0117087e-43)
(0.00019336436 -9.0102184e-06 9.636991e-24 6.8713604e-06 2.9177929e-24 2.3565959e-42)
(0.0002529715 -9.7220784e-06 2.0296108e-23 6.6648481e-06 -7.2430136e-25 2.4970747e-42)
(0.00027204242 -1.1191492e-05 2.4394948e-23 6.2948158e-06 -3.078838e-24 4.5159381e-42)
(0.00027132027 -1.2480622e-05 -3.1767415e-23 6.3871357e-06 3.7753587e-24 6.7305541e-42)
(0.00025198243 -1.4078656e-05 -2.0933635e-23 6.500661e-06 2.1637438e-24 3.3416903e-42)
(0.00022697079 -1.6012442e-05 3.9487726e-24 6.8271061e-06 -1.0699858e-24 1.8047079e-43)
(0.00020148397 -1.7527604e-05 0 7.0833981e-06 0 0)
(0.00017955033 -1.8927311e-05 1.3960985e-23 7.3451833e-06 -4.0082322e-24 2.4467522e-42)
(0.0001613785 -1.9647942e-05 -1.3542496e-24 7.3818416e-06 -6.6724745e-25 1.6509369e-42)
(0.00014694202 -1.9842608e-05 -3.6619188e-23 7.2178339e-06 8.3419128e-24 1.3872373e-41)
(0.00013503754 -1.9236432e-05 -8.9853097e-24 6.7445467e-06 2.2112364e-24 1.0414669e-42)
(0.00012503694 -1.7934286e-05 3.4779666e-24 6.0184957e-06 -8.1002506e-25 4.797924e-43)
(0.00011593372 -1.592099e-05 1.5610476e-25 5.0796031e-06 2.4746723e-26 4.8305724e-44)
(0.0001073033 -1.3391622e-05 -1.0682858e-23 4.0467119e-06 1.8945472e-24 1.2120656e-42)
(9.8654482e-05 -1.0561661e-05 9.8087391e-24 3.034666e-06 -1.7550292e-24 1.5565594e-42)
(8.997013e-05 -7.6931771e-06 -8.0183734e-24 2.1421212e-06 1.2527931e-24 1.2050655e-42)
(8.1304552e-05 -5.0967831e-06 2.521954e-24 1.4321249e-06 -2.5506042e-25 9.130044e-44)
(7.3001507e-05 -2.8831809e-06 -1.1845611e-23 9.0321781e-07 9.6538091e-25 2.5315857e-42)
(6.5439735e-05 -1.3513555e-06 -5.3279199e-24 5.3701961e-07 9.6828371e-26 4.5518836e-43)
(5.9098302e-05 -1.9887559e-07 -9.9414557e-25 2.8248751e-07 -1.4844766e-27 1.7569923e-44)
(5.4662388e-05 6.2268796e-08 -2.0969361e-24 1.083421e-07 8.6270779e-26 2.8156203e-43)
(5.2871865e-05 4.2733201e-07 0 1.692746e-08 0 0)
(0.00014096534 -6.6394751e-06 3.1180797e-24 7.4225175e-06 1.8233242e-24 6.2572585e-43)
(0.00021738308 -9.3889806e-06 -1.0073408e-23 7.2213434e-06 3.1556487e-25 7.2931512e-43)
(0.00025989097 -1.1435832e-05 -3.2408504e-25 6.7348839e-06 -1.834738e-25 9.2336326e-45)
(0.00028057215 -1.2949795e-05 -3.673614e-23 6.7995846e-06 3.1974128e-24 7.9976769e-42)
(0.00027368251 -1.4670215e-05 -1.6847517e-23 6.89313e-06 1.0628177e-24 2.0155501e-42)
(0.00025345647 -1.6805604e-05 1.1960256e-23 7.2541669e-06 -1.5028175e-24 9.8636141e-43)
(0.00022746086 -1.8599749e-05 -9.9605799e-24 7.5832139e-06 3.1359117e-24 1.3981764e-42)
(0.00020285156 -2.0368484e-05 2.9769957e-23 7.9720852e-06 -4.8403774e-24 8.1063001e-42)
(0.00018164175 -2.1469696e-05 1.1210424e-23 8.1582178e-06 -2.4981774e-24 1.0591168e-42)
(0.00016465073 -2.2062432e-05 1.4193457e-24 8.1583129e-06 -2.0795826e-25 6.0799737e-44)
(0.00015087174 -2.1808132e-05 -1.128266e-25 7.8204455e-06 5.1831146e-27 4.4000309e-45)
(0.00013961484 -2.0788714e-05 -6.3330913e-24 7.1815166e-06 1.3957512e-24 2.570992e-42)
(0.00012970359 -1.8926506e-05 3.1389067e-24 6.2523995e-06 -6.8294524e-25 9.1576722e-44)
(0.00012053182 -1.6390742e-05 -2.128114e-23 5.1501997e-06 3.5217707e-24 6.8592152e-42)
(0.00011140766 -1.3358962e-05 -2.7574904e-23 3.9981267e-06 4.5422729e-24 7.5743984e-42)
(0.00010214574 -1.0139927e-05 -2.2000798e-23 2.9302524e-06 3.2038871e-24 5.4457252e-42)
(9.2666201e-05 -7.0152133e-06 4.3881084e-24 2.0348699e-06 -3.4018008e-25 2.433402e-43)
(8.3238607e-05 -4.3095188e-06 2.4082328e-23 1.3544089e-06 -2.2971663e-24 8.7202633e-42)
(7.421699e-05 -2.1157894e-06 -2.709251e-25 8.658065e-07 -5.5152573e-26 1.7304335e-44)
(6.6077305e-05 -6.980874e-07 -4.4770259e-24 5.2864652e-07 2.6366527e-25 5.1784192e-43)
(5.9289078e-05 2.8677466e-07 0 2.9069005e-07 0 0)
(5.4544735e-05 3.6005559e-07 3.0759292e-24 1.136415e-07 -1.7978557e-25 1.2150095e-42)
(5.249226e-05 5.2477558e-07 3.4470252e-25 1.9105323e-08 3.8141014e-27 2.294047e-45)
(8.8069497e-05 -2.139814e-06 -7.2597733e-24 8.001915e-06 -8.8575935e-24 1.0987626e-41)
(0.00016462439 -7.8876599e-06 -1.7545603e-23 7.8605245e-06 1.297122e-24 3.6422947e-42)
(0.00022678265 -1.1194315e-05 2.6007738e-23 7.2326683e-06 -3.9677085e-24 4.958727e-42)
(0.00027285948 -1.3377323e-05 1.487943e-23 7.2624182e-06 -2.1267911e-24 1.417615e-42)
(0.00028587058 -1.532854e-05 -3.8649872e-23 7.3162187e-06 4.5856035e-24 8.4891475e-42)
(0.00027712218 -1.7657471e-05 0 7.6924112e-06 0 0)
(0.00025459382 -1.9698143e-05 -2.0117638e-24 8.0726861e-06 6.9519399e-25 6.4123424e-44)
(0.00022888917 -2.1825861e-05 1.6518158e-23 8.5753929e-06 -3.5127398e-24 1.9341567e-42)
(0.00020477545 -2.3315525e-05 1.8964725e-23 8.9119071e-06 -2.8748492e-24 3.8470578e-42)
(0.00018480825 -2.4332369e-05 1.0156818e-23 9.0939055e-06 -2.4046135e-25 7.0467726e-42)
(0.00016865159 -2.4476966e-05 -2.1751024e-23 8.9247188e-06 5.2882457e-24 3.8688821e-42)
(0.00015573906 -2.3809097e-05 -1.4082399e-23 8.4172604e-06 3.2681165e-24 2.2893212e-42)
(0.00014477362 -2.2185995e-05 1.7406452e-23 7.5445443e-06 -4.0680939e-24 3.4882629e-42)
(0.00013496491 -1.9735464e-05 -2.4010464e-23 6.4106835e-06 5.114248e-24 5.1158927e-42)
(0.00012540075 -1.6594994e-05 3.332431e-23 5.1402519e-06 -6.45258e-24 1.0807632e-41)
(0.00011569966 -1.3057109e-05 5.257409e-23 3.8905124e-06 -8.1998238e-24 2.6314846e-41)
(0.00010559671 -9.4622757e-06 3.876171e-24 2.7928873e-06 3.1577666e-25 1.7327266e-42)
(9.5252846e-05 -6.1245446e-06 1.0861798e-23 1.9194713e-06 -1.182129e-24 1.4935334e-42)
(8.4964519e-05 -3.3679198e-06 -2.0588276e-23 1.2854344e-06 2.1488444e-24 8.45846e-42)
(7.5214403e-05 -1.2483743e-06 -1.4528878e-24 8.4381638e-07 -4.2197101e-25 7.741768e-43)
(6.6498804e-05 9.9816164e-09 6.4061811e-24 5.3442528e-07 -4.9906352e-25 1.8352267e-42)
(5.9286342e-05 7.9507242e-07 -1.8221824e-24 3.0796862e-07 3.3187707e-25 1.2700495e-42)
(5.4259758e-05 6.6505889e-07 -6.2541763e-25 1.2261307e-07 -1.5762881e-25 5.8993134e-43)
(5.1967279e-05 6.2028884e-07 2.622777e-25 2.1668003e-08 3.4374553e-27 1.3404996e-45)
(5.3665333e-05 5.0510394e-06 -4.7740809e-24 8.5794715e-06 -2.8460108e-24 1.2001843e-42)
(0.00010592884 -4.3040451e-06 -1.1790531e-23 8.5850427e-06 4.5274594e-25 2.3303397e-42)
(0.00017488666 -9.8211829e-06 -6.1166935e-24 7.7959995e-06 -2.2916425e-25 3.3024317e-43)
(0.00024364867 -1.3411702e-05 -8.2914532e-23 7.7913145e-06 9.0498495e-24 4.0559405e-41)
(0.00028186199 -1.5939321e-05 2.4669872e-23 7.7853592e-06 -3.4203105e-24 3.3992513e-42)
(0.00029248294 -1.8567175e-05 -4.8823332e-23 8.1582357e-06 6.1265882e-24 1.2525221e-41)
(0.00027981705 -2.0851293e-05 -1.6152213e-24 8.5660617e-06 6.3515105e-25 5.0316474e-44)
(0.00025661996 -2.3325551e-05 -4.3793774e-23 9.1618886e-06 6.4911973e-24 1.2150526e-41)
(0.0002308266 -2.5204966e-05 1.2908965e-23 9.6397891e-06 -3.1997226e-24 1.2057635e-42)
(0.00020784054 -2.6662483e-05 1.2364417e-23 1.0012302e-05 -2.3187185e-24 1.3432562e-42)
(0.00018881618 -2.7240772e-05 -1.9581061e-23 1.0039485e-05 5.170953e-24 2.9674563e-42)
(0.00017374015 -2.6983342e-05 1.8162241e-23 9.7073636e-06 -3.8326621e-24 5.9719423e-42)
(0.00016134873 -2.568113e-05 -1.7028955e-23 8.9423902e-06 4.1132909e-24 2.240011e-42)
(0.00015069692 -2.341582e-05 -1.322159e-25 7.8257744e-06 5.9215984e-26 2.5496436e-44)
(0.0001406461 -2.0263364e-05 3.0618555e-23 6.4695552e-06 -5.9335012e-24 7.7136088e-42)
(0.00013058772 -1.64964e-05 3.4743372e-24 5.0490816e-06 -7.0409737e-25 1.5136901e-43)
(0.00012003777 -1.2446052e-05 2.0893944e-25 3.7294933e-06 1.1533432e-25 5.397337e-44)
(0.00010899125 -8.5125156e-06 1.9849481e-23 2.6338934e-06 -2.4473033e-24 4.2438165e-42)
(9.7644025e-05 -5.0228937e-06 0 1.8084969e-06 0 0)
(8.6465104e-05 -2.278599e-06 3.4531063e-24 1.2348292e-06 -1.7101029e-25 1.4654613e-43)
(7.5967722e-05 -2.9437922e-07 7.5687234e-25 8.433907e-07 -2.2465184e-26 8.4782205e-45)
(6.6698354e-05 7.6097318e-07 -9.9635146e-25 5.5720626e-07 1.9796765e-26 1.9490652e-44)
(5.909355e-05 1.3171208e-06 -1.57715e-24 3.3515397e-07 -6.8549715e-26 5.2853497e-44)
(5.3816446e-05 9.720636e-07 2.2900999e-25 1.35402e-07 2.0272894e-25 1.0431397e-42)
(5.1309061e-05 7.1246808e-07 1.3700941e-24 2.4577916e-08 5.1153017e-26 3.1651042e-43)
(5.9949919e-05 1.5197798e-05 2.000466e-23 9.1130169e-06 9.4219288e-24 1.0461859e-41)
(6.0239133e-05 2.2858569e-06 5.730919e-24 9.375854e-06 1.3721426e-25 7.1736629e-43)
(0.00011434174 -6.4587654e-06 6.9060476e-24 8.4251662e-06 -1.3054761e-24 5.4369393e-43)
(0.00019348906 -1.2395204e-05 8.6912609e-24 8.4018302e-06 -1.0940107e-24 5.1581276e-43)
(0.00025620328 -1.6159734e-05 7.7970618e-23 8.3180769e-06 -9.6519962e-24 3.2627697e-41)
(0.00029260561 -1.9420388e-05 5.8904507e-24 8.6706477e-06 5.0375868e-26 2.3010202e-43)
(0.00029787854 -2.2049809e-05 -1.3649522e-24 9.0823674e-06 6.4564252e-25 4.9293391e-44)
(0.00028334272 -2.4885865e-05 3.2676499e-24 9.7458846e-06 -5.0140754e-25 5.6848975e-44)
(0.00025901247 -2.7160079e-05 3.4166678e-23 1.0346151e-05 -5.4181306e-24 7.2334579e-42)
(0.00023393269 -2.907191e-05 -1.0612667e-23 1.0905965e-05 3.2815586e-24 1.104037e-42)
(0.00021183617 -3.0108922e-05 1.8709003e-23 1.1148052e-05 -4.0968937e-24 2.5651641e-42)
(0.00019405807 -3.0307717e-05 -1.5306689e-24 1.1031028e-05 2.2700848e-25 8.9840597e-44)
(0.00017974199 -2.9398648e-05 -7.7596581e-24 1.0427569e-05 1.707195e-24 1.4440965e-42)
(0.00016791014 -2.7414691e-05 8.2979529e-24 9.3854614e-06 -1.9637211e-24 5.0498192e-43)
(0.00015721601 -2.4360628e-05 1.1054928e-24 7.9907734e-06 -4.7422314e-26 3.9562818e-43)
(0.00014680591 -2.0462822e-05 -4.6146203e-23 6.4232571e-06 8.3389514e-24 1.6428763e-41)