# Field minima and maxima
# Time         	field          	min            	location(min)  	max            	location(max)  
0.0059988      	p              	-1.49707761e+02	(1.03340804e+00 -4.06193375e-02 -1.36422226e-17)	1.75581413e+02	(-1.03340804e+00 4.06193375e-02 1.52084025e-17)
0.0059988      	U              	(6.36930100e-01 -4.24830976e-01 -1.69331335e-17)	(-1.21108335e+00 -5.58291140e-01 0.00000000e+00)	(1.75657899e+00 3.23841317e-01 9.18414532e-18)	(-2.15604005e-01 1.08374234e+00 0.00000000e+00)
0.0131961      	p              	-8.99127206e+01	(-1.10382176e+00 -4.33950814e-02 1.31701460e-17)	7.64864211e+01	(1.10382176e+00 -4.33950814e-02 0.00000000e+00)
0.0131961      	U              	(4.17314395e-01 -2.37004083e-01 -1.10394920e-17)	(-1.23018879e+00 -2.44772716e-01 -5.99917166e-17)	(1.83799729e+00 3.97233514e-01 7.18513868e-18)	(-2.80771032e-01 9.95500327e-01 -1.35944360e-17)
0.0218297      	p              	-1.50667967e+00	(-1.21582612e-01 -1.02709282e+00 0.00000000e+00)	1.90420777e+00	(1.10382176e+00 -4.33950814e-02 0.00000000e+00)
0.0218297      	U              	(7.30136880e-01 -6.82863714e-01 -3.13766308e-19)	(9.79733345e-01 6.54574149e-01 0.00000000e+00)	(1.73980982e+00 3.75393540e-01 3.29807268e-19)	(-2.15604005e-01 1.08374234e+00 0.00000000e+00)
0.0321864      	p              	-1.49938331e+00	(-4.06193375e-02 1.03340804e+00 0.00000000e+00)	1.91756491e+00	(1.10382176e+00 -4.33950814e-02 0.00000000e+00)
0.0321864      	U              	(5.39815698e-01 -8.55822857e-01 -1.47568667e-19)	(9.18776698e-01 6.13866613e-01 -2.47093567e-17)	(1.73323740e+00 3.65880318e-01 3.22330644e-19)	(-2.15604005e-01 1.08374234e+00 0.00000000e+00)
0.0446119      	p              	-1.50795960e+00	(4.06193375e-02 1.03340804e+00 0.00000000e+00)	1.37590067e+00	(1.10382176e+00 4.33950814e-02 0.00000000e+00)
0.0446119      	U              	(3.73467578e-01 -7.75785927e-01 -2.28111955e-19)	(-9.64179915e-01 -5.39939829e-01 1.23452373e-17)	(1.72883892e+00 3.51760200e-01 3.87505324e-19)	(-2.15604005e-01 1.08374234e+00 0.00000000e+00)
0.0595151      	p              	-1.51215491e+00	(4.06193375e-02 1.03340804e+00 0.00000000e+00)	1.01692673e+00	(-1.17685237e+00 -4.62739424e-02 0.00000000e+00)
0.0595151      	U              	(4.03721435e-01 -7.51531332e-01 -3.07253574e-19)	(-9.64179915e-01 -5.39939829e-01 1.23452373e-17)	(1.74512871e+00 3.40474325e-01 8.59952214e-19)	(2.15604005e-01 -1.08374234e+00 0.00000000e+00)
0.077383       	p              	-1.51884759e+00	(1.21582612e-01 1.02709282e+00 2.72429965e-17)	9.27435949e-01	(-1.17685237e+00 -4.62739424e-02 0.00000000e+00)
0.077383       	U              	(4.30430588e-01 -7.33440066e-01 -3.09713657e-19)	(-9.64179915e-01 -5.39939829e-01 1.23452373e-17)	(1.74313784e+00 3.43444693e-01 1.03123087e-18)	(2.15604005e-01 -1.08374234e+00 0.00000000e+00)
0.0988051      	p              	-1.51727643e+00	(1.21582612e-01 1.02709282e+00 2.72429965e-17)	8.90731013e-01	(-1.03340804e+00 4.06193375e-02 1.52084025e-17)
0.0988051      	U              	(3.55133541e-01 -6.30433887e-01 -1.23384633e-19)	(1.00360472e+00 4.62658924e-01 -1.23402591e-17)	(1.73868503e+00 3.46706348e-01 1.17571658e-18)	(2.15604005e-01 -1.08374234e+00 0.00000000e+00)
0.124484       	p              	-1.48413610e+00	(1.21582612e-01 -1.02709282e+00 -2.72429965e-17)	8.54780452e-01	(-1.03340804e+00 4.06193375e-02 1.52084025e-17)
0.124484       	U              	(3.55431413e-01 -6.14761633e-01 -1.34750386e-19)	(1.00360472e+00 4.62658924e-01 -1.23402591e-17)	(1.72925983e+00 3.46570971e-01 1.27375701e-18)	(2.15604005e-01 -1.08374234e+00 0.00000000e+00)
0.154875       	p              	-1.44045439e+00	(1.21582612e-01 -1.02709282e+00 -2.72429965e-17)	7.95946733e-01	(-1.03340804e+00 4.06193375e-02 1.52084025e-17)
0.154875       	U              	(3.52442538e-01 -5.96623193e-01 -1.46375231e-19)	(1.00360472e+00 4.62658924e-01 -1.23402591e-17)	(1.71205066e+00 3.41307439e-01 1.35026971e-18)	(2.15604005e-01 -1.08374234e+00 0.00000000e+00)
0.189999       	p              	-1.40040642e+00	(1.21582612e-01 1.02709282e+00 2.72429965e-17)	7.34348835e-01	(-1.03340804e+00 4.06193375e-02 1.52084025e-17)
0.189999       	U              	(3.45927298e-01 -5.74792419e-01 -1.59490632e-19)	(1.00360472e+00 4.62658924e-01 -1.23402591e-17)	(1.73332030e+00 1.95005942e-01 8.15358866e-19)	(-1.38518882e-01 1.16988517e+00 -1.04771484e-17)
0.229938       	p              	-1.38029149e+00	(1.21582612e-01 1.02709282e+00 2.72429965e-17)	6.88155840e-01	(-1.03340804e+00 4.06193375e-02 1.52084025e-17)
0.229938       	U              	(3.35365163e-01 -5.48579950e-01 -1.73472882e-19)	(1.00360472e+00 4.62658924e-01 -1.23402591e-17)	(1.73290012e+00 2.02394238e-01 9.10126591e-19)	(-1.38518882e-01 1.16988517e+00 -1.04771484e-17)
0.274768       	p              	-1.35858097e+00	(1.21582612e-01 1.02709282e+00 2.72429965e-17)	6.54988243e-01	(-1.03340804e+00 4.06193375e-02 1.52084025e-17)
0.274768       	U              	(3.20279935e-01 -5.17680956e-01 -1.86758033e-19)	(1.00360472e+00 4.62658924e-01 -1.23402591e-17)	(1.73021163e+00 2.09138310e-01 9.97566609e-19)	(-1.38518882e-01 1.16988517e+00 -1.04771484e-17)
0.32458        	p              	-1.33459014e+00	(1.21582612e-01 1.02709282e+00 2.72429965e-17)	6.29949088e-01	(-1.03340804e+00 4.06193375e-02 1.52084025e-17)
0.32458        	U              	(4.95009844e-01 -6.86375564e-01 -6.17160363e-19)	(-9.64179915e-01 -5.39939829e-01 1.23452373e-17)	(1.72537608e+00 2.14915755e-01 1.07799950e-18)	(-1.38518882e-01 1.16988517e+00 -1.04771484e-17)
0.375552       	p              	-1.31679348e+00	(1.21582612e-01 1.02709282e+00 2.72429965e-17)	6.12632346e-01	(-1.03340804e+00 4.06193375e-02 1.52084025e-17)
0.375552       	U              	(5.80316914e-01 -6.08390552e-01 -6.77747657e-19)	(8.67678671e-01 6.83977627e-01 0.00000000e+00)	(1.71891304e+00 2.20194722e-01 1.09258545e-18)	(-1.38518882e-01 1.16988517e+00 -1.04771484e-17)
0.426791       	p              	-1.29848605e+00	(4.06193375e-02 1.03340804e+00 0.00000000e+00)	6.01509180e-01	(-1.03340804e+00 4.06193375e-02 1.52084025e-17)
0.426791       	U              	(5.43177381e-01 -5.64248607e-01 -6.55404827e-19)	(8.67678671e-01 6.83977627e-01 0.00000000e+00)	(1.71151720e+00 2.24807604e-01 1.09560950e-18)	(-1.38518882e-01 1.16988517e+00 -1.04771484e-17)
0.478164       	p              	-1.28307341e+00	(4.06193375e-02 1.03340804e+00 0.00000000e+00)	5.92895199e-01	(-1.03340804e+00 4.06193375e-02 1.52084025e-17)
0.478164       	U              	(4.89996044e-01 -6.80118354e-01 -6.39579776e-19)	(-9.64179915e-01 -5.39939829e-01 1.23452373e-17)	(1.70336632e+00 2.28966380e-01 1.08818524e-18)	(-1.38518882e-01 1.16988517e+00 -1.04771484e-17)
0.529538       	p              	-1.26809008e+00	(4.06193375e-02 1.03340804e+00 0.00000000e+00)	5.86633198e-01	(-1.03340804e+00 4.06193375e-02 1.52084025e-17)
0.529538       	U              	(4.88880702e-01 -6.78138040e-01 -6.38486347e-19)	(-9.64179915e-01 -5.39939829e-01 1.23452373e-17)	(1.69480091e+00 2.32792463e-01 1.07766015e-18)	(-1.38518882e-01 1.16988517e+00 -1.04771484e-17)
0.581047       	p              	-1.25460848e+00	(4.06193375e-02 1.03340804e+00 0.00000000e+00)	5.82013751e-01	(-1.03340804e+00 4.06193375e-02 1.52084025e-17)
0.581047       	U              	(4.88095924e-01 -6.76127669e-01 -6.37122119e-19)	(-9.64179915e-01 -5.39939829e-01 1.23452373e-17)	(1.68595073e+00 2.36260701e-01 1.06682463e-18)	(-1.38518882e-01 1.16988517e+00 -1.04771484e-17)
0.632693       	p              	-1.24099687e+00	(4.06193375e-02 1.03340804e+00 0.00000000e+00)	5.78603863e-01	(-1.03340804e+00 4.06193375e-02 1.52084025e-17)
0.632693       	U              	(4.87493679e-01 -6.74123047e-01 -6.35333489e-19)	(-9.64179915e-01 -5.39939829e-01 1.23452373e-17)	(1.67704691e+00 2.39643122e-01 1.05354515e-18)	(-1.38518882e-01 1.16988517e+00 -1.04771484e-17)
0.684477       	p              	-1.22762515e+00	(4.06193375e-02 1.03340804e+00 0.00000000e+00)	5.76035719e-01	(-1.03340804e+00 4.06193375e-02 1.52084025e-17)
0.684477       	U              	(4.86944231e-01 -6.72172341e-01 -6.33292168e-19)	(-9.64179915e-01 -5.39939829e-01 1.23452373e-17)	(1.66811779e+00 2.42961166e-01 1.04075804e-18)	(-1.38518882e-01 1.16988517e+00 -1.04771484e-17)
0.736401       	p              	-1.21431589e+00	(4.06193375e-02 1.03340804e+00 0.00000000e+00)	5.74160504e-01	(-1.03340804e+00 4.06193375e-02 1.52084025e-17)
0.736401       	U              	(4.86353348e-01 -6.70322219e-01 -6.31245374e-19)	(-9.64179915e-01 -5.39939829e-01 1.23452373e-17)	(1.65925203e+00 2.46267338e-01 1.02831608e-18)	(-1.38518882e-01 1.16988517e+00 -1.04771484e-17)
0.788605       	p              	-1.20173045e+00	(4.06193375e-02 1.03340804e+00 0.00000000e+00)	5.72785673e-01	(-1.03340804e+00 4.06193375e-02 1.52084025e-17)
0.788605       	U              	(4.85664844e-01 -6.68607584e-01 -6.30331917e-19)	(-9.64179915e-01 -5.39939829e-01 1.23452373e-17)	(1.65051801e+00 2.49559827e-01 1.01764334e-18)	(-1.38518882e-01 1.16988517e+00 -1.04771484e-17)
0.841096       	p              	-1.18975585e+00	(4.06193375e-02 1.03340804e+00 0.00000000e+00)	5.71788044e-01	(-1.03340804e+00 4.06193375e-02 1.52084025e-17)
0.841096       	U              	(4.84856979e-01 -6.67051640e-01 -6.29894879e-19)	(-9.64179915e-01 -5.39939829e-01 1.23452373e-17)	(1.64200422e+00 2.52944044e-01 1.00761545e-18)	(-1.38518882e-01 1.16988517e+00 -1.04771484e-17)
0.89373        	p              	-1.17797543e+00	(4.06193375e-02 1.03340804e+00 0.00000000e+00)	5.71084862e-01	(-1.03340804e+00 4.06193375e-02 1.52084025e-17)
0.89373        	U              	(4.83939191e-01 -6.65665876e-01 -6.28916198e-19)	(-9.64179915e-01 -5.39939829e-01 1.23452373e-17)	(1.63368381e+00 2.56309569e-01 9.95953950e-19)	(-1.38518882e-01 1.16988517e+00 -1.04771484e-17)
0.94651        	p              	-1.16670418e+00	(4.06193375e-02 1.03340804e+00 0.00000000e+00)	5.70601005e-01	(-1.03340804e+00 4.06193375e-02 1.52084025e-17)
0.94651        	U              	(4.82934830e-01 -6.64445167e-01 -6.28114710e-19)	(-9.64179915e-01 -5.39939829e-01 1.23452373e-17)	(1.62555193e+00 2.59564243e-01 9.84059973e-19)	(-1.38518882e-01 1.16988517e+00 -1.04771484e-17)
0.999436       	p              	-1.15573921e+00	(4.06193375e-02 1.03340804e+00 0.00000000e+00)	5.70329211e-01	(-1.03340804e+00 4.06193375e-02 1.52084025e-17)
0.999436       	U              	(4.81873173e-01 -6.63374993e-01 -6.27604873e-19)	(-9.64179915e-01 -5.39939829e-01 1.23452373e-17)	(1.61766218e+00 2.62715062e-01 9.72393716e-19)	(-1.38518882e-01 1.16988517e+00 -1.04771484e-17)
1.05251        	p              	-1.14492201e+00	(4.06193375e-02 1.03340804e+00 0.00000000e+00)	5.70167841e-01	(-1.03340804e+00 4.06193375e-02 1.52084025e-17)
1.05251        	U              	(4.80787494e-01 -6.62437514e-01 -6.27382590e-19)	(-9.64179915e-01 -5.39939829e-01 1.23452373e-17)	(1.61003551e+00 2.65731252e-01 9.61450404e-19)	(-1.38518882e-01 1.16988517e+00 -1.04771484e-17)
1.10573        	p              	-1.13406525e+00	(4.06193375e-02 1.03340804e+00 0.00000000e+00)	5.70117560e-01	(-1.03340804e+00 4.06193375e-02 1.52084025e-17)
1.10573        	U              	(4.79706587e-01 -6.61611915e-01 -6.27355626e-19)	(-9.64179915e-01 -5.39939829e-01 1.23452373e-17)	(1.60265920e+00 2.68611824e-01 9.50593908e-19)	(-1.38518882e-01 1.16988517e+00 -1.04771484e-17)
1.15896        	p              	-1.12317136e+00	(4.06193375e-02 1.03340804e+00 0.00000000e+00)	5.70178964e-01	(-1.03340804e+00 4.06193375e-02 1.52084025e-17)
1.15896        	U              	(4.78656421e-01 -6.60878735e-01 -6.26533760e-19)	(-9.64179915e-01 -5.39939829e-01 1.23452373e-17)	(1.59554310e+00 2.71360727e-01 9.38744478e-19)	(-1.38518882e-01 1.16988517e+00 -1.04771484e-17)
1.21233        	p              	-1.11229599e+00	(4.06193375e-02 1.03340804e+00 0.00000000e+00)	5.70329312e-01	(-1.03340804e+00 4.06193375e-02 1.52084025e-17)
1.21233        	U              	(4.77649988e-01 -6.60216753e-01 -6.26574242e-19)	(-9.64179915e-01 -5.39939829e-01 1.23452373e-17)	(1.58863048e+00 2.74012971e-01 9.27808989e-19)	(-1.38518882e-01 1.16988517e+00 -1.04771484e-17)
1.26586        	p              	-1.10141932e+00	(4.06193375e-02 1.03340804e+00 0.00000000e+00)	5.70540385e-01	(-1.03340804e+00 4.06193375e-02 1.52084025e-17)
1.26586        	U              	(4.76696803e-01 -6.59607954e-01 -6.26858527e-19)	(-9.64179915e-01 -5.39939829e-01 1.23452373e-17)	(1.58190944e+00 2.76572139e-01 9.17381035e-19)	(-1.38518882e-01 1.16988517e+00 -1.04771484e-17)
1.31938        	p              	-1.09067690e+00	(4.06193375e-02 1.03340804e+00 0.00000000e+00)	5.70796854e-01	(-1.03340804e+00 4.06193375e-02 1.52084025e-17)
1.31938        	U              	(4.75804312e-01 -6.59037589e-01 -6.26223303e-19)	(-9.64179915e-01 -5.39939829e-01 1.23452373e-17)	(1.57538792e+00 2.79004640e-01 9.06073939e-19)	(-1.38518882e-01 1.16988517e+00 -1.04771484e-17)
1.37291        	p              	-1.08000755e+00	(4.06193375e-02 1.03340804e+00 0.00000000e+00)	5.71100744e-01	(-1.03340804e+00 4.06193375e-02 1.52084025e-17)
1.37291        	U              	(4.74971076e-01 -6.58491072e-01 -6.25379515e-19)	(-9.64179915e-01 -5.39939829e-01 1.23452373e-17)	(1.56903916e+00 2.81308952e-01 8.94616887e-19)	(-1.38518882e-01 1.16988517e+00 -1.04771484e-17)
1.42659        	p              	-1.06940457e+00	(4.06193375e-02 1.03340804e+00 0.00000000e+00)	5.71423777e-01	(-1.03340804e+00 4.06193375e-02 1.52084025e-17)
1.42659        	U              	(4.74190099e-01 -6.57955926e-01 -6.25468517e-19)	(-9.64179915e-01 -5.39939829e-01 1.23452373e-17)	(1.56282643e+00 2.83486121e-01 8.84792793e-19)	(-1.38518882e-01 1.16988517e+00 -1.04771484e-17)
1.48027        	p              	-1.05922475e+00	(-4.06193375e-02 1.03340804e+00 0.00000000e+00)	5.71783993e-01	(-1.03340804e+00 4.06193375e-02 1.52084025e-17)
1.48027        	U              	(4.73458689e-01 -6.57424869e-01 -6.24767003e-19)	(-9.64179915e-01 -5.39939829e-01 1.23452373e-17)	(1.55674632e+00 2.85520025e-01 8.74509413e-19)	(-1.38518882e-01 1.16988517e+00 -1.04771484e-17)
1.53395        	p              	-1.04953162e+00	(-4.06193375e-02 1.03340804e+00 0.00000000e+00)	5.72157021e-01	(-1.03340804e+00 4.06193375e-02 1.52084025e-17)
1.53395        	U              	(4.72769643e-01 -6.56891060e-01 -6.23827194e-19)	(-9.64179915e-01 -5.39939829e-01 1.23452373e-17)	(1.55077025e+00 2.87381776e-01 8.63986378e-19)	(-1.38518882e-01 1.16988517e+00 -1.04771484e-17)
1.58763        	p              	-1.03965516e+00	(-4.06193375e-02 1.03340804e+00 0.00000000e+00)	5.72537823e-01	(-1.03340804e+00 4.06193375e-02 1.52084025e-17)
1.58763        	U              	(4.72115391e-01 -6.56350096e-01 -6.22845246e-19)	(-9.64179915e-01 -5.39939829e-01 1.23452373e-17)	(1.54488079e+00 2.89099680e-01 8.53454467e-19)	(-1.38518882e-01 1.16988517e+00 -1.04771484e-17)
1.64147        	p              	-1.02968710e+00	(-4.06193375e-02 1.03340804e+00 0.00000000e+00)	5.72928063e-01	(-1.03340804e+00 4.06193375e-02 1.52084025e-17)
1.64147        	U              	(4.71486396e-01 -6.55798233e-01 -6.22787869e-19)	(-9.64179915e-01 -5.39939829e-01 1.23452373e-17)	(1.53905054e+00 2.90717352e-01 8.44218110e-19)	(-1.38518882e-01 1.16988517e+00 -1.04771484e-17)
1.69531        	p              	-1.01965056e+00	(-4.06193375e-02 1.03340804e+00 0.00000000e+00)	5.73352020e-01	(-1.03340804e+00 4.06193375e-02 1.52084025e-17)
1.69531        	U              	(4.70877990e-01 -6.55234676e-01 -6.21905348e-19)	(-9.64179915e-01 -5.39939829e-01 1.23452373e-17)	(1.53329102e+00 2.92265203e-01 8.34162484e-19)	(-1.38518882e-01 1.16988517e+00 -1.04771484e-17)
1.74914        	p              	-1.00970183e+00	(-4.06193375e-02 1.03340804e+00 0.00000000e+00)	5.73764334e-01	(-1.03340804e+00 4.06193375e-02 1.52084025e-17)
1.74914        	U              	(4.70284141e-01 -6.54658516e-01 -6.20786698e-19)	(-9.64179915e-01 -5.39939829e-01 1.23452373e-17)	(1.52759849e+00 2.93774465e-01 8.23961368e-19)	(-1.38518882e-01 1.16988517e+00 -1.04771484e-17)
1.80314        	p              	-9.99903473e-01	(-4.06193375e-02 1.03340804e+00 0.00000000e+00)	5.74158173e-01	(-1.03340804e+00 4.06193375e-02 1.52084025e-17)
1.80314        	U              	(4.69698835e-01 -6.54069494e-01 -6.20629147e-19)	(-9.64179915e-01 -5.39939829e-01 1.23452373e-17)	(1.52194392e+00 2.95247258e-01 8.15201686e-19)	(-1.38518882e-01 1.16988517e+00 -1.04771484e-17)
1.85714        	p              	-9.90119301e-01	(-4.06193375e-02 1.03340804e+00 0.00000000e+00)	5.74617637e-01	(-1.03340804e+00 4.06193375e-02 1.52084025e-17)
1.85714        	U              	(4.69120588e-01 -6.53469501e-01 -6.19658597e-19)	(-9.64179915e-01 -5.39939829e-01 1.23452373e-17)	(1.51633454e+00 2.96679833e-01 8.05609735e-19)	(-1.38518882e-01 1.16988517e+00 -1.04771484e-17)
1.91129        	p              	-9.80679834e-01	(-4.06193375e-02 1.03340804e+00 0.00000000e+00)	5.75003462e-01	(-1.03340804e+00 4.06193375e-02 1.52084025e-17)
1.91129        	U              	(4.68544671e-01 -6.52858337e-01 -6.19456864e-19)	(-9.64179915e-01 -5.39939829e-01 1.23452373e-17)	(1.51075240e+00 2.98073918e-01 7.97101193e-19)	(-1.38518882e-01 1.16988517e+00 -1.04771484e-17)
1.96545        	p              	-9.71639483e-01	(-4.06193375e-02 1.03340804e+00 0.00000000e+00)	5.75377107e-01	(-1.03340804e+00 4.06193375e-02 1.52084025e-17)
1.96545        	U              	(4.67971218e-01 -6.52238496e-01 -6.18450600e-19)	(-9.64179915e-01 -5.39939829e-01 1.23452373e-17)	(1.50521742e+00 2.99415872e-01 7.88075213e-19)	(-1.38518882e-01 1.16988517e+00 -1.04771484e-17)
2.01977        	p              	-9.62892521e-01	(-4.06193375e-02 1.03340804e+00 0.00000000e+00)	5.75730553e-01	(-1.03340804e+00 4.06193375e-02 1.52084025e-17)
2.01977        	U              	(4.67396504e-01 -6.51609558e-01 -6.18218450e-19)	(-9.64179915e-01 -5.39939829e-01 1.23452373e-17)	(1.49971404e+00 3.00708558e-01 7.80117738e-19)	(-1.38518882e-01 1.16988517e+00 -1.04771484e-17)
2.07409        	p              	-9.54378929e-01	(-4.06193375e-02 1.03340804e+00 0.00000000e+00)	5.76079818e-01	(-1.03340804e+00 4.06193375e-02 1.52084025e-17)
2.07409        	U              	(4.66822430e-01 -6.50974625e-01 -6.17198492e-19)	(-9.64179915e-01 -5.39939829e-01 1.23452373e-17)	(1.54229192e+00 5.91540690e-02 7.26588187e-19)	(1.66357433e-01 1.40459629e+00 -7.82047486e-18)
2.12841        	p              	-9.45976498e-01	(-4.06193375e-02 1.03340804e+00 0.00000000e+00)	5.76412540e-01	(-1.03340804e+00 4.06193375e-02 1.52084025e-17)
2.12841        	U              	(4.66248641e-01 -6.50334764e-01 -6.15974738e-19)	(-9.64179915e-01 -5.39939829e-01 1.23452373e-17)	(1.53996792e+00 6.35805627e-02 7.15881176e-19)	(1.66357433e-01 1.40459629e+00 -7.82047486e-18)
2.1829         	p              	-9.37705198e-01	(-4.06193375e-02 1.03340804e+00 0.00000000e+00)	5.76723752e-01	(-1.03340804e+00 4.06193375e-02 1.52084025e-17)
2.1829         	U              	(4.65672399e-01 -6.49689582e-01 -6.15741083e-19)	(-9.64179915e-01 -5.39939829e-01 1.23452373e-17)	(1.53754893e+00 6.79288503e-02 7.06467690e-19)	(1.66357433e-01 1.40459629e+00 -7.82047486e-18)
2.23739        	p              	-9.29527791e-01	(-4.06193375e-02 1.03340804e+00 0.00000000e+00)	5.77019943e-01	(-1.03340804e+00 4.06193375e-02 1.52084025e-17)
2.23739        	U              	(4.65095906e-01 -6.49041548e-01 -6.14710896e-19)	(-9.64179915e-01 -5.39939829e-01 1.23452373e-17)	(1.53504575e+00 7.21831945e-02 6.96411328e-19)	(1.66357433e-01 1.40459629e+00 -7.82047486e-18)
2.29204        	p              	-9.21616730e-01	(-4.06193375e-02 1.03340804e+00 0.00000000e+00)	5.77211528e-01	(-1.03340804e+00 4.06193375e-02 1.52084025e-17)
2.29204        	U              	(4.64517920e-01 -6.48390610e-01 -6.14499392e-19)	(-9.64179915e-01 -5.39939829e-01 1.23452373e-17)	(1.53246864e+00 7.63555899e-02 6.87493289e-19)	(1.66357433e-01 1.40459629e+00 -7.82047486e-18)
2.3467         	p              	-9.13879467e-01	(-4.06193375e-02 1.03340804e+00 0.00000000e+00)	5.77356040e-01	(-1.03340804e+00 4.06193375e-02 1.52084025e-17)
2.3467         	U              	(4.63941317e-01 -6.47739364e-01 -6.13491517e-19)	(-9.64179915e-01 -5.39939829e-01 1.23452373e-17)	(1.52986949e+00 8.04307019e-02 6.77681551e-19)	(1.66357433e-01 1.40459629e+00 -7.82047486e-18)
2.40152        	p              	-9.06101568e-01	(-4.06193375e-02 1.03340804e+00 0.00000000e+00)	5.77572566e-01	(-1.03340804e+00 4.06193375e-02 1.52084025e-17)
2.40152        	U              	(4.63363712e-01 -6.47086291e-01 -6.13283010e-19)	(-9.64179915e-01 -5.39939829e-01 1.23452373e-17)	(1.52723861e+00 8.44117817e-02 6.69140402e-19)	(1.66357433e-01 1.40459629e+00 -7.82047486e-18)
2.45634        	p              	-8.98512664e-01	(-4.06193375e-02 1.03340804e+00 0.00000000e+00)	5.77740078e-01	(-1.03340804e+00 4.06193375e-02 1.52084025e-17)
2.45634        	U              	(4.62787823e-01 -6.46433614e-01 -6.12277970e-19)	(-9.64179915e-01 -5.39939829e-01 1.23452373e-17)	(1.52456668e+00 8.82853432e-02 6.60153044e-19)	(1.66357433e-01 1.40459629e+00 -7.82047486e-18)
2.51117        	p              	-8.91057411e-01	(-4.06193375e-02 1.03340804e+00 0.00000000e+00)	5.77884344e-01	(-1.03340804e+00 4.06193375e-02 1.52084025e-17)
2.51117        	U              	(4.62214019e-01 -6.45781678e-01 -6.11076737e-19)	(-9.64179915e-01 -5.39939829e-01 1.23452373e-17)	(1.52185638e+00 9.20770281e-02 6.50789324e-19)	(1.66357433e-01 1.40459629e+00 -7.82047486e-18)
2.56599        	p              	-8.83817433e-01	(-4.06193375e-02 1.03340804e+00 0.00000000e+00)	5.77986037e-01	(-1.03340804e+00 4.06193375e-02 1.52084025e-17)
2.56599        	U              	(4.61642775e-01 -6.45131362e-01 -6.09890789e-19)	(-9.64179915e-01 -5.39939829e-01 1.23452373e-17)	(1.51908458e+00 9.58063862e-02 6.41562605e-19)	(1.66357433e-01 1.40459629e+00 -7.82047486e-18)
2.62099        	p              	-8.76687697e-01	(-4.06193375e-02 1.03340804e+00 0.00000000e+00)	5.78062653e-01	(-1.03340804e+00 4.06193375e-02 1.52084025e-17)
2.62099        	U              	(4.61071847e-01 -6.44481650e-01 -6.09728013e-19)	(-9.64179915e-01 -5.39939829e-01 1.23452373e-17)	(1.51624820e+00 9.94959664e-02 6.33479069e-19)	(1.66357433e-01 1.40459629e+00 -7.82047486e-18)
2.67599        	p              	-8.69732457e-01	(-4.06193375e-02 1.03340804e+00 0.00000000e+00)	5.78109240e-01	(-1.03340804e+00 4.06193375e-02 1.52084025e-17)
2.67599        	U              	(4.60504195e-01 -6.43834853e-01 -6.08766503e-19)	(-9.64179915e-01 -5.39939829e-01 1.23452373e-17)	(1.51337544e+00 1.03134119e-01 6.24945616e-19)	(1.66357433e-01 1.40459629e+00 -7.82047486e-18)
2.73098        	p              	-8.62811848e-01	(-4.06193375e-02 1.03340804e+00 0.00000000e+00)	5.78191630e-01	(-1.03340804e+00 4.06193375e-02 1.52084025e-17)
2.73098        	U              	(4.59591506e-01 -5.03740696e-01 -4.88501620e-19)	(1.66485474e+00 6.14253693e-01 0.00000000e+00)	(1.51047978e+00 1.06716924e-01 6.16584519e-19)	(1.66357433e-01 1.40459629e+00 -7.82047486e-18)
2.78615        	p              	-8.56231136e-01	(-4.06193375e-02 1.03340804e+00 0.00000000e+00)	5.78111837e-01	(-1.03340804e+00 4.06193375e-02 1.52084025e-17)
2.78615        	U              	(4.48071526e-01 -4.99752958e-01 -5.03213011e-19)	(1.66485474e+00 6.14253693e-01 0.00000000e+00)	(1.50756377e+00 1.10245989e-01 6.09496425e-19)	(1.66357433e-01 1.40459629e+00 -7.82047486e-18)
2.84133        	p              	-8.49806747e-01	(-1.21582612e-01 1.02709282e+00 0.00000000e+00)	5.78029329e-01	(-1.03340804e+00 -4.06193375e-02 -1.52065714e-17)
2.84133        	U              	(4.36337026e-01 -4.95078531e-01 -5.16568985e-19)	(1.66485474e+00 6.14253693e-01 0.00000000e+00)	(1.50464001e+00 1.13713859e-01 6.01932028e-19)	(1.66357433e-01 1.40459629e+00 -7.82047486e-18)
2.89668        	p              	-8.43745663e-01	(-1.21582612e-01 1.02709282e+00 0.00000000e+00)	5.77982421e-01	(-1.03340804e+00 -4.06193375e-02 -1.52065714e-17)
2.89668        	U              	(4.24316307e-01 -4.89509401e-01 -5.30341844e-19)	(1.66485474e+00 6.14253693e-01 0.00000000e+00)	(1.50170175e+00 1.17131037e-01 5.95301166e-19)	(1.66357433e-01 1.40459629e+00 -7.82047486e-18)
2.95203        	p              	-8.37770316e-01	(-1.21582612e-01 1.02709282e+00 0.00000000e+00)	5.77879829e-01	(-1.03340804e+00 -4.06193375e-02 -1.52065714e-17)
2.95203        	U              	(4.12055144e-01 -4.82849734e-01 -5.41618197e-19)	(1.66485474e+00 6.14253693e-01 0.00000000e+00)	(1.49876340e+00 1.20476126e-01 5.88265511e-19)	(1.66357433e-01 1.40459629e+00 -7.82047486e-18)
3.00756        	p              	-8.31919830e-01	(-1.21582612e-01 1.02709282e+00 0.00000000e+00)	5.77707691e-01	(-1.03340804e+00 -4.06193375e-02 -1.52065714e-17)
3.00756        	U              	(4.57171800e-01 -6.40027234e-01 -6.05576284e-19)	(-9.64179915e-01 -5.39939829e-01 1.23452373e-17)	(1.49582054e+00 1.23747873e-01 5.82300082e-19)	(1.66357433e-01 1.40459629e+00 -7.82047486e-18)
3.06309        	p              	-8.26011346e-01	(-1.21582612e-01 1.02709282e+00 0.00000000e+00)	5.77594787e-01	(-1.03340804e+00 -4.06193375e-02 -1.52065714e-17)
3.06309        	U              	(4.56633077e-01 -6.39409644e-01 -6.04707423e-19)	(-9.64179915e-01 -5.39939829e-01 1.23452373e-17)	(1.49289130e+00 1.26928067e-01 5.75895319e-19)	(1.66357433e-01 1.40459629e+00 -7.82047486e-18)
3.1188         	p              	-8.20389768e-01	(-1.21582612e-01 1.02709282e+00 0.00000000e+00)	5.77378666e-01	(-1.03340804e+00 -4.06193375e-02 -1.52065714e-17)
3.1188         	U              	(4.52437709e-01 -4.90933493e-01 -3.69488453e-19)	(2.00184936e+00 5.64790422e-01 0.00000000e+00)	(1.48996648e+00 1.30034101e-01 5.70561812e-19)	(1.66357433e-01 1.40459629e+00 -7.82047486e-18)
3.17452        	p              	-8.14987160e-01	(-1.21582612e-01 1.02709282e+00 0.00000000e+00)	5.77083189e-01	(-1.03340804e+00 -4.06193375e-02 -1.52065714e-17)
3.17452        	U              	(4.41348573e-01 -4.93854815e-01 -3.86754323e-19)	(2.00184936e+00 5.64790422e-01 0.00000000e+00)	(1.48706179e+00 1.33056302e-01 5.64642234e-19)	(1.66357433e-01 1.40459629e+00 -7.82047486e-18)
3.23023        	p              	-8.09497467e-01	(-1.21582612e-01 1.02709282e+00 0.00000000e+00)	5.76926963e-01	(-1.03340804e+00 -4.06193375e-02 -1.52065714e-17)
3.23023        	U              	(4.30065433e-01 -4.96559515e-01 -4.04800720e-19)	(2.00184936e+00 5.64790422e-01 0.00000000e+00)	(1.48429045e+00 1.36006158e-01 5.59136586e-19)	(1.66357433e-01 1.40459629e+00 -7.82047486e-18)
3.28613        	p              	-8.04297685e-01	(-1.21582612e-01 1.02709282e+00 0.00000000e+00)	5.76639093e-01	(-1.03340804e+00 -4.06193375e-02 -1.52065714e-17)
3.28613        	U              	(4.18572113e-01 -4.99073090e-01 -4.23535893e-19)	(2.00184936e+00 5.64790422e-01 0.00000000e+00)	(1.48158357e+00 1.38879798e-01 5.54615045e-19)	(1.66357433e-01 1.40459629e+00 -7.82047486e-18)
3.34203        	p              	-7.99347196e-01	(-1.21582612e-01 1.02709282e+00 0.00000000e+00)	5.76271839e-01	(-1.03340804e+00 -4.06193375e-02 -1.52065714e-17)
3.34203        	U              	(4.06950627e-01 -5.01272038e-01 -4.41021385e-19)	(2.00184936e+00 5.64790422e-01 0.00000000e+00)	(1.47889007e+00 1.41659086e-01 5.49476519e-19)	(1.66357433e-01 1.40459629e+00 -7.82047486e-18)
3.39793        	p              	-7.94595759e-01	(-1.21582612e-01 1.02709282e+00 0.00000000e+00)	5.75887999e-01	(-1.03340804e+00 -4.06193375e-02 -1.52065714e-17)
3.39793        	U              	(3.95280339e-01 -5.02998503e-01 -4.56739366e-19)	(2.00184936e+00 5.64790422e-01 0.00000000e+00)	(1.47620619e+00 1.44347522e-01 5.44195071e-19)	(1.66357433e-01 1.40459629e+00 -7.82047486e-18)
3.45402        	p              	-7.89828102e-01	(-1.21582612e-01 1.02709282e+00 0.00000000e+00)	5.75585450e-01	(-1.03340804e+00 -4.06193375e-02 -1.52065714e-17)
3.45402        	U              	(3.83422032e-01 -5.04207273e-01 -4.75666118e-19)	(2.00184936e+00 5.64790422e-01 0.00000000e+00)	(1.47352548e+00 1.46958322e-01 5.39852599e-19)	(1.66357433e-01 1.40459629e+00 -7.82047486e-18)
3.5101         	p              	-7.85121366e-01	(-1.21582612e-01 1.02709282e+00 0.00000000e+00)	5.75317767e-01	(-1.03340804e+00 -4.06193375e-02 -1.52065714e-17)
3.5101         	U              	(3.71410639e-01 -5.04960464e-01 -4.94032999e-19)	(2.00184936e+00 5.64790422e-01 0.00000000e+00)	(1.47085936e+00 1.49485026e-01 5.34904382e-19)	(1.66357433e-01 1.40459629e+00 -7.82047486e-18)
3.56638        	p              	-7.80761563e-01	(-1.21582612e-01 1.02709282e+00 0.00000000e+00)	5.74881486e-01	(-1.03340804e+00 4.06193375e-02 1.52084025e-17)
3.56638        	U              	(3.59237363e-01 -5.05254973e-01 -5.12500408e-19)	(2.00184936e+00 5.64790422e-01 0.00000000e+00)	(1.46820510e+00 1.51932104e-01 5.30837783e-19)	(1.66357433e-01 1.40459629e+00 -7.82047486e-18)
3.62266        	p              	-7.76405163e-01	(-1.21582612e-01 1.02709282e+00 0.00000000e+00)	5.74543193e-01	(-1.03340804e+00 4.06193375e-02 1.52084025e-17)
3.62266        	U              	(3.46986776e-01 -5.05189082e-01 -5.29944845e-19)	(2.00184936e+00 5.64790422e-01 0.00000000e+00)	(1.46556587e+00 1.54283042e-01 5.26143654e-19)	(1.66357433e-01 1.40459629e+00 -7.82047486e-18)
3.67894        	p              	-7.72404987e-01	(-1.21582612e-01 1.02709282e+00 0.00000000e+00)	5.74060918e-01	(-1.03340804e+00 4.06193375e-02 1.52084025e-17)
3.67894        	U              	(4.51079667e-01 -6.33042417e-01 -5.98987955e-19)	(-9.64179915e-01 -5.39939829e-01 1.23452373e-17)	(1.46294348e+00 1.56541966e-01 5.21458841e-19)	(1.66357433e-01 1.40459629e+00 -7.82047486e-18)
3.73542        	p              	-7.72088039e-01	(1.52552638e+00 -7.03226017e-01 0.00000000e+00)	5.73656100e-01	(-1.03340804e+00 4.06193375e-02 1.52084025e-17)
3.73542        	U              	(4.50611888e-01 -6.32504598e-01 -5.99167274e-19)	(-9.64179915e-01 -5.39939829e-01 1.23452373e-17)	(1.46032947e+00 1.58728703e-01 5.17698409e-19)	(1.66357433e-01 1.40459629e+00 -7.82047486e-18)
3.79189        	p              	-7.79140132e-01	(1.52552638e+00 7.03226017e-01 0.00000000e+00)	5.73273806e-01	(-1.03340804e+00 4.06193375e-02 1.52084025e-17)