/*--------------------------------*- C++ -*----------------------------------*\
| =========                 |                                                 |
| \\      /  F ield         | OpenFOAM: The Open Source CFD Toolbox           |
|  \\    /   O peration     | Version:  5.0                                   |
|   \\  /    A nd           | Web:      www.OpenFOAM.org                      |
|    \\/     M anipulation  |                                                 |
\*---------------------------------------------------------------------------*/
FoamFile
{
    version     2.0;
    format      ascii;
    class       volScalarField;
    location    "225";
    object      p;
}
// * * * * * * * * * * * * * * * * * * * * * * * * * * * * * * * * * * * * * //

dimensions      [0 2 -2 0 0 0 0];

internalField   nonuniform List<scalar> 
9200
(
-0.00065045544
-0.00064827207
-0.0014834642
-0.00064374388
-0.0014855129
-0.0025293063
-0.00064214102
-0.0014747974
-0.0025294689
-0.0034585966
-0.00063497213
-0.001467389
-0.0025148169
-0.0034617557
-0.0044122988
-0.00062773724
-0.0014485229
-0.00250379
-0.003445584
-0.0044189577
-0.0053170035
-0.00061643011
-0.0014276383
-0.0024763667
-0.0034341732
-0.0044039278
-0.0053306061
-0.0062017046
-0.00060312471
-0.0013979018
-0.0024440771
-0.0034023271
-0.0043960403
-0.0053203098
-0.0062241545
-0.0070481447
-0.00058679675
-0.0013626106
-0.0023980625
-0.0033634591
-0.0043642145
-0.0053212474
-0.0062217414
-0.0070821555
-0.0078595119
-0.00056817822
-0.0013200784
-0.0023421649
-0.0033066125
-0.0043236174
-0.0052955926
-0.0062366623
-0.0070913834
-0.0079085974
-0.0086299921
-0.00054748888
-0.0012713515
-0.0022743094
-0.0032360233
-0.0042608599
-0.0052603932
-0.0062231377
-0.0071265524
-0.0079343603
-0.0086970106
-0.0093568168
-0.00052551387
-0.0012164922
-0.0021958878
-0.0031490873
-0.0041803897
-0.0051994962
-0.0062
-0.0071327285
-0.007995471
-0.0087432284
-0.0094447155
-0.010036267
-0.0005032946
-0.0011560243
-0.0021073258
-0.0030473801
-0.0040789613
-0.0051174371
-0.0061481791
-0.0071303269
-0.0080284332
-0.0088362521
-0.0095159506
-0.010147824
-0.010664896
-0.00048229438
-0.0010902231
-0.0020098646
-0.0029313973
-0.0039583082
-0.005010035
-0.0060722553
-0.0070966976
-0.0080552494
-0.0089039112
-0.0096485639
-0.010248344
-0.010802725
-0.011239376
-0.0004639766
-0.0010192828
-0.0019047802
-0.0028026122
-0.0038190409
-0.0048789833
-0.0059666651
-0.007035983
-0.0080491538
-0.0089687697
-0.0097586025
-0.010426331
-0.010936678
-0.011405835
-0.011756717
-0.00045038975
-0.00094312735
-0.0017935765
-0.0026624645
-0.0036630745
-0.0047247661
-0.0058328133
-0.0069413524
-0.0080136368
-0.0089998566
-0.0098709107
-0.01058633
-0.011166306
-0.011577036
-0.011953857
-0.012214328
-0.0004417983
-0.00086273681
-0.0016776187
-0.0025125757
-0.0034924437
-0.0045494516
-0.0056709222
-0.0068138123
-0.0079401628
-0.0090000203
-0.0099497173
-0.010755298
-0.011384721
-0.01186378
-0.012165776
-0.012443852
-0.01261006
-0.0004364198
-0.00077889414
-0.0015589548
-0.0023544549
-0.0033095346
-0.0043552688
-0.0054831826
-0.0066531153
-0.0078290934
-0.0089585951
-0.0099967659
-0.010892251
-0.011619764
-0.012147498
-0.012514913
-0.012699468
-0.01287332
-0.012942295
-0.00043095225
-0.00069302612
-0.0014386352
-0.0021904159
-0.0031166786
-0.0041448508
-0.0052721097
-0.0064613628
-0.0076794981
-0.0088750241
-0.0099990866
-0.010997646
-0.011825595
-0.012457543
-0.012871312
-0.013115408
-0.013175089
-0.013240238
-0.013210215
-0.00041940469
-0.00060847474
-0.0013170533
-0.0020223251
-0.0029167671
-0.0039208529
-0.0050408009
-0.0062411176
-0.0074932332
-0.0087474447
-0.009954927
-0.011055871
-0.01200114
-0.012742653
-0.013265023
-0.013550504
-0.013661691
-0.013589998
-0.013543175
-0.013413925
-0.00039435274
-0.00052916487
-0.001194985
-0.0018521251
-0.0027119177
-0.003686542
-0.0047924912
-0.0059956847
-0.0072728288
-0.0085772249
-0.0098612335
-0.01106371
-0.012127942
-0.013000069
-0.013639571
-0.01403553
-0.014181193
-0.014150211
-0.013942189
-0.013781522
-0.01355355
-0.00034834861
-0.00045962233
-0.00107248
-0.001682784
-0.0025038644
-0.0034447366
-0.0045309065
-0.0057286405
-0.0070217907
-0.0083666381
-0.0097186633
-0.011016636
-0.012201056
-0.013208263
-0.013990458
-0.014508982
-0.014764639
-0.014758461
-0.014578501
-0.014230577
-0.013955514
-0.013627942
-0.00027549581
-0.00040429521
-0.00094941777
-0.0015170799
-0.0022949296
-0.0031981896
-0.0042592786
-0.0054440548
-0.0067440665
-0.008119185
-0.0095290436
-0.01091435
-0.01221419
-0.013360308
-0.014292956
-0.014964449
-0.015345756
-0.015446164
-0.015278898
-0.014944389
-0.014454919
-0.01406538
-0.013637284
-0.00017271992
-0.00036676476
-0.00082569866
-0.0013577508
-0.0020871778
-0.0029503053
-0.0039805919
-0.005145748
-0.0064441163
-0.007838995
-0.0092957515
-0.010757961
-0.012165826
-0.013447875
-0.014537931
-0.015373892
-0.015916316
-0.016142661
-0.016075625
-0.015738624
-0.015245786
-0.014614529
-0.014110383
-0.013589094
-4.042322e-05
-0.00034908429
-0.00070141355
-0.001207283
-0.0018827537
-0.002704172
-0.0036983195
-0.004837367
-0.0061263223
-0.0075307963
-0.0090230249
-0.010550504
-0.012056102
-0.01346793
-0.014714739
-0.015725776
-0.016444955
-0.016837908
-0.016894078
-0.016647728
-0.016134715
-0.01548089
-0.014708495
-0.014091732
-0.013484446
0.00011745084
-0.00035143939
-0.00057695801
-0.0010677217
-0.0016838064
-0.0024627478
-0.0034158206
-0.0045230011
-0.0057948542
-0.0071994557
-0.0087158485
-0.010296124
-0.011887476
-0.01341938
-0.014818531
-0.016006906
-0.016917591
-0.017497254
-0.017722546
-0.017593375
-0.017158433
-0.016464531
-0.015648888
-0.014737678
-0.014014525
-0.013325627
0.00029404832
-0.00037210861
-0.00045301109
-0.00094051915
-0.001492409
-0.0022288373
-0.0031365716
-0.0042066918
-0.0054541941
-0.0068497142
-0.0083795524
-0.0099999053
-0.011663834
-0.013303803
-0.014846686
-0.016210329
-0.017318268
-0.018103982
-0.018523206
-0.018562289
-0.018235164
-0.017603689
-0.016726346
-0.015750171
-0.014704862
-0.013880865
-0.013115606
0.00048199326
-0.00040664452
-0.00033044879
-0.00082646784
-0.0013104216
-0.0020050679
-0.0028640436
-0.0038925042
-0.0051088843
-0.0064866309
-0.0080194285
-0.0096674938
-0.011390248
-0.013124581
-0.014799639
-0.01633157
-0.017637655
-0.018639218
-0.019276679
-0.019513662
-0.019350334
-0.018813893
-0.017980591
-0.016919271
-0.015785902
-0.014612287
-0.013693883
-0.012856954
0.00067459394
-0.00044393282
-0.00021140965
-0.00072584
-0.0011391325
-0.0017938887
-0.002601488
-0.0035845224
-0.0047635502
-0.0061154455
-0.0076410659
-0.0093046575
-0.011072596
-0.012886562
-0.014679969
-0.016369625
-0.017869119
-0.019091014
-0.019961074
-0.020425498
-0.020460449
-0.020079528
-0.019325134
-0.018286752
-0.017043258
-0.015757704
-0.014462849
-0.013456372
-0.012553636
0.00086011562
-0.00047039171
-0.00010364548
-0.00063820252
-0.00097929411
-0.0015975456
-0.0023517351
-0.003286738
-0.0044229426
-0.0057414964
-0.0072502921
-0.0089175225
-0.010717077
-0.012595656
-0.014492094
-0.016325974
-0.018009868
-0.019450283
-0.020561625
-0.021272865
-0.021541026
-0.021354795
-0.020743758
-0.019764876
-0.018520776
-0.017098874
-0.015667685
-0.014259373
-0.013171752
-0.012209049
0.0010357955
-0.00050018292
-9.9891925e-06
-0.00056083253
-0.00083246966
-0.0014175681
-0.0021170813
-0.0030028936
-0.0040917598
-0.0053702854
-0.0068530701
-0.0085125711
-0.010330322
-0.012258342
-0.014241783
-0.016204301
-0.018059974
-0.019712117
-0.021066523
-0.022038042
-0.022564151
-0.022612945
-0.022188836
-0.021337213
-0.020130131
-0.018681929
-0.017087362
-0.015518323
-0.014005106
-0.012843422
-0.011827165
0.0012196338
-0.0005432489
7.736622e-05
-0.00048470057
-0.00070203416
-0.0012553064
-0.0018995501
-0.0027361734
-0.003774421
-0.0050073272
-0.0064555964
-0.0080965044
-0.0099193972
-0.011881669
-0.013935675
-0.016009973
-0.018022096
-0.019874825
-0.021468424
-0.022706276
-0.023509077
-0.023823234
-0.023631659
-0.022954842
-0.021855102
-0.02041859
-0.018770298
-0.017010469
-0.01531248
-0.01370341
-0.012475127
-0.011411662
0.0014041888
-0.00059329185
0.00015999699
-0.00041668979
-0.00058361942
-0.0011108964
-0.0017015558
-0.0024890409
-0.0034747692
-0.0046578998
-0.0060641684
-0.007676341
-0.0094916647
-0.011473246
-0.013581141
-0.015749571
-0.017900925
-0.019939694
-0.021763519
-0.023267486
-0.024357944
-0.024961903
-0.025038896
-0.024587474
-0.023646052
-0.022293303
-0.020628907
-0.018786625
-0.016870485
-0.015053324
-0.013357899
-0.012070566
-0.010966363
0.0015812051
-0.00064413341
0.00024407949
-0.00037396228
-0.00046965974
-0.00096913072
-0.0015250412
-0.0022641463
-0.0031959813
-0.0043266568
-0.0056849193
-0.0072592844
-0.0090548898
-0.011041126
-0.013186242
-0.01543063
-0.017702746
-0.019910438
-0.021951363
-0.023715395
-0.025097672
-0.026007891
-0.026383879
-0.02619953
-0.025471547
-0.024256317
-0.02264874
-0.020760521
-0.018732353
-0.01667014
-0.014744306
-0.012972272
-0.01163355
-0.010494908
0.0017444416
-0.00069519298
0.00032844968
-0.000333955
-0.0003714903
-0.00082034424
-0.0013554155
-0.0020628367
-0.0029415572
-0.0040174456
-0.0053233994
-0.0068524426
-0.0086171388
-0.010593881
-0.012759622
-0.015061541
-0.017435079
-0.019792733
-0.022034347
-0.024047454
-0.025719192
-0.026944915
-0.027642331
-0.027761623
-0.027294184
-0.026275536
-0.024780541
-0.02291922
-0.020813724
-0.018609527
-0.016412578
-0.014389081
-0.012550329
-0.011167796
-0.010000876
0.0018887585
-0.00074471822
0.00040709372
-0.0002914768
-0.00027756581
-0.00070844543
-0.0011873555
-0.0018657446
-0.0027136947
-0.0037344084
-0.0049843473
-0.0064623446
-0.0081865127
-0.010140513
-0.012310569
-0.01465148
-0.017106496
-0.019593819
-0.022017219
-0.024264341
-0.026217471
-0.027760819
-0.028794636
-0.029246351
-0.029082154
-0.028312223
-0.026992118
-0.025214585
-0.023103559
-0.020789577
-0.018420763
-0.016101269
-0.013991462
-0.012095866
-0.010676979
-0.0094876775
0.002009607
-0.00079003324
0.00047674513
-0.00025334689
-0.00018701322
-0.00061714656
-0.0010544429
-0.0016711073
-0.0024906856
-0.0034801074
-0.0046728977
-0.0060946469
-0.0077706216
-0.0096901805
-0.011848954
-0.014210438
-0.016726558
-0.019322252
-0.021906655
-0.024369515
-0.026591085
-0.028447728
-0.02982531
-0.030630703
-0.030805104
-0.030332532
-0.029243935
-0.027614892
-0.025555441
-0.023201496
-0.020689897
-0.018169167
-0.015739957
-0.013555348
-0.011612661
-0.010164632
-0.008958566
0.0021032636
-0.00082881509
0.00053642481
-0.00022246113
-0.000103102
-0.00052405683
-0.00092987515
-0.0015226044
-0.0022725404
-0.0032292431
-0.0043925629
-0.0057554428
-0.0073762136
-0.0092516302
-0.011384979
-0.013749162
-0.016305817
-0.018987815
-0.02171095
-0.024368743
-0.026841807
-0.029001714
-0.030723307
-0.031895699
-0.032436675
-0.032303451
-0.031500572
-0.03008044
-0.028138682
-0.025801162
-0.023213715
-0.02051717
-0.017858267
-0.015332584
-0.013084679
-0.011104402
-0.0096341558
-0.0084166083
0.0021669366
-0.000859244
0.0005852663
-0.00019780705
-3.0780212e-05
-0.00043592003
-0.00080636001
-0.0013799928
-0.0021031847
-0.0029844361
-0.0041147922
-0.0054491425
-0.0070105692
-0.008832748
-0.010928594
-0.013278921
-0.015855786
-0.018601505
-0.021439883
-0.024269758
-0.026974129
-0.029422445
-0.031481806
-0.033026844
-0.0339543
-0.034195415
-0.033726741
-0.03257477
-0.030814072
-0.028559488
-0.025950925
-0.02314177
-0.020274488
-0.017491934
-0.014883222
-0.012583372
-0.010574672
-0.0090887712
-0.0078646767
0.0021990957
-0.00088032076
0.0006224376
-0.00017851813
2.9672368e-05
-0.00036001075
-0.0006901042
-0.001236272
-0.0019326876
-0.0027960627
-0.0038433753
-0.0051436666
-0.0066793845
-0.0084420611
-0.010488962
-0.012810894
-0.015388721
-0.018175507
-0.021104689
-0.024082074
-0.02699488
-0.02971273
-0.03209795
-0.034014058
-0.035339818
-0.035982277
-0.035889932
-0.035060782
-0.03354473
-0.031438408
-0.028874579
-0.02600498
-0.022988029
-0.019965467
-0.017074303
-0.014396013
-0.012055281
-0.010026902
-0.0085315183
-0.0073054397
-0.00089101785
0.0021990958
0.00064669511
-0.00016418484
7.8379344e-05
-0.00029674898
-0.00059043781
-0.0011015108
-0.0017629049
-0.0026003628
-0.003631558
-0.0048446067
-0.0063472925
-0.0080866312
-0.010076053
-0.01235557
-0.014917029
-0.017722993
-0.020718026
-0.023816925
-0.026912988
-0.029878106
-0.03257243
-0.034851542
-0.036579581
-0.03764208
-0.037960535
-0.037503376
-0.036292328
-0.034401277
-0.031948416
-0.029082482
-0.025964611
-0.022755591
-0.019594151
-0.016609695
-0.013875106
-0.011504155
-0.0094643576
-0.0079652347
-0.0067413601
0.00065807618
-0.00089101785
0.0021669368
-0.00015540809
0.00011523494
-0.00024607966
-0.00050779815
-0.00098613674
-0.0016032563
-0.0024046389
-0.0034034769
-0.0046074523
-0.006020965
-0.0077274138
-0.0096986041
-0.011924406
-0.014452581
-0.017257544
-0.020293827
-0.023487241
-0.026739387
-0.029926555
-0.032909078
-0.035537429
-0.037664449
-0.03915735
-0.039912761
-0.039869716
-0.039019605
-0.037409192
-0.035136702
-0.032340465
-0.029182987
-0.025832068
-0.022448191
-0.019164934
-0.016102546
-0.013324606
-0.010933602
-0.008890116
-0.0073925555
-0.0061746929
-0.0001516734
0.00065807624
-0.00088032069
0.002103264
0.00013897548
-0.00020827098
-0.00044174458
-0.00089041416
-0.0014666446
-0.0022204352
-0.0031768521
-0.0043438925
-0.0057532041
-0.0073725743
-0.009313968
-0.011527948
-0.014008449
-0.016792407
-0.019846735
-0.023107517
-0.026486983
-0.029868369
-0.033114523
-0.036073394
-0.038589557
-0.040515258
-0.041725136
-0.042130262
-0.041690842
-0.040423334
-0.038400647
-0.035744789
-0.032612389
-0.029177082
-0.02561047
-0.022070109
-0.01868246
-0.015557336
-0.012748527
-0.010347067
-0.0083070584
-0.0068159045
-0.0056074911
0.00014988813
-0.0001516734
0.00064669524
-0.00085924394
0.0020096075
-0.00018494599
-0.00039230702
-0.00081390845
-0.0013534668
-0.0020627329
-0.0029634336
-0.0040847613
-0.0054460007
-0.0070761278
-0.0089317482
-0.011119881
-0.013597262
-0.016342282
-0.019391335
-0.022693298
-0.02617056
-0.029716099
-0.03319802
-0.03646428
-0.039353967
-0.041707516
-0.04338085
-0.044259464
-0.044272945
-0.043405504
-0.041700546
-0.039257518
-0.036220947
-0.032763456
-0.029066894
-0.025303718
-0.021626058
-0.018151545
-0.014978525
-0.012150753
-0.0097478067
-0.0077178537
-0.0062374976
-0.005041609
-0.00017550269
0.00014988812
-0.00015540803
0.00062243785
-0.00082881497
0.0018887591
-0.00036118791
-0.00075669685
-0.0012631455
-0.0019320591
-0.0027807576
-0.0038403909
-0.0051494499
-0.0067246868
-0.0086044774
-0.010711739
-0.013169151
-0.015922018
-0.01894398
-0.022260388
-0.025806316
-0.029484485
-0.033171365
-0.03671787
-0.039960271
-0.042730115
-0.044867803
-0.04623631
-0.046736332
-0.046319368
-0.044996328
-0.042838756
-0.039972335
-0.036562225
-0.032794338
-0.028855583
-0.024916368
-0.021121087
-0.01757709
-0.014370507
-0.011535008
-0.0091388739
-0.0071249569
-0.0056593478
-0.0044787138
-0.00034769044
-0.00017550267
0.00013897553
-0.00016418478
0.00058526662
-0.0007900331
0.0017444423
-0.00072072637
-0.0011957016
-0.0018278059
-0.0026295118
-0.0036309187
-0.0048700582
-0.0063861242
-0.0082022554
-0.01035228
-0.01273757
-0.01547819
-0.018521954
-0.021826723
-0.025411092
-0.029190066
-0.033048852
-0.03684476
-0.040414308
-0.043582919
-0.046178479
-0.04804456
-0.049055668
-0.049131468
-0.048248817
-0.046447259
-0.043827242
-0.040539427
-0.036767332
-0.032707026
-0.02854724
-0.024453523
-0.020560481
-0.016964021
-0.013737557
-0.010904819
-0.0085230906
-0.0065306196
-0.0050832911
-0.0039202761
-0.00070517902
-0.0003476904
-0.00018494602
0.00011523497
-0.00017851798
0.00053642528
-0.000744718
0.001581206
-0.0011532684
-0.0017500189
-0.0025089721
-0.0034574614
-0.0046302299
-0.0060674764
-0.0078158251
-0.0098939362
-0.012344217
-0.01502668
-0.018068395
-0.021412117
-0.025004287
-0.028850448
-0.032846952
-0.036858326
-0.040724979
-0.044269339
-0.047309533
-0.04967278
-0.05121031
-0.051812145
-0.05142094
-0.050041597
-0.047743976
-0.04465714
-0.040954999
-0.036836578
-0.032504732
-0.028146749
-0.023920715
-0.019949677
-0.016317217
-0.013083769
-0.010263476
-0.0079030925
-0.0059369355
-0.0045109453
-0.003367586
-0.0011348631
-0.00070517906
-0.00036118796
-0.00020827095
7.8379462e-05
-0.00019780687
0.00047674568
-0.00069519271
0.0014041897
-0.0017010506
-0.0024191442
-0.0033192776
-0.0044315925
-0.0057938644
-0.0074527378
-0.009454773
-0.011823233
-0.014598258
-0.017601818
-0.020956294
-0.024608341
-0.028486269
-0.032583677
-0.036774493
-0.04090421
-0.04479605
-0.04826145
-0.051113953
-0.053184552
-0.054336192
-0.054478818
-0.053581487
-0.051679537
-0.048874041
-0.045321622
-0.041217125
-0.036771802
-0.032191754
-0.027659674
-0.02332381
-0.019294172
-0.015641411
-0.012413011
-0.0096141093
-0.0072813869
-0.0053457314
-0.0039436122
-0.0028218539
-0.0016797555
-0.0011348632
-0.00072072633
-0.00039230698
-0.00024607966
2.96725e-05
-0.00022246083
0.00040709444
-0.00064413305
0.0012196348
-0.0023625483
-0.0032163758
-0.0042734334
-0.0055671881
-0.0071408872
-0.0090425623
-0.011325005
-0.014008314
-0.017137378
-0.020480935
-0.02415965
-0.028122588
-0.032280588
-0.036611204
-0.040966795
-0.045172944
-0.049038134
-0.052365159
-0.054967262
-0.056683343
-0.057392642
-0.057029017
-0.055591009
-0.053146315
-0.049827111
-0.04581595
-0.04132571
-0.036576255
-0.031773365
-0.027092139
-0.022668882
-0.018599381
-0.014941131
-0.011729035
-0.0089597719
-0.0066601142
-0.0047583154
-0.0033825652
-0.0022842404
-0.0023378314
-0.0016797554
-0.0011532684
-0.00075669687
-0.0004417446
-0.00029674888
-3.0779937e-05
-0.00025334651
0.00032845054
-0.00059329142
0.0010357967
-0.0031514708
-0.0041557604
-0.0053867537
-0.0068825076
-0.0086883609
-0.010858017
-0.013445193
-0.016471807
-0.019980229
-0.02368346
-0.027692477
-0.031965298
-0.036390504
-0.040930032
-0.045413036
-0.049646814
-0.053426962
-0.056551674
-0.058837921
-0.060137404
-0.060349843
-0.059436858
-0.057429063
-0.054427686
-0.050595085
-0.046137491
-0.041282397
-0.036254488
-0.031255687
-0.026450679
-0.021962015
-0.017870556
-0.014220874
-0.011035597
-0.0083029975
-0.0060405308
-0.0041761489
-0.0028299646
-0.0017551351
-0.0031230033
-0.0023378313
-0.0017010506
-0.0011957016
-0.00081390834
-0.00050779801
-0.00036001062
-0.00010310166
-0.00029147622
0.00024408057
-0.00054324836
0.00086011698
-0.0040814488
-0.0052526041
-0.0066769164
-0.0083947735
-0.010456558
-0.012918146
-0.015837179
-0.019232724
-0.023146762
-0.027225356
-0.03156754
-0.036142356
-0.040815864
-0.045532296
-0.050098009
-0.054303283
-0.057934446
-0.060788968
-0.06269248
-0.063514093
-0.063178306
-0.061677685
-0.059077235
-0.055511701
-0.051172188
-0.046285669
-0.041090496
-0.035812248
-0.030645502
-0.025741974
-0.021209216
-0.017113058
-0.013485253
-0.01033571
-0.0076449875
-0.0054244898
-0.0036029028
-0.0022869639
-0.0012082781
-0.0040487015
-0.0031230033
-0.0023625483
-0.0017500187
-0.0012631454
-0.00089041405
-0.00059043765
-0.00043591972
-0.00018701266
-0.00033395427
0.00015999828
-0.00050018227
0.00067459559
-0.0051677772
-0.0065241824
-0.0081612033
-0.010123669
-0.01246461
-0.015243987
-0.01852022
-0.022311092
-0.026653897
-0.031121517
-0.035793047
-0.04065629
-0.045551857
-0.050405574
-0.055001369
-0.059115528
-0.062528682
-0.065042416
-0.066496014
-0.06678057
-0.065849357
-0.063728697
-0.06051935
-0.056388878
-0.051554975
-0.046261933
-0.040754887
-0.035256247
-0.029949926
-0.024972763
-0.020416802
-0.016332523
-0.012737853
-0.0096304653
-0.0069881334
-0.0048184084
-0.0030401517
-0.0017194034
-0.00063647524
-0.0051302171
-0.0040487016
-0.0031514706
-0.0024191439
-0.0018278057
-0.0013534667
-0.00098613644
-0.0006901038
-0.0005240564
-0.00027756511
-0.00037396128
7.7367889e-05
-0.00047039086
0.00048199521
-0.0064274831
-0.0079877825
-0.0098588547
-0.012088274
-0.01473304
-0.017854911
-0.021514009
-0.025724514
-0.0305175
-0.035382269
-0.040373956
-0.045505296
-0.050588974
-0.055532084
-0.060098094
-0.064052374
-0.067174543
-0.069275247
-0.070212879
-0.069904423
-0.068335727
-0.065569278
-0.061741748
-0.057052281
-0.051742374
-0.046069709
-0.040281768
-0.034593756
-0.029176317
-0.024150371
-0.019591583
-0.015533197
-0.011979589
-0.0089230069
-0.0063422337
-0.0042242407
-0.0024393645
-0.0011298666
-5.3432358e-05
-0.0063844674
-0.0051302169
-0.0040814485
-0.0032163756
-0.0025089718
-0.0019320587
-0.0014666443
-0.0011015104
-0.00080635949
-0.00061714587
-0.00037148929
-0.00041668852
-9.9871035e-06
-0.00044393178
0.00029405061
-0.0078778406
-0.0096623372
-0.011788859
-0.014308708
-0.017281252
-0.020770462
-0.02483662
-0.029489503
-0.034748886
-0.040014746
-0.045311294
-0.050682745
-0.055912213
-0.060889048
-0.06535835
-0.069078802
-0.071834048
-0.073449322
-0.073807094
-0.072854154
-0.070612171
-0.067181241
-0.06273343
-0.05749763
-0.051735684
-0.045714124
-0.03967817
-0.033832548
-0.028333012
-0.023282915
-0.018738516
-0.014715668
-0.011214528
-0.0082275935
-0.0057096771
-0.0035657689
-0.0018256645
-0.00052474799
0.00053942231
-0.0078287207
-0.0063844674
-0.005167777
-0.0041557601
-0.003319277
-0.0026295112
-0.0020627324
-0.0016032559
-0.0012362713
-0.0009298743
-0.00070844453
-0.00046965842
-0.00048469889
-0.00010364292
-0.00040664319
0.00011745345
-0.0095375915
-0.011566736
-0.013971009
-0.016804323
-0.02012862
-0.024008945
-0.028504572
-0.033617871
-0.039355675
-0.045022824
-0.050601104
-0.056176472
-0.061501337
-0.066448543
-0.070747873
-0.074156297
-0.076467018
-0.077525592
-0.077243109
-0.075599851
-0.072655823
-0.068549083
-0.06348628
-0.057723402
-0.051538298
-0.045201422
-0.038951938
-0.032981891
-0.027429519
-0.022376074
-0.01785775
-0.013885068
-0.0104625
-0.0075470996
-0.0049793353
-0.0029040725
-0.0011902081
9.1016153e-05
0.0011421469
-0.0094816273
-0.0078287207
-0.0064274826
-0.0052526034
-0.0042734327
-0.0034574607
-0.0027807569
-0.0022204344
-0.0017629042
-0.001379992
-0.0010544418
-0.00082034293
-0.00058361762
-0.00056083043
-0.00021140675
-0.00037210704
-4.0420314e-05
-0.011425552
-0.013720531
-0.01642456
-0.019594304
-0.023293421
-0.027586986
-0.032530518
-0.038119762
-0.044343376
-0.050405089
-0.056233879
-0.06196889
-0.067330778
-0.072177714
-0.076228259
-0.079243498
-0.081031777
-0.081465011
-0.08048638
-0.078113771
-0.074446376
-0.069660303
-0.063995256
-0.057730512
-0.051155005
-0.044539047
-0.038113085
-0.032052711
-0.026472197
-0.021429381
-0.016955764
-0.013068428
-0.0097268511
-0.0067236948
-0.0042587497
-0.0022130712
-0.0005435333
0.00071876993
0.0017539521
-0.011361977
-0.009481627
-0.00787784
-0.0065241818
-0.0053867531
-0.0044315918
-0.0036309177
-0.0029634324
-0.0024046379
-0.0019326867
-0.0015226031
-0.001187354
-0.00096912903
-0.00070203196
-0.00063819993
-0.00033044553
-0.00035143762
-0.0001727168
-0.013561114
-0.01614287
-0.019168514
-0.022696827
-0.026792386
-0.031518177
-0.036926808
-0.043002331
-0.049711788
-0.056154703
-0.062194494
-0.068037062
-0.073369647
-0.078038938
-0.081757653
-0.084296726
-0.085485956
-0.085229094
-0.083504621
-0.080370685
-0.075966513
-0.070505722
-0.064258059
-0.05752153
-0.05059222
-0.043737447
-0.0371739
-0.031051903
-0.025459667
-0.020450975
-0.016068109
-0.012269525
-0.0087922336
-0.0059246472
-0.0034983543
-0.0015109728
0.00011680091
0.0013566812
0.002374427
-0.013489092
-0.011361977
-0.009537591
-0.0079877818
-0.0066769153
-0.0055671869
-0.0046302286
-0.0038403897
-0.0031768508
-0.0026003613
-0.0021031833
-0.0016711056
-0.0013554136
-0.0011108942
-0.00083246694
-0.00072583704
-0.00045300761
-0.00034908246
-0.0002754926
-0.015963349
-0.018852602
-0.022220926
-0.02612864
-0.030639764
-0.035815074
-0.041701044
-0.048267516
-0.055455731
-0.062259078
-0.068462569
-0.07435255
-0.079581635
-0.083990682
-0.087291081
-0.089270746
-0.089787453
-0.088780294
-0.086267764
-0.082348255
-0.077202415
-0.071079127
-0.064274198
-0.057101076
-0.049860382
-0.042810108
-0.036141533
-0.029976727
-0.02440207
-0.019486554
-0.0151993
-0.011201449
-0.0078988614
-0.0050728409
-0.0027280916
-0.00079419607
0.00078797508
0.0020044735
0.0030029094
-0.015882001
-0.013489091
-0.011425551
-0.0096623362
-0.0081612019
-0.0068825062
-0.0057938631
-0.0048700568
-0.0040847596
-0.003403475
-0.0027960609
-0.0022725386
-0.0018657425
-0.0015250387
-0.0012553038
-0.00097929103
-0.00082646456
-0.00057695438
-0.00036676296
-0.00034834546
-0.018650993
-0.021867665
-0.025598484
-0.029904316
-0.03484817
-0.040486282
-0.046856981
-0.05391295
-0.061564365
-0.068700683
-0.075012272
-0.08088068
-0.08592633
-0.089987529
-0.092781147
-0.094119784
-0.093894619
-0.092083869
-0.088748367
-0.084027754
-0.078143409
-0.07137614
-0.064045643
-0.056479019
-0.048973889
-0.041763969
-0.035011217
-0.028839689
-0.023357253
-0.018541704
-0.013974925
-0.010193791
-0.0069366925
-0.0042129309
-0.001941999
-6.6298896e-05
0.0014699393
0.0026610136
0.0036388057
-0.0185594
-0.015882001
-0.013561114
-0.011566734
-0.0098588535
-0.008394772
-0.0071408852
-0.0060674744
-0.0051494479
-0.0043438905
-0.0036315558
-0.0029844337
-0.0024906832
-0.0020628341
-0.0017015529
-0.001417565
-0.0011391291
-0.00094051571
-0.00070140996
-0.00040429356
-0.00039434983
-0.021641893
-0.02520466
-0.029315905
-0.03403658
-0.039426924
-0.045536818
-0.052394333
-0.059930579
-0.068022492
-0.075456927
-0.081810204
-0.087582908
-0.092358821
-0.095980607
-0.098179158
-0.098798532
-0.097766862
-0.09510728
-0.090922213
-0.085393701
-0.078780527
-0.071395183
-0.063581031
-0.055670253
-0.047938773
-0.040591282
-0.033798188
-0.02771324
-0.022332255
-0.017135171
-0.01283234
-0.0090980809
-0.0059689683
-0.0033372917
-0.0011444233
0.00067266234
0.0021611572
0.0033254906
0.0042814708
-0.021539098
-0.018559399
-0.015963348
-0.013720529
-0.011788858
-0.010123667
-0.0086883586
-0.0074527354
-0.006386122
-0.0054459983
-0.0046074494
-0.0038433723
-0.0032292402
-0.0027136919
-0.0022641431
-0.0018995468
-0.0015975422
-0.001310418
-0.0010677182
-0.00082569518
-0.00045962086
-0.00041940214
-0.024952584
-0.028878342
-0.033385944
-0.038535142
-0.044381906
-0.050967879
-0.058307424
-0.066308173
-0.074811116
-0.082495681
-0.088820005
-0.094415957
-0.098829458
-0.10191901
-0.10343622
-0.10326229
-0.10136726
-0.097820743
-0.092768529
-0.086431923
-0.079107785
-0.07114297
-0.062895256
-0.054678934
-0.04674298
-0.039310378
-0.032592542
-0.026606335
-0.020715359
-0.015834522
-0.011578617
-0.008000554
-0.0049858788
-0.0024505469
-0.00033603916
0.0014209369
0.0028606523
0.0039968531
0.0049303402
-0.024837599
-0.021539098
-0.018650992
-0.016142869
-0.013971008
-0.012088272
-0.010456556
-0.0090425597
-0.007815822
-0.0067246837
-0.0057532009
-0.0048446032
-0.0041147888
-0.0034801038
-0.0029415537
-0.0024890372
-0.0021170777
-0.0017938851
-0.0014924053
-0.0012072796
-0.00094941458
-0.00052916363
-0.00043095018
-0.028597809
-0.032901437
-0.0378185
-0.043406428
-0.04971533
-0.056775782
-0.064586227
-0.073033893
-0.081898438
-0.089784071
-0.096000832
-0.10133024
-0.10528574
-0.10775104
-0.10850382
-0.10746767
-0.10466376
-0.10019917
-0.094267706
-0.087131174
-0.079129326
-0.070633898
-0.061989323
-0.05348691
-0.045408286
-0.038032724
-0.031405657
-0.024748029
-0.019231422
-0.014395165
-0.010328111
-0.0068885118
-0.003992418
-0.0015533144
0.00048165609
0.0021773337
0.0035670475
0.0046746734
0.0055845962
-0.028469631
-0.024837599
-0.021641892
-0.018852601
-0.016424558
-0.014308705
-0.012464607
-0.010858014
-0.0094547695
-0.0082022518
-0.0070761242
-0.0060209613
-0.0051436625
-0.0043925587
-0.0037344044
-0.0031959774
-0.0027361693
-0.0023517312
-0.0020050643
-0.0016838029
-0.0013577476
-0.0010724771
-0.00060847369
-0.00043641822
-0.032590251
-0.037283914
-0.042620312
-0.048653294
-0.055424907
-0.062952598
-0.071219671
-0.080080364
-0.089254371
-0.097285253
-0.1033035
-0.10827223
-0.11167414
-0.11342458
-0.11333487
-0.11137543
-0.10762488
-0.10221869
-0.095402919
-0.087492479
-0.078858609
-0.069864327
-0.06083659
-0.052119744
-0.044072061
-0.036772677
-0.029272146
-0.023053494
-0.017575855
-0.012965689
-0.0090643708
-0.0057673373
-0.0029890798
-0.00064720769
0.0013068155
0.0029402019
0.0042803354
0.0053577119
0.0062435194
-0.032447865
-0.028469631
-0.024952584
-0.021867663
-0.019168513
-0.016804321
-0.014733037
-0.012918142
-0.011325001
-0.0098939323
-0.0086044728
-0.0073725697
-0.0063472879
-0.0054491379
-0.0046728931
-0.004017441
-0.0034747648
-0.0030028893
-0.0026014842
-0.0022288338
-0.0018827503
-0.001517077
-0.0011949825
-0.00069302523
-0.00044179719
-0.036939895
-0.042032652
-0.047794585
-0.054274365
-0.061504256
-0.069487683
-0.078184904
-0.087414912
-0.096847588
-0.10495175
-0.11067276
-0.11518809
-0.11793986
-0.11888838
-0.11788372
-0.11495078
-0.11021816
-0.10385562
-0.096172126
-0.087528335
-0.078285693
-0.068795985
-0.059466824
-0.05074626
-0.042752236
-0.034327678
-0.027337635
-0.021147862
-0.015938792
-0.011524777
-0.0077932462
-0.0046372969
-0.0019775773
0.00026549629
0.0021379294
0.0037103977
0.0049982142
0.0060451819
0.0069063827
-0.036782292
-0.032447865
-0.028597808
-0.025204659
-0.022220924
-0.019594301
-0.017281249
-0.015243984
-0.013445189
-0.011823228
-0.010352275
-0.0089317429
-0.0077274087
-0.0066793795
-0.0057554375
-0.0049843421
-0.004326652
-0.0037744165
-0.0032867336
-0.0028640398
-0.0024627445
-0.0020871747
-0.0016827814
-0.0013170511
-0.00077889336
-0.00045038902
-0.041653667
-0.047151039
-0.053340515
-0.060264234
-0.067943228
-0.076362157
-0.085451072
-0.095016809
-0.10463567
-0.11272602
-0.1180558
-0.12202147
-0.12402794
-0.12409386
-0.12211048
-0.11815948
-0.11241333
-0.10510281
-0.096587505
-0.087221013
-0.077357053
-0.067462817
-0.05808745
-0.049388454
-0.039957446
-0.032122251
-0.025144618
-0.019271727
-0.014292619
-0.010078824
-0.0065146683
-0.003500131
-0.00096055888
0.0011831468
0.0029772948
0.0044846011
0.0057197777
0.0067359194
0.0075724893
-0.041479852
-0.036782291
-0.03259025
-0.028878341
-0.025598482
-0.022696824
-0.020128616
-0.017854907
-0.015837174
-0.014008309
-0.012344211
-0.010711733
-0.0093139618
-0.0080866253
-0.0070105633
-0.0060946413
-0.0053233941
-0.0046578947
-0.0040917551
-0.0035845181
-0.003136568
-0.0027041689
-0.0022949268
-0.0018521229
-0.0014386335
-0.00086273612
-0.00046397615
-0.046735027
-0.052638559