/*--------------------------------*- C++ -*----------------------------------*\
| =========                 |                                                 |
| \\      /  F ield         | OpenFOAM: The Open Source CFD Toolbox           |
|  \\    /   O peration     | Version:  5.0                                   |
|   \\  /    A nd           | Web:      www.OpenFOAM.org                      |
|    \\/     M anipulation  |                                                 |
\*---------------------------------------------------------------------------*/
FoamFile
{
    version     2.0;
    format      ascii;
    class       surfaceScalarField;
    location    "225";
    object      phi;
}
// * * * * * * * * * * * * * * * * * * * * * * * * * * * * * * * * * * * * * //

dimensions      [0 3 -1 0 0 0 0];

internalField   nonuniform List<scalar> 
18180
(
0.0013865354
-1.3961075
0.0026819071
-1.305911
0.0013426282
-1.3974501
0.0038862756
-1.2218556
0.002591368
-1.3071598
0.0012962588
-1.3987464
0.0050075296
-1.1433775
0.0037579312
-1.2230222
0.0025054567
-1.308369
0.0012541909
-1.4000006
0.0060452651
-1.0700879
0.0048445604
-1.1444641
0.0036365831
-1.2241533
0.0024256641
-1.3095404
0.001211211
-1.4012118
0.0070041362
-1.0015724
0.0058534512
-1.0710968
0.004691563
-1.1455191
0.0035249973
-1.2252527
0.0023458016
-1.310675
0.0011679692
-1.4023798
0.0078850702
-0.93748699
0.0067871837
-1.0025061
0.0056740143
-1.0720793
0.0045545893
-1.1465487
0.0034137696
-1.2263206
0.0022653057
-1.3117724
0.0011225209
-1.4035023
0.0086910729
-0.8775125
0.0076474211
-0.93834722
0.0065855815
-1.0034177
0.0055179163
-1.0730426
0.0044184418
-1.1475534
0.0033025329
-1.2273579
0.0021810621
-1.3128309
0.0010744528
-1.4045767
0.009424569
-0.82136528
0.0084362535
-0.87830133
0.0074281223
-0.93918976
0.0064165589
-1.0043163
0.0053633489
-1.0739875
0.0042841059
-1.1485349
0.003186317
-1.2283631
0.0020917384
-1.3138482
0.0010231122
-1.4055999
0.010088869
-0.76878375
0.0091558176
-0.82208484
0.008203193
-0.8790764
0.0072519303
-0.94002513
0.0062498684
-1.0052028
0.0052135292
-1.0749169
0.0041437578
-1.1494924
0.0030630999
-1.2293345
0.0019960859
-1.3148212
0.00096773934
-1.4065676
0.01068784
-0.71953364
0.0098086046
-0.76943654
0.0089127014
-0.82279435
0.0080251231
-0.8798496
0.0070789827
-0.94085425
0.0060921751
-1.0060815
0.0050569116
-1.0758301
0.003995252
-1.1504245
0.0029302748
-1.2302687
0.0018927203
-1.3157461
0.00090816059
-1.4074758
0.011226534
-0.67339541
0.010397439
-0.72012248
0.0095588447
-0.77008268
0.0087374322
-0.82350666
0.0078512178
-0.88062183
0.0069205605
-0.94168263
0.0059270725
-1.0069516
0.0048919204
-1.0767267
0.003834649
-1.1513289
0.002786353
-1.2311623
0.0017811591
-1.3166191
0.00084427854
-1.40832
0.011711878
-0.6301646
0.010925804
-0.67392378
0.010144335
-0.72070797
0.0093903939
-0.77073565
0.0085672118
-0.82422266
0.007698597
-0.88139987
0.0067542579
-0.94250982
0.005754324
-1.007814
0.0047126019
-1.0776047
0.003659858
-1.1522024
0.0026308181
-1.232012
0.0016610925
-1.317436
0.00077624492
-1.4090963
0.012153785
-0.58964161
0.011398541
-0.63063733
0.010672664
-0.6744521
0.0099859779
-0.72130355
0.0092278159
-0.77139625
0.008426186
-0.82495024
0.0075375781
-0.88218319
0.006582007
-0.9433375
0.0055652183
-1.0086666
0.0045162957
-1.0784611
0.0034695292
-1.1530411
0.0024625382
-1.2328134
0.0015327626
-1.3181925
0.00070436205
-1.4098006
0.012566181
-0.55162067
0.011823356
-0.59006643
0.01114866
-0.63111333
0.010526775
-0.6749929
0.0098343547
-0.72191009
0.0091033743
-0.77207344
0.0082761675
-0.82568883
0.0073736696
-0.88297485
0.0063916381
-0.94416392
0.0053573353
-1.0095077
0.0043013439
-1.0792929
0.0032623465
-1.1538409
0.002281893
-1.2335625
0.0013966624
-1.3188848
0.00062908058
-1.4104297
0.012967574
-0.51587968
0.01221301
-0.55201032
0.011579624
-0.59049739
0.011016468
-0.63160302
0.010388795
-0.67554734
0.0097306152
-0.72253733
0.0089691876
-0.77276646
0.0081275555
-0.82644272
0.0071899653
-0.88377318
0.0061816769
-0.94498826
0.0051275821
-1.0103339
0.0040653583
-1.080096
0.003039073
-1.1545981
0.0020893754
-1.2342552
0.0012536075
-1.3195093
0.00055096771
-1.4109807
0.01337905
-0.48217206
0.01258707
-0.51625374
0.011976939
-0.55240764
0.011460896
-0.59094182
0.010894186
-0.63210841
0.010308901
-0.67612563
0.0096161975
-0.72318434
0.0088418754
-0.77348078
0.007957573
-0.82721033
0.0069867498
-0.88457825
0.0059466666
-0.94580735
0.0048731421
-1.0111417
0.00380926
-1.0808661
0.0027992812
-1.155308
0.0018861247
-1.2348878
0.0011046301
-1.320063
0.00047068707
-1.4114514
0.01382057
-0.45022738
0.012971765
-0.48255675
0.01235741
-0.51663421
0.011869818
-0.55281656
0.011355564
-0.5914032
0.010840133
-0.63263964
0.010217326
-0.67672676
0.0095151737
-0.72385764
0.0086917288
-0.77421493
0.0077691482
-0.82799273
0.0067555876
-0.88538717
0.0056840035
-0.94661821
0.0045945312
-1.011927
0.0035318957
-1.0815988
0.0025449398
-1.1559668
0.0016734664
-1.2354566
0.00095096296
-1.3205432
0.00038895659
-1.4118403
0.014305885
-0.4197735
0.013397076
-0.45065269
0.012743095
-0.48294244
0.012258755
-0.51702315
0.011781487
-0.55324248
0.011327925
-0.59189099
0.010773633
-0.63319595
0.010146512
-0.67735809
0.0093899715
-0.72455588
0.0085252024
-0.77497099
0.0075501815
-0.82878732
0.0064944847
-0.88619765
0.0053930384
-0.94741672
0.0042899567
-1.012685
0.0032358295
-1.0822896
0.0022769934
-1.1565703
0.0014531507
-1.2359588
0.00079395922
-1.3209482
0.0003065115
-1.4121468
0.014837153
-0.39056709
0.01389004
-0.42026647
0.013159102
-0.4510687
0.012649593
-0.48333328
0.01218574
-0.5174274
0.011779107
-0.55369366
0.011287827
-0.59240518
0.010735793
-0.63378523
0.010050357
-0.67801848
0.0092513939
-0.72528207
0.008325883
-0.77574669
0.0072997475
-0.82959258
0.0062010979
-0.88700571
0.0050717295
-0.94819849
0.0039621822
-1.0134114
0.0029213648
-1.082934
0.0019980557
-1.1571153
0.0012270626
-1.2363919
0.00063505536
-1.3212768
0.00022411233
-1.412371
0.015402053
-0.3624267
0.014466644
-0.39114369
0.013627939
-0.4207353
0.013069019
-0.45148813
0.012588069
-0.4837356
0.012205654
-0.51785395
0.011765606
-0.55417144
0.011284387
-0.59295378
0.010671778
-0.63440665
0.0099446763
-0.67871176
0.0090781614
-0.72603435
0.0080943931
-0.77654133
0.0070133355
-0.83040482
0.0058733608
-0.88780734
0.0047223976
-0.94895871
0.0036109655
-1.014101
0.0025920738
-1.083528
0.001709989
-1.1575982
0.00099733163
-1.2367542
0.00047575088
-1.3215284
0.00014261006
-1.4125136
0.015974433
-0.33525687
0.015125204
-0.36308526
0.014162665
-0.39167842
0.013543012
-0.4212093
0.013013167
-0.45191323
0.012625946
-0.4841559
0.01221748
-0.51830582
0.011796386
-0.55468344
0.011254531
-0.59353653
0.010602767
-0.63506474
0.0098029138
-0.67943651
0.0088729159
-0.72681287
0.0078236289
-0.77735163
0.0066890565
-0.83122052
0.0055126921
-0.88859764
0.0043444754
-0.94969222
0.0032403478
-1.0147493
0.0022494986
-1.0840675
0.0014157695
-1.1580166
0.00076615509
-1.2370446
0.0003175999
-1.3217034
6.3012595e-05
-1.4125766
0.016518342
-0.3090534
0.015843815
-0.33597548
0.014761192
-0.36368378
0.014089325
-0.39222473
0.01348601
-0.42168214
0.013064334
-0.45235161
0.012660163
-0.48459858
0.012280447
-0.51878988
0.011801445
-0.55523035
0.011224674
-0.59415844
0.010496763
-0.63575859
0.0096301274
-0.68019373
0.0086255874
-0.72761483
0.0075120964
-0.77817467
0.0063270598
-0.83203488
0.0051182919
-0.88937145
0.0039419716
-0.95039384
0.0028516291
-1.0153514
0.0018976072
-1.0845494
0.0011178901
-1.1583684
0.00053580628
-1.2372628
0.000162299
-1.3218027
-1.3264293e-05
-1.4125633
0.01699409
-0.28388927
0.016582743
-0.30979232
0.015404037
-0.33661832
0.014710585
-0.36430504
0.014024964
-0.39276369
0.013546906
-0.42216471
0.013116566
-0.45280802
0.012751512
-0.48506964
0.012319628
-0.51930806
0.011811723
-0.5558174
0.011157555
-0.59481923
0.010361505
-0.63648997
0.0094130135
-0.68098115
0.0083352975
-0.72843803
0.0071583553
-0.77900596
0.0059263523
-0.83284294
0.0046937589
-0.89012324
0.0035160386
-0.95105825
0.0024493859
-1.0159032
0.0015388567
-1.0849703
0.00081965168
-1.1586522
0.00030831923
-1.2374088
1.1638847e-05
-1.3218276
-8.6662215e-05
-1.4124767
0.01736461
-0.25988793
0.017290761
-0.28459729
0.016056457
-0.31044475
0.015390754
-0.33729849
0.014634843
-0.36491492
0.014094489
-0.39331127
0.013612216
-0.42266036
0.013231266
-0.45328777
0.012822315
-0.48557233
0.012369259
-0.5198656
0.011785284
-0.55644513
0.011063636
-0.59552136
0.010180305
-0.63725726
0.009151532
-0.68179739
0.0079987526
-0.72927843
0.0067612623
-0.77984087
0.0054898197
-0.833639
0.0042400873
-0.89084729
0.0030714887
-0.95168035
0.0020361331
-1.0164005
0.0011772508
-1.0853279
0.00052325485
-1.1588671
8.6004341e-05
-1.2374832
-0.00013452445
-1.3217797
-0.00015983143
-1.4123168
0.017600703
-0.23719071
0.017913298
-0.26051047
0.016674182
-0.28521502
0.016096302
-0.31115029
0.015302662
-0.33796631
0.014715049
-0.36553548
0.014168746
-0.3938678
0.01374515
-0.42317424
0.01332969
-0.45379515
0.012908643
-0.48611172
0.012383695
-0.52046401
0.011735075
-0.55711657
0.010922869
-0.59626393
0.0099541252
-0.63805985
0.008840309
-0.68263894
0.0076147144
-0.73013188
0.0063227227
-0.78067378
0.0050182352
-0.83441715
0.0037620298
-0.89153783
0.0026109423
-0.95225516
0.0016165104
-1.0168397
0.00081552296
-1.0856202
0.00023161782
-1.1590127
-0.00013045824
-1.2374872
-0.00027553327
-1.321664
-0.00022812499
-1.4120887
0.017684354
-0.21592639
0.018400368
-0.23767778
0.017210718
-0.26104701
0.016781642
-0.28590036
0.015997839
-0.31184547
0.015398572
-0.33864983
0.014796203
-0.36616294
0.01431617
-0.39443882
0.01386651
-0.42371106
0.013448432
-0.45433494
0.012962317
-0.48669034
0.012377858
-0.52110679
0.011637919
-0.55783162
0.010737312
-0.59704711
0.009675391
-0.63889494
0.008478085
-0.68350231
0.0071838747
-0.73099303
0.0058432196
-0.78149876
0.0045160366
-0.83517116
0.0032622565
-0.89218914
0.0021394763
-0.95277813
0.0011936669
-1.0172179
0.00045726226
-1.0858459
-5.339616e-05
-1.1590898
-0.00033908598
-1.2374237
-0.00040977405
-1.3214824
-0.00029272888
-1.411796
0.0176093
-0.19619055
0.018712985
-0.21623901
0.017624027
-0.23809109
0.017396948
-0.26166231
0.016676604
-0.28657912
0.016116527
-0.31256343
0.015487236
-0.33934087
0.01495696
-0.36680373
0.014456354
-0.39502867
0.014012627
-0.42427526
0.013537955
-0.45491057
0.012999583
-0.48731206
0.012325876
-0.52179475
0.011496937
-0.55859125
0.010497133
-0.59786885
0.0093428814
-0.63975973
0.008064148
-0.68438259
0.0067063676
-0.73185618
0.0053266355
-0.78230936
0.0039858329
-0.83589473
0.0027460761
-0.89279574
0.0016606258
-0.95324508
0.00077192829
-1.0175325
0.00010515015
-1.0860044
-0.00032932906
-1.1590996
-0.00053854324
-1.2372949
-0.00053660748
-1.3212385
-0.00035248678
-1.4114435
0.017376708
-0.17803024
0.018827704
-0.19630527
0.017881668
-0.21649665
0.017895519
-0.23858966
0.017289239
-0.26227495
0.016826004
-0.2872886
0.016215609
-0.3132918
0.015663195
-0.3400471
0.015113651
-0.36746103
0.014625369
-0.39564141
0.014133526
-0.42487083
0.013615167
-0.45552616
0.012992451
-0.48797864
0.012231787
-0.5225296
0.011300103
-0.55939422
0.010201209
-0.59872718
0.0089543368
-0.64064992
0.007598237
-0.68527446
0.0061852984
-0.73271484
0.0047753901
-0.78309892
0.0034329575
-0.83658162
0.002217328
-0.89335245
0.0011793318
-0.95365249
0.00035461377
-1.017782
-0.00023771138
-1.086096
-0.00059431256
-1.1590438
-0.0007274446
-1.2371041
-0.00065503779
-1.320936
-0.00040769666
-1.4110358
0.016999638
-0.16145913
0.01874123
-0.17794377
0.017964565
-0.19638816
0.018239491
-0.21684062
0.017788681
-0.2390891
0.017476882
-0.26292583
0.016939725
-0.28801271
0.016411127
-0.31403973
0.015836516
-0.34076997
0.015302944
-0.3681386
0.014773284
-0.39628116
0.014246282
-0.42550194
0.013650611
-0.45618432
0.012945635
-0.48869249
0.012081534
-0.52331103
0.011046412
-0.56023942
0.0098456465
-0.59961849
0.008509076
-0.64156076
0.0070824843
-0.68617164
0.0056227665
-0.73356222
0.0041946255
-0.78386058
0.0028614303
-0.83722572
0.001681432
-0.89385455
0.00069950995
-0.95399738
-5.4449588e-05
-1.0179652
-0.00056884446
-1.0861215
-0.00084647551
-1.1589248
-0.0009047373
-1.2368544
-0.00076474613
-1.3205789
-0.0004580162
-1.4105778
0.014832102
-0.17163923
0.01845498
-0.16117288
0.017869668
-0.17784887
0.018401794
-0.19655047
0.018136736
-0.21718868
0.018019971
-0.23963219
0.017609668
-0.26359577
0.01716024
-0.28876183
0.016603471
-0.31480669
0.016046038
-0.34151306
0.015474935
-0.36884025
0.014917115
-0.396952
0.014320567
-0.4261719
0.013649404
-0.45688809
0.012843319
-0.48945427
0.011874207
-0.52413883
0.0107303
-0.56112407
0.0094293245
-0.60053874
0.0080080917
-0.64248637
0.0065185467
-0.68706742
0.0050235076
-0.7343911
0.0035883936
-0.78458755
0.0022769924
-0.83782128
0.0011428336
-0.89429787
0.00022569119
-0.95427752
-0.00045213901
-1.018082
-0.00088578001
-1.0860822
-0.0010843584
-1.1587451
-0.0010696083
-1.2365495
-0.00086529424
-1.3201716
-0.00050355204
-1.4100742
0.012948117
-0.16591725
0.016428046
-0.16961229
0.017597837
-0.16090105
0.018364537
-0.17781162
0.018308181
-0.19672191
0.018413591
-0.2175823
0.01817495
-0.24019747
0.017859991
-0.26429552
0.017375404
-0.28953376
0.016835521
-0.31559617
0.016241431
-0.34227955
0.015646665
-0.3695698
0.015026127
-0.39765756
0.014361676
-0.42688417
0.013594313
-0.45763908
0.01268462
-0.49026468
0.011602605
-0.52501113
0.010350202
-0.56204495
0.0089519716
-0.60148262
0.0074524936
-0.64342031
0.0059105478
-0.68795446
0.0043914427
-0.73519415
0.002962576
-0.78527313
0.0016845197
-0.83836296
0.00060671404
-0.89467889
-0.0002383274
-0.95449134
-0.00083530638
-1.0181324
-0.0011865498
-1.08598
-0.0013067392
-1.158508
-0.0012214783
-1.2361933
-0.00095660616
-1.3197186
-0.00054426372
-1.40953
0.011258017
-0.16017488
0.014640093
-0.16412929
0.015647522
-0.16766198
0.018132275
-0.16066879
0.018291947
-0.17779538
0.018627696
-0.19693602
0.018592107
-0.21799945
0.018458332
-0.24079581
0.018101948
-0.26502206
0.01763361
-0.29033185
0.017055909
-0.31641065
0.0164401
-0.34307299
0.015787258
-0.37033093
0.015105659
-0.39840154
0.014351331
-0.42764119
0.013484404
-0.45843887
0.012460802
-0.49112288
0.011264703
-0.52592563
0.0099044961
-0.56299747
0.0084140605
-0.60244419
0.0068456029
-0.64435537
0.0052621105
-0.68882513
0.0037323965
-0.73596397
0.0023223486
-0.78591096
0.0010897525
-0.838846
7.7545499e-05
-0.89499477
-0.00068866637
-0.95463798
-0.0012013673
-1.0181176
-0.0014694232
-1.0858173
-0.0015127282
-1.1582168
-0.0013600198
-1.2357899
-0.0010386159
-1.3192242
-0.00058026797
-1.4089497
0.009679118
-0.15458757
0.012981956
-0.15851674
0.013930175
-0.16241195
0.016258713
-0.16578842
0.018087087
-0.16046393
0.018645165
-0.17781285
0.018829871
-0.19717378
0.018909397
-0.21845052
0.018729974
-0.24142384
0.018389898
-0.26577835
0.017882041
-0.29115798
0.017282826
-0.31725337
0.01661112
-0.34389685
0.01590209
-0.37112736
0.015136738
-0.39918695
0.014288471
-0.42844526
0.013309561
-0.45928763
0.012169361
-0.49202754
0.010857489
-0.52687863
0.0093929459
-0.56397636
0.0078179486
-0.60341653
0.0061905852
-0.64528384
0.0045787972
-0.68967153
0.0030516872
-0.73669331
0.0016738833
-0.78649509
0.00049779479
-0.83926625
-0.00044005
-0.89524338
-0.0011220461
-0.9547173
-0.0015479871
-1.018039
-0.0017330944
-1.0855969
-0.001701717
-1.1578751
-0.0014850876
-1.2353434
-0.0011114524
-1.318693
-0.00061167306
-1.408338
0.0081434391
-0.14934037
0.011360957
-0.15296657
0.012343745
-0.15693031
0.014593408
-0.16074664
0.01628786
-0.16398919
0.018464674
-0.16028344
0.018871557
-0.17785454
0.019178893
-0.19744328
0.019211742
-0.21893229
0.019050004
-0.24208395
0.018669608
-0.26656592
0.01813995
-0.2920151
0.017485307
-0.31812756
0.016759997
-0.34475476
0.015971777
-0.3719624
0.015118139
-0.40001662
0.014161801
-0.4292975
0.013066785
-0.46018505
0.011805898
-0.49297595
0.010379962
-0.52786564
0.0088168125
-0.56497522
0.0071661957
-0.60439214
0.0054925365
-0.64619758
0.0038658926
-0.69048574
0.00235576
-0.73737519
0.0010228308
-0.78702013
-8.600273e-05
-0.8396203
-0.00094204325
-0.89542339
-0.0015354331
-0.95472985
-0.0018733218
-1.0178988
-0.001976573
-1.0853221
-0.0018733703
-1.1574868
-0.001596742
-1.2348581
-0.0011752991
-1.3181294
-0.00063865012
-1.4076994
0.0066007166
-0.14461804
0.0097041377
-0.14768355
0.010798701
-0.15142153
0.013029849
-0.15536675
0.014679437
-0.15913822
0.016724389
-0.16224891
0.018713676
-0.16012555
0.01924674
-0.17792238
0.019510886
-0.19774242
0.019564123
-0.21944641
0.019363191
-0.24277753
0.018961379
-0.26738735
0.018376393
-0.29290619
0.017669126
-0.31903669
0.016867161
-0.34565014
0.01599494
-0.3728392
0.0150376
-0.40089241
0.013967825
-0.43019854
0.012750334
-0.46112948
0.011368607
-0.49396459
0.0098321855
-0.52888101
0.0081779186
-0.56598695
0.006463239
-0.60536284
0.0047565229
-0.64708821
0.0031299314
-0.69125991
0.0016506897
-0.73800305
0.00037521157
-0.78748134
-0.00065685374
-0.83990549
-0.0014246279
-0.89553419
-0.0019263348
-0.95467684
-0.0021758868
-1.0176995
-0.0021992275
-1.0849962
-0.0020276077
-1.1570559
-0.0016951855
-1.2343383
-0.0012304471
-1.3175376
-0.00066139107
-1.407038
0.0050199866
-0.14059543
0.0079619733
-0.14287587
0.0092234185
-0.14610827
0.011475184
-0.14986686
0.013156952
-0.15384426
0.015153525
-0.15756735
0.017032422
-0.16056765
0.01910802
-0.15998683
0.019605523
-0.17801702
0.019893492
-0.19807179
0.019911117
-0.21999433
0.019690549
-0.2435067
0.019234477
-0.26824543
0.018597518
-0.29383458
0.017814723
-0.31998425
0.016931133
-0.34658633
0.015958552
-0.37376016
0.014891149
-0.40181574
0.013699557
-0.43114776
0.012357587
-0.46211846
0.010856291
-0.4949887
0.0092151347
-0.52991823
0.0074798698
-0.56700358
0.005713742
-0.60632006
0.0039889701
-0.64794725
0.0023772583
-0.69198648
0.00094306254
-0.7385709
-0.00026345184
-0.78787474
-0.0012101342
-0.84011998
-0.0018845674
-0.89557596
-0.0022926521
-0.95456007
-0.0024546304
-1.0174441
-0.0024007372
-1.0846231
-0.0021645646
-1.1565865
-0.0017807667
-1.2337879
-0.0012772442
-1.3169218
-0.0006801164
-1.4063579
0.0033888323
-0.13742702
0.0061103957
-0.13874385
0.007569072
-0.14122153
0.0098562636
-0.14448934
0.011627578
-0.14833749
0.013646343
-0.15233708
0.015505382
-0.15604031
0.017474982
-0.15893461
0.019488516
-0.15986983
0.020013942
-0.17813747
0.020272436
-0.19843311
0.020273799
-0.22057758
0.020001892
-0.24427411
0.019495426
-0.26914334
0.018783994
-0.29480385
0.017920604
-0.32097372
0.016938298
-0.34756608
0.015858212
-0.37472722
0.014670681
-0.40278686
0.01335356
-0.43214373
0.01188606
-0.46314823
0.01026899
-0.49604255
0.0085314328
-0.53096979
0.0067267503
-0.56801658
0.004923817
-0.60725491
0.003196314
-0.64876631
0.0016148838
-0.6926583
0.00023907826
-0.73907343
-0.00088771717
-0.78819716
-0.001741789
-0.84026276
-0.0023190368
-0.89554957
-0.0026327859
-0.95438192
-0.0027088749
-1.017136
-0.0025810724
-1.0842066
-0.0022845742
-1.1560827
-0.0018539414
-1.2332112
-0.0013160981
-1.3162858
-0.00069506312
-1.4056628
0.0017106496
-0.13523768
0.0041495797
-0.1354662
0.0058108688
-0.13698565
0.0081243139
-0.13948958
0.010017714
-0.14287948
0.012109604
-0.14680075
0.014024825
-0.15085653
0.015977998
-0.15454333
0.017904995
-0.15735109
0.019916888
-0.15977277
0.020420878
-0.17828591
0.020667897
-0.19882721
0.020623004
-0.22119869
0.02030397
-0.24508266
0.019725411
-0.27008476
0.01893439
-0.29581764
0.017972723
-0.32200815
0.016883893
-0.34859176
0.015684829
-0.37574137
0.014371974
-0.40380527
0.012926085
-0.43318376
0.011334796
-0.46421404
0.0096082226
-0.49711934
0.0077844226
-0.53202746
0.0059241589
-0.56901693
0.0040997977
-0.60815839
0.0023858193
-0.64953724
0.00084957672
-0.6932688
-0.00045504848
-0.7395061
-0.0014926728
-0.78844628
-0.0022481766
-0.84033362
-0.0027257637
-0.8954566
-0.0029455717
-0.95414522
-0.0029383093
-1.0167787
-0.0027404612
-1.0837507
-0.0023881328
-1.1555485
-0.0019152603
-1.2326121
-0.0013474539
-1.3156334
-0.00070648105
-1.4049563
-0.13411514
1.3064595e-08
0.0021006421
-0.13318875
0.0039479365
-0.13360327
0.0062574066
-0.13511874
0.0082787019
-0.13775057
0.010469445
-0.14123932
0.012493836
-0.14526976
0.014508607
-0.14938714
0.01644113
-0.15307947
0.018376314
-0.15581052
0.020345876
-0.15969777
0.02084446
-0.17846248
0.021052332
-0.19925654
0.020965372
-0.22186009
0.020578862
-0.24593611
0.019923095
-0.27107346
0.019034406
-0.29687932
0.017966062
-0.32309032
0.016757976
-0.34966491
0.015433442
-0.37680284
0.013990063
-0.40486925
0.012415152
-0.43426411
0.010704124
-0.46530994
0.0088764479
-0.49821137
0.0069790016
-0.53308231
0.0050781287
-0.56999526
0.0032490114
-0.60902159
0.0015646755
-0.65025234
8.8254924e-05
-0.6938121
-0.0011335485
-0.73986522
-0.0020737943
-0.78862066
-0.0027262375
-0.84033315
-0.003102964
-0.8952992
-0.0032302879
-0.95385324
-0.0031429489
-1.0163762
-0.0028793587
-1.0832595
-0.0024758751
-1.1549879
-0.0019653409
-1.2319942
-0.0013717872
-1.3149681
-0.00071462678
-1.4042417
-0.13201451
1.0251769e-08
-0.13411514
-0.0017106236
0.001999671
-0.13124048
0.0042599319
-0.13160579
0.0063895435
-0.13322959
0.0086770076
-0.13595813
0.010836643
-0.13958213
0.012968508
-0.14372966
0.014985231
-0.14793124
0.016938005
-0.15164116
0.018848297
-0.15431294
0.02079137
-0.15964468
0.021259494
-0.17866964
0.02143171
-0.19972287
0.021284335
-0.22256557
0.020825271
-0.24683828
0.020074143
-0.2721132
0.019078899
-0.29799216
0.017889963
-0.3242223
0.016554913
-0.35078638
0.015097946
-0.37791072
0.013521953
-0.40597605
0.011819851
-0.43537984
0.0099955063
-0.466429
0.0080776919
-0.49931006
0.0061207047
-0.53412488
0.0041958446
-0.57094209
0.0023788942
-0.6098358
0.0007403844
-0.65090447
-0.00066251656
-0.69428313
-0.001790986
-0.74014803
-0.0026271451
-0.78871975
-0.0031734404
-0.84026267
-0.003449368
-0.89508012
-0.0034866124
-0.95350958
-0.0033231071
-1.0159325
-0.0029984122
-1.0827369
-0.0025485423
-1.1544047
-0.0020048552
-1.2313611
-0.0013895904
-1.3142931
-0.00071975925
-1.4035219
-0.13001484
9.277482e-09
-0.1320145
-0.0021006218
-0.13523768
-0.0033888065
0.0021593462
-0.12913989
0.0043565513
-0.1295728
0.0067124137
-0.13126499
0.0090042681
-0.13412575
0.011280114
-0.13789374
0.013437255
-0.14218169
0.015489554
-0.14648279
0.017436451
-0.15022931
0.019333762
-0.15285533
0.021230798
-0.15961598
0.021670451
-0.17890838
0.021791335
-0.20022987
0.021578488
-0.22331878
0.021029082
-0.24779322
0.020173425
-0.27320772
0.019056658
-0.29915885
0.017738207
-0.3254056
0.016267537
-0.35195597
0.014674351
-0.37906312
0.012965481
-0.40712168
0.011140571
-0.4365249
0.0092119544
-0.46756326
0.0072168064
-0.50040616
0.0052163681
-0.53514541
0.0032847961
-0.57184799
0.001497371
-0.61059279
-7.9770118e-05
-0.65148722
-0.0013963977
-0.69467772
-0.0024224884
-0.74035269
-0.003149335
-0.78874386
-0.0035878298
-0.84012421
-0.0037641791
-0.89480256
-0.003714599
-0.95311809
-0.003479354
-1.0154515
-0.0030984247
-1.0821871
-0.0026069617
-1.1538026
-0.0020345076
-1.2307162
-0.0014013642
-1.3136115
-0.0007221358
-1.4027998
-0.12785551
9.194531e-09
-0.13001484
-0.0019996526
-0.13318874
-0.0041495597
-0.13742701
-0.0050199614
0.0022103737
-0.12699372
0.0045849199
-0.12744531
0.0069782657
-0.12923899
0.0093937901
-0.13223943
0.011718444
-0.13617492
0.013928871
-0.140621
0.015995674
-0.14504201
0.017945163
-0.14884071
0.019814182
-0.15143872
0.021666525
-0.15961206
0.022065001
-0.17918204
0.022129471
-0.20078086
0.02183421
-0.22412391
0.021185291
-0.24880509
0.020209384
-0.27436045
0.018961011
-0.30038166
0.017502662
-0.32664072
0.015890899
-0.35317252
0.014159254
-0.38025689
0.012319919
-0.40830103
0.0103792
-0.43769215
0.0083574724
-0.46870393
0.0063000763
-0.50148987
0.0042733277
-0.53613394
0.0023531461
-0.57270377
0.00061232066
-0.61128488
-0.00088861942
-0.651995
-0.0021075589
-0.69499265
-0.0030237207
-0.7404783
-0.0036375935
-0.78869409
-0.0039679914
-0.8399204
-0.0040470579
-0.8944701
-0.0039146324
-0.95268281
-0.0036124758
-1.0149375
-0.0031803277
-1.0816137
-0.0026520183
-1.1531851
-0.0020550232
-1.2300625
-0.0014076093
-1.312926
-0.0007220087
-1.4020778
-0.12564514
9.4480435e-09
-0.1278555
-0.002159328
-0.13124047
-0.0039479185
-0.13546619
-0.0061103764
-0.14059542
-0.0066006918
0.0023294999
-0.1247383
0.0047716833
-0.12523872
0.0072925633
-0.12713776
0.0097791738
-0.13030016
0.012175586
-0.13442164
0.014422049
-0.13904738
0.016509515
-0.14360636
0.018449324
-0.14747585
0.020289256
-0.15006145
0.022088543
-0.1596356
0.022440887
-0.17949346
0.022433263
-0.20137991
0.02204668
-0.2249853
0.021282248
-0.24987795
0.020175065
-0.2755745
0.018782994
-0.30166199
0.017177474
-0.3279273
0.015420379
-0.35443364
0.013550793
-0.38148776
0.011585964
-0.4095078
0.0095387645
-0.43887344
0.0074376083
-0.46984146
0.0053344751
-0.50255102
0.003299783
-0.53708058
0.0014092018
-0.57350065
-0.00026835486
-0.61190515
-0.0016793948
-0.65242316
-0.0027906707
-0.6952257
-0.003590988
-0.74052491
-0.0040897481
-0.78857233
-0.0043130484
-0.83965441
-0.0042980769
-0.89408665
-0.0040873842
-0.9522079
-0.0037234416
-1.0143944
-0.003245146
-1.0810206
-0.002684637
-1.1525555
-0.0020671326
-1.229403
-0.0014088191
-1.3122392
-0.00071962301
-1.4013582
-0.12331565
1.0058647e-08
-0.12564514
-0.0022103551
-0.12913989
-0.0042599141
-0.13360326
-0.0058108513
-0.13874384
-0.0079619546
-0.14461802
-0.0081434149
0.0024251804
-0.12239179
0.0049923936
-0.12293855
0.0076035504
-0.12496214
0.010179399
-0.12830397
0.012633962
-0.13263355
0.01492109
-0.13745895
0.017019054
-0.14217609
0.018947352
-0.14613395
0.020751051
-0.14872395
0.022494273
-0.15968899
0.022786244
-0.17984644
0.022698039
-0.20203127
0.022204419
-0.22590747
0.021312903
-0.25101579
0.020060869
-0.27685238
0.018515947
-0.30300046
0.016756839
-0.32926376
0.014852963
-0.35573581
0.012848426
-0.38275023
0.010765568
-0.4107346
0.0086239174
-0.44005975
0.0064587736
-0.47096576
0.0043280272
-0.50357926
0.002304278
-0.53797565
0.00046146973
-0.57423047
-0.0011370256
-0.61244752
-0.0024457595
-0.65276807
-0.0034410331
-0.69537565
-0.0041212314
-0.74049342
-0.0045042365
-0.78838115
-0.0046226196
-0.83932986
-0.0045176768
-0.89365636
-0.0042337761
-0.95169757
-0.0038133603
-1.0138262
-0.0032939732
-1.0804112
-0.002705762
-1.1519169
-0.002071562
-1.2287403
-0.0014054752
-1.3115534
-0.00071521376
-1.4006429
-0.12089048
1.0793943e-08
-0.12331565
-0.0023294799
-0.12699371
-0.0043565331
-0.13160578
-0.0062573897
-0.13698564
-0.0075690553
-0.14287586
-0.0097041198
-0.14934035
-0.0096790942
0.0025389728
-0.11993837
0.0052108234
-0.12054583
0.0079257408
-0.12270848
0.010580757
-0.12625077
0.013096775
-0.13080924
0.015416044
-0.13585594
0.017522375
-0.14075111
0.01943295
-0.14481585
0.021197504
-0.14742719
0.022872813
-0.15977555
0.023096443
-0.18024485
0.022912754
-0.2027396
0.022300448
-0.22689502
0.021267275
-0.2522222
0.019859504
-0.27819594
0.018152964
-0.30439659
0.016236586
-0.33064738
0.014186832
-0.35707422
0.012052961
-0.38403762
0.0098623644
-0.41197305
0.0076403325
-0.44124131
0.0054286079
-0.47206634
0.0032893074
-0.50456429
0.0012957495
-0.53880993
-0.00048167537
-0.57488582
-0.0019863804
-0.61290689
-0.0031819686
-0.65302714
-0.0040545953
-0.69544229
-0.0046120601
-0.7403856
-0.0048800733
-0.78812369
-0.0048967798
-0.83895076
-0.0047066256
-0.89318351
-0.0043549289
-0.951156
-0.0038834506
-1.0132367
-0.0033279444
-1.0797891
-0.0027163417
-1.1512721
-0.0020690239
-1.2280767
-0.0013980406
-1.3108706
-0.00070900402
-1.3999339
-0.11835152
1.1620857e-08
-0.12089048
-0.0024251589
-0.12473829
-0.0045849006
-0.12957279
-0.0063895263
-0.13511873
-0.0081242979
-0.14122151
-0.0092234024
-0.14768353
-0.011360939
-0.15458756
-0.011257994
0.0026515819
-0.11737913
0.0054367374
-0.11805682
0.0082487677
-0.12037649
0.010985178
-0.12413917
0.0135558
-0.12894899
0.015905242
-0.13423881
0.018014359
-0.13933252
0.019903803
-0.14352215
0.021618985
-0.14617336
0.023219577
-0.15989869
0.023361089
-0.18069318
0.023070593
-0.20350975
0.02232469
-0.22795243
0.021137674
-0.25350037
0.019563119
-0.27960609
0.017688752
-0.30584875
0.015613582
-0.33207413
0.013421583
-0.35844284
0.01116691
-0.38534216
0.0088811447
-0.41321386
0.0065950711
-0.44240777
0.0043555047
-0.47313254
0.0022274822
-0.50549602
0.00028318609
-0.53957479
-0.0014120283
-0.57546018
-0.0028096268
-0.61327924
-0.0038829051
-0.65319883
-0.0046280117
-0.69542634
-0.0050617333
-0.74020394
-0.0052168181
-0.78780365
-0.0051360178
-0.83852137
-0.0048659638
-0.89267248
-0.0044521268
-0.95058732
-0.0039350061
-1.0126296
-0.0033482164
-1.0791572
-0.0027173145
-1.1506238
-0.0020602065
-1.2274146
-0.0013869566
-1.3101926
-0.00070120813
-1.3992327
-0.11569995
1.2255699e-08
-0.11835152
-0.00253895
-0.12239178
-0.0047716627
-0.12744529
-0.0067123954
-0.13322957
-0.0082786856
-0.13948956
-0.0098562486
-0.14610825
-0.010798686
-0.15296656
-0.012981939
-0.16017487
-0.012948094
0.0027679668
-0.11471036
0.005663256
-0.11547131
0.0085739395
-0.11796525
0.01138662
-0.12196999
0.014009734
-0.12705349
0.016384037
-0.13260849
0.018492258
-0.13792098
0.020352337
-0.1422555
0.022011341
-0.14496512
0.023524878
-0.16006248
0.023573551
-0.18119614
0.023161667
-0.20434672
0.022269309
-0.22908407
0.020915553
-0.2548528
0.019165424
-0.28108276
0.017118866
-0.30735404
0.014886141
-0.33353869
0.012558513
-0.35983444
0.010194067
-0.38665509
0.007828226
-0.41444701
0.0054961462
-0.44354841
0.0032486507
-0.4741537
0.0011519752
-0.50636481
-0.00072445115
-0.54026237
-0.0023217924
-0.57594801
-0.0036005512
-0.61356159
-0.004544169
-0.65328267
-0.0051586429
-0.69532943
-0.0054691392
-0.73995162
-0.0055145378
-0.78742513
-0.00534118
-0.83804615
-0.0049969621
-0.89212764
-0.0045267755
-0.94999555
-0.0039693694
-1.0120085
-0.0033559462
-1.0785185
-0.0027095918
-1.1499744
-0.0020457692
-1.2267558
-0.0013726502
-1.3095212
-0.00069202343
-1.3985407
-0.112932
1.2515015e-08
-0.11569995
-0.0026515579
-0.11993836
-0.0049923715
-0.12523871
-0.0069782461
-0.13126497
-0.0086769906
-0.13775055
-0.010017699
-0.14448933
-0.01147517
-0.15142152
-0.01234373
-0.15851673
-0.014640076
-0.16591724
-0.014832079
0.0028846582
-0.11193176
0.0058911247
-0.1127885
0.0088968131
-0.11547545
0.011783499
-0.11974375
0.014454414
-0.12512386
0.016849939