/*--------------------------------*- C++ -*----------------------------------*\
| =========                 |                                                 |
| \\      /  F ield         | OpenFOAM: The Open Source CFD Toolbox           |
|  \\    /   O peration     | Version:  5.0                                   |
|   \\  /    A nd           | Web:      www.OpenFOAM.org                      |
|    \\/     M anipulation  |                                                 |
\*---------------------------------------------------------------------------*/
FoamFile
{
    version     2.0;
    format      ascii;
    class       volVectorField;
    location    "225";
    object      U;
}
// * * * * * * * * * * * * * * * * * * * * * * * * * * * * * * * * * * * * * //

dimensions      [0 1 -1 0 0 0 0];

internalField   nonuniform List<vector> 
9200
(
(1.0415448 -0.00056594032 -4.9208304e-24)
(1.0418733 -0.0017204075 -9.7445522e-21)
(1.0431668 -0.00056276406 0)
(1.0424718 -0.0027442111 5.0107329e-21)
(1.0434884 -0.0017291122 -7.4868758e-21)
(1.0438994 -0.00055938523 0)
(1.0432249 -0.0037367605 5.0115311e-22)
(1.0440812 -0.0027481728 -3.4973989e-22)
(1.0442194 -0.0017355799 0)
(1.0449676 -0.00055503945 0)
(1.0441252 -0.0046320838 -9.5893716e-21)
(1.0448277 -0.003750067 -5.5880539e-21)
(1.0448118 -0.0027549621 -4.1750555e-21)
(1.0452849 -0.0017458994 -2.5653273e-22)
(1.0458353 -0.00054948199 -3.2165671e-25)
(1.0451087 -0.0054755496 -8.8720379e-21)
(1.0457141 -0.0046486685 6.8164867e-22)
(1.0455545 -0.0037659756 -1.3478123e-20)
(1.0458796 -0.0027648388 -5.1132242e-21)
(1.0461528 -0.001753657 3.5762594e-23)
(1.0467477 -0.00054182828 1.0417704e-20)
(1.0461469 -0.0062445949 -8.3125852e-21)
(1.0466799 -0.0055013849 -9.2698603e-21)
(1.0464357 -0.0046705537 8.1413104e-21)
(1.0466226 -0.0037898626 4.8829335e-22)
(1.046751 -0.0027720932 -5.1514654e-21)
(1.0470686 -0.0017592836 -5.0135987e-21)
(1.047594 -0.00053172832 -7.909441e-22)
(1.047202 -0.0069537058 -3.6226109e-21)
(1.0476928 -0.0062784732 -6.477252e-21)
(1.0473934 -0.0055336964 -8.8773514e-21)
(1.0475026 -0.004705389 1.8165485e-22)
(1.0474957 -0.0038106315 1.2307866e-20)
(1.0476758 -0.0027753673 5.3589543e-21)
(1.0479194 -0.0017596134 6.3328879e-21)
(1.0484189 -0.00051860483 -9.5991745e-21)
(1.0482489 -0.0075990087 1.005568e-20)
(1.0487163 -0.0069978849 -7.500602e-21)
(1.0483953 -0.0063214534 2.688304e-22)
(1.048456 -0.0055865833 -4.4991585e-21)
(1.0483768 -0.0047375854 3.3739622e-22)
(1.0484303 -0.0038283789 1.8893795e-20)
(1.0485361 -0.0027706195 -3.4160692e-21)
(1.0487537 -0.0017533662 1.0535637e-20)
(1.049202 -0.00050206139 2.0048963e-20)
(1.0492651 -0.0081855342 -7.5596448e-21)
(1.0497247 -0.0076536125 3.7353249e-21)
(1.0494044 -0.0070536391 2.0515946e-22)
(1.0494497 -0.0063938264 -8.7890242e-22)
(1.0493285 -0.0056375153 1.567642e-21)
(1.0493217 -0.0047686103 4.0699341e-22)
(1.0493016 -0.0038362467 -6.6048572e-21)
(1.049387 -0.0027551137 -1.1330703e-20)
(1.049548 -0.0017385468 -6.1637689e-21)
(1.0499469 -0.0004815284 -1.5508869e-21)
(1.0502331 -0.0087151992 3.4791693e-21)
(1.050696 -0.0082510704 -1.7964983e-22)
(1.050395 -0.0077230255 -6.03621e-21)
(1.0504462 -0.0071493171 6.1615599e-21)
(1.0503175 -0.0064655578 -8.679724e-21)
(1.050282 -0.0056910601 1.9228881e-20)
(1.0502046 -0.0047887653 7.227537e-23)
(1.0501736 -0.0038309046 -1.831302e-20)
(1.0501996 -0.0027258453 8.8577329e-21)
(1.0503074 -0.0017129926 -1.8399746e-20)
(1.0506486 -0.00045671797 2.6222302e-21)
(1.0511363 -0.0091919661 -1.394494e-22)
(1.0516139 -0.0087911624 1.2481197e-21)
(1.0513452 -0.0083352804 5.1225527e-21)
(1.0514195 -0.0078440423 0)
(1.0513054 -0.0072459427 -1.1495928e-22)
(1.0512771 -0.0065451994 -2.4703444e-22)
(1.0511754 -0.0057333523 3.9105297e-21)
(1.0511002 -0.0047946471 9.281095e-21)
(1.0510083 -0.0038075736 5.9166773e-22)
(1.0509818 -0.0026799633 1.0938457e-20)
(1.0510265 -0.0016753298 7.1703505e-21)
(1.0513042 -0.0004273652 -1.5688849e-21)
(1.0519529 -0.0096205207 -1.3204451e-22)
(1.0524639 -0.0092770082 7.5639122e-22)
(1.0522388 -0.0088910091 0)
(1.052348 -0.0084837449 0)
(1.0522661 -0.0079678815 3.1455504e-21)
(1.0522675 -0.0073574684 -3.9993042e-21)
(1.0521786 -0.006613856 8.4283912e-21)
(1.0520949 -0.0057619205 -1.0525226e-20)
(1.0519597 -0.0047795654 -9.1978167e-22)
(1.0518241 -0.0037623488 -1.1336961e-23)
(1.0517273 -0.0026151564 -1.2364254e-20)
(1.0517026 -0.0016240972 1.2448493e-20)
(1.0519105 -0.00039331604 -2.3261057e-20)
(1.0526411 -0.010007428 4.1612412e-22)
(1.0532295 -0.0097118722 -1.6249513e-22)
(1.0530619 -0.0093934846 2.8336932e-21)
(1.0532157 -0.0090681856 -3.1455725e-21)
(1.0531777 -0.008637064 3.3458454e-21)
(1.0532266 -0.0081150522 -8.3679531e-22)
(1.0531739 -0.0074587587 -2.7974025e-21)
(1.0531204 -0.0066708682 3.1954603e-23)
(1.0529802 -0.0057673943 -1.0294907e-20)
(1.0528138 -0.0047384107 -9.5017112e-21)
(1.0526061 -0.0036918834 -3.4829934e-21)
(1.0524337 -0.0025288084 -9.4600717e-21)
(1.0523321 -0.0015582451 -6.1474857e-21)
(1.0524645 -0.00035449991 6.0824765e-21)
(1.0531138 -0.01036311 4.9304581e-21)
(1.0538791 -0.0101007 -3.4060867e-21)
(1.0537995 -0.0098460834 1.3188954e-21)
(1.0540099 -0.0096001087 4.9886114e-23)
(1.0540247 -0.0092524156 -5.201987e-24)
(1.0541321 -0.0088235072 8.0609522e-22)
(1.0541339 -0.0082531126 -2.7027045e-21)
(1.0541341 -0.0075522458 3.590545e-21)
(1.0540308 -0.0067036098 -8.7621076e-23)
(1.0538742 -0.0057442417 1.0238894e-21)
(1.0536349 -0.0046671349 2.1530777e-22)
(1.053356 -0.0035925393 1.2455735e-21)
(1.0530972 -0.0024194517 1.1862459e-20)
(1.0529118 -0.001476967 -5.3917083e-21)
(1.0529635 -0.00031093952 4.1852642e-21)
(1.0532043 -0.010698842 -1.6191686e-21)
(1.0543434 -0.010452592 3.6287368e-21)
(1.0544239 -0.010253835 -1.340152e-21)
(1.054718 -0.010082057 2.9106166e-21)
(1.0547949 -0.009816242 -3.2043294e-21)
(1.0549686 -0.0094806866 8.2760499e-21)
(1.055036 -0.0090021568 -7.3205438e-21)
(1.0551086 -0.0083890039 1.421243e-22)
(1.0550683 -0.007621075 2.6425823e-21)
(1.0549643 -0.0067069776 1.5901369e-22)
(1.0547394 -0.0056869102 2.4191931e-20)
(1.054438 -0.004560293 -5.8525056e-21)
(1.0540683 -0.0034619658 -3.9537045e-21)
(1.0537142 -0.0022857114 -1.9900476e-21)
(1.0534388 -0.001379786 -8.2769769e-22)
(1.0534051 -0.00026274375 -4.3457477e-21)
(1.0526334 -0.011034946 0)
(1.0544808 -0.010779344 2.7457862e-21)
(1.0548733 -0.010625318 -2.3053616e-21)
(1.0553173 -0.010518111 0)
(1.0554773 -0.010330546 0)
(1.0557244 -0.01008814 0)
(1.0558645 -0.0097025605 -3.2323628e-23)
(1.0560206 -0.0091859512 -6.288158e-21)
(1.056063 -0.0085004695 1.4410899e-21)
(1.0560387 -0.0076614985 -7.5137298e-21)
(1.0558747 -0.0066730064 -2.2903421e-22)
(1.0555992 -0.0055885619 -5.1884376e-21)
(1.0552053 -0.0044157948 9.0812127e-23)
(1.0547397 -0.0032977586 4.4622246e-21)
(1.0542813 -0.0021268687 1.5063544e-21)
(1.0539103 -0.0012665246 2.3372691e-21)
(1.0537874 -0.00021010146 0)
(1.0509826 -0.011387052 8.1142402e-22)
(1.0540394 -0.011103813 -5.8246676e-21)
(1.0550189 -0.01097121 5.1789857e-21)
(1.0557564 -0.010915577 1.5634676e-21)
(1.0560532 -0.010798921 2.9713547e-21)
(1.0563896 -0.010646877 0)
(1.0566082 -0.010355075 3.0949173e-21)
(1.056854 -0.0099383836 -2.1603547e-22)
(1.0569905 -0.0093461356 -1.1024895e-20)
(1.0570669 -0.008586192 1.1866803e-21)
(1.056994 -0.007662327 4.4249522e-21)
(1.0567928 -0.006594305 -5.314183e-22)
(1.0564287 -0.0054463489 -9.5807718e-21)
(1.0559423 -0.0042289354 1.5748399e-20)
(1.0553661 -0.0030987316 4.6969522e-21)
(1.0547955 -0.0019425588 1.6951129e-20)
(1.0543242 -0.0011373194 6.2690695e-21)
(1.0541091 -0.00015327143 4.2989445e-21)
(1.0477214 -0.011772018 5.3766763e-23)
(1.0526202 -0.011449126 -2.3925807e-21)
(1.0546244 -0.011311678 -1.7166136e-21)
(1.0559228 -0.011284336 3.3970276e-21)
(1.056479 -0.011227894 -3.0862278e-22)
(1.0569489 -0.011159416 4.2781956e-21)
(1.0572583 -0.010959836 2.593838e-21)
(1.0575975 -0.010646024 -6.1062416e-21)
(1.0578344 -0.010151917 -2.2073785e-21)
(1.0580233 -0.0094849023 7.4719345e-21)
(1.0580641 -0.0086311404 -9.2508777e-23)
(1.0579696 -0.0076163451 1.047571e-20)
(1.057688 -0.0064665212 -3.254325e-21)
(1.0572392 -0.0052539512 -1.1624492e-21)
(1.0566379 -0.0039991246 -2.1535548e-21)
(1.0559439 -0.0028638578 -2.9119931e-21)
(1.0552539 -0.0017329735 5.144679e-21)
(1.0546785 -0.00099258933 2.6036555e-22)
(1.0543693 -9.2585925e-05 3.0645327e-21)
(1.0422686 -0.012197702 6.4782769e-22)
(1.0496919 -0.011842822 3.0491592e-21)
(1.0533072 -0.011666791 -1.2716113e-20)
(1.0556013 -0.011643983 -8.2092281e-22)
(1.0566553 -0.011626571 2.440163e-21)
(1.0573657 -0.011630837 1.8082617e-21)
(1.0578022 -0.011518598 4.6562203e-22)
(1.0582431 -0.011307801 6.2814946e-21)
(1.0585833 -0.010916455 -8.8239222e-22)
(1.0588907 -0.010349902 -9.9154208e-21)
(1.0590582 -0.0095827192 1.3274701e-20)
(1.059095 -0.0086288555 -2.3201758e-21)
(1.058932 -0.0075169707 -4.9959799e-21)
(1.0585759 -0.0062821491 4.4050494e-22)
(1.0580139 -0.005010622 -1.3252616e-21)
(1.0572922 -0.0037235301 -1.0415588e-20)
(1.0564695 -0.0025931132 5.2039926e-22)
(1.0556543 -0.0014986925 -8.5080718e-21)
(1.054972 -0.00083303776 -1.9484041e-21)
(1.0545681 -2.8473474e-05 -2.5975241e-21)
(1.0340877 -0.012660549 -3.1855702e-22)
(1.0446414 -0.01230523 3.9133618e-21)
(1.0505437 -0.01206057 -1.3186054e-21)
(1.0544294 -0.012016114 3.3512365e-21)
(1.056385 -0.012012994 1.4837807e-21)
(1.0575541 -0.012068994 -2.3400306e-21)
(1.0582099 -0.01203549 4.2451284e-21)
(1.0587804 -0.011924246 6.8115911e-21)
(1.0592297 -0.011637479 -8.7939227e-21)
(1.0596574 -0.011178602 0)
(1.059958 -0.010507717 -8.8183124e-21)
(1.0601404 -0.0096345533 2.5115551e-22)
(1.060123 -0.0085700626 9.688516e-21)
(1.0598992 -0.0073559805 -4.2587013e-21)
(1.059436 -0.0060395054 5.2991018e-21)
(1.0587566 -0.0047116908 -9.3728163e-21)
(1.0578979 -0.0034029268 -2.7012357e-21)
(1.05694 -0.0022868708 2.051698e-21)
(1.0559946 -0.0012407443 -3.5764357e-21)
(1.0552042 -0.00065964077 -7.4844093e-22)
(1.0547056 3.8516631e-05 -1.5546118e-21)
(1.0227895 -0.013144198 -4.0777945e-21)
(1.0368692 -0.012843826 2.9483876e-21)
(1.0457138 -0.012510624 6.2933382e-21)
(1.0518922 -0.012427821 -7.6526326e-21)
(1.0553252 -0.012407729 -4.2075038e-21)
(1.0573356 -0.012490423 1.8125458e-21)
(1.0584069 -0.012517595 0)
(1.0591848 -0.012497975 6.5026413e-21)
(1.0597649 -0.012314421 1.5603589e-21)
(1.0603157 -0.011967281 -1.250229e-20)
(1.0607511 -0.011402285 -3.8609127e-21)
(1.0610862 -0.010622451 1.1014516e-21)
(1.0612307 -0.0096279921 8.4823998e-23)
(1.061169 -0.0084461528 -4.3519815e-21)
(1.0608485 -0.0071300745 4.3825543e-21)
(1.0602741 -0.0057325486 -3.8561505e-21)
(1.0594558 -0.004358183 1.2122203e-21)
(1.0584532 -0.0030363279 -6.1623579e-21)
(1.0573527 -0.0019463693 -2.7274075e-21)
(1.056274 -0.00096046237 -5.4938406e-22)
(1.0553751 -0.00047362601 -1.141613e-21)
(1.0547819 0.00010758495 0)
(1.0082107 -0.013621535 -2.6684354e-21)
(1.0259016 -0.01344862 -1.2433411e-21)
(1.0381924 -0.013023153 2.6413849e-22)
(1.0473572 -0.012901384 -6.7443452e-21)
(1.0529733 -0.012837091 -2.2826928e-21)
(1.0563892 -0.012915682 2.5646808e-21)
(1.0582324 -0.012979977 -4.9158863e-21)
(1.0593926 -0.01303471 6.8784915e-21)
(1.0601691 -0.012948648 3.5498633e-21)
(1.0608586 -0.012713969 2.1225596e-22)
(1.0614299 -0.012261204 2.1566496e-23)
(1.0619191 -0.011587344 -1.4712743e-21)
(1.0622338 -0.01067819 1.1617824e-21)
(1.0623528 -0.0095544155 -7.9371154e-21)
(1.0622082 -0.0082517911 -1.0753482e-20)
(1.0617869 -0.0068320712 -9.1647097e-21)
(1.0610759 -0.0053616419 1.7550559e-21)
(1.0601112 -0.0039476394 1.1572562e-20)
(1.058953 -0.0026258244 -6.332758e-23)
(1.0577055 -0.0015735895 -2.4614711e-21)
(1.056492 -0.00065974359 0)
(1.0554851 -0.00027655113 1.4404028e-21)
(1.0547988 0.00017655762 2.2329759e-22)
(0.99044857 -0.014059343 1.424162e-20)
(1.0114859 -0.014092052 -2.6705271e-21)
(1.0274638 -0.013588728 7.2670259e-21)
(1.0401622 -0.013447926 3.7612515e-21)
(1.0486921 -0.013323893 -8.3049124e-21)
(1.0542273 -0.01337221 0)
(1.0573867 -0.013442587 -1.0290025e-21)
(1.0592606 -0.013547539 4.9608255e-21)
(1.0603885 -0.013544752 3.604683e-21)
(1.06127 -0.013418434 -5.2949092e-22)
(1.0619883 -0.013081119 -7.0203659e-21)
(1.0626311 -0.012522376 -4.2390883e-21)
(1.0631179 -0.011714071 5.7136311e-21)
(1.0634276 -0.010666701 -8.480372e-21)
(1.0634804 -0.009406104 1.228595e-20)
(1.063249 -0.0079787759 1.9906026e-20)
(1.0626983 -0.0064610783 7.3072235e-22)
(1.0618418 -0.0049231234 4.7913866e-21)
(1.0607149 -0.0034824988 -1.0278945e-20)
(1.0593953 -0.0021722748 -2.7848762e-22)
(1.0579963 -0.0011714016 3.5666672e-21)
(1.056648 -0.0003416954 -8.4530678e-22)
(1.0555342 -7.1451418e-05 -8.3169136e-22)
(1.0547647 0.0002445021 1.7343968e-22)
(0.96984779 -0.014423976 3.961078e-21)
(0.99364316 -0.014733136 -5.9633849e-22)
(1.0132253 -0.014182148 1.8853383e-23)
(1.0297337 -0.014061779 -1.6101822e-20)
(1.0417923 -0.013881113 5.7939286e-21)
(1.0502113 -0.013885639 -9.8777257e-21)
(1.0553987 -0.013932483 -8.8669875e-22)
(1.0585113 -0.014055786 -8.8514009e-21)
(1.0602955 -0.014114025 4.1555075e-21)
(1.0615049 -0.014083702 2.740543e-21)
(1.0624135 -0.013860286 -6.5197398e-21)
(1.0632165 -0.013422593 4.2027289e-21)
(1.0638744 -0.012727152 -5.4814863e-21)
(1.0643774 -0.011775049 -2.1691404e-23)
(1.0646398 -0.010577608 1.0264317e-20)
(1.0646232 -0.0091739716 1.2945355e-21)
(1.0642737 -0.0076245536 -6.2586499e-23)
(1.0635831 -0.0060122468 8.0140356e-21)
(1.0625614 -0.0044190159 0)
(1.0612646 -0.002962681 1.5628343e-21)
(1.0597764 -0.0016790299 3.7487765e-22)
(1.0582249 -0.00074135283 -5.3155169e-22)
(1.0567421 -8.884331e-06 -9.411357e-22)
(1.055525 0.00014264037 8.8983029e-22)
(1.0546703 0.00032339685 1.4411988e-21)
(0.94694727 -0.014686313 -1.3838619e-20)
(0.97266825 -0.015324139 -5.8694003e-22)
(0.99544991 -0.014766265 2.1559751e-21)
(1.0157018 -0.014719202 1.766815e-21)
(1.0316525 -0.014505639 1.6021516e-20)
(1.0436266 -0.014472482 1.3745313e-22)
(1.0516316 -0.014476287 -8.4932677e-22)
(1.0566929 -0.014586364 6.663174e-22)
(1.0596344 -0.014674959 6.649199e-21)
(1.0614514 -0.014719032 -3.9547208e-21)
(1.062668 -0.014600195 4.5855398e-21)
(1.0636652 -0.014284508 -1.8506992e-22)
(1.0644976 -0.013710829 -1.7494033e-21)
(1.0651926 -0.012869301 2.5940465e-21)
(1.0656688 -0.011757067 3.094948e-22)
(1.065882 -0.010401123 -1.4680527e-20)
(1.0657623 -0.0088534721 -2.1733968e-20)
(1.0652828 -0.0071830269 -1.1938139e-20)
(1.0644292 -0.0054866459 -1.5664013e-20)
(1.0632322 -0.0038483745 -4.1740243e-22)
(1.0617549 -0.0023918269 1.2186324e-20)
(1.0600948 -0.001148276 -2.8998673e-22)
(1.0583898 -0.00028721864 -3.9572472e-22)
(1.0567757 0.00033919946 -1.0066384e-21)
(1.0554596 0.00036606507 1.6251193e-21)
(1.0545267 0.00039877865 -4.3866637e-23)
(0.92240468 -0.014825072 6.2416668e-22)
(0.94908479 -0.015817415 -1.165773e-21)
(0.97439516 -0.015298494 -9.1436091e-21)
(0.99797663 -0.015381714 9.494344e-21)
(1.0178423 -0.015175957 -1.4007892e-20)
(1.0338029 -0.015132811 8.4039482e-21)
(1.0453495 -0.015092652 3.7046347e-21)
(1.0531741 -0.01516765 8.4854597e-21)
(1.0579736 -0.015253827 -9.4547497e-21)
(1.0608756 -0.015341652 -3.9627737e-21)
(1.0626542 -0.015308175 1.5278156e-21)
(1.0639463 -0.015107785 -1.1203408e-20)
(1.0649794 -0.014659877 1.1081472e-20)
(1.0658673 -0.013941104 -1.2747856e-21)
(1.0665564 -0.012932656 3.0152098e-21)
(1.0670056 -0.011649833 -5.5725029e-22)
(1.0671341 -0.010130453 -4.9483642e-21)
(1.0668986 -0.0084372007 4.7202315e-21)
(1.0662627 -0.0066538991 -5.6775897e-21)
(1.0652333 -0.0048823475 -9.138649e-22)
(1.0638467 -0.0032146629 0)
(1.0621831 -0.001771862 3.8791722e-21)
(1.0603484 -0.0005838852 1.8013756e-21)
(1.0584919 0.00018914449 0)
(1.0567503 0.00069929614 1.461063e-21)
(1.055341 0.00059457472 -6.0040892e-22)
(1.0543307 0.00047550039 -2.5317195e-21)
(0.89691697 -0.014831308 4.7773941e-21)
(0.9235696 -0.01617146 -1.7989405e-22)
(0.95056325 -0.015738141 -7.7906576e-21)
(0.97677027 -0.016002879 9.5031219e-22)
(1.0002125 -0.015854594 -2.4164933e-21)
(1.0202452 -0.015847055 -9.3605449e-21)
(1.0358364 -0.015784369 -4.7880645e-22)
(1.0472019 -0.015821281 -6.8692084e-21)
(1.0546907 -0.015879983 -7.6080031e-24)
(1.059368 -0.015977082 7.9979956e-21)
(1.0621592 -0.015999921 -3.849413e-21)
(1.0639756 -0.015897613 1.0258462e-21)
(1.0652948 -0.015572098 -2.8011393e-21)
(1.0663947 -0.014983341 3.2041668e-21)
(1.0672961 -0.014094322 -8.1028932e-22)
(1.0679813 -0.012906704 3.9177268e-21)
(1.0683669 -0.011444129 4.4208322e-21)
(1.0683976 -0.00975687 2.7319241e-20)
(1.0680172 -0.0079231383 9.4736192e-21)
(1.0672096 -0.0060340649 1.0737085e-20)
(1.0659863 -0.0042021931 7.4295222e-21)
(1.0644014 -0.0025194733 -2.7941087e-21)
(1.0625459 -0.0011072954 -5.2017142e-22)
(1.0605366 1.1048154e-05 0)
(1.0585317 0.00068394996 0)
(1.056668 0.0010690249 -5.1278539e-24)
(1.0551706 0.00082769278 4.2770479e-21)
(1.05409 0.00055086958 5.64466e-21)
(0.87115505 -0.014707182 0)
(0.89686196 -0.016363588 -8.3181165e-22)
(0.92463088 -0.016051911 7.0478382e-21)
(0.9525617 -0.016535726 3.2711893e-21)
(0.97892833 -0.016494563 9.8732475e-21)
(1.0027358 -0.016577937 4.9650838e-22)
(1.0225354 -0.016533948 -6.109385e-21)
(1.0380169 -0.016553445 -1.0830593e-20)
(1.0490193 -0.01657724 1.2943359e-20)
(1.0563181 -0.016655585 -3.8710902e-21)
(1.0607962 -0.016699919 5.0192548e-22)
(1.0635608 -0.0166678 3.9668336e-21)
(1.0653713 -0.016450539 -9.9986792e-21)
(1.0667544 -0.015991773 5.8852641e-21)
(1.0678818 -0.015233018 3.7521785e-21)
(1.0688016 -0.014159935 -5.0630569e-23)
(1.0694462 -0.012779679 3.7468027e-21)
(1.0697553 -0.011129938 -2.9002424e-21)
(1.0696567 -0.0092763389 1.3752564e-20)
(1.0691136 -0.0073067937 1.9072418e-21)
(1.0681124 -0.0053253352 6.5134913e-21)
(1.0666834 -0.0034471953 4.0273935e-21)
(1.064891 -0.0017674919 -8.4413728e-22)
(1.0628415 -0.00040165086 -6.780943e-21)
(1.0606592 0.0006320743 -3.3529945e-21)
(1.0585107 0.0011939487 1.3653771e-21)
(1.0565314 0.0014454108 -4.0245605e-21)
(1.0549522 0.0010624045 3.5493455e-21)
(1.0538052 0.00062572592 -9.9376054e-21)
(0.84574029 -0.014448836 -1.468989e-20)
(0.86966227 -0.016391147 0)
(0.89737269 -0.016206631 0)
(0.92602487 -0.016938801 0)
(0.95444146 -0.017047199 -2.5721531e-21)
(0.98138194 -0.017276432 8.8157563e-21)
(1.0051648 -0.017304753 -9.7093297e-22)
(1.0249979 -0.017349251 -1.440382e-21)
(1.0401601 -0.017354586 1.6821366e-20)
(1.0509497 -0.017403345 -1.5931996e-20)
(1.0579692 -0.017438842 9.8059821e-21)
(1.062339 -0.017441547 -3.3995026e-21)
(1.0650363 -0.017306901 1.5781357e-21)
(1.066885 -0.016967136 -8.1763071e-21)
(1.0682972 -0.016342422 3.8716899e-21)
(1.0694607 -0.015398555 4.7468901e-21)
(1.070363 -0.014123662 9.1986971e-22)
(1.0709547 -0.012540359 -9.8632644e-21)
(1.071154 -0.010700977 -4.255451e-21)
(1.0709065 -0.0086828035 -8.4993208e-21)
(1.0701753 -0.0065885546 -7.8941006e-21)
(1.0689652 -0.0045278459 3.196598e-21)
(1.0673175 -0.0026218376 7.8222772e-21)
(1.0653126 -0.00096244858 -2.6424924e-21)
(1.0630682 0.0003398302 -1.9550295e-21)
(1.0607166 0.0012751192 -4.2254557e-24)
(1.0584308 0.0017153351 -3.0860295e-21)
(1.0563429 0.0018258 2.2830505e-21)
(1.0546882 0.0012979954 -1.5084941e-20)
(1.0534816 0.00069924526 -6.646234e-21)
(0.81909825 -0.014031221 -1.1639308e-21)
(0.84272377 -0.01621832 -1.0087096e-21)
(0.86960364 -0.016200851 0)
(0.89793804 -0.01718081 0)
(0.92742423 -0.017469578 0)
(0.95660565 -0.017891255 0)
(0.98377802 -0.018047201 0)
(1.0077914 -0.018172754 3.1660949e-22)
(1.0274305 -0.018199471 -8.1981764e-21)
(1.0424256 -0.0182325 1.7817067e-20)
(1.0528962 -0.018244808 -9.4078812e-22)
(1.0597313 -0.018249666 1.1023369e-20)
(1.063951 -0.018162839 -1.4276587e-20)
(1.0666327 -0.017918724 1.7886932e-21)
(1.0684901 -0.017420923 -5.8951094e-23)
(1.0699451 -0.016614046 5.1737953e-21)
(1.0711111 -0.015463189 -9.9596855e-21)
(1.0719852 -0.013973179 -1.029874e-21)
(1.0724898 -0.012180061 1.3709582e-20)
(1.0725584 -0.010149491 6.1185339e-21)
(1.0721333 -0.0079748723 1.0675589e-21)
(1.0711952 -0.0057673624 9.5384445e-21)
(1.0697591 -0.0036454721 5.3755142e-22)
(1.067884 -0.0017297464 -2.9771837e-21)
(1.0656627 -0.00011008169 4.5420365e-21)
(1.0632255 0.0011123627 3.747158e-21)
(1.06071 0.0019354371 8.4189837e-22)
(1.0582943 0.0022445081 1.2987365e-21)
(1.0561057 0.0022076701 2.3864858e-22)
(1.0543826 0.0015325128 1.1945786e-20)
(1.0531219 0.0007714075 4.4044266e-21)
(0.79073921 -0.013383901 1.6199253e-20)
(0.8144788 -0.015861704 -5.1943509e-22)
(0.84193473 -0.01604579 4.6883889e-21)
(0.86909694 -0.017256236 4.9143922e-21)
(0.89867853 -0.017724488 0)
(0.92907094 -0.018373756 0)
(0.9587573 -0.018707033 -3.9800257e-22)
(0.98638732 -0.018972683 9.6940323e-21)
(1.0104061 -0.019076871 -1.5995476e-20)
(1.0300012 -0.019133174 1.8839097e-20)
(1.0447065 -0.019132831 2.329698e-21)
(1.0549533 -0.019122106 -1.0036045e-20)
(1.0615556 -0.019048894 -4.6156253e-22)
(1.065683 -0.018866356 -6.0161951e-22)
(1.0683245 -0.01847523 -4.2310931e-21)
(1.0702111 -0.01780233 1.2347937e-21)
(1.0716791 -0.016787575 1.254382e-21)
(1.0728395 -0.01541367 -4.4597507e-22)
(1.0736512 -0.013697326 4.944975e-21)
(1.0740471 -0.011689252 2.7497512e-20)
(1.0739535 -0.0094719981 8.5180884e-21)
(1.0733288 -0.0071499848 -7.1005689e-21)
(1.0721626 -0.0048460655 1.0241579e-20)
(1.0704878 -0.0026814011 9.2831561e-21)
(1.0683778 -0.0007768779 3.2270917e-21)
(1.0659396 0.00078426491 2.6267246e-21)
(1.0633132 0.0019102613 1.2200165e-21)
(1.0606409 0.0026085587 -1.9011722e-21)
(1.0581037 0.0027779255 2.8020012e-21)
(1.055823 0.0025886475 -1.0738978e-21)
(1.0540384 0.0017650311 6.8688657e-21)
(1.0527301 0.00084182938 4.9051809e-22)
(0.76270955 -0.012510529 -5.4317373e-21)
(0.78439253 -0.015258811 1.7965175e-21)
(0.81298671 -0.015686329 -6.8550254e-21)
(0.84028891 -0.017127607 -4.9031732e-21)
(0.86904507 -0.017805949 0)
(0.89959068 -0.018681122 0)
(0.93075384 -0.019232226 0)
(0.96112623 -0.019691597 -1.6873529e-21)
(0.98901162 -0.019934583 1.2320577e-20)
(1.0131774 -0.020071366 1.3786927e-20)
(1.0325952 -0.020095689 2.4760745e-21)
(1.0471033 -0.020076852 -2.12618e-21)
(1.0570673 -0.019996502 2.0062058e-20)
(1.0634975 -0.019839946 -1.5720229e-20)
(1.0675099 -0.01952307 4.9563995e-21)
(1.0701392 -0.018967332 0)
(1.0720305 -0.018090235 1.212846e-21)
(1.0735077 -0.016848987 1.3802834e-21)
(1.0746295 -0.015236356 1.2476187e-20)
(1.0753572 -0.013284774 -1.1222636e-21)
(1.0756109 -0.011062115 -1.3682585e-20)
(1.0753304 -0.0086641581 -4.7982182e-21)
(1.0744806 -0.0062095495 -1.1069853e-20)
(1.0730693 -0.0038270421 -1.0767494e-20)
(1.0711443 -0.0016414493 5.4324453e-22)
(1.0687954 0.00023108139 2.421601e-21)
(1.0661416 0.0017141353 -1.4148326e-21)
(1.063332 0.002728125 -1.7485779e-22)
(1.0605114 0.003289867 4.3214755e-21)
(1.057862 0.0033122114 1.2108234e-21)
(1.0554981 0.0029666351 1.1075969e-21)
(1.0536596 0.0019942118 -2.0439226e-20)
(1.0523096 0.00091033509 7.7375991e-21)
(0.73580106 -0.011414786 -4.9209217e-21)
(0.75444837 -0.014387961 2.9977662e-22)
(0.78215001 -0.01508358 -1.247477e-20)
(0.81015385 -0.016780458 -6.6533761e-21)
(0.8392976 -0.017713086 3.1535439e-21)
(0.86902867 -0.018812383 -2.2256543e-23)
(0.90059341 -0.019575507 1.4817436e-20)
(0.93264346 -0.020272967 -8.0143497e-21)
(0.96354082 -0.020712478 -1.2048703e-23)
(0.99180882 -0.020993729 -2.9983859e-20)
(1.0159885 -0.021100589 1.3487529e-20)
(1.0353172 -0.021109532 1.637257e-20)
(1.0495577 -0.021026429 -1.6859808e-21)
(1.0592983 -0.020872165 -4.9075907e-21)
(1.0655313 -0.020593354 -6.4180934e-21)
(1.0694628 -0.020124383 -4.5879609e-21)
(1.0720609 -0.019372206 5.6332077e-22)
(1.0739592 -0.018269977 1.4319751e-20)
(1.0754154 -0.016782242 -2.6351302e-22)
(1.0764783 -0.014918156 -2.6530667e-21)
(1.0770872 -0.012727197 -4.000933e-21)
(1.0771716 -0.010292297 -1.8649395e-20)
(1.0766748 -0.0077255478 2.9944786e-21)
(1.075579 -0.0051547503 -2.9331958e-21)
(1.0739065 -0.0027155681 -1.3598476e-20)
(1.0717231 -0.00053135399 -3.5173131e-21)
(1.0691337 0.0012870545 -2.0050216e-21)
(1.0662684 0.0026732421 -3.3146989e-21)
(1.0632833 0.003560256 5.398441e-22)
(1.0603241 0.0039750183 -8.511711e-22)
(1.0575725 0.0038442477 2.0870488e-21)
(1.0551347 0.0033396631 -8.1173965e-23)
(1.0532495 0.0022191541 8.560642e-21)
(1.051864 0.00097670116 -1.4927448e-20)
(0.71081839 -0.010101692 5.1293394e-21)
(0.7255003 -0.013235988 -4.2933878e-22)
(0.75128187 -0.014215344 1.4361934e-20)
(0.77802313 -0.016182516 3.6353925e-21)
(0.80817794 -0.01737858 -1.0876643e-20)
(0.83824234 -0.018756505 -1.5016919e-20)
(0.86917281 -0.019738454 -1.8884355e-21)
(0.9017743 -0.02066406 0)
(0.93460795 -0.021350039 -8.5869116e-21)
(0.96613783 -0.021837115 -3.2742149e-20)
(0.994668 -0.022093268 2.373463e-21)
(1.0189439 -0.022188699 -6.1607744e-21)
(1.0381051 -0.022137173 0)
(1.0521332 -0.021986511 -3.299241e-21)
(1.0616189 -0.021719652 1.2373862e-20)
(1.0676913 -0.021301018 6.7061447e-21)
(1.071527 -0.020646149 -5.6747952e-21)
(1.0741031 -0.019674726 0)
(1.0759828 -0.018323306 -7.315778e-21)
(1.0774007 -0.016572566 -9.686282e-21)
(1.0783699 -0.014448141 -1.9360668e-20)
(1.0788315 -0.012016061 -5.6188963e-21)
(1.0787139 -0.0093771971 0)
(1.0779758 -0.0066557726 -1.3319862e-20)
(1.0766128 -0.0039898876 5.6765461e-22)
(1.0746665 -0.0015170799 1.1363444e-22)
(1.0722193 0.00064145821 -5.6213592e-21)
(1.0693907 0.0023840067 1.9465581e-21)
(1.06632 0.0036548471 4.3442493e-22)
(1.063169 0.0044012216 5.6499027e-21)
(1.0600819 0.0046598206 -9.5480594e-21)
(1.0572387 0.0043711333 -4.5638193e-21)
(1.0547362 0.0037060404 0)
(1.0528117 0.0024389097 -3.2741769e-22)
(1.0513965 0.0010407709 -4.5950547e-21)
(0.68855076 -0.0085842498 3.7172552e-21)
(0.69844726 -0.011800845 9.9228024e-22)
(0.72130687 -0.013070972 1.3120325e-20)
(0.74571656 -0.015293337 1.1474042e-21)
(0.77503345 -0.016774562 -3.1594352e-21)
(0.8060084 -0.018400749 -7.4518508e-22)
(0.83737583 -0.019697415 -1.1979623e-20)
(0.8694465 -0.020870474 4.8029173e-22)
(0.90305376 -0.021789167 0)
(0.9367541 -0.022536558 1.0470354e-20)
(0.96881983 -0.023007702 -1.1422186e-20)
(0.99768769 -0.02325914 2.8704241e-21)
(1.021981 -0.023298771 -6.3729625e-21)
(1.041025 -0.02318448 8.5062106e-21)
(1.0548009 -0.022928029 -1.1992046e-22)
(1.0640668 -0.022531381 1.3996129e-20)
(1.069964 -0.021937883 -8.5621108e-21)
(1.0737191 -0.021072927 4.2892416e-21)
(1.0762534 -0.019854623 1.4013196e-20)
(1.078102 -0.018233881 -6.8778585e-21)
(1.0794482 -0.01620641 1.3909606e-20)
(1.0802948 -0.013815486 1.5723984e-21)
(1.0805738 -0.01114629 0)
(1.0802254 -0.0083144817 -3.6505661e-21)
(1.07922 -0.0054577128 1.534962e-22)
(1.0775725 -0.0027196924 5.2650705e-21)
(1.0753423 -0.00023901212 4.5773686e-21)
(1.072629 0.0018694275 2.3874665e-21)
(1.0695651 0.0035142212 5.2725058e-22)
(1.0662976 0.0046524064 0)
(1.0629915 0.005245674 -3.7251289e-21)
(1.0597881 0.005340391 -1.0128721e-20)
(1.056864 0.0048902742 1.8967363e-20)
(1.0543064 0.0040642361 -6.2670668e-21)
(1.0523498 0.0026527458 5.1392065e-22)
(1.0509106 0.0011024105 1.6178752e-20)
(0.66973302 -0.0068846377 -3.452328e-21)
(0.67419336 -0.010092755 -1.4317958e-22)
(0.69319039 -0.011649694 -3.9448103e-21)
(0.71419581 -0.014099278 2.8363797e-23)
(0.74149635 -0.015877344 1.2811673e-20)
(0.77163242 -0.017799426 1.0505251e-20)
(0.80406609 -0.019361843 -1.7666766e-22)
(0.83660182 -0.020852152 -9.8216145e-21)
(0.86983325 -0.022037929 5.1027432e-22)
(0.90450203 -0.023028015 -8.9674912e-21)
(0.9390045 -0.023774533 -4.4745479e-22)
(0.97167405 -0.024251709 5.5582374e-21)
(1.000809 -0.02445514 -1.0385365e-21)
(1.0251659 -0.024437745 1.025503e-20)
(1.0440468 -0.024223024 -2.9599935e-20)
(1.0576014 -0.023843976 6.5674794e-21)
(1.0666287 -0.023281765 5.2392695e-22)
(1.0723688 -0.022488336 5.4215966e-21)
(1.0760285 -0.021382737 -2.7843686e-21)
(1.0785146 -0.019894157 -8.2942595e-22)
(1.0803023 -0.017985596 1.101923e-20)
(1.0815492 -0.015670617 -9.4160075e-21)
(1.0822361 -0.013012428 4.7098229e-21)
(1.0823005 -0.010113302 0)
(1.0816909 -0.0071051761 1.6936212e-20)
(1.0803959 -0.0041349563 1.3409388e-20)
(1.0784487 -0.0013511995 -2.1421216e-21)
(1.0759281 0.0011108088 6.7873524e-21)
(1.0729493 0.0031440227 5.7388658e-22)
(1.0696567 0.0046700695 -3.6439331e-22)
(1.0662028 0.0056593634 5.179311e-21)
(1.0627537 0.0060885948 -9.2410324e-21)
(1.0594462 0.0060131488 -2.1407506e-22)
(1.0564523 0.0053993402 1.9249825e-20)
(1.0538488 0.0044129633 -1.1385022e-21)
(1.051867 0.002860009 -5.607359e-22)
(1.0504091 0.0011615209 5.8640845e-21)
(0.65500734 -0.0050333624 3.646347e-22)
(0.65359564 -0.0081368082 -1.0694618e-21)
(0.66790601 -0.0099610582 -5.0001941e-21)
(0.68449526 -0.012597527 -5.9597329e-22)
(0.7086063 -0.014657561 -4.6211825e-25)
(0.73671802 -0.016871334 1.8540718e-22)
(0.76854266 -0.018744758 -6.822804e-21)
(0.80216315 -0.020511752 3.9427044e-21)
(0.83592851 -0.022045277 0)
(0.87036486 -0.023322849 1.8269323e-21)
(0.90606607 -0.024323463 0)
(0.94143021 -0.025092301 0)
(0.97464897 -0.025533955 5.8367993e-21)
(1.0040949 -0.025689365 -5.4592496e-22)
(1.0284694 -0.025578106 -4.9944299e-21)
(1.0472135 -0.025246486 -6.3132344e-21)
(1.0605213 -0.02470855 1.6415687e-20)
(1.069327 -0.023955159 -9.1760434e-21)
(1.0748969 -0.02292901 7.8066126e-22)
(1.0784605 -0.021556633 8.2227299e-22)
(1.080874 -0.019774805 -1.4238466e-20)
(1.0825762 -0.017562987 -5.8261785e-21)
(1.0836866 -0.014954597 4.4381375e-21)
(1.0841798 -0.012031873 1.1173804e-20)
(1.083995 -0.0089158625 2.1651766e-21)
(1.0830969 -0.00575128 1.8471323e-21)
(1.0814916 -0.0026936821 -4.6451058e-21)
(1.0792331 0.0001078653 -4.7139377e-21)
(1.0764187 0.0025233098 -6.6742697e-22)
(1.0731785 0.0044566291 -3.0402093e-21)
(1.0696662 0.005843755 -5.0505972e-21)
(1.0660379 0.0066694667 -2.7244615e-21)
(1.0624589 0.0069252662 1.6172823e-21)
(1.05906 0.0066748636 1.4155342e-20)
(1.0560073 0.005896311 -3.7076308e-20)
(1.0533669 0.0047511199 -6.1381141e-21)
(1.0513666 0.0030601837 -5.7256636e-21)
(1.0498951 0.0012180348 0)
(0.64488912 -0.0030677213 2.9916748e-21)
(0.63741296 -0.0059719671 -1.2915723e-22)
(0.64638078 -0.008029549 -1.2925562e-21)
(0.6576779 -0.010795234 -5.0448103e-22)
(0.67748251 -0.013113422 -5.8268215e-21)
(0.70233095 -0.01559646 -4.4380456e-21)
(0.73225739 -0.017797646 -6.2983286e-22)