# y+ ()        
# Time         	patch          	min            	max            	average        
300            	cylinder	3.95016800e-02	3.90533238e-01	2.19067853e-01
