/*--------------------------------*- C++ -*----------------------------------*\
| =========                 |                                                 |
| \\      /  F ield         | OpenFOAM: The Open Source CFD Toolbox           |
|  \\    /   O peration     | Version:  5.0                                   |
|   \\  /    A nd           | Web:      www.OpenFOAM.org                      |
|    \\/     M anipulation  |                                                 |
\*---------------------------------------------------------------------------*/
FoamFile
{
    version     2.0;
    format      ascii;
    class       volScalarField;
    location    "200";
    object      p;
}
// * * * * * * * * * * * * * * * * * * * * * * * * * * * * * * * * * * * * * //

dimensions      [0 2 -2 0 0 0 0];

internalField   nonuniform List<scalar> 
9200
(
0.0010486088
0.0010646589
0.0027308328
0.001077779
0.0027687713
0.0045385752
0.0011062684
0.0028112392
0.0045959465
0.0061756434
0.0011339602
0.0028890013
0.004667147
0.0062473913
0.0077781914
0.0011654884
0.0029812434
0.0047878437
0.0063411624
0.0078623634
0.0092689028
0.0011921459
0.0030971512
0.0049342553
0.0064946064
0.0079749716
0.0093624707
0.010668508
0.0012128387
0.0032286815
0.0051150646
0.0066841781
0.0081553435
0.0094890577
0.010768513
0.011973043
0.0012288848
0.0033719133
0.0053249158
0.0069193047
0.0083789758
0.0096877958
0.010904354
0.012077767
0.01318897
0.0012343947
0.003506082
0.0055651838
0.0071996329
0.0086549328
0.0099315623
0.01111353
0.01222041
0.013297262
0.014320379
0.0012060267
0.0036193324
0.0058245162
0.007530365
0.0089847745
0.010226412
0.011366583
0.012436653
0.01344535
0.014431296
0.015372354
0.0010849141
0.003763453
0.0060953325
0.0079168872
0.0093746652
0.010571783
0.011665572
0.012696597
0.013667543
0.014583846
0.015485092
0.016349667
0.00083522288
0.0039135998
0.0063867996
0.0083855858
0.0098356769
0.010970364
0.012004807
0.012998192
0.013933722
0.014810615
0.015641529
0.016463422
0.01725706
0.0004496211
0.0040085702
0.0067034096
0.0089387605
0.010385291
0.011434673
0.012381091
0.013332361
0.014236829
0.015081751
0.015872394
0.016623435
0.017370873
0.018099219
-7.5916336e-05
0.0039996125
0.0070176856
0.009571636
0.011034084
0.011979521
0.012804357
0.013693442
0.014564047
0.015385657
0.016149102
0.016858807
0.017533814
0.018211921
0.018880871
-0.00076496621
0.0038531393
0.0072859718
0.010285343
0.011804344
0.012616552
0.01325191
0.014067985
0.014898261
0.015708334
0.016459538
0.017142853
0.017773036
0.018376542
0.018991087
0.019606745
-0.0016256368
0.003504175
0.0074444017
0.011076912
0.012721964
0.013364233
0.013756588
0.014392832
0.015211465
0.016028886
0.01679032
0.017465343
0.018065884
0.018617837
0.019155664
0.019712972
0.020281486
-0.0026040474
0.0029185534
0.0074321292
0.011936614
0.013815697
0.014246547
0.014333966
0.014685571
0.015498395
0.016318931
0.017120416
0.017815154
0.018402227
0.018917813
0.019396317
0.019875488
0.020382207
0.020909625
-0.004380623
0.0020245516
0.0071745971
0.012875761
0.015121338
0.015294215
0.014983934
0.014979994
0.015711825
0.016579984
0.017426733
0.018173131
0.018776368
0.019267147
0.019699735
0.020112161
0.020540491
0.021003362
0.021495611
-0.0064663801
0.00075127374
0.0065714989
0.013899339
0.016641298
0.016536944
0.015724405
0.015260826
0.015794083
0.016770533
0.017709187
0.018532899
0.019175614
0.019664414
0.020057719
0.020414491
0.020769621
0.021155196
0.021580936
0.0220437
-0.0086003892
-0.0010672303
0.005516834
0.014917732
0.018345891
0.017987905
0.016572801
0.015499768
0.015732081
0.016820054
0.017928834
0.018889674
0.019603333
0.02010303
0.020470887
0.020774389
0.021065999
0.021373256
0.021724201
0.022119322
0.022557778
-0.011298043
-0.0038290494
0.0037971171
0.015753859
0.020231224
0.019647187
0.017545162
0.015674829
0.015485616
0.016677179
0.018044115
0.019210492
0.020047625
0.020585352
0.020935985
0.021194786
0.021420998
0.021658954
0.021927934
0.022252098
0.022622576
0.023041476
-0.014817672
-0.0076556546
0.00085120385
0.016252075
0.022404433
0.021496765
0.018647489
0.015770217
0.01498631
0.016276595
0.01800188
0.019473471
0.020499521
0.021107539
0.021456548
0.021673454
0.021839083
0.022002758
0.022198644
0.022438573
0.02274299
0.023094377
0.023498378
-0.018320299
-0.011868833
-0.0032625772
0.016404484
0.024978867
0.023512358
0.019885645
0.015752333
0.014216139
0.015532861
0.017739161
0.019647907
0.020951667
0.021675842
0.022036655
0.022214706
0.022317809
0.022410227
0.022525689
0.022690366
0.022909281
0.023200544
0.023538687
0.023931871
-0.021225665
-0.016113258
-0.0074083034
0.016580534
0.028015465
0.025616359
0.021249703
0.015593097
0.012954651
0.014333843
0.017189894
0.019704232
0.0213982
0.022295775
0.022684933
0.022823182
0.022860482
0.022877822
0.022915566
0.022995724
0.023138344
0.023343805
0.023629108
0.023959651
0.024344799
-0.023430495
-0.020446945
-0.011189426
0.01658842
0.031336985
0.027664292
0.022693753
0.015238083
0.011110136
0.012500511
0.016277714
0.019593691
0.021837321
0.022977876
0.02341277
0.02350695
0.023469741
0.023406925
0.023363762
0.023362575
0.023417711
0.023546909
0.023747576
0.024033146
0.024359629
0.024739607
-0.025052868
-0.024677349
-0.014767545
0.016272122
0.034147245
0.029341489
0.024137814
0.01457791
0.0084807875
0.0098307497
0.014904325
0.019245658
0.022251578
0.023727515
0.024233735
0.024276977
0.024150316
0.023996888
0.02386964
0.02378578
0.023757755
0.023797738
0.023922735
0.024125815
0.024414902
0.024740316
0.025118594
-0.026201798
-0.028590757
-0.018013982
0.015684021
0.036080272
0.030542268
0.025463247
0.013497024
0.0048988982
0.0061828181
0.012935645
0.018569278
0.022610032
0.024551038
0.025160413
0.025145633
0.024908761
0.024647171
0.024428893
0.024263465
0.024152635
0.024105991
0.024143387
0.024270436
0.024479458
0.024776159
0.025104534
0.025483649
-0.026926898
-0.032038364
-0.02086275
0.014667718
0.037238281
0.03164968
0.026454434
0.011977503
0.00033271101
0.0015059141
0.010201746
0.01742066
0.022853273
0.025448479
0.026206182
0.02612479
0.025751377
0.025356791
0.025034735
0.024788088
0.024600185
0.024469555
0.024415317
0.02445337
0.024588564
0.024809372
0.02512014
0.025455093
0.02583652
-0.027281692
-0.03495829
-0.02325168
0.013245197
0.037222652
0.032520942
0.026482915
0.01002199
-0.0051858422
-0.0043967736
0.0064838158
0.015613241
0.022917564
0.026404629
0.02737614
0.027222906
0.026682595
0.026121914
0.0256777
0.025347271
0.025091433
0.024886713
0.024742027
0.02468788
0.024728816
0.024879342
0.025120934
0.025450388
0.025794133
0.026178994
-0.027229496
-0.037272301
-0.025128488
0.011484498
0.036095795
0.032652959
0.025585226
0.0071338521
-0.012462091
-0.011470296
0.0015665617
0.012847749
0.02268384
0.027394433
0.028661331
0.028440785
0.027698782
0.026937119
0.026343493
0.025924212
0.025610851
0.025348826
0.025127583
0.024977641
0.024922725
0.024976374
0.02515294
0.025419893
0.025769358
0.026123267
0.026512487
-0.026938131
-0.039251651
-0.026569013
0.0094484127
0.034040298
0.031965472
0.024093113
0.0036498624
-0.020954021
-0.021610526
-0.0048557503
0.0089805616
0.021860274
0.028356784
0.030033929
0.02976281
0.028799671
0.027790056
0.027013694
0.02649436
0.0261366
0.025840207
0.025564494
0.025328422
0.025172624
0.025124178
0.025204561
0.025413024
0.025707483
0.026078231
0.026443863
0.026838058
-0.026259576
-0.041048642
-0.027941161
0.0072125114
0.031099925
0.030580402
0.021993354
-0.0004598842
-0.029893428
-0.033372924
-0.013167694
0.0035019859
0.020308512
0.029157799
0.031424453
0.031150641
0.029958263
0.028662298
0.027662441
0.027026133
0.026636394
0.026337622
0.026039192
0.025739897
0.025485775
0.025327274
0.025300022
0.025415648
0.025658346
0.025983962
0.026378752
0.026757192
0.027156588
-0.025012832
-0.041687317
-0.02914873
0.0042705876
0.027695689
0.028455844
0.019327459
-0.0051145039
-0.039130221
-0.046600253
-0.02388852
-0.0048742763
0.017728907
0.029638436
0.032747986
0.032526802
0.031130262
0.029520769
0.028255747
0.027477882
0.027067423
0.026805435
0.026531114
0.026203613
0.025867987
0.025595757
0.0254481
0.025454312
0.025610856
0.02589344
0.026253467
0.026673111
0.027064313
0.027468822
-0.023326433
-0.040992388
-0.02977578
0.0010553549
0.022949893
0.025925761
0.016158586
-0.01004293
-0.048325467
-0.060070706
-0.037014382
-0.015781315
0.013776902
0.030114496
0.033834225
0.033813355
0.032248366
0.030316601
0.028749105
0.027799153
0.027373628
0.02719542
0.027007409
0.026705972
0.026319935
0.02594269
0.025663675
0.025540559
0.025589187
0.025794025
0.026121822
0.02651776
0.02696203
0.027365937
0.02777529
-0.021302584
-0.039308268
-0.029835213
-0.00239879
0.017706364
0.022300477
0.012509851
-0.015035415
-0.057314504
-0.073284098
-0.051748677
-0.02621189
0.0089524315
0.030405159
0.034763314
0.034799274
0.03321409
0.030980671
0.029078808
0.027920519
0.027481022
0.027439613
0.0274212
0.027222555
0.026838898
0.026377096
0.025964213
0.025692419
0.025607287
0.025709168
0.025969122
0.026344894
0.026777364
0.027246286
0.027662739
0.028076355
-0.018947149
-0.03677394
-0.029361328
-0.0060003737
0.011553028
0.017963777
0.0085875506
-0.020169605
-0.06577865
-0.085975268
-0.066387386
-0.035590589
0.0037014442
0.029167647
0.035073634
0.035366752
0.033909018
0.031416249
0.029159569
0.027749552
0.027288445
0.027445154
0.027702846
0.027716193
0.027411507
0.026906152
0.026366425
0.025932361
0.02568563
0.025653751
0.02581878
0.026139155
0.026564958
0.02703452
0.027527175
0.027955192
0.028372399
-0.016276647
-0.033441656
-0.028483357
-0.0098298193
0.0046793637
0.012242834
0.0049974701
-0.024030541
-0.073851843
-0.097598986
-0.079936084
-0.044977168
-0.0019718183
0.025803812
0.034480137
0.035053129
0.034165888
0.031518712
0.028893221
0.027186419
0.026682005
0.027102652
0.027757387
0.028125962
0.028015729
0.027530688
0.026888053
0.02628355
0.025851064
0.025650467
0.025686408
0.025922928
0.026307013
0.026783934
0.027290149
0.027804951
0.028243555
0.028663512
-0.013360247
-0.029380948
-0.02708973
-0.013811006
-0.002827118
0.0051656702
0.00087117757
-0.027133857
-0.079206775
-0.10912566
-0.093021885
-0.054247357
-0.0080664679
0.021648242
0.033130254
0.034049051
0.033752011
0.031185363
0.028170403
0.02612357
0.025531653
0.026267296
0.027480202
0.028368142
0.028612569
0.028246149
0.027543147
0.026772604
0.026131319
0.025727764
0.025593362
0.02570906
0.026024281
0.02647554
0.027003419
0.027544514
0.028079961
0.028528053
0.028949816
-0.010307555
-0.024668929
-0.025080277
-0.017727061
-0.01083368
-0.0030345062
-0.0041520381
-0.030151597
-0.083937226
-0.11795618
-0.10535677
-0.063110619
-0.014546566
0.017179908
0.031026004
0.032620197
0.032528098
0.030306874
0.026879592
0.024444529
0.023676115
0.024745897
0.026703648
0.028349986
0.029148415
0.029036882
0.028343342
0.027424653
0.026559091
0.025915641
0.025568144
0.0255183
0.025726451
0.026126138
0.026646934
0.027224654
0.027798615
0.028352653
0.028808771
0.029231415
-0.019448242
-0.0071957451
-0.022634754
-0.021574851
-0.019243861
-0.012207718
-0.010089644
-0.033174987
-0.087678753
-0.12738652
-0.11608972
-0.070588092
-0.020944737
0.012071249
0.027723237
0.030320047
0.030443266
0.0287378
0.024932587
0.022010542
0.02093598
0.022296149
0.025194054
0.027916421
0.029539922
0.029877374
0.029293218
0.028264568
0.027167764
0.026251332
0.025642545
0.025379239
0.025433838
0.025745957
0.026233679
0.026823058
0.027448196
0.028052689
0.028622971
0.029085712
0.029508167
-0.019748873
-0.01387461
-0.0041120085
-0.025292597
-0.027914067
-0.022113113
-0.016831192
-0.036428459
-0.090130241
-0.13393926
-0.12814062
-0.07790462
-0.027108198
0.0067204635
0.023057438
0.027105947
0.027420976
0.026331468
0.022252374
0.018699276
0.017115053
0.018609645
0.022651462
0.026838038
0.029661928
0.030717244
0.030389328
0.029312372
0.027992029
0.026774009
0.025856636
0.025323407
0.02517285
0.025350297
0.025773055
0.0263491
0.027004586
0.027674489
0.02830666
0.028890974
0.029358835
0.02978015
-0.028636252
-0.016513159
-0.0081131246
-0.0011125454
-0.036621235
-0.032527546
-0.024142187
-0.039891092
-0.091256309
-0.13793086
-0.13800543
-0.087276514
-0.035621885
0.0010943052
0.017428209
0.023040915
0.023356018
0.023006129
0.018779629
0.014410884
0.012040621
0.013340391
0.018640134
0.024816892
0.029334255
0.031474548
0.031610343
0.030580644
0.029063179
0.027525289
0.026252572
0.025390445
0.024973034
0.024962462
0.025274712
0.02581018
0.026473779
0.02719232
0.027903796
0.028560794
0.029156614
0.029628044
0.030047207
-0.045213748
-0.031444211
-0.013152833
-0.0023610968
0.0017466995
-0.043217048
-0.031694544
-0.0432609
-0.090931581
-0.13912246
-0.14554689
-0.095963916
-0.045151367
-0.0083927659
0.011204093
0.018019864
0.018315637
0.018690436
0.014488903
0.0091392913
0.0055769282
0.0060998961
0.012632761
0.02137074
0.028292076
0.032024429
0.032911714
0.032067239
0.030405063
0.02854335
0.026875578
0.025622826
0.024871798
0.024608788
0.024758595
0.025211356
0.025860478
0.026609661
0.027387381
0.028136374
0.028814873
0.029419712
0.029893205
0.030309259
-0.053850791
-0.053515354
-0.033659286
-0.0097085415
0.0031360261
0.0044380322
-0.039311771
-0.046353025
-0.089192948
-0.13670674
-0.14915861
-0.10312527
-0.054927749
-0.017800917
0.00054281454
0.015442379
0.012235544
0.013428689
0.0094103964
0.0028694728
-0.0023060494
-0.0037478884
0.0039190885
0.015911996
0.026160595
0.032162553
0.034211554
0.033747747
0.032026556
0.029858216
0.027768042
0.026067028
0.02490979
0.024323124
0.024246602
0.024567976
0.025164906
0.02592688
0.026757843
0.027590103
0.028372195
0.029068747
0.029680111
0.030154171
0.030566254
-0.04674321
-0.063980776
-0.061164111
-0.035311749
-0.0063063832
0.0081738206
0.0069512238
-0.049076088
-0.086182329
-0.13114836
-0.14833842
-0.10769061
-0.064182336
-0.028477938
-0.009223286
-0.00034458169
0.0057835125
0.0071405183
0.0036250601
-0.0042787506
-0.012101427
-0.016989673
-0.0086008506
0.0076783169
0.02245101
0.031635898
0.035366879
0.03556
0.033913438
0.031486337
0.028962467
0.026767376
0.025132746
0.024142623
0.023765949
0.023896413
0.024397565
0.025140074
0.026011142
0.026918885
0.027800459
0.028610955
0.029322148
0.029937561
0.03041078
0.030818033
-0.051196575
-0.053423631
-0.073064049
-0.067976879
-0.036461488
-0.0030298956
0.012617255
0.0092477661
-0.081873761
-0.12363618
-0.1442914
-0.10966546
-0.072582422
-0.03943895
-0.02112474
-0.0074332792
-0.0030519405
0.00019324904
-0.0028759066
-0.012291871
-0.023465875
-0.033819124
-0.02512088
-0.0037224257
0.01615488
0.029859053
0.036161582
0.037387761
0.036012054
0.033419589
0.03047906
0.027759324
0.025583846
0.024110518
0.02335232
0.023219049
0.023568954
0.024254263
0.025139745
0.026114728
0.02709298
0.028018123
0.028852328
0.02957468
0.030191844
0.030662929
0.031064583
-0.076356835
-0.052443143
-0.059020017
-0.080840152
-0.073718531
-0.037080653
8.8974646e-05
0.016430397
0.011292641
-0.11420204
-0.13707894
-0.10951403
-0.079376045
-0.050503667
-0.033839043
-0.018227982
-0.01120741
-0.0079554224
-0.0097165098
-0.020889887
-0.036363143
-0.0524673
-0.043838418
-0.017158559
0.0071690316
0.025914871
0.036074796
0.039031793
0.038218013
0.035610465
0.032314521
0.029058542
0.026299161
0.024265568
0.023041066
0.022562835
0.022694497
0.023274237
0.024143203
0.025166116
0.026238352
0.027279926
0.028242455
0.029095719
0.029826065
0.030442857
0.030910487
0.031305682
-0.10317693
-0.069676402
-0.052509587
-0.063683193
-0.087084264
-0.078200479
-0.037162324
0.0030856145
0.019598205
0.01304961
-0.12690734
-0.10711319
-0.083556358
-0.061165672
-0.047468885
-0.031583
-0.021631899
-0.015183862
-0.016905393
-0.030050388
-0.049810802
-0.072205144
-0.064821248
-0.033493278
-0.0046985982
0.020261572
0.034749236
0.040106398
0.040352776
0.037963167
0.034428693
0.030667177
0.027290116
0.024639493
0.022864496
0.021956912
0.02179379
0.022207047
0.023020413
0.02406758
0.025220793
0.026382067
0.027478921
0.028472751
0.029340806
0.030076243
0.030690396
0.031153075
0.031541211
-0.11448492
-0.090784952
-0.062049712
-0.051195931
-0.067099707
-0.091497863
-0.081442956
-0.036730957
0.0059086986
0.022056569
0.014512215
-0.10252246
-0.084687861
-0.070923117
-0.061589032
-0.047266937
-0.035034142
-0.024134908
-0.023059353
-0.037491425
-0.064748629
-0.091296613
-0.087964765
-0.054651134
-0.021069834
0.011952739
0.03210037
0.040337854
0.042096127
0.040312422
0.036733651
0.032554511
0.028561323
0.025249045
0.022849285
0.021427647
0.020887319
0.021064761
0.021769334
0.022813411
0.024029733
0.025304285
0.026545063
0.027689045
0.028708798
0.029587709
0.03032485
0.030933656
0.031390226
0.031771346
-0.095894715
-0.1004103
-0.077736036
-0.053590604
-0.048790168
-0.069005993
-0.094030331
-0.083167982
-0.035858812
0.0085172025
0.02373374
0.015644375
-0.0834968
-0.079680869
-0.075964513
-0.064722027
-0.050844942
-0.035712792
-0.030472844
-0.042996635
-0.074551857
-0.11100339
-0.11149752
-0.079036788
-0.040701589
-0.00030422772
0.026666498
0.039452096
0.043133791
0.042389404
0.039081432
0.034640595
0.030089932
0.026093428
0.023017341
0.020995429
0.019994249
0.019859835
0.020394481
0.021390333
0.022658001
0.024030012
0.025416166
0.02672618
0.027910245
0.028950789
0.029835596
0.030570175
0.031171692
0.031622485
0.032007497
-0.080377444
-0.087138353
-0.085562498
-0.064339901
-0.044858474
-0.045571794
-0.069366169
-0.094598146
-0.083257602
-0.034563999
0.011032674
0.02462365
0.01640048
-0.087306845
-0.090362977
-0.083410526
-0.069071863
-0.049609526
-0.039578834
-0.049191855
-0.08230201
-0.12289734
-0.13733063
-0.10644295
-0.061691232
-0.015277446
0.018239228
0.036111007
0.04327732
0.043942345
0.041261928
0.036803081
0.031803305
0.027152561
0.023362543
0.020676194
0.019129245
0.018601862
0.018899666
0.019796799
0.021076947
0.02255828
0.02406654
0.025555708
0.026925394
0.028142929
0.029197197
0.030081289
0.030810457
0.031405949
0.031862218
0.032253682
-0.093364241
-0.075709475
-0.076880242
-0.070597216
-0.051004756
-0.036145334
-0.041535776
-0.068259334
-0.09270794
-0.081946242
-0.03286548
0.01360551
0.02493413
0.016955567
-0.1043
-0.10311122
-0.089381419
-0.065549884
-0.050205508
-0.056529763
-0.088862965
-0.13669766
-0.15700582
-0.13769682
-0.08571379
-0.033022971
0.0081375099
0.030112879
0.041450638
0.04471575
0.043050442
0.038870948
0.033596284
0.028366079
0.023862553
0.020465779
0.01829769
0.017298215
0.017285205
0.018027031
0.019281496
0.02083388
0.022516404
0.024153515
0.025722541
0.027143473
0.028384643
0.029442794
0.030322071
0.031048907
0.031651613
0.032110994
0.032503271
-0.11703249
-0.097479745
-0.070183478
-0.065649801
-0.055991492
-0.038052328
-0.027494095
-0.036864247
-0.06578168
-0.0888601
-0.079132319
-0.030688878
0.015992193
0.024932304
0.017282102
-0.12329724
-0.1110688
-0.083457442
-0.061997078
-0.065016605
-0.095142013
-0.14671546
-0.18371683
-0.16810238
-0.11110045
-0.053962379
-0.0043685445
0.022556772
0.037210382
0.043944852
0.044066348
0.040592164
0.035338287
0.02964143
0.024467096
0.020338787
0.017494998
0.015946236
0.01554919
0.016072232
0.017256808
0.018856189
0.020662531
0.022514042
0.024276808
0.025917979
0.027376997
0.028627425
0.029683832
0.030564065
0.031307181
0.031904288
0.032364893
0.032756018
-0.14296469
-0.12820846
-0.099431117
-0.064007547
-0.054242915
-0.042085456
-0.02573026
-0.019000252
-0.031777798
-0.062173072
-0.083507932
-0.075602581
-0.027628937
0.017859429
0.024479745
0.017374906
-0.13369304
-0.10308528
-0.074521778
-0.074076513
-0.10193384
-0.1545511
-0.2025251
-0.20894061
-0.13775435
-0.075691658
-0.018365673
0.013237286
0.031595615
0.041497675
0.043810022
0.041681669
0.036779017
0.030844643
0.025092827
0.020250147
0.016694749
0.014534902
0.013681057
0.013920977
0.014984582
0.016600053
0.018524122
0.020560709
0.022566674
0.024439901
0.026137691
0.027614361
0.028866049
0.029930597
0.030839033
0.031570721
0.032164288
0.032623002
0.033011888
-0.15646334
-0.16138537
-0.13718435
-0.099510918
-0.057460522
-0.043168429
-0.029248308
-0.014294223
-0.010845192
-0.026423146
-0.0578957
-0.077941915
-0.070464006
-0.024267194
0.018996486
0.023535873
0.017299891
-0.1235407
-0.087415181
-0.083150122
-0.10877292
-0.16131707
-0.21819572
-0.23717029
-0.17834184
-0.097190586
-0.032781001
0.0030044196
0.024420436
0.037258076
0.042342637
0.041963506
0.037721615
0.031795852
0.025620408
0.020125948
0.015853117
0.013035901
0.011661769
0.011553748
0.012444475
0.014038659
0.016062815
0.018284371
0.020530237
0.022677385
0.024638311
0.026365245
0.027848022
0.029116582
0.030229228
0.031117457
0.031844248
0.032429323
0.032885446
0.033270653
-0.14319144
-0.17826937
-0.17707176
-0.14383764
-0.097845787
-0.050585366
-0.032544102
-0.017725222
-0.0039624447
-0.0031060428
-0.021109268
-0.054283946
-0.071474075
-0.064227817
-0.020581149
0.019359211
0.022205795
0.017051194
-0.10012361
-0.091505395
-0.11500551
-0.16631802
-0.2294542
-0.26691899
-0.21767834
-0.12445553
-0.053703861
-0.0080887705
0.015477056
0.031028538
0.03941728
0.040904138
0.037898689
0.032301952
0.025902057
0.019860536
0.014903442
0.011404748
0.009458473
0.0089428957
0.0096070978
0.011142481
0.013243363
0.015645245
0.018139037
0.020577952
0.022840771
0.024849879
0.02658947
0.028101676
0.029445738
0.030529431
0.031408895
0.032123435
0.032699883
0.033151634
0.033532215
-0.1117325
-0.16076205
-0.19710292
-0.18958418
-0.14789037
-0.094764404
-0.043679382
-0.022794472
-0.0077173369
0.0050797945
0.0037863934
-0.016323164
-0.050400774
-0.064368502
-0.05690722
-0.016807432
0.019022385
0.020423906
0.016632597
-0.098586674
-0.12021592
-0.16873987
-0.23533642
-0.28828129
-0.25558855
-0.15633151
-0.077859502
-0.026770501
0.0053957765
0.023479217
0.034353147
0.038228355
0.037148698
0.032104974
0.025754413
0.019326157
0.013751259
0.0095787059
0.0070238899
0.0060489821
0.0064353878
0.0078720652
0.010026931
0.01260021
0.015350678
0.018097625
0.020697583
0.023026173
0.025058384
0.026844034
0.028470326
0.029774933
0.030846338
0.031706511
0.032409462
0.03297503
0.033421536
0.033796311
-0.10469006
-0.12128364
-0.17441127
-0.21164784
-0.1985297
-0.14926462
-0.090721348
-0.037508268
-0.014550039
0.0002818291
0.012316412
0.010281697
-0.012884919
-0.045538714
-0.056750675
-0.049013731
-0.013082434
0.017947079
0.018230377
0.016000498
-0.12378567
-0.16792397
-0.23477688
-0.30019718
-0.28868968
-0.18885564
-0.10644425
-0.044659566
-0.012527916
0.015045436
0.027409881
0.034014593
0.034787881
0.030994626
0.024964298
0.018361116
0.012287014
0.0074715817
0.004295578
0.0028196573
0.0028822103
0.0041809295
0.0063641996
0.0091008965
0.012115162
0.015191649
0.018154613
0.020847791
0.02320925
0.025310447
0.027262834
0.028837718
0.030125143
0.031169811
0.032012292
0.032701104
0.033254702
0.033694593
0.034062793
-0.12443438
-0.10932335
-0.12803785
-0.18300122
-0.22109393
-0.20296327
-0.14811754
-0.086330705
-0.032789103
-0.0082580217
0.0064472774
0.018879889
0.014359922
-0.0094125177
-0.040046748
-0.048500699
-0.040905873
-0.0096737778
0.016208816
0.015986644
0.014974396
-0.16345261
-0.22802103
-0.30080017
-0.31274848
-0.22195731
-0.13577585
-0.067888101
-0.02708149
-0.0027699706
0.020755721
0.027263581
0.030866947
0.028618892
0.023322249
0.016788746
0.010369445
0.0049887382
0.0011917247
-0.00081070188
-0.00111145
1.3846525e-05
0.0022013951
0.0050914641
0.0083780246
0.011806996
0.015158294
0.018257013
0.020994728
0.02345338
0.025792494
0.027679506
0.029231508
0.030482037
0.031502908
0.03232462
0.032998205
0.033538112
0.03397064
0.03433141
-0.15575189
-0.12117313
-0.11122104
-0.13153144
-0.18568143
-0.22408284
-0.20251611
-0.14461063
-0.081919674
-0.02911822
-0.0033367852
0.012662639
0.02297018
0.018027198
-0.0059046543
-0.034044611
-0.039898453
-0.032671511
-0.0068466585
0.013978419
0.013861195
0.013368829
-0.21588855
-0.28975088
-0.32132471
-0.25134337
-0.16263031
-0.091567183
-0.047462202
-0.016345191
0.0049307647
0.021818452
0.024595129
0.024856354
0.020522921
0.014434005
0.007858152
0.0020043557
-0.0023732813
-0.0049238876
-0.0056172197
-0.0046957955
-0.0025253389
0.00051055904
0.0040765964
0.0078847118
0.011664158
0.015177393
0.018353968
0.021223754
0.024015343
0.026271604
0.028129232
0.029631643
0.030849972
0.031843491
0.032643272
0.033299838
0.033824995
0.034249182
0.034602014
-0.19945698
-0.14478848
-0.11483117
-0.10975286
-0.13108222
-0.18154832
-0.21900582
-0.19726946
-0.1391215
-0.076933712
-0.025623112
0.0022111555
0.017214717
0.026657389
0.02131686
-0.0025466924
-0.027613975
-0.031165149
-0.024761443
-0.0043276385
0.011784683
0.011856213
0.011130061
-0.27041786
-0.31374643
-0.26820076
-0.18234115
-0.11479061
-0.068290328
-0.035529988
-0.0090270309
0.0073936844
0.017477164
0.018903247
0.016519808
0.011060997
0.004600806
-0.0015881987
-0.0065166621
-0.0096037344
-0.010720749
-0.010027304
-0.0078906547
-0.0047140275
-0.00085824051
0.0033541877
0.0076028757
0.011590247
0.015195894
0.018556902
0.021886232
0.024572532
0.026792368
0.028584269
0.030044296
0.031226296
0.032191411
0.032967188
0.033605627
0.034114718
0.034530162
0.034874272
-0.24492583
-0.17895772
-0.13135395
-0.10598633
-0.10435186
-0.12712807
-0.1707057
-0.20695266
-0.18724752
-0.13156254
-0.071305249
-0.020761376
0.0072340092
0.021309164
0.029485841
0.024051141
0.00061781611
-0.021052467
-0.021973191
-0.017762928
-0.0022370868
0.010019221
0.010032986
0.0087531627
-0.29420462
-0.27069127
-0.19451943
-0.13428578
-0.08933169
-0.055834565
-0.028180056
-0.005306882
0.0051788578
0.011925355
0.010676199
0.0066137892
0.00043415229
-0.0059269402
-0.011317269
-0.014966267
-0.016511145
-0.016072875
-0.013981821
-0.010664383
-0.0065049664
-0.0018583649
0.0028984256
0.0074069915
0.011513512
0.015374546
0.01934465
0.022539953
0.025182847
0.027316319
0.029053316
0.030466191
0.031610949
0.032545535
0.033295796
0.033914888
0.034407367
0.034812949
0.035147959
-0.26539092
-0.21443534
-0.15635992
-0.11590286
-0.095108562
-0.09522958
-0.11960928
-0.1551181
-0.1900432
-0.17391878
-0.12173842
-0.064684268
-0.014238101
0.011805944
0.024463244
0.031364359
0.026311862
0.003701894
-0.01476254
-0.013707181
-0.011805727
-0.00055121262
0.0086118767
0.0083806527
0.0067642742
-0.2603319
-0.1993625
-0.14790065
-0.10869302
-0.077213816
-0.048655078
-0.025347258
-0.0066149528
0.00094671643
0.0041601545
0.00060098449
-0.0046855271
-0.01111331
-0.016915542
-0.021073133
-0.023109006
-0.022932084
-0.020898712
-0.017434641
-0.012951432
-0.0078357893
-0.00252609
0.0025461067
0.0072051424
0.011645451
0.016337411
0.020118972
0.023261841
0.025793071
0.027855688
0.02953231
0.030897496
0.032002653
0.032905007
0.033628389
0.034227993
0.034701887
0.03509726
0.035422794
-0.23843827
-0.23035008
-0.18219547
-0.13279392
-0.099213531
-0.082307989
-0.083669515
-0.10776485
-0.13788256
-0.17008856
-0.15519301
-0.11271616
-0.054414504
-0.0080608244
0.015698471
0.026764314
0.032257285
0.027794188
0.0065739289
-0.0082230536
-0.007848786
-0.0070963135
0.00092587869
0.007431097
0.0069080081
0.0051870061
-0.19567119
-0.15468735
-0.12496357
-0.097839594
-0.07078683
-0.048560185
-0.025198782
-0.0099371757
-0.0050591599
-0.0059018137
-0.011116092
-0.017204162
-0.02334595
-0.028085817
-0.030572832
-0.030733048
-0.028753905
-0.025132251
-0.020296766
-0.014669288
-0.0087560158
-0.0030718202
0.0021828715
0.0072742177
0.012808336
0.017263017
0.0209807
0.023979181
0.026419464
0.028405727
0.030021785
0.031336654
0.032400313
0.033269304
0.033965837
0.034543253
0.03499798
0.035382578
0.035698531
-0.18358539
-0.20887394
-0.19399021
-0.15004649
-0.10939428
-0.082030061
-0.068195129
-0.070277841
-0.092391644
-0.12032681
-0.1469403
-0.1393212
-0.098728127
-0.044404288
-0.0023164183
0.018867945
0.028223416
0.031988825
0.02774099
0.0091527717
-0.0023276011
-0.0036595718
-0.003491759
0.0021295662
0.0064450017
0.0056432251
0.0039574077
-0.15527159
-0.13637778
-0.11588072
-0.093511388
-0.073219452
-0.048831946
-0.027385992
-0.013080521
-0.013854585
-0.018030829
-0.024403511
-0.030723447
-0.035969777
-0.039099801
-0.039546271
-0.037683618
-0.033881917
-0.028654823
-0.02246103
-0.015884026
-0.0095349037
-0.0036366503
0.0021716494
0.0086916869
0.013910949
0.018298611
0.021830817
0.024713201
0.027057048
0.028967121
0.030519823
0.031782409
0.03280364
0.033639835
0.034305779
0.034860379
0.035294972
0.035668541
0.035974917
-0.15011858
-0.16513007
-0.17707512
-0.15860089
-0.11982419
-0.086973326
-0.065021339
-0.053751326
-0.055859792
-0.075524241
-0.10295211
-0.12819417
-0.11955206
-0.084691162
-0.034189247
0.0028339259
0.021256892
0.028932977
0.030942964
0.026186932
0.011343311
0.0015333408
-0.0005859962
-0.00067520008
0.0030134562
0.0056402023
0.004608667
0.0030143448
-0.14106722
-0.12955467
-0.11521288
-0.099401335
-0.078679444
-0.051314726
-0.028670377
-0.019123574
-0.025203241
-0.032146829
-0.039078338
-0.044960424
-0.04859552
-0.049609517
-0.047783925
-0.043826832
-0.038156589
-0.031326769
-0.024012021
-0.016936918
-0.010345471
-0.0037487248
0.0039081254
0.010006436
0.015160101
0.019310663
0.022698191
0.025458471
0.02770679
0.029537907
0.031025103
0.03223488
0.033214847
0.034013213
0.03464798
0.035178447
0.035592456
0.03595474
0.036251711
-0.13972735
-0.13934009
-0.14282889
-0.14552035
-0.12597668
-0.092446284
-0.066151776
-0.048823076
-0.039876198
-0.041130095
-0.059566847
-0.090082394
-0.1071916
-0.10002803
-0.070116871
-0.02445692
0.0072450292
0.02284528
0.028970015
0.029372072
0.024104363
0.012580878
0.0042021921
0.0017452467
0.0015305291
0.003617754
0.0050019697
0.0037968288
0.0023175236
-0.13828965
-0.13437778
-0.12601199
-0.11127196
-0.082280052
-0.053584628
-0.030281506
-0.028880973
-0.038888801
-0.0481811
-0.054831608
-0.0594704
-0.060787745
-0.059324159
-0.055097195
-0.048948329
-0.041394652
-0.033250384
-0.025377203
-0.018039873
-0.010580223
-0.0016181291
0.0054771284
0.011515021
0.016369348
0.020340208
0.023575973
0.026216317
0.028366655
0.030116588
0.031538215
0.032697226
0.033629438
0.03438929
0.034991273
0.035496982
0.035890001
0.036240834
0.036528516
-0.14199944
-0.13407009
-0.12485683
-0.11890815
-0.11621416
-0.096763645
-0.068361177
-0.047074819
-0.033879078
-0.026490722
-0.028451839
-0.04603722
-0.077272004
-0.086220043
-0.080140492
-0.055241541
-0.015508636
0.010747683
0.023640307
0.028277725
0.027566462
0.022246182