/*--------------------------------*- C++ -*----------------------------------*\
| =========                 |                                                 |
| \\      /  F ield         | OpenFOAM: The Open Source CFD Toolbox           |
|  \\    /   O peration     | Version:  5.0                                   |
|   \\  /    A nd           | Web:      www.OpenFOAM.org                      |
|    \\/     M anipulation  |                                                 |
\*---------------------------------------------------------------------------*/
FoamFile
{
    version     2.0;
    format      ascii;
    class       surfaceScalarField;
    location    "200";
    object      phi;
}
// * * * * * * * * * * * * * * * * * * * * * * * * * * * * * * * * * * * * * //

dimensions      [0 3 -1 0 0 0 0];

internalField   nonuniform List<scalar> 
18180
(
-0.0019131577
-1.3898319
-0.0037255321
-1.2998447
-0.0018575918
-1.3879744
-0.0054276238
-1.2158172
-0.0036200278
-1.2980823
-0.0017623825
-1.386212
-0.0070431624
-1.1373278
-0.0052917497
-1.2141454
-0.0034357584
-1.2964089
-0.0016305162
-1.3845815
-0.0085557737
-1.0639915
-0.006893385
-1.1357261
-0.005030088
-1.2125511
-0.0031790738
-1.2948604
-0.00149254
-1.3830889
-0.0099513117
-0.99546821
-0.0084332183
-1.0624517
-0.0065671294
-1.1341891
-0.0046544737
-1.2110757
-0.0029051284
-1.2934478
-0.0013606541
-1.3817283
-0.011197718
-0.93143962
-0.0099194026
-0.99398202
-0.0080668433
-1.0609519
-0.0060779975
-1.1327656
-0.0042455338
-1.2097353
-0.0026409986
-1.2921674
-0.0012497722
-1.3804785
-0.012266997
-0.87162889
-0.011357505
-0.93000152
-0.0095562416
-0.99249262
-0.0074713167
-1.0595586
-0.0055265115
-1.1314846
-0.0038484377
-1.2085279
-0.0024183652
-1.2909988
-0.0011613348
-1.3793172
-0.013143106
-0.81577142
-0.012756671
-0.87022972
-0.011078772
-0.92847899
-0.0088681565
-0.99109578
-0.0067604677
-1.0583247
-0.0049866028
-1.1303464
-0.0035156478
-1.2074306
-0.0022435414
-1.2899166
-0.0010904071
-1.3782267
-0.013736385
-0.76366381
-0.014110663
-0.81441743
-0.012698801
-0.86860969
-0.010323275
-0.92702387
-0.0079659394
-0.98989031
-0.0060567182
-1.0572545
-0.0045394489
-1.1293226
-0.0032604508
-1.2064137
-0.0021084237
-1.2888986
-0.0010287237
-1.377198
-0.013958735
-0.71503582
-0.015508581
-0.76226589
-0.014533194
-0.81258303
-0.011900719
-0.86703225
-0.0091679534
-0.92582186
-0.0070560134
-0.98889102
-0.0054861684
-1.0563078
-0.0042094606
-1.1283736
-0.0030701719
-1.2054519
-0.0019950103
-1.2879323
-0.0009691758
-1.3762288
-0.013748681
-0.66977627
-0.017115015
-0.71342938
-0.016735398
-0.76006369
-0.013695416
-0.81078834
-0.010391714
-0.86580849
-0.0079760505
-0.92490182
-0.0063385231
-0.98803866
-0.0050884559
-1.0554288
-0.0039764766
-1.1274673
-0.0029137864
-1.2045331
-0.0018856313
-1.2870159
-0.00090649857
-1.3753224
-0.01301848
-0.62772733
-0.019073658
-0.66781762
-0.019325762
-0.71083902
-0.015751836
-0.75800727
-0.011656221
-0.80952383
-0.0088028831
-0.86498165
-0.0070677583
-0.92417258
-0.0058781787
-0.98724894
-0.0048290581
-1.0545763
-0.0037908798
-1.1265902
-0.0027612822
-1.2036575
-0.001767093
-1.2861553
-0.00083728436
-1.3744851
-0.011710342
-0.58864283
-0.021464969
-0.62533602
-0.022425019
-0.66471837
-0.018155876
-0.70843498
-0.012968661
-0.75669483
-0.0094971894
-0.80882952
-0.0076316771
-0.86441774
-0.0065464675
-0.9235043
-0.0056153281
-0.98646267
-0.0046324043
-1.0537347
-0.0036073788
-1.1257441
-0.0025915544
-1.202833
-0.0016322672
-1.2853603
-0.00076068521
-1.3737244
-0.0097820811
-0.55229576
-0.024341767
-0.58576603
-0.026301338
-0.6214597
-0.021076164
-0.66179808
-0.01438021
-0.70702343
-0.0099767891
-0.75621523
-0.007958945
-0.80850225
-0.0070445033
-0.8639197
-0.0063097856
-0.92280984
-0.0054379572
-0.98565711
-0.0044364045
-1.0529057
-0.0033944659
-1.1249412
-0.0023936943
-1.2020716
-0.0014807332
-1.2846403
-0.00067899804
-1.3730454
-0.0072686965
-0.51837903
-0.027788529
-0.548849
-0.031212442
-0.58085493
-0.024688923
-0.61784694
-0.015934491
-0.6602438
-0.010199444
-0.70680077
-0.0079191299
-0.75625504
-0.0072756585
-0.8082711
-0.0068625573
-0.86336693
-0.0061983631
-0.92204943
-0.0052620385
-0.98483148
-0.0041954716
-1.0521047
-0.003136115
-1.1241988
-0.0021673399
-1.201385
-0.0013181707
-1.2840011
-0.00059679273
-1.3724486
-0.0041212883
-0.48665811
-0.031896531
-0.51427103
-0.037396091
-0.54266535
-0.029180291
-0.57636356
-0.017678703
-0.61610273
-0.010095995
-0.66034725
-0.0073793218
-0.70734058
-0.0071553408
-0.75637536
-0.0072005906
-0.80793306
-0.0068894936
-0.8626758
-0.0061029125
-0.92120856
-0.0050182802
-0.98400867
-0.0038816233
-1.0513592
-0.0028326374
-1.1235335
-0.0019221298
-1.200781
-0.0011540509
-1.2834438
-0.00051901579
-1.3719296
-0.00016341802
-0.45735079
-0.036759218
-0.48179543
-0.045065587
-0.50660154
-0.034725301
-0.53712034
-0.019675813
-0.57436645
-0.0095740016
-0.61662472
-0.006206672
-0.6615199
-0.0065161799
-0.70797974
-0.0073587211
-0.75621723
-0.0075314866
-0.80729107
-0.006988875
-0.86178983
-0.0059048991
-0.92032194
-0.0046584054
-0.98323189
-0.0034940253
-1.0506978
-0.0024983895
-1.1229572
-0.0016735616
-1.2002615
-0.0009985247
-1.2829643
-0.0004495465
-1.37148
0.0052273062
-0.4311712
-0.042167134
-0.45194288
-0.054308686
-0.47255233
-0.041435628
-0.49989121
-0.021983077
-0.53481307
-0.0085315988
-0.57540886
-0.0042235076
-0.61860788
-0.0051897907
-0.66284628
-0.007229414
-0.70810905
-0.008160083
-0.75558863
-0.0079977178
-0.80628223
-0.0069204815
-0.86077425
-0.0055111935
-0.91946915
-0.0041771887
-0.98254872
-0.003056907
-1.0501393
-0.0021566451
-1.1224742
-0.0014378465
-1.1998222
-0.0008597913
-1.2825541
-0.00039086853
-1.3710892
0.012135496
-0.40767542
-0.047618746
-0.42571958
-0.065210522
-0.44104104
-0.049443045
-0.46454491
-0.02460567
-0.49726861
-0.0068516426
-0.53649303
-0.0012262047
-0.57840616
-0.0029815785
-0.62081609
-0.0066272571
-0.66344844
-0.0087721319
-0.707497
-0.0091551187
-0.75443123
-0.0081448702
-0.80505784
-0.0065064834
-0.85977896
-0.0049166276
-0.91872971
-0.0036130547
-0.98199258
-0.0026057487
-1.0496902
-0.0018318151
-1.1220802
-0.0012278808
-1.1994541
-0.00074285172
-1.2822021
-0.0003442578
-1.3707449
0.019716028
-0.3838189
-0.05222442
-0.40306975
-0.078012184
-0.41291792
-0.059187964
-0.43129612
-0.027584974
-0.46156561
-0.0044292835
-0.49969097
0.0030130455
-0.54073228
0.00033897282
-0.58172671
-0.0053915765
-0.62205178
-0.0093381946
-0.66288238
-0.010538325
-0.70611379
-0.009638447
-0.75293765
-0.0077113134
-0.80385301
-0.0057605196
-0.85893507
-0.0041882675
-0.9181545
-0.0030245792
-0.98157375
-0.0021768748
-1.0493451
-0.001543453
-1.1217646
-0.0010513975
-1.1991456
-0.00064950629
-1.2818968
-0.00030970611
-1.3704352
0.027663765
-0.35873053
-0.055433671
-0.38060965
-0.093272856
-0.38780907
-0.071539375
-0.40056651
-0.031301234
-0.42757986
-0.0011458109
-0.46484908
0.008718749
-0.50539668
0.0050338991
-0.5454272
-0.003339347
-0.58377894
-0.0098041069
-0.62158586
-0.012266829
-0.66115387
-0.011547357
-0.70420488
-0.0092171341
-0.75143183
-0.0067609838
-0.80285254
-0.0048063324
-0.858317
-0.0034195932
-0.91775948
-0.0024672729
-0.98128335
-0.0017993215
-1.0490892
-0.0013035964
-1.1215124
-0.00091105718
-1.198884
-0.0005789231
-1.2816276
-0.00028564548
-1.3701495
0.035233387
-0.33323799
-0.058689397
-0.3554748
-0.11006803
-0.36381447
-0.087356234
-0.37199221
-0.036647499
-0.39522024
0.0030609922
-0.43178666
0.016096865
-0.47222719
0.01136292
-0.5117257
-0.00026317484
-0.54850337
-0.010111545
-0.5834715
-0.014458335
-0.61939436
-0.014054163
-0.65864707
-0.011170029
-0.70225199
-0.0079949336
-0.75019788
-0.0054952739
-0.8021636
-0.0037910659
-0.85794553
-0.0026948216
-0.91753193
-0.0019833962
-0.98109927
-0.0014908301
-1.048902
-0.0011163711
-1.1213071
-0.00080561802
-1.1986573
-0.00052841648
-1.2813849
-0.0002692055
-1.3698803
0.042083775
-0.30743728
-0.063546561
-0.32838082
-0.1273958
-0.33814703
-0.10654724
-0.34462347
-0.044274775
-0.36436494
0.0081269624
-0.40028621
0.025370982
-0.44106078
0.019587329
-0.4804516
0.0040778042
-0.51606668
-0.010200017
-0.5484149
-0.017254639
-0.5806752
-0.017382089
-0.61606643
-0.013746947
-0.65607015
-0.0095586526
-0.70068827
-0.0062904333
-0.74940273
-0.0041367721
-0.8018179
-0.0028407286
-0.85779962
-0.0020766242
-0.91743871
-0.0015974129
-0.98099269
-0.0012570477
-1.0487613
-0.00097904723
-1.1211337
-0.00073127004
-1.1984545
-0.00049421185
-1.2811598
-0.00025742125
-1.3696229
0.048398173
-0.2823024
-0.069234916
-0.30174893
-0.14439496
-0.31138167
-0.12633086
-0.3183634
-0.05383047
-0.33506778
0.014005614
-0.37024359
0.036803549
-0.41171878
0.02993889
-0.45141234
0.0099385642
-0.48631236
-0.0099805641
-0.51628613
-0.020830879
-0.54483866
-0.021800522
-0.57625676
-0.017167398
-0.61264598
-0.011572974
-0.65405583
-0.007229864
-0.69974884
-0.0044506332
-0.74908886
-0.0028773283
-0.8017813
-0.002047708
-0.85782854
-0.0015996894
-0.91743643
-0.0013157153
-0.98093402
-0.001092905
-1.0486475
-0.00088452773
-1.1209804
-0.00068245868
-1.1982662
-0.00047215427
-1.2809451
-0.00024843295
-1.3693745
0.054054747
-0.25805255
-0.074826199
-0.27671112
-0.16020388
-0.28594001
-0.1442711
-0.29344142
-0.064351534
-0.30784234
0.020685204
-0.34174737
0.050533987
-0.38397403
0.042554883
-0.42433477
0.017496593
-0.45897037
-0.009368072
-0.48692486
-0.025390058
-0.51172695
-0.027619684
-0.5390195
-0.02167558
-0.57174858
-0.014178497
-0.61004046
-0.0083589227
-0.65292677
-0.0047194591
-0.69948001
-0.0027654437
-0.74920075
-0.0018528187
-0.80197619
-0.0014613487
-0.85796688
-0.0012700802
-0.91748206
-0.0011299679
-0.98089696
-0.00098596499
-1.048546
-0.00082410642
-1.1208388
-0.00065262028
-1.1980857
-0.00045858798
-1.280735
-0.0002419235
-1.3691326
0.059075281
-0.23525515
-0.080200718
-0.25267803
-0.17523431
-0.26168069
-0.16043759
-0.26977352
-0.075013439
-0.28277952
0.027649953
-0.31480709
0.06637734
-0.35759072
0.05739355
-0.39881269
0.026728634
-0.43356682
-0.0083733697
-0.45996507
-0.031190899
-0.48112401
-0.035194917
-0.50415172
-0.027543764
-0.53315132
-0.01752434
-0.56840274
-0.0097228505
-0.60867653
-0.0049214551
-0.65272478
-0.0024518634
-0.69979359
-0.0014315899
-0.74962198
-0.0011320839
-0.80230545
-0.0010863265
-0.85815063
-0.001072318
-0.91753971
-0.00102168
-0.98086124
-0.00092112954
-1.048449
-0.00078903849
-1.1207023
-0.00063556672
-1.1979088
-0.00045101084
-1.2805259
-0.00023813765
-1.3688944
0.063522552
-0.21412906
-0.085236626
-0.23021925
-0.18935447
-0.23855787
-0.17542613
-0.24669215
-0.085392242
-0.25939471
0.034314149
-0.28944372
0.083984462
-0.33241421
0.074327399
-0.37452457
0.037567267
-0.40965133
-0.0072152514
-0.43472493
-0.038650045
-0.45250593
-0.044925883
-0.47139305
-0.035071325
-0.49662416
-0.021768582
-0.52890708
-0.011366388
-0.5667592
-0.0050245275
-0.60857346
-0.0018673866
-0.65330925
-0.00070545563
-0.70051973
-0.0005433177
-0.75021075
-0.0007168609
-0.80267492
-0.00089512667
-0.85832783
-0.00097862521
-0.91758277
-0.00096691739
-0.98081546
-0.00088442776
-1.0483536
-0.00077110289
-1.1205668
-0.00062689564
-1.1977329
-0.00044750393
-1.2803165
-0.00023652851
-1.3686579
0.067471072
-0.19472924
-0.08984514
-0.20952055
-0.20248573
-0.21708798
-0.18899085
-0.22499315
-0.094684569
-0.23739982
0.040575408
-0.26565597
0.10297578
-0.30843503
0.093378102
-0.35146491
0.050418037
-0.38737534
-0.0057219607
-0.41114462
-0.048184491
-0.42519049
-0.057209396
-0.44022241
-0.044550656
-0.46191372
-0.027067031
-0.49132571
-0.01332271
-0.52695076
-0.0049872189
-0.56679651
-0.00092720425
-0.60951364
0.00042314801
-0.65443786
0.00039329114
-0.70145634
-9.6848655e-05
-0.75083076
-0.00056124865
-0.8030088
-0.00084366672
-0.85846278
-0.00095515491
-0.91759453
-0.00094109359
-0.98075879
-0.00086705134
-1.0482577
-0.00076429879
-1.1204294
-0.00062349377
-1.1975569
-0.00044591295
-1.2801071
-0.00023579
-1.3684221
0.070994085
-0.17704267
-0.093958447
-0.19061593
-0.21462606
-0.19738022
-0.20121705
-0.20486179
-0.10261197
-0.21706575
0.046770855
-0.24359527
0.12278485
-0.28546504
0.11454649
-0.32960342
0.065968249
-0.36701513
-0.0027698966
-0.3903274
-0.05936434
-0.39996477
-0.072234856
-0.41016503
-0.056130847
-0.42864222
-0.033541233
-0.45543952
-0.015601356
-0.48904706
-0.0047525359
-0.52718544
0.00046741692
-0.56819113
0.0020720458
-0.61116254
0.0017880971
-0.65583266
0.00085755364
-0.70241074
-1.9765827e-05
-0.75137224
-0.00059603419
-0.80325643
-0.00088212546
-0.85853581
-0.00096489025
-0.91757074
-0.00093597118
-0.98068987
-0.0008675753
-1.0481544
-0.00076442326
-1.1202885
-0.00062197483
-1.1973808
-0.00044435551
-1.2798986
-0.00023480526
-1.3681873
0.073269833
-0.18886546
-0.097533984
-0.17346714
-0.22578484
-0.17945715
-0.21219576
-0.18640151
-0.10924059
-0.19823316
0.053058688
-0.22335358
0.14272693
-0.26353735
0.13657866
-0.30749721
0.083687058
-0.34732223
0.003039263
-0.37282429
-0.070622504
-0.37906924
-0.089624444
-0.38257518
-0.069786932
-0.39650894
-0.041165385
-0.42101807
-0.018172872
-0.452868
-0.0042406613
-0.48955894
0.0024274122
-0.52914544
0.0043726624
-0.57049175
0.0037702754
-0.61314471
0.0022510713
-0.65722618
0.00079589883
-0.70322641
-0.00020603098
-0.75176224
-0.00074611686
-0.80339244
-0.00096055646
-0.85854015
-0.00099079042
-0.91751592
-0.00094857573
-0.98060887
-0.00087444998
-1.0480444
-0.0007633304
-1.1201471
-0.00061930492
-1.1972059
-0.00044188012
-1.2796915
-0.0002331033
-1.3679542
0.075816765
-0.18303721
-0.10051466
-0.18588478
-0.23599282
-0.16325916
-0.22199277
-0.16966013
-0.11469333
-0.18094877
0.059551363
-0.20472583
0.1621482
-0.24277486
0.15864537
-0.28560407
0.10164654
-0.32545668
0.011350303
-0.35563327
-0.080883851
-0.36256294
-0.10867266
-0.36002102
-0.085874834
-0.36648728
-0.049821952
-0.38785238
-0.020922864
-0.41826808
-0.0033443046
-0.45376436
0.0050722567
-0.49220378
0.0074661795
-0.53223895
0.006487794
-0.57320927
0.0042098983
-0.61510354
0.0019708895
-0.65840117
0.00036672796
-0.70379916
-0.0005417584
-0.7519666
-0.00094026086
-0.80341273
-0.0010459708
-0.85848497
-0.0010247317
-0.91743976
-0.00096360689
-0.98051971
-0.00087383247
-1.0479339
-0.00075881621
-1.1200076
-0.00061514275
-1.1970326
-0.00043826064
-1.2794863
-0.00023063257
-1.3677236
0.078502209
-0.17694139
-0.10250842
-0.18104345
-0.24568287
-0.17619474
-0.23067727
-0.15457467
-0.11914489
-0.16520857
0.066096385
-0.18749379
0.18063835
-0.22321598
0.18014814
-0.26427763
0.119386
-0.30334354
0.020439071
-0.33454545
-0.08978795
-0.34672917
-0.12931095
-0.34192465
-0.10528482
-0.34061103
-0.06013462
-0.35617461
-0.023647992
-0.38512725
-0.0019274918
-0.41968489
0.0085258655
-0.45721797
0.011494788
-0.49623239
0.010099477
-0.53585064
0.00688051
-0.57587988
0.0036103099
-0.61674296
0.00117601
-0.65921045
-0.00025912657
-0.7040818
-0.00092180428
-0.75198506
-0.0011262753
-0.80333243
-0.0011214309
-0.85838827
-0.0010519087
-0.91735146
-0.00096554474
-0.980428
-0.00086733703
-1.0478254
-0.00075334525
-1.1198694
-0.00060971768
-1.1968612
-0.00043334889
-1.2792836
-0.00022750761
-1.3674961
0.08129883
-0.1707274
-0.10372104
-0.17572877
-0.25442248
-0.17230384
-0.24061672
-0.16625528
-0.12272819
-0.15099136
0.072478162
-0.17159035
0.19805199
-0.20490743
0.20043427
-0.2435021
0.13664399
-0.28153561
0.028816119
-0.31172059
-0.097246142
-0.32708726
-0.15155401
-0.32448611
-0.12836062
-0.31884885
-0.073861571
-0.32688408
-0.026476301
-0.3533463
0.00019330951
-0.38724805
0.012910676
-0.4240697
0.016592851
-0.46231603
0.014766411
-0.50089932
0.010425323
-0.53939545
0.0058405631
-0.57811013
0.0022901439
-0.6178571
0.00011626844
-0.65958585
-0.00092532355
-0.70407828
-0.0012648479
-0.75184649
-0.0012702181
-0.80318364
-0.0011678247
-0.85827235
-0.0010560745
-0.91726093
-0.00095524361
-0.98034009
-0.00085796319
-1.0477207
-0.00074484882
-1.1197343
-0.00060196321
-1.1966925
-0.00042721507
-1.2790839
-0.00022389251
-1.3672722
0.084179899
-0.16475322
-0.10418946
-0.17025899
-0.26194155
-0.16820969
-0.24942701
-0.16349355
-0.13122515
-0.15775832
0.078594945
-0.15710815
0.21428604
-0.18782441
0.21923646
-0.22370963
0.15303793
-0.25989604
0.0358365
-0.28855599
-0.10540963
-0.3035571
-0.17378747
-0.3048538
-0.15417286
-0.29867387
-0.091997852
-0.30071257
-0.030372188
-0.32298819
0.0032232373
-0.35637623
0.018335995
-0.39267337
0.022876675
-0.43035353
0.020641709
-0.46819133
0.01501715
-0.50549115
0.0088085033
-0.54236339
0.0037954572
-0.57961545
0.00060620668
-0.61834703
-0.00097511706
-0.65953605
-0.0015072387
-0.70383589
-0.0015166247
-0.75160008
-0.0013496089
-0.80300186
-0.0011737684
-0.85815466
-0.0010383097
-0.91717786
-0.00093680835
-0.98026125
-0.0008434127
-1.0476222
-0.00073295124
-1.1196033
-0.00059258361
-1.1965272
-0.00042024572
-1.2788875
-0.00021997259
-1.3670522
0.087120826
-0.15924284
-0.10395739
-0.16498529
-0.26802511
-0.16417544
-0.25696959
-0.16066712
-0.13877541
-0.15594329
0.076797683
-0.15596106
0.22933043
-0.17215254
0.23651797
-0.20510591
0.16823249
-0.23890419
0.041981189
-0.26604073
-0.11456326
-0.27940236
-0.1947803
-0.28256426
-0.17994722
-0.27907945
-0.11303576
-0.27763596
-0.036599088
-0.29448567
0.0072602578
-0.32702521
0.024928534
-0.36296877
0.030430755
-0.40022745
0.027858815
-0.43757063
0.020829894
-0.47400407
0.012681525
-0.50936417
0.0057990241
-0.54436695
0.0012407832
-0.58025002
-0.0010999585
-0.61822219
-0.0019126746
-0.65913062
-0.0019246727
-0.70342784
-0.0016509992
-0.75129869
-0.0013590217
-0.8028166
-0.001142876
-0.85805009
-0.0010046747
-0.91711
-0.00091139705
-0.98019326
-0.0008250018
-1.0475301
-0.0007194801
-1.1194764
-0.00058230074
-1.1963651
-0.00041277434
-1.2786947
-0.00021590951
-1.3668363
0.090093562
-0.15429129
-0.10306822
-0.16013201
-0.27266125
-0.16034914
-0.26321096
-0.15793407
-0.14536351
-0.15407902
0.075337201
-0.15448281
0.23826366
-0.16489429
0.25212083
-0.1877554
0.18202244
-0.21889586
0.047318042
-0.24424105
-0.12391273
-0.25669126
-0.21424088
-0.25994179
-0.20303212
-0.25947936
-0.13467154
-0.25744366
-0.045474428
-0.26876062
0.011740173
-0.29896559
0.032849431
-0.33494611
0.039293839
-0.37183185
0.036509588
-0.40887822
0.02802191
-0.44476265
0.017640621
-0.47896317
0.0084351158
-0.51200026
0.0020631601
-0.54518933
-0.0013320485
-0.58001793
-0.0025541986
-0.61758067
-0.0025756469
-0.65847964
-0.0021429398
-0.7029359
-0.0016660571
-0.75099165
-0.0013059054
-0.80265357
-0.0010833695
-0.8579714
-0.00095936484
-0.91706203
-0.00088093205
-0.98013733
-0.00080460867
-1.047445
-0.0007048778
-1.1193538
-0.00057135832
-1.1962065
-0.00040507691
-1.2785056
-0.00021187914
-1.3666244
0.093052333
-0.14999389
-0.10155713
-0.15580238
-0.27586812
-0.15692514
-0.26813729
-0.15542281
-0.15094161
-0.15235597
0.074173871
-0.15291569
0.24715423
-0.16337338
0.26542026
-0.17819372
0.19428146
-0.20001443
0.051731888
-0.2233097
-0.13319522
-0.23495855
-0.23264109
-0.23829105
-0.22351952
-0.23945439
-0.15530559
-0.23884531
-0.056925393
-0.2459927
0.015762928
-0.27278338
0.042318711
-0.30843487
0.049427017
-0.34507929
0.046633292
-0.38195556
0.036723886
-0.4175802
0.023872785
-0.45099481
0.011861877
-0.48238993
0.0031412044
-0.51307831
-0.0016992756
-0.5448221
-0.0035209241
-0.57905121
-0.0035719808
-0.61658433
-0.0029162802
-0.6577063
-0.0021651119
-0.70243684
-0.0015767852
-0.75072077
-0.0012037567
-0.80253319
-0.0010040765
-0.85792669
-0.00090696231
-0.917036
-0.00084818804
-0.98009375
-0.00078330697
-1.0473666
-0.00068978403
-1.1192354
-0.00056033222
-1.1960513
-0.0003975585
-1.2783199
-0.00020802626
-1.3664164
0.096015954
-0.14655892
-0.099330311
-0.15222072
-0.27766347
-0.15400703
-0.27177456
-0.15328788
-0.15545673
-0.15090768
0.073364168
-0.15154627
0.25574674
-0.1615082
0.27828693
-0.17624005
0.20979544
-0.19370769
0.055423634
-0.20370617
-0.14212688
-0.21437805
-0.25000953
-0.21759011
-0.24228622
-0.21952435
-0.17417629
-0.22058369
-0.070063216
-0.22570749
0.018456013
-0.24868578
0.052988348
-0.28345301
0.060881575
-0.31988943
0.058189247
-0.35663524
0.047030573
-0.39226224
0.031570304
-0.42527772
0.016269302
-0.45540224
0.0045609679
-0.48380969
-0.0022456403
-0.51253194
-0.0049212113
-0.54342182
-0.0050401534
-0.57758303
-0.004085397
-0.61541522
-0.002945783
-0.65692563
-0.0020192725
-0.70199435
-0.0014075163
-0.75051701
-0.0010697071
-0.80246756
-0.00091505633
-0.85791859
-0.00085284005
-0.91703135
-0.00081567212
-0.98006139
-0.00076243155
-1.0472939
-0.00067525021
-1.1191205
-0.00054988456
-1.195899
-0.00039046761
-1.2781375
-0.00020445758
-1.3662119
-0.14412611
0.098993321
-0.096383942
-0.14950529
-0.27810769
-0.1517765
-0.27417068
-0.15161091
-0.15895208
-0.14979253
0.073086001
-0.15062952
0.26383865
-0.15963818
0.29046657
-0.17368783
0.22471598
-0.19116059
0.069478328
-0.20776239
-0.15032816
-0.19550489
-0.26615351
-0.19823407
-0.25938436
-0.20049196
-0.19112732
-0.20257333
-0.083419711
-0.2072272
0.019361516
-0.22661299
0.064275309
-0.25997275
0.073628534
-0.29619997
0.071096309
-0.33279649
0.059003018
-0.36860769
0.040916851
-0.40160879
0.021883553
-0.43089197
0.0064509521
-0.45729222
-0.0029818621
-0.48307347
-0.0068737436
-0.51057941
-0.007135631
-0.54132634
-0.0057906573
-0.57587777
-0.0041189425
-0.61424206
-0.0027133319
-0.65623157
-0.0017474338
-0.70165444
-0.0011881258
-0.7503986
-0.00092155904
-0.80246105
-0.00082534698
-0.85794609
-0.00080078722
-0.91704623
-0.00078492571
-0.9800389
-0.00074316216
-1.047226
-0.00066186911
-1.1190085
-0.0005402232
-1.1957492
-0.00038399066
-1.2779579
-0.00020123388
-1.3660107
-0.14765558
-0.092854469
-0.14271278
0.10198557
-0.27733023
-0.15028274
-0.27547469
-0.15047249
-0.16151879
-0.14904419
0.073318517
-0.15002504
0.27139193
-0.1581828
0.30158375
-0.17075536
0.2387134
-0.18768525
0.083202894
-0.20488515
-0.14550476
-0.21258578
-0.28116733
-0.18049107
-0.27476661
-0.18285182
-0.20618327
-0.18543601
-0.095914969
-0.19007807
0.018712843
-0.20657852
0.075663752
-0.23800143
0.08756567
-0.27390988
0.085214436
-0.3103181
0.072624949
-0.34641842
0.05208416
-0.379775
0.028962126
-0.40868736
0.008981812
-0.43342283
-0.0039140952
-0.45635999
-0.0095259233
-0.48042129
-0.010047168
-0.50766787
-0.0082029057
-0.53891409
-0.0058179456
-0.57417877
-0.0037554385
-0.61319995
-0.0022880713
-0.65569094
-0.0013981666
-0.7014444
-0.00094697288
-0.75037318
-0.00077331534
-0.80251309
-0.00073970319
-0.85800717
-0.00075259741
-0.91707856
-0.00075738186
-0.98002468
-0.00072600235
-1.0471619
-0.0006500291
-1.1188987
-0.00053170492
-1.1956015
-0.00037827269
-1.2777809
-0.00019839218
-1.3658123
-0.14944735
-0.27553846
-0.14681711
-0.088750143
-0.14253533
0.10485233
-0.27592398
-0.14983346
-0.16322388
-0.1487674
0.073982886
-0.14970856
0.27842814
-0.15706125
0.31122035
-0.1678194
0.2514025
-0.18344446
0.096111853
-0.20059421
-0.1395102
-0.21087971
-0.28926321
-0.20448991
-0.28858017
-0.1666775
-0.21946727
-0.16956782
-0.10708972
-0.17426127
0.017105593
-0.18847082
0.086709628
-0.2176244
0.10251379
-0.25294955
0.10039968
-0.28909513
0.087804589
-0.32549774
0.065209691
-0.35954395
0.037786401
-0.38859927
0.01237978
-0.41208533
-0.0050256959
-0.43231123
-0.013037221
-0.45284869
-0.014000148
-0.47646831
-0.01152462
-0.50434616
-0.0082001264
-0.53653191
-0.0052581058
-0.5726761
-0.0031050857
-0.61238294
-0.0017462626
-0.65534284
-0.0010158989
-0.70137547
-0.00070652474
-0.75043997
-0.0006330094
-0.80261978
-0.00066141055
-0.85809836
-0.00071060963
-0.91712533
-0.00073419685
-0.98001648
-0.00071167811
-1.0471002
-0.00064017227
-1.1187902
-0.00052449956
-1.1954553
-0.00037335105
-1.2776059
-0.00019592541
-1.3656164
-0.14988602
-0.27548532
-0.14981914
-0.27253642
-0.14679701
-0.084488462
-0.14318871
0.10764689
-0.16401126
-0.14904608
0.0751525
-0.14993701
0.28489861
-0.15617903
0.31928992
-0.16513081
0.26241503
-0.17883194
0.10777314
-0.19510574
-0.13302264
-0.20708177
-0.29605476
-0.20408816
-0.30261053
-0.19045955
-0.23119064
-0.15495414
-0.11687661
-0.15978093
0.014983151
-0.17213882
0.097150817
-0.19891201
0.11816298
-0.23327359
0.11650059
-0.26905046
0.10438912
-0.30567966
0.080385518
-0.34067356
0.04865851
-0.37041606
0.016930863
-0.39315035
-0.0062605405
-0.41085049
-0.017595644
-0.42775281
-0.019266454
-0.44758239
-0.015998144
-0.47199479
-0.01144657
-0.50109972
-0.0073482837
-0.53444173
-0.0042837862
-0.5714974
-0.0022847036
-0.6118445
-0.0011564355
-0.6552023
-0.00063608142
-0.70144591
-0.00048108668
-0.7505919
-0.00050628754
-0.8027749
-0.00059499027
-0.85821398
-0.00067719298
-0.91718234
-0.0007163254
-0.98001183
-0.00070080818
-1.0470396
-0.00063250389
-1.1186822
-0.00051861708
-1.19531
-0.00036921747
-1.2774326
-0.00019380712
-1.3654226
-0.15026155
-0.16363573
-0.15146448
-0.27383998
-0.15074015
-0.26859328
-0.14756979
-0.080107386
-0.14468087
0.11014634
0.077038325
-0.1509319
0.29070233
-0.15574073
0.32593646
-0.16282558
0.27134812
-0.1740639
0.11799532
-0.18905412
-0.12600311
-0.20212527
-0.30145544
-0.20168109
-0.31522284
-0.19147585
-0.24971199
-0.1719382
-0.12539318
-0.14643758
0.012676426
-0.1574742
0.10681366
-0.18180166
0.13413934
-0.21488836
0.13331673
-0.25008974
0.12214337
-0.28680471
0.097548404
-0.32284254
0.061801443
-0.3538165
0.023000283
-0.37648548
-0.0075160289
-0.39189487
-0.023417751
-0.40502838
-0.026171925
-0.42084734
-0.021909295
-0.44167124
-0.015761973
-0.46767938
-0.010164902
-0.4982831
-0.0059149355
-0.53281058
-0.0030696891
-0.57071242
-0.0013979868
-0.61160294
-0.0005731129
-0.65526527
-0.00028277849
-0.70164422
-0.0002797405
-0.75081844
-0.00039994687
-0.80296995
-0.00054367373
-0.85834749
-0.0006531702
-0.91724549
-0.00070434974
-0.98000829
-0.00069356151
-1.0469785
-0.00062696419
-1.1185739
-0.00051404571
-1.1951652
-0.00036581534
-1.2772606
-0.00019199701
-1.3652306
-0.15285124
0.079628016
-0.15286998
-0.16223023
-0.15356539
-0.27101475
-0.15234761
-0.26381546
-0.1489589
-0.075829354
-0.14685344
0.11211754
0.29570937
-0.15593895
0.33114813
-0.1609524
0.27804176
-0.16951921
0.12635465
-0.18242323
-0.11890177
-0.19615546
-0.30540009
-0.19818062
-0.3262062
-0.19069773
-0.26670102
-0.17448681
-0.14701336
-0.15031802
0.010466212
-0.14422736
0.11557868
-0.16623923
0.15011007
-0.1977724
0.15057327
-0.23214489
0.14070244
-0.2686488
0.11630845
-0.30556476
0.076994735
-0.33803583
0.030597323
-0.36141354
-0.0087892251
-0.37521228
-0.030714009
-0.38459861
-0.035097071
-0.39610323
-0.029586839
-0.41316979
-0.02137004
-0.43606317
-0.013853715
-0.46399057
-0.0080897912
-0.49610824
-0.0041571769
-0.5317231
-0.0017691003
-0.5703413
-0.00052643877
-0.61164962
-3.4356106e-05
-0.65551369
2.9470307e-05
-0.70195343
-0.00011154274
-0.75110685
-0.00031880165
-0.80319482
-0.00050834095
-0.85849232
-0.00063882238
-0.91731102
-0.00069821884
-0.98000363
-0.00068973612
-1.0469158
-0.00062347882
-1.1184644
-0.00051065372
-1.1950203
-0.0003630444
-1.2770896
-0.00019043406
-1.3650401
-0.15684074
0.29969887
-0.15545579
0.082213835
-0.15631715
-0.15947847
-0.15643747
-0.26692489
-0.15461858
-0.25815578
-0.15089031
-0.071792489
-0.1496068
0.11359304
0.33481791
-0.15960873
0.28253942
-0.16545006
0.13268444
-0.17584901
-0.11220639
-0.18911861
-0.30808195
-0.1934736
-0.3355938
-0.18879303
-0.28210574
-0.17529301
-0.16722567
-0.15427451
-0.0083982433
-0.13145356
0.12391616
-0.15256485
0.16569668
-0.18182584
0.16796541
-0.21516454
0.15959118
-0.25103363
0.1357901
-0.28813045
0.093307496
-0.32187752
0.038928701
-0.34636721
-0.010586418
-0.35961634
-0.039849947
-0.36607634
-0.046473817
-0.37322186
-0.039413085
-0.38627699
-0.02850643
-0.4060334
-0.018555625
-0.43136126
-0.010894934
-0.46118543
-0.0055958731
-0.49466955
-0.0022937737
-0.53119842
-0.00050030159
-0.57036744
0.00027226993
-0.61195624
0.00043755093
-0.65592177
0.00028920052
-0.70235418
1.6481686e-05
-0.75144213
-0.00026389752
-0.80343926
-0.00048881677
-0.85864233
-0.00063385096
-0.91737539
-0.00069755484
-0.97999581
-0.00068913435
-1.0468501
-0.00062185159
-1.1183532
-0.00050827834
-1.1948751
-0.00036079004
-1.2769192
-0.0001890633
-1.3648511
-0.15892171
0.33689888
-0.15781012
0.3020532
-0.15931131
0.085207999
-0.16060076
-0.15531518
-0.16008242
-0.26146105
-0.15759517
-0.25145092
-0.15351006
-0.067889236
-0.15282114
0.11451572
0.28494256
-0.16201187
0.13677221
-0.16953782
-0.10631358
-0.18174182
-0.30916948
-0.18803109
-0.34320911
-0.18585828
-0.29578669
-0.17511208
-0.18587007
-0.15664861
-0.027443027
-0.13522973
0.11789577
-0.12543317
0.18079134
-0.1676595
0.18514099
-0.19900142
0.17826796
-0.23384133
0.15510256
-0.2703461
0.10915084
-0.30397379
0.046915911
-0.32986474
-0.014621214
-0.34233242
-0.052305619
-0.34716067
-0.06093742
-0.35161274
-0.051838932
-0.36079602
-0.037420594
-0.37736282
-0.024394601
-0.40019442
-0.0144008
-0.42785539
-0.0074218364
-0.45935947
-0.002987111
-0.49397621
-0.00049198013
-0.53120674
0.00065238232
-0.57074755
0.00096737497
-0.61248607
0.00082799176
-0.65646057
0.00048720207
-0.7028249
0.00010264823
-0.75180868
-0.00023442056
-0.80369366
-0.00048428578
-0.8587919
-0.00063751831
-0.91743542
-0.00070185252
-0.9799831
-0.00069134511
-1.0467806
-0.00062174123
-1.1182398
-0.0005067096
-1.1947292
-0.00035892202
-1.2767494
-0.00018781856
-1.3646632
-0.1592979
0.28531876
-0.15817791
0.33726667
-0.16032733
0.30306921
-0.16382797
0.088435207
-0.16554004
-0.14985756
-0.16446112
-0.2545951
-0.16118376
-0.24377722
-0.15663586
-0.064074513
-0.15645109
0.11480675
0.13858653
-0.16382619
-0.10137987
-0.17447154
-0.30867218
-0.18223911
-0.34898151
-0.18225869
-0.30753145
-0.17411351
-0.20282287
-0.15815928
-0.045853202
-0.13823843
0.11044946
-0.12778342
0.18687304
-0.13151487
0.20185356
-0.18437207
0.19629016
-0.21702361
0.17363649
-0.25237526
0.12405953
-0.2852548
0.054001084
-0.31105896
-0.021858172
-0.32262778
-0.070101047
-0.32453699
-0.079423033
-0.32867506
-0.067266317
-0.33618536
-0.048379774
-0.34983684
-0.031465175
-0.37029225
-0.018649134
-0.39594609
-0.0096540251
-0.4256232
-0.0038477058
-0.45849887
-0.00049063094
-0.49397756
0.001130275
-0.53168464
0.0016485361
-0.57142871
0.0015364582
-0.61319453
0.0011244817
-0.65709785
0.00062025411
-0.7033425
0.0001489324
-0.75219203
-0.00022864487
-0.8039493
-0.00049336046
-0.85893605
-0.00064883935
-0.91748844
-0.00071040842
-0.97996403
-0.00069583171
-1.0467065
-0.00062284211