/*--------------------------------*- C++ -*----------------------------------*\
| =========                 |                                                 |
| \\      /  F ield         | OpenFOAM: The Open Source CFD Toolbox           |
|  \\    /   O peration     | Version:  5.0                                   |
|   \\  /    A nd           | Web:      www.OpenFOAM.org                      |
|    \\/     M anipulation  |                                                 |
\*---------------------------------------------------------------------------*/
FoamFile
{
    version     2.0;
    format      ascii;
    class       surfaceScalarField;
    location    "200";
    object      phi_0;
}
// * * * * * * * * * * * * * * * * * * * * * * * * * * * * * * * * * * * * * //

dimensions      [0 3 -1 0 0 0 0];

internalField   nonuniform List<scalar> 
18180
(
-0.0019116756
-1.3898054
-0.0037223798
-1.2998196
-0.0018568487
-1.3879486
-0.0054226244
-1.215793
-0.0036181711
-1.2980583
-0.00176289
-1.3861857
-0.0070358781
-1.137304
-0.0052883397
-1.2141228
-0.0034365169
-1.2963847
-0.0016320909
-1.3845536
-0.0085454456
-1.0639676
-0.0068874925
-1.1357049
-0.0050307382
-1.2125286
-0.0031821441
-1.2948346
-0.0014942118
-1.3830594
-0.0099366005
-0.99544329
-0.0084232024
-1.0624319
-0.0065670728
-1.1341686
-0.0046589163
-1.2110518
-0.0029086254
-1.2934202
-0.0013616027
-1.3816978
-0.011176464
-0.93141269
-0.0099023794
-0.99396411
-0.0080650316
-1.0609339
-0.0060838086
-1.1327437
-0.0042509669
-1.2097094
-0.0026432044
-1.2921386
-0.0012496196
-1.3804482
-0.01223568
-0.8715992
-0.011328651
-0.92998642
-0.0095507833
-0.99247836
-0.0074786403
-1.0595391
-0.0055343243
-1.1314603
-0.003852025
-1.2085006
-0.0024183327
-1.2909699
-0.0011601577
-1.379288
-0.013096138
-0.81573823
-0.012708563
-0.87021929
-0.011066455
-0.92847075
-0.0088773488
-0.99107965
-0.0067715586
-1.0583018
-0.0049920273
-1.1303203
-0.0035157072
-1.2074033
-0.0022412111
-1.2898889
-0.0010886198
-1.3781994
-0.013663961
-0.76362767
-0.014031297
-0.8144155
-0.012675211
-0.86861053
-0.010335205
-0.92701289
-0.0079821262
-0.98986908
-0.0060647771
-1.0572291
-0.0045396766
-1.1292963
-0.0032567293
-1.2063877
-0.0021045806
-1.2888729
-0.0010268108
-1.3771726
-0.013847929
-0.71500018
-0.015381312
-0.76227765
-0.014492706
-0.812598
-0.011917162
-0.86702858
-0.0091926214
-0.9258024
-0.0070684186
-0.98886544
-0.0054866435
-1.0562821
-0.0042039421
-1.1283491
-0.0030639639
-1.2054284
-0.0019907911
-1.2879089
-0.00096756962
-1.376205
-0.013581206
-0.66974496
-0.016924602
-0.71345689
-0.016673215
-0.76009714
-0.013720726
-0.81079444
-0.010430161
-0.86579104
-0.0079958623
-0.92487495
-0.0063397113
-0.98801237
-0.0050805728
-1.0554055
-0.0039673031
-1.1274458
-0.0029070354
-1.2045121
-0.0018821218
-1.2869944
-0.0009055671
-1.3752994
-0.012771094
-0.62770081
-0.018800573
-0.66786899
-0.019235369
-0.71089473
-0.015792683
-0.75802519
-0.011717162
-0.80950744
-0.0088349042
-0.864952
-0.0070707677
-0.92414389
-0.0058672072
-0.98722574
-0.0048161497
-1.0545566
-0.003781019
-1.1265718
-0.0027557584
-1.2036385
-0.0017651265
-1.2861348
-0.00083728331
-1.3744622
-0.011355252
-0.58862102
-0.021078608
-0.62542277
-0.022299948
-0.66480441
-0.018218511
-0.7084689
-0.013064822
-0.75667753
-0.0095481796
-0.80879416
-0.0076386791
-0.86438408
-0.006531588
-0.92347951
-0.0055974406
-0.98644445
-0.0046186153
-1.0537191
-0.0035993834
-1.1257282
-0.002588535
-1.2028151
-0.0016323037
-1.2853398
-0.00076165664
-1.3737005
-0.0092882732
-0.55228116
-0.023800433
-0.58589919
-0.026136001
-0.62158672
-0.021170714
-0.66185221
-0.014528087
-0.70700564
-0.0100582
-0.75616751
-0.007973689
-0.80845915
-0.007025045
-0.86389063
-0.0062852561
-0.9227917
-0.0054186724
-0.98564439
-0.0044250663
-1.0528934
-0.0033902061
-1.1249265
-0.0023938714
-1.2020535
-0.0014827685
-1.2846187
-0.00068073982
-1.3730198
-0.0066022689
-0.5183757
-0.027042287
-0.5490393
-0.031001223
-0.58103397
-0.024831093
-0.61792634
-0.016156211
-0.66022409
-0.010328263
-0.70673558
-0.0079454145
-0.75619578
-0.0072515326
-0.80823266
-0.0068296406
-0.86334624
-0.0061708086
-0.92203956
-0.0052457884
-0.98482367
-0.0041894088
-1.0520942
-0.0031365463
-1.1241838
-0.002170666
-1.2013656
-0.0013217663
-1.2839776
-0.00059895424
-1.3724208
-0.0032442731
-0.48666978
-0.030887816
-0.51453017
-0.03713387
-0.54290666
-0.029391054
-0.57647401
-0.018003284
-0.61607927
-0.010292852
-0.6602595
-0.0074256582
-0.70725533
-0.0071219331
-0.75632538
-0.0071543936
-0.80790791
-0.006848411
-0.86266864
-0.006078482
-0.92120687
-0.0050094083
-0.98400367
-0.0038824696
-1.0513482
-0.0028376533
-1.1235168
-0.0019278733
-1.2007595
-0.001158497
-1.2834181
-0.00052123334
-1.3718996
0.00096897241
-0.45736463
-0.035432118
-0.48212548
-0.04475217
-0.50691187
-0.035031085
-0.53726662
-0.020139703
-0.57433759
-0.0098653846
-0.61650673
-0.0062837292
-0.66140143
-0.0064678159
-0.70790945
-0.0072891614
-0.75619061
-0.0074667429
-0.80728958
-0.0069499306
-0.86179719
-0.0058913048
-0.92032497
-0.0046596921
-0.98322644
-0.0035015582
-1.0506843
-0.0025069084
-1.1229378
-0.0016805864
-1.2002374
-0.0010030608
-1.2829363
-0.00045151597
-1.3714481
0.0066490515
-0.43114937
-0.040461997
-0.45233476
-0.053945945
-0.47293171
-0.04186722
-0.50007573
-0.022629625
-0.5347767
-0.0089511721
-0.5752518
-0.0043446322
-0.61844583
-0.005123856
-0.66274538
-0.0071195635
-0.70807905
-0.0080624053
-0.75559495
-0.0079361108
-0.8063034
-0.0068990237
-0.86078947
-0.0055132282
-0.91947143
-0.0041884583
-0.98253954
-0.0030693679
-1.0501219
-0.0021669831
-1.1224514
-0.0014449586
-1.1997955
-0.00086378219
-1.282524
-0.00039235284
-1.3710557
0.01386645
-0.4075937
-0.045444724
-0.42616664
-0.064786485
-0.44149422
-0.050028028
-0.4647709
-0.025484078
-0.49722128
-0.0074412324
-0.53628664
-0.0014080938
-0.57818834
-0.0028947102
-0.62067498
-0.0064582914
-0.66340666
-0.0086277747
-0.70751368
-0.0090618909
-0.75446917
-0.0081126935
-0.80508973
-0.0065101682
-0.85979253
-0.0049335589
-0.91872633
-0.0036314241
-0.98197749
-0.0026206412
-1.0496682
-0.0018421952
-1.1220542
-0.001234097
-1.1994252
-0.00074586921
-1.2821705
-0.00034509796
-1.3707106
0.021679397
-0.38370207
-0.049441941
-0.40359648
-0.077477959
-0.41347517
-0.059940525
-0.43158172
-0.028751269
-0.46150371
-0.0052374208
-0.49942509
0.0027502206
-0.54044496
0.00045056461
-0.58153361
-0.0051423451
-0.62199092
-0.0091221085
-0.66291232
-0.010399867
-0.7061757
-0.0095903079
-0.75299155
-0.0077181525
-0.80388174
-0.0057864933
-0.8589396
-0.0042154786
-0.91814228
-0.0030460539
-0.98155207
-0.0021915773
-1.0493188
-0.0015523784
-1.1217359
-0.0010560711
-1.199115
-0.0006513421
-1.2818642
-0.0003098744
-1.3704007
0.029859249
-0.35861677
-0.051949723
-0.38119429
-0.092549649
-0.38852479
-0.072456512
-0.40095918
-0.032824215
-0.42750877
-0.0022269585
-0.46451417
0.008351975
-0.50502685
0.0051747767
-0.54516917
-0.0029843507
-0.58369161
-0.0094820112
-0.62163102
-0.012062673
-0.66124952
-0.011475343
-0.70429066
-0.0092281615
-0.75148154
-0.0068006729
-0.80286756
-0.0048470229
-0.85830805
-0.0034508377
-0.91773749
-0.0024879679
-0.98125568
-0.0018116251
-1.0490596
-0.0013100631
-1.1214819
-0.00091387811
-1.1988524
-0.00057956983
-1.2815946
-0.00028528672
-1.3701154
0.03776051
-0.33322037
-0.054420803
-0.35614569
-0.10903221
-0.36471173
-0.088440608
-0.3725407
-0.038619578
-0.39516382
0.0016370529
-0.43137278
0.015599841
-0.47176203
0.011535064
-0.51138713
0.00022789089
-0.54838141
-0.0096391875
-0.58353443
-0.014158659
-0.61953503
-0.013948032
-0.65877683
-0.011187942
-0.70233088
-0.0080551652
-0.75022705
-0.0055561318
-0.80215845
-0.0038369068
-0.85792198
-0.0027242778
-0.91750118
-0.0020001627
-0.98106714
-0.0014992749
-1.0488704
-0.0011199609
-1.1212758
-0.00080655305
-1.1986255
-0.00052802633
-1.2813518
-0.0002685747
-1.3698469
0.044929867
-0.30748803
-0.058493423
-0.32914775
-0.12604462
-0.33913328
-0.10783261
-0.34531972
-0.046818592
-0.36434168
0.0062557594
-0.39978252
0.024714863
-0.44048781
0.019792147
-0.48001912
0.0047420214
-0.51590126
-0.0095215874
-0.54849901
-0.016817606
-0.58087548
-0.017227806
-0.61625526
-0.013776262
-0.65618851
-0.0096499662
-0.70073608
-0.0063811388
-0.74940204
-0.0042042496
-0.80179111
-0.0028830595
-0.8577632
-0.0020996654
-0.91740168
-0.0016082867
-0.98095813
-0.0012610807
-1.0487293
-0.00097986829
-1.1211025
-0.00073051299
-1.198423
-0.0004930406
-1.2811273
-0.00025673104
-1.3695901
0.051526755
-0.28238121
-0.063466976
-0.30251447
-0.1429155
-0.31227688
-0.12785637
-0.31910952
-0.057062672
-0.33507564
0.011555841
-0.36964176
0.035959424
-0.41102708
0.030179493
-0.45087515
0.010815964
-0.48609306
-0.0090282011
-0.51639465
-0.020200974
-0.54511564
-0.021581106
-0.57652218
-0.017215326
-0.61281619
-0.011710442
-0.65412803
-0.0073639914
-0.69975323
-0.0045496572
-0.74905663
-0.0029384124
-0.80173576
-0.0020796965
-0.85778317
-0.0016136234
-0.91739634
-0.0013200209
-0.98089919
-0.0010928509
-1.0486163
-0.00088300213
-1.12095
-0.0006803995
-1.1982356
-0.00047048917
-1.2809136
-0.0002477467
-1.3693424
0.057428074
-0.25815725
-0.06837905
-0.27746914
-0.1586966
-0.28673337
-0.14598379
-0.29414945
-0.068287481
-0.30788471
0.017531858
-0.34105166
0.049481254
-0.38316359
0.042846084
-0.42369367
0.01863639
-0.45869558
-0.0080566302
-0.48706463
-0.024494219
-0.5121014
-0.027315192
-0.53938155
-0.02175378
-0.57198373
-0.014383232
-0.6101434
-0.0085552481
-0.65293677
-0.0048634621
-0.69943942
-0.0028534678
-0.74914158
-0.0018975588
-0.80191789
-0.0014792447
-0.85791755
-0.001274236
-0.91744213
-0.0011281807
-0.98086386
-0.00098274054
-1.0485165
-0.00082080028
-1.1208096
-0.00064975378
-1.1980564
-0.00045666592
-1.2807047
-0.00024118524
-1.3691012
0.062661145
-0.2353804
-0.073130804
-0.2534055
-0.17373132
-0.26243443
-0.16227535
-0.27044181
-0.079556686
-0.28288024
0.023686448
-0.3140393
0.065105396
-0.3566758
0.05776007
-0.39807758
0.028192046
-0.43324933
-0.0065966789
-0.46015553
-0.029935681
-0.48162317
-0.034783321
-0.50463327
-0.027669134
-0.5334662
-0.017823949
-0.56854301
-0.010006294
-0.60869236
-0.0051281901
-0.65267204
-0.0025777957
-0.6997151
-0.0014943623
-0.74954478
-0.0011552606
-0.80224188
-0.0010895312
-0.85810225
-0.0010675934
-0.91750271
-0.0010152235
-0.98083138
-0.00091581588
-1.0484215
-0.00078458204
-1.1206748
-0.00063233662
-1.1978807
-0.00044900221
-1.2804969
-0.00023732121
-1.3688639
0.067293531
-0.21426633
-0.07760936
-0.23090185
-0.18787964
-0.23925717
-0.17740469
-0.24730508
-0.090459647
-0.25953885
0.029438092
-0.28863189
0.082472714
-0.33140662
0.07477488
-0.37369061
0.039396587
-0.40928212
-0.0048541826
-0.43499183
-0.036923353
-0.45316786
-0.04438725
-0.47201924
-0.035268093
-0.49703432
-0.022198964
-0.52909118
-0.011768551
-0.56678076
-0.0053166494
-0.6085039
-0.0020453683
-0.65320447
-0.00079331021
-0.70041615
-0.00057362524
-0.75012641
-0.00071798569
-0.80261342
-0.00088535824
-0.85828449
-0.00096702269
-0.91755092
-0.00095777496
-0.98078942
-0.0008779449
-1.0483282
-0.00076612069
-1.120541
-0.00062361846
-1.1977061
-0.00044559306
-1.2802886
-0.00023572367
-1.3686282
0.07140266
-0.19486917
-0.081725089
-0.2101506
-0.20104736
-0.21773413
-0.19112008
-0.22554178
-0.10023309
-0.23753163
0.034734012
-0.26483477
0.10117712
-0.3073363
0.093876111
-0.35050785
0.052599309
-0.38689334
-0.0026824367
-0.41145387
-0.04588218
-0.426033
-0.056538495
-0.44101661
-0.044853506
-0.46243382
-0.027674242
-0.49155904
-0.013882744
-0.52697699
-0.0053927133
-0.56670469
-0.0011748591
-0.60937441
0.00030106601
-0.65429885
0.00035333243
-0.70134311
-9.4330301e-05
-0.75075007
-0.00054325822
-0.80295552
-0.00082408227
-0.85842743
-0.00093961429
-0.91756908
-0.00093117997
-0.98073618
-0.00085975571
-1.0482345
-0.00075928799
-1.1204053
-0.00062049707
-1.1975312
-0.0004442983
-1.28008
-0.00023513111
-1.368393
0.075063122
-0.1771777
-0.085405935
-0.19118832
-0.21322414
-0.19797381
-0.2035031
-0.20535111
-0.10860969
-0.21716518
0.039993262
-0.24279088
0.12066616
-0.28432381
0.11503089
-0.32849108
0.068437152
-0.36634569
0.00098617372
-0.39056195
-0.05641887
-0.40091718
-0.071451859
-0.41111963
-0.056592233
-0.42927788
-0.034383208
-0.45572486
-0.016366649
-0.48907513
-0.0053045206
-0.52706518
0.00012876568
-0.56800832
0.0019043366
-0.61097768
0.0017351749
-0.65568069
0.00086578071
-0.70230322
1.094499e-05
-0.75130427
-0.00056388571
-0.80321572
-0.00085679032
-0.85851025
-0.00094867419
-0.91755158
-0.00092527231
-0.98067067
-0.00086013099
-1.0481337
-0.00076008017
-1.1202657
-0.00061959489
-1.1973559
-0.0004431729
-1.279872
-0.00023437844
-1.3681586
0.077429991
-0.18897322
-0.088596787
-0.17398685
-0.22441455
-0.17999791
-0.21464149
-0.18683543
-0.11567206
-0.19828873
0.045413106
-0.22258503
0.14027251
-0.26239723
0.13711656
-0.30640948
0.086503987
-0.34655791
0.0075366251
-0.37289615
-0.066955052
-0.38002576
-0.088730353
-0.38363868
-0.070465478
-0.39724639
-0.042310393
-0.4213507
-0.019198896
-0.45289261
-0.0049768872
-0.48940277
0.0019728339
-0.52890925
0.004145518
-0.5702495
0.0037000033
-0.61294251
0.0022675214
-0.65708243
0.00084539331
-0.70313767
-0.00015473838
-0.75171342
-0.00070582909
-0.80336668
-0.00093401483
-0.85852491
-0.00097456142
-0.91750229
-0.000937949
-0.98059285
-0.0008683528
-1.0480254
-0.00076019635
-1.1201251
-0.00061767047
-1.1971814
-0.0004411794
-1.2796652
-0.00023292932
-1.3679257
0.080052426
-0.18314166
-0.091200943
-0.18636907
-0.23465181
-0.16374959
-0.22459428
-0.17004512
-0.12154289
-0.1809646
0.051125256
-0.20400088
0.15935891
-0.24167142
0.15924318
-0.28452385
0.1048372
-0.32474269
0.016613824
-0.35563511
-0.076327134
-0.36352406
-0.10757854
-0.36117758
-0.08677222
-0.36733194
-0.051338804
-0.38821798
-0.022269177
-0.41828042
-0.0043056026
-0.4535639
0.0044746352
-0.49190457
0.0071634203
-0.53192716
0.0063944339
-0.57294393
0.0042374246
-0.61491241
0.0020469778
-0.65828402
0.00044613839
-0.70373854
-0.00047900374
-0.75194025
-0.00089822251
-0.80340248
-0.0010206656
-0.85847881
-0.0010095161
-0.91743073
-0.00095503673
-0.98050616
-0.00086974447
-1.0479159
-0.00075671538
-1.1199861
-0.00061423563
-1.1970083
-0.00043805242
-1.27946
-0.00023069507
-1.367695
0.08280166
-0.17704981
-0.092838292
-0.18150431
-0.24430312
-0.17671776
-0.23343436
-0.15490951
-0.1263918
-0.16519621
0.056972547
-0.18681189
0.17753656
-0.22217854
0.18080155
-0.26322979
0.12298249
-0.30266914
0.026304781
-0.33443365
-0.08418216
-0.34778008
-0.12787231
-0.3432303
-0.10630972
-0.34164008
-0.062083359
-0.35658739
-0.025373682
-0.38511347
-0.0031550731
-0.41943095
0.0077570432
-0.4568463
0.011098006
-0.49583915
0.0099756682
-0.53550839
0.0069219854
-0.57562849
0.0037226938
-0.61658813
0.0012954308
-0.65913331
-0.00016347172
-0.70405408
-0.000856879
-0.75198159
-0.0010870879
-0.80333605
-0.0010992581
-0.85838907
-0.0010400643
-0.9173457
-0.0009600963
-0.98041581
-0.00086486053
-1.0478077
-0.00075238439
-1.1198479
-0.00060962511
-1.1968367
-0.00043361458
-1.2792571
-0.00022777517
-1.3674673
0.0856497
-0.17084369
-0.093733149
-0.17615496
-0.25300564
-0.1728018
-0.24342492
-0.1667272
-0.13034673
-0.15095458
0.062730037
-0.1709537
0.19467089
-0.20394622
0.20117121
-0.2425482
0.14065389
-0.28090119
0.035376767
-0.31174113
-0.090401172
-0.32821464
-0.14965338
-0.32599901
-0.12940354
-0.32013648
-0.076289495
-0.32743394
-0.0286635
-0.35329757
-0.0013379136
-0.38693063
0.011943352
-0.42361726
0.016082188
-0.46183049
0.014602694
-0.50046618
0.010483095
-0.5390695
0.0060007115
-0.57790651
0.0024648244
-0.61775752
0.00025894276
-0.65955572
-0.00082718718
-0.70408377
-0.0012054397
-0.75186324
-0.0012376325
-0.80319768
-0.0011514612
-0.85827767
-0.0010489139
-0.91725688
-0.00095259053
-0.98032808
-0.00085726466
-1.0477028
-0.00074517086
-1.1197124
-0.00060262862
-1.1966677
-0.00042789282
-1.279057
-0.00022432659
-1.3672429
0.088567778
-0.16486963
-0.093937379
-0.17063946
-0.26049349
-0.16866711
-0.25228955
-0.16393717
-0.13906702
-0.15800691
0.068294575
-0.15651912
0.21065379
-0.18693659
0.22005926
-0.22283427
0.15741803
-0.25931234
0.043219306
-0.28874373
-0.097394131
-0.30474817
-0.17137413
-0.30649388
-0.15522308
-0.30017946
-0.094916754
-0.30150922
-0.033175534
-0.32292191
0.001347965
-0.35598345
0.017146323
-0.3921336
0.022231296
-0.42976637
0.020425987
-0.46765378
0.015092104
-0.50507519
0.0090293553
-0.54209814
0.0040444459
-0.57948613
0.00081449918
-0.61831308
-0.00082956436
-0.65955335
-0.0014186482
-0.70387056
-0.0014686295
-0.75163224
-0.0013265027
-0.80302264
-0.0011643328
-0.85816225
-0.0010355626
-0.91717391
-0.00093681314
-0.98024853
-0.00084452248
-1.0476035
-0.00073433722
-1.1195807
-0.00059387223
-1.1965017
-0.0004212581
-1.2788601
-0.00022053227
-1.3670224
0.091532124
-0.15935105
-0.093496474
-0.16531053
-0.26655019
-0.16458277
-0.25988062
-0.16107604
-0.1468237
-0.15618049
0.065934868
-0.15564721
0.22548346
-0.17134879
0.2374382
-0.20431553
0.17297268
-0.23838892
0.050174387
-0.26626742
-0.10554927
-0.2805886
-0.19203753
-0.28408476
-0.18110124
-0.28061573
-0.1164618
-0.27863442
-0.040216982
-0.29446777
0.0049655782
-0.32653952
0.023499311
-0.36233643
0.02962994
-0.39953225
0.027576624
-0.436917
0.020920684
-0.47348236
0.012976323
-0.50902216
0.0061451413
-0.54419884
0.0015387196
-0.58021035
-0.00088780458
-0.61825484
-0.0017824953
-0.6591895
-0.0018543736
-0.70348482
-0.0016179536
-0.75134079
-0.0013464438
-0.80284053
-0.0011402105
-0.8580576
-0.0010059932
-0.91710473
-0.00091392477
-0.98017913
-0.00082762504
-1.0475102
-0.00072177111
-1.1194528
-0.00058411472
-1.1963389
-0.00041404223
-1.2786666
-0.00021655017
-1.3668058
0.094515006
-0.15438335
-0.092454963
-0.16039256
-0.27115812
-0.1607026
-0.26615958
-0.1583038
-0.15359763
-0.15430211
0.063941997
-0.15418761
0.23399333
-0.16415708
0.25314242
-0.18705302
0.18711352
-0.21845637
0.056300345
-0.24451488
-0.11398252
-0.25783417
-0.2113132
-0.26131293
-0.20428606
-0.26089994
-0.13852073
-0.2585568
-0.050026245
-0.26882516
0.0088855931
-0.29838779
0.031178704
-0.33421891
0.038320504
-0.371027
0.036144962
-0.40810059
0.02812416
-0.44412048
0.018021816
-0.47852785
0.0089049331
-0.51178195
0.0024807591
-0.54514088
-0.001027874
-0.58007028
-0.0023656653
-0.61767167
-0.0024738774
-0.65857
-0.0020958535
-0.70300692
-0.0016492215
-0.75103801
-0.0013037118
-0.80267703
-0.0010869676
-0.85797663
-0.00096438805
-0.91705427
-0.00088561632
-0.98012114
-0.00080851415
-1.0474234
-0.00070793227
-1.119329
-0.00057356473
-1.1961794
-0.00040650533
-1.2784766
-0.00021255556
-1.3665933
0.097467928
-0.15006093
-0.090844696
-0.15599362
-0.27433149
-0.15721919
-0.27111492
-0.15574726
-0.15933952
-0.15256192
0.062282059
-0.15264217
0.24247959
-0.16267387
0.26630246
-0.17731712
0.19969891
-0.19963841
0.061457702
-0.22361373
-0.12243902
-0.23605837
-0.22955899
-0.23958838
-0.22481967
-0.24077932
-0.15942343
-0.23999724
-0.062381025
-0.24620202
0.012211477
-0.27215104
0.040392483
-0.30760157
0.048272645
-0.34417105
0.046168405
-0.38105044
0.036828244
-0.41680467
0.024349575
-0.45044824
0.012484466
-0.48210738
0.0037166532
-0.51301784
-0.001269648
-0.5448991
-0.0032517652
-0.57918418
-0.0034266105
-0.61671893
-0.0028499057
-0.65781594
-0.002142708
-0.70251343
-0.0015757321
-0.75076599
-0.0012110252
-0.80255297
-0.0010130413
-0.85792798
-0.00091497283
-0.91702491
-0.00085462316
-0.98007503
-0.0007882164
-1.0473432
-0.00069336361
-1.1192092
-0.00056276838
-1.1960231
-0.00039905507
-1.2782901
-0.00020869699
-1.3663846
0.10041034
-0.1465957
-0.088563685
-0.15234194
-0.27608974
-0.15423537
-0.27477215
-0.15356196
-0.16399885
-0.15108793
0.061019735
-0.15129959
0.25069532
-0.1608579
0.2790451
-0.17541651
0.21520417
-0.19282239
0.065819443
-0.20400015
-0.13064815
-0.2154046
-0.24680457
-0.2188128
-0.24364717
-0.22076087
-0.17851026
-0.2216925
-0.076277355
-0.22610091
0.014071315
-0.24806186
0.050759823
-0.28251838
0.059553678
-0.3188826
0.057600971
-0.35560362
0.04712042
-0.39134262
0.032145328
-0.42460042
0.017074219
-0.45503799
0.0053395163
-0.48373025
-0.0016489094
-0.51263858
-0.0045419047
-0.54360896
-0.0048353573
-0.57777543
-0.0039932093
-0.61557563
-0.0029164267
-0.65704222
-0.0020204693
-0.70206869
-0.0014203961
-0.75055662
-0.0010845928
-0.80248142
-0.00092805343
-0.85791489
-0.00086310022
-0.91701643
-0.00082337267
-0.98003987
-0.00076800186
-1.0472685
-0.00067913152
-1.1190928
-0.00055241665
-1.1958697
-0.00039195108
-1.2781068
-0.00020508708
-1.3661795
-0.14413316
0.10335588
-0.085605296
-0.14955409
-0.2764886
-0.15194308
-0.27717599
-0.15183153
-0.16761237
-0.14994844
0.060331823
-0.15040002
0.25845427
-0.15905854
0.2911225
-0.17293531
0.23010076
-0.19031309
0.080228769
-0.20723171
-0.13819629
-0.19645201
-0.26284615
-0.19936302
-0.26083401
-0.20162596
-0.1956776
-0.20359353
-0.090254548
-0.2077153
0.014015918
-0.22604551
0.061651021
-0.25895306
0.072138666
-0.29510337
0.070363307
-0.33164494
0.059052631
-0.36753583
0.041583505
-0.40078079
0.022898551
-0.43042475
0.0074860854
-0.45718456
-0.0021630462
-0.48321611
-0.0063447181
-0.51083577
-0.0068509192
-0.5415934
-0.0056647908
-0.57610385
-0.0040814874
-0.61441057
-0.0027186941
-0.656344
-0.001768925
-0.70172016
-0.0012119403
-0.75042927
-0.00094205947
-0.80246741
-0.00084131053
-0.85793668
-0.00081268642
-0.91702712
-0.00079349578
-0.98001438
-0.00074910311
-1.0471986
-0.00066586823
-1.1189794
-0.00054272496
-1.195719
-0.00038538689
-1.2779265
-0.00020179248
-1.3659777
-0.14763855
-0.08209991
-0.14268759
0.10630574
-0.27564344
-0.15039924
-0.27847639
-0.15064268
-0.17026666
-0.14917724
0.060190426
-0.14980704
0.26574193
-0.15768768
0.30215993
-0.17009596
0.24408395
-0.1869185
0.094237578
-0.2043219
-0.13253838
-0.21288963
-0.2777671
-0.18153105
-0.27632173
-0.1838753
-0.21095236
-0.1863512
-0.10325161
-0.19059647
0.012388107
-0.20608749
0.072524974
-0.23691946
0.085917371
-0.27273176
0.084319387
-0.30905945
0.072599389
-0.3451917
0.052824461
-0.37877679
0.030209264
-0.40809151
0.010335496
-0.43327417
-0.002803116
-0.45654449
-0.0087959309
-0.4807649
-0.0096565866
-0.5080301
-0.008034272
-0.53922392
-0.0057719942
-0.57441335
-0.003768256
-0.61336101
-0.0023227058
-0.65579022
-0.0014353378
-0.70149677
-0.00097874763
-0.75039259
-0.00079787714
-0.80251084
-0.00075794058
-0.85799143
-0.00076562149
-0.91705499
-0.00076641845
-0.97999706
-0.00073209317
-1.0471323
-0.00065395849
-1.1188681
-0.00053405744
-1.1955703
-0.00037952128
-1.2777488
-0.00019885739
-1.3657789
-0.14951251
-0.27376949
-0.14674396
-0.078043538
-0.1424877
0.10912419
-0.27890544
-0.14997019
-0.17203671
-0.14887263
0.060516875
-0.14950369
0.27257443
-0.15663954
0.31175084
-0.1672786
0.25678338
-0.18279539
0.1073774
-0.20005832
-0.12575302
-0.21110725
-0.28522337
-0.20543337
-0.29025701
-0.16759577
-0.22444584
-0.17038182
-0.11484064
-0.17476216
0.0098487903
-0.18805716
0.082949643
-0.21651216
0.10069747
-0.25169956
0.099332544
-0.28774492
0.087658174
-0.32411823
0.065988939
-0.35835617
0.039278561
-0.38784609
0.014121475
-0.41187749
-0.0035336768
-0.4325436
-0.01203904
-0.45330138
-0.013470391
-0.47695109
-0.011303065
-0.50476131
-0.0081468482
-0.53684907
-0.0052837951
-0.57289781
-0.003159522
-0.61252419
-0.0018030902
-0.65542247
-0.0010642193
-0.70141129
-0.00074374837
-0.75044671
-0.00066051871
-0.80260827
-0.00068103301
-0.85807602
-0.00072413583
-0.91709727
-0.00074332118
-0.97998584
-0.00071764287
-1.0470686
-0.00064386455
-1.1187583
-0.00052661294
-1.1954232
-0.00037440632
-1.2775733
-0.00019628173
-1.3655826
-0.14997648
-0.27844147
-0.14982871
-0.27068474
-0.14667557
-0.073855662
-0.14312454
0.11187152
-0.17289833
-0.14910857
0.061394256
-0.14975001
0.27888885
-0.15581811
0.31982714
-0.16471584
0.26780133
-0.17829655
0.11919289
-0.19461089
-0.11858979
-0.20722155
-0.29135478
-0.20497584
-0.30399138
-0.19169899
-0.2363569
-0.15568471
-0.12499156
-0.1602309
0.0068871942
-0.17180057
0.092693478
-0.19780099
0.1161528
-0.23196749
0.11525952
-0.26762654
0.10406937
-0.30415612
0.081153356
-0.33928265
0.050394554
-0.36947217
0.019135702
-0.39286031
-0.0042745775
-0.41113659
-0.016241312
-0.42834133
-0.018554947
-0.44821682
-0.015713383
-0.47254078
-0.011389814
-0.50151834
-0.0073955871
-0.53473728
-0.0043675151
-0.57168981
-0.0023699665
-0.61195732
-0.0012285599
-0.65525813
-0.00069157817
-0.70146347
-0.00052190202
-0.75058533
-0.00053542089
-0.80275388
-0.00061499328
-0.85818516
-0.00069062004
-0.91714998
-0.00072515306
-0.97997832
-0.00070639798
-1.0470061
-0.00063583112
-1.1186491
-0.00052041961
-1.1952772
-0.00037004595
-1.2773995
-0.00019404464
-1.3653885
-0.15028003
-0.17259478
-0.15149365
-0.27677653
-0.15069174
-0.26666857
-0.14741218
-0.069568022
-0.14460633
0.11432354
0.063035085
-0.1507494
0.28459026
-0.15545142
0.32653479
-0.16252577
0.27673254
-0.17364705
0.1295129
-0.18861656
-0.1110392
-0.20216148
-0.29608821
-0.20248812
-0.31631356
-0.19265365
-0.25465611
-0.17339979
-0.13384957
-0.14682671
0.0038588365
-0.15720255
0.10161655
-0.18072364
0.13190072
-0.21354891
0.13190703
-0.248615
0.12160259
-0.28515976
0.098261404
-0.32126417
0.063783475
-0.35267157
0.025756445
-0.37609291
-0.0048992394
-0.39223565
-0.021593747
-0.40578415
-0.025225506
-0.42167078
-0.02155233
-0.44237788
-0.01571018
-0.46822041
-0.010247304
-0.49866662
-0.0060412977
-0.53306349
-0.003195365
-0.57086442
-0.0015036899
-0.61168219
-0.00065443882
-0.65529527
-0.00034241922
-0.70164295
-0.00032230047
-0.75079845
-0.00042920278
-0.80293967
-0.00056323812
-0.85831254
-0.00066601375
-0.91720912
-0.00071256876
-0.97997215
-0.00069859728
-1.0469433
-0.00062982634
-1.1185397
-0.00051548528
-1.1951318
-0.00036639679
-1.2772272
-0.00019211163
-1.3651964
-0.15269368
0.065448734
-0.15286844
-0.17121999
-0.1535269
-0.27394137
-0.15223916
-0.26184159
-0.14876589
-0.065408461
-0.14677489
0.1162495
0.28957665
-0.15573578
0.33184082
-0.16075745
0.28343849
-0.16923171
0.13791733
-0.18205147
-0.10352298
-0.19613278
-0.29934184
-0.19890786
-0.32701917
-0.19178251
-0.27142692
-0.17588284
-0.15536755
-0.1518818
0.0010448716
-0.14401275
0.10964325
-0.16522925
0.14759876
-0.19642168
0.14900619
-0.23064807
0.13992647
-0.26693888
0.11694425
-0.3038426
0.079281274
-0.33676197
0.034048052
-0.36096318
-0.0053595232
-0.37563263
-0.028275204
-0.3855542
-0.033850021
-0.39715964
-0.02915189
-0.41407122
-0.021339325
-0.43674873
-0.013991206
-0.46447651
-0.0082774519
-0.49643047
-0.0043390957
-0.53191976
-0.0019212743
-0.57044683
-0.00064353214
-0.61169309
-0.00012007092
-0.65551761
-3.1659916e-05
-0.70193359
-0.00015375454
-0.7510739
-0.00034700992
-0.8031559
-0.00052684619
-0.85845171
-0.0006506989
-0.91727098
-0.00070560324
-0.97996515
-0.00069408142
-1.0468791
-0.00062579833
-1.1184294
-0.00051169916
-1.1949864
-0.00036336949
-1.2770559
-0.00019042591
-1.365006
-0.15674499
0.29362796
-0.1553641
0.067944396
-0.15627286
-0.16847404
-0.15632362
-0.26985691
-0.1544382
-0.25616928
-0.15065537
-0.061527975
-0.14951855
0.11766975
0.33561868
-0.15951365
0.28798102
-0.16529998
0.14426334
-0.17557773
-0.096552398
-0.18902205
-0.3013713
-0.19410332
-0.33615637
-0.18977066
-0.28660098
-0.17660845
-0.17547533
-0.15577507
-0.018516688
-0.13232024
0.11721085
-0.15158035
0.16286084
-0.18049133
0.16626185
-0.21367733
0.1586049
-0.2493265
0.13644536
-0.28643999
0.096052397
-0.32061373
0.043305
-0.34601891
-0.006018523
-0.36030418
-0.036580461
-0.36732737
-0.044839912
-0.37456431
-0.038900003
-0.38741152
-0.028524473
-0.40688607
-0.018777126
-0.43196281
-0.011169182
-0.46158478
-0.0058545416
-0.49491502
-0.0025090518
-0.53133199
-0.00066581169
-0.57042455
0.00015091514
-0.61196408
0.00035092295
-0.6559002
0.00022919664
-0.70231654
-2.3654201e-05
-0.75139726
-0.00029024503
-0.8033925
-0.00050577069
-0.85859664
-0.00064447203
-0.91733212
-0.00070393442
-0.97995529
-0.00069268945
-1.0468122
-0.0006235862
-1.1183175
-0.00050891512
-1.1948409
-0.00036085859
-1.2768855
-0.000188936
-1.3648171
-0.15893275
0.33780644
-0.15783672
0.29610058
-0.15926431
0.070935848
-0.16051366
-0.16428399
-0.15988748
-0.26440764
-0.15733413
-0.24949052
-0.15322181
-0.057824721
-0.15272294
0.11852786
0.29046053
-0.16199316
0.14832552
-0.16936215
-0.090560109
-0.18157002
-0.30184859
-0.18854476
-0.34356671
-0.18669298
-0.30003798
-0.17633366
-0.19400934
-0.15807444
-0.038078772
-0.13621298
0.11009092
-0.12520031
0.17764198
-0.16636149
0.18332529
-0.19755477
0.17712406
-0.23219649
0.15589612
-0.26877726
0.11253044
-0.30291803
0.052435115
-0.32974384
-0.0084393068
-0.34359813
-0.047916108
-0.34896853
-0.058816551
-0.35335073
-0.051255028
-0.36220928
-0.037531685
-0.37840431
-0.02474099
-0.40092221
-0.014794515
-0.42833748
-0.0077835068
-0.45965582
-0.0032859713
-0.4941381
-0.00072180287
-0.53127599
0.00048328467
-0.57075692
0.00084695193
-0.61246011
0.00074434054
-0.65641534
0.0004309415
-0.70277114
6.5674285e-05
-0.75175318
-0.00025828746
-0.80363998
-0.00049932776
-0.85874178
-0.0006466757
-0.91738937
-0.00070710691
-0.97994088
-0.00069405939
-1.0467417
-0.00062287359
-1.1182035
-0.00050693816
-1.1946948
-0.00035874149
-1.2767157
-0.00018757869
-1.3646295
-0.15940588
0.29093366
-0.15829828
0.338268
-0.16044301
0.29727929
-0.16383919
0.074261376
-0.1654145
-0.15875697
-0.16419115
-0.25755062
-0.16085024
-0.24186209
-0.15630009
-0.054247577
-0.15634631
0.118746
0.15008971
-0.16375735
-0.085663561
-0.1742587
-0.30079354
-0.18262507
-0.34917445
-0.18293702
-0.31152404
-0.17520692
-0.21084875
-0.15949425
-0.056879716
-0.13927349
0.10150968
-0.12763175
0.18306893
-0.13062726
0.19995941
-0.18299561
0.19503362
-0.21546433
0.17462017
-0.25092054
0.1281016
-0.28434842
0.060587455
-0.31107037
-0.013698774
-0.32448437
-0.064407135
-0.3271071
-0.076803134
-0.33098195
-0.066665289
-0.33794047
-0.048653121
-0.35108784
-0.031992853
-0.37115245
-0.01920385
-0.39651287
-0.010150789
-0.4259702
-0.0042547627
-0.45868702
-0.00080405364
-0.49405585
0.00089932237
-0.53169203
0.0014840901
-0.57139406
0.001421796
-0.61313756
0.0010469996
-0.6570314
0.0005691622
-0.70327462
0.00011588352
-0.75212735
-0.0002495852
-0.80388972
-0.0005062437
-0.85888222
-0.00065639337
-0.91744009
-0.0007144722
-0.97992046
-0.00069768484
-1.0466669