/*--------------------------------*- C++ -*----------------------------------*\
| =========                 |                                                 |
| \\      /  F ield         | OpenFOAM: The Open Source CFD Toolbox           |
|  \\    /   O peration     | Version:  5.0                                   |
|   \\  /    A nd           | Web:      www.OpenFOAM.org                      |
|    \\/     M anipulation  |                                                 |
\*---------------------------------------------------------------------------*/
FoamFile
{
    version     2.0;
    format      ascii;
    class       volScalarField;
    location    "200";
    object      pMean;
}
// * * * * * * * * * * * * * * * * * * * * * * * * * * * * * * * * * * * * * //

dimensions      [0 2 -2 0 0 0 0];

internalField   nonuniform List<scalar> 
9200
(
0.00038778072
0.00041044724
0.00098133764
0.00043800638
0.0010309301
0.0015851923
0.00048441466
0.0010927452
0.0016588049
0.0020851426
0.00054499672
0.0011900398
0.0017603832
0.0021785042
0.0025260737
0.00061900614
0.0013126325
0.0019124815
0.0023123408
0.0026356194
0.0028814679
0.00071130242
0.0014533357
0.0021025654
0.0025063078
0.0027968513
0.0030024031
0.0031573966
0.00081747282
0.0016151696
0.0023170692
0.0027491215
0.0030258239
0.00318596
0.0032871923
0.0033568372
0.0009324134
0.0017867585
0.0025560808
0.003022851
0.0033120803
0.003442893
0.003489222
0.0034919008
0.0034835096
0.0010460545
0.0019629328
0.0028033567
0.0033266193
0.0036321249
0.0037653333
0.0037683837
0.003707997
0.0036210707
0.0035440521
0.001139538
0.0021277171
0.00305114
0.0036393103
0.0039838658
0.0041251533
0.0041204052
0.0040039155
0.0038474116
0.0036808414
0.0035438584
0.001155024
0.0022540041
0.0032751852
0.0039458186
0.0043427067
0.0045207012
0.0045135445
0.0043802825
0.0041546625
0.0039131793
0.0036768009
0.003490552
0.0010232972
0.0023006545
0.0034397383
0.0042184632
0.0046927912
0.0049256889
0.0049472817
0.0048021423
0.0045494556
0.0042259007
0.0039107258
0.0036162389
0.0033903918
0.00074635116
0.0022320605
0.0035051316
0.0044254032
0.0050072711
0.0053246563
0.0053937714
0.0052705427
0.0049939113
0.0046329905
0.0042227793
0.0038469384
0.0035055231
0.0032518634
0.00038741055
0.0020266631
0.0034435846
0.0045280708
0.0052575509
0.0056896905
0.0058385213
0.0057573323
0.0054920364
0.005094209
0.0046350497
0.004151559
0.0037280762
0.00335293
0.0030810684
3.369938e-05
0.001655023
0.0032077142
0.0044851339
0.0054028847
0.0059930536
0.0062542717
0.006248601
0.0060158472
0.0056165489
0.0051054206
0.0045610959
0.0040182595
0.0035620117
0.0031648511
0.0028867102
-0.00031402521
0.001145344
0.0027410294
0.0042505342
0.0053982788
0.0061946444
0.0066148368
0.0067188453
0.0065523208
0.0061724858
0.0056446842
0.0050323717
0.0044165453
0.0038301548
0.003355395
0.002950042
0.0026746154
-0.00065917843
0.00056380249
0.0020884871
0.003778905
0.0051965167
0.0062473489
0.0068809312
0.0071423069
0.0070774986
0.0067510506
0.0062269757
0.0055800146
0.0048790574
0.0042078994
0.0035940276
0.0031168428
0.0027144599
0.0024528843
-0.0009835009
-1.2928181e-05
0.001359576
0.003093736
0.0047568627
0.0061025814
0.0070054376
0.0074808486
0.0075652711
0.0073295725
0.0068424981
0.0061794736
0.0054247523
0.00465101
0.0039417806
0.0033182407
0.0028526932
0.0024666163
0.0022270788
-0.0012730209
-0.00052660013
0.00061012341
0.0022928497
0.0040824404
0.0057245979
0.0069375269
0.007687845
0.0079808713
0.0078830144
0.0074700262
0.0068237295
0.0060312058
0.0051830254
0.0043541747
0.0036260813
0.0030098289
0.0025717699
0.0022123529
0.0020038408
-0.0015689576
-0.00099285133
-0.00010220564
0.0014368841
0.0032457326
0.0050957515
0.0066370592
0.0077131025
0.0082780432
0.0083783683
0.0080865083
0.0074935997
0.0066940472
0.0057837862
0.0048596406
0.0039958927
0.0032682316
0.0026778266
0.0022801962
0.0019588226
0.0017881315
-0.0017961789
-0.00138847
-0.00075968503
0.00058670655
0.0023217704
0.0042621334
0.0060774069
0.0074988095
0.0084053156
0.0087717878
0.0086609977
0.0081677178
0.0073966661
0.0064522638
0.0054406737
0.0044608698
0.0035836944
0.0028773838
0.0023289259
0.0019859234
0.0017113122
0.0015848878
-0.0018959039
-0.0016911626
-0.0013811295
-0.00022675041
0.0013694209
0.0033056735
0.0052823418
0.0070243093
0.0082973416
0.0090082113
0.00915223
0.0088175426
0.0081195744
0.0071743386
0.0060998544
0.0050066346
0.0039941338
0.003126751
0.0024612795
0.001972094
0.0016946834
0.0014753315
0.0013980558
-0.0019061863
-0.001894025
-0.0019865817
-0.0010452347
0.00042846094
0.0022827955
0.0043246214
0.0062991912
0.0079251687
0.0090275596
0.0095034924
0.0094042192
0.0088364876
0.007933661
0.0068259415
0.0056392593
0.0044882636
0.0034682492
0.0026336825
0.0020296117
0.0016137003
0.0014128804
0.0012551762
0.0012310635
-0.0018987196
-0.0020620259
-0.0025473588
-0.0019120463
-0.00053530152
0.001236067
0.0032534247
0.0053634406
0.0072816563
0.0087717778
0.0096579213
0.0098744098
0.0095131179
0.008706724
0.0076056667
0.0063509837
0.0050759014
0.0038938413
0.0028925364
0.0021148226
0.0015897115
0.0012614993
0.0011454277
0.0010546637
0.0010865102
-0.0019013575
-0.0022867494
-0.0030873375
-0.0027679036
-0.0015890115
0.00014830693
0.002122063
0.0042701524
0.0063870421
0.00821938
0.009536542
0.010165054
0.010099157
0.0094621131
0.0084191022
0.0071319334
0.005753165
0.0044171257
0.0032330335
0.0022779887
0.0015790193
0.0011508552
0.00092117683
0.0008970096
0.00087680146
0.00096633167
-0.0019348366
-0.0025562257
-0.0036427216
-0.0035969206
-0.0027032976
-0.0010625593
0.00091743047
0.0030685885
0.0052908742
0.0073892485
0.0091025899
0.010203448
0.010527722
0.010155257
0.0092374329
0.0079654455
0.0065133961
0.0050377912
0.0036724637
0.0025173506
0.0016349742
0.0010368192
0.00071972056
0.00059874123
0.00067130062
0.00072393662
0.00087201133
-0.0020110336
-0.0029048466
-0.0042540687
-0.0044286275
-0.003804678
-0.0024053419
-0.00044421328
0.0017639534
0.0040348319
0.0063117064
0.0083654952
0.0099220422
0.010734669
0.010720274
0.010021825
0.0088273283
0.0073439971
0.0057530865
0.0042138795
0.002853524
0.0017584949
0.00097530095
0.00049649035
0.00030413583
0.00029878323
0.00047132136
0.00059781078
0.00080467479
-0.0021231122
-0.0033271832
-0.0049395361
-0.005332808
-0.0049054288
-0.0037572484
-0.0019907965
0.00026994846
0.0026349033
0.0050191621
0.0073361677
0.0092968708
0.010626259
0.011086152
0.010713201
0.0096819691
0.0082243953
0.0065545654
0.0048588687
0.0032929888
0.0019731148
0.00096970934
0.00030918446
-3.2328435e-05
-9.0342457e-05
2.5490082e-05
0.00029940769
0.000499638
0.00076447136
-0.0022590037
-0.0038060391
-0.0056776172
-0.0062906918
-0.0060876042
-0.0051241143
-0.0035995241
-0.001456144
0.0010127978
0.0035282694
0.0060415351
0.0083441628
0.010145408
0.011170913
0.0112319
0.010478022
0.0091240217
0.0074256655
0.0056030415
0.0038414631
0.0022887755
0.0010459406
0.00016338876
-0.00035180831
-0.00054275177
-0.00045801179
-0.00021801902
0.00015722111
0.0004299916
0.00075027498
-0.0024318929
-0.0043107409
-0.0064257334
-0.0072718767
-0.0073220184
-0.0065803842
-0.0052460663
-0.0033269896
-0.00089315695
0.0017844492
0.0044850563
0.0070806538
0.0093057481
0.010877733
0.011508145
0.011139297
0.009997886
0.0083406568
0.006433933
0.0044984227
0.0027147759
0.0012171729
8.6647291e-05
-0.00064692737
-0.00099847495
-0.0010267524
-0.00079472536
-0.00042926045
4.5719386e-05
0.0003887763
0.00076108745
-0.0026166974
-0.0048393536
-0.0071791776
-0.0082571575
-0.0085681137
-0.0080955275
-0.0069806533
-0.0052687848
-0.0030300889
-0.00029081443
0.0026457694
0.0054954552
0.0081039264
0.01018093
0.011425623
0.01158176
0.010777919
0.0092596354
0.0073302983
0.0052560108
0.0032547524
0.0014958414
9.4766881e-05
-0.00088907937
-0.0014494673
-0.0016208912
-0.0014788178
-0.0010964446
-0.0006064337
-3.4720475e-05
0.00037556259
0.00079781744
-0.0027537546
-0.0053896203
-0.0079553098
-0.0092432528
-0.0098141553
-0.0096232236
-0.00877821
-0.0072873636
-0.0052769938
-0.0026811165
0.00043385777
0.0035977272
0.0065311067
0.0090693713
0.010904232
0.011717598
0.01136981
0.010124159
0.0082580951
0.0060974222
0.0039048462
0.0018895139
0.00020328787
-0.0010601451
-0.0018667411
-0.0022321052
-0.0022116952
-0.0018932947
-0.0013604621
-0.00074853673
-8.4163387e-05
0.00038989759
0.00086098653
-0.0028107827
-0.0058746898
-0.0087708306
-0.010249213
-0.011058529
-0.011143231
-0.010588733
-0.0093680513
-0.0076018149
-0.0052447482
-0.0021815395
0.0012868737
0.0046078301
0.0075472902
0.0099233192
0.011410729
0.011696378
0.01084304
0.0091657652
0.0069939618
0.0046536138
0.0023983447
0.00042319706
-0.0011421875
-0.0022301427
-0.0028314078
-0.0029849179
-0.0027631597
-0.0022665706
-0.0015849418
-0.00085518136
-0.0001030255
0.00043092843
0.00094942524
-0.0028223721
-0.0062642592
-0.0095133584
-0.011303809
-0.012319077
-0.012655994
-0.012383121
-0.011466422
-0.0099801487
-0.0078930019
-0.0050560396
-0.0015116486
0.0022185239
0.0056303997
0.0084787678
0.010596536
0.011625006
0.011320471
0.0099747076
0.0079007307
0.0054765718
0.0030156035
0.00075844291
-0.0011212228
-0.0025200616
-0.0033972702
-0.0037701505
-0.0036979649
-0.003270086
-0.0025951596
-0.0017688517
-0.00092650406
-9.2010652e-05
0.00049772518
0.0010596547
-0.002813595
-0.0065917799
-0.010133984
-0.012321257
-0.013642287
-0.014186196
-0.014162232
-0.013544391
-0.012380011
-0.010583189
-0.0080201219
-0.004646075
-0.00070699029
0.0032089725
0.0065921156
0.0092552592
0.011013625
0.011467093
0.010577583
0.0087510059
0.0063355873
0.0037216361
0.0012063848
-0.00098970203
-0.0027197989
-0.0039088904
-0.0045452395
-0.0046703471
-0.0043637036
-0.0037272549
-0.0028772764
-0.0019117183
-0.00096319522
-5.2339783e-05
0.00058971319
0.0011880039
-0.0027983005
-0.0068870043
-0.010650751
-0.013232211
-0.014943778
-0.015787556
-0.015959205
-0.015596112
-0.014756445
-0.013305754
-0.011038452
-0.0079135369
-0.0040351439
0.00021493553
0.0041794167
0.0074179249
0.0098179448
0.011092307
0.010881246
0.0094430694
0.0071725636
0.0044842068
0.0017525303
-0.00074633279
-0.0028187185
-0.0043473957
-0.0052886782
-0.0056581736
-0.0055217347
-0.0049749893
-0.0041316766
-0.0031114611
-0.0020137523
-0.00096631733
1.4038458e-05
0.00070452674
0.0013326125
-0.0027944229
-0.0071405027
-0.011125375
-0.014009404
-0.016148249
-0.017377176
-0.017836526
-0.017663434
-0.017099601
-0.016006741
-0.014093416
-0.011249174
-0.0075624728
-0.0032437067
0.0011642204
0.0050332151
0.0080547203
0.010080738
0.010742206
0.0098540637
0.0078973075
0.0052513643
0.0023696151
-0.0004013332
-0.002812297
-0.0046997891
-0.0059800662
-0.0066399253
-0.0067226076
-0.0063148288
-0.0055269804
-0.0044805264
-0.0032975142
-0.0020757327
-0.0009371951
0.00010544467
0.00083961819
0.0014911508
-0.0028038743
-0.0073564506
-0.011540697
-0.014709265
-0.017202995
-0.018893544
-0.019707017
-0.019820746
-0.019452852
-0.018666152
-0.017130619
-0.01462431
-0.011180158
-0.0069788028
-0.0023803104
0.002024168
0.0057057596
0.0084333938
0.0099581187
0.009889013
0.0083825814
0.0059460702
0.0030124625
2.2937845e-05
-0.0027062998
-0.0049583079
-0.0066043845
-0.0075940572
-0.0079453706
-0.0077261588
-0.007042431
-0.0060153693
-0.0047728791
-0.0034356422
-0.002099146
-0.00087763388
0.00022010109
0.00099303332
0.0016622447
-0.0028317532
-0.0075380949
-0.011890213
-0.015327228
-0.018128226
-0.020249325
-0.021535799
-0.021977919
-0.021906667
-0.02132474
-0.020123121
-0.017990632
-0.014850519
-0.010855634
-0.0062842539
-0.0015783553
0.0027192982
0.006137122
0.0084702311
0.0093392407
0.0085108863
0.0064532627
0.0036129226
0.00048794443
-0.0025181702
-0.0051249199
-0.0071511598
-0.008504107
-0.0091679464
-0.0091891108
-0.0086588683
-0.007698338
-0.0064379328
-0.0050081117
-0.0035269702
-0.0020856133
-0.0007896145
0.00035609038
0.0011626643
0.0018456843
-0.007687821
-0.0028869538
-0.012165735
-0.015847259
-0.018960423
-0.021427496
-0.023197415
-0.024107545
-0.0243549
-0.024093835
-0.023108113
-0.021307417
-0.018527533
-0.014808815
-0.010395108
-0.0056144636
-0.00091270524
0.0031825976
0.0062499048
0.008049641
0.0081410353
0.0066236403
0.0040701342
0.00093220557
-0.0022819058
-0.0052126645
-0.0076188148
-0.0093572427
-0.010372862
-0.010681782
-0.010357916
-0.0095121312
-0.0082786248
-0.0067931579
-0.0051870107
-0.0035728471
-0.0020370809
-0.00067520932
0.00051151583
0.0013466128
0.0020407908
-0.012362306
-0.0077900387
-0.0029755823
-0.016253912
-0.019666983
-0.022491899
-0.024650218
-0.026071283
-0.026777608
-0.026848159
-0.026223746
-0.024613743
-0.022155314
-0.01877498
-0.014607762
-0.0099085619
-0.0050479113
-0.00045531585
0.0033341167
0.0059417839
0.0070660862
0.006341219
0.0042359721
0.0012660029
-0.002051379
-0.0052503672
-0.0080164126
-0.010149042
-0.011545332
-0.012186027
-0.012118529
-0.011440376
-0.01027977
-0.0087803769
-0.0070810272
-0.0053105307
-0.0035754492
-0.0019557903
-0.00053659425
0.00068448944
0.0015432341
0.0022460957
-0.016521288
-0.012457834
-0.0078366534
-0.0030850139
-0.020215283
-0.023395002
-0.025941842
-0.027806617
-0.029048282
-0.029578872
-0.029305108
-0.028072023
-0.025780121
-0.022696434
-0.018852053
-0.014358167
-0.0095002177
-0.0046637852
-0.00029472086
0.0030755752
0.0051028761
0.0054394032
0.0039585869
0.0013582983
-0.0019080865
-0.0052864571
-0.0083678459
-0.010884497
-0.012678399
-0.013685706
-0.01392223
-0.013463115
-0.012427604
-0.010957092
-0.0092023878
-0.0073019247
-0.0053807587
-0.0035370581
-0.0018441302
-0.00037597015
0.00087310673
0.0017511319
0.0024601345
-0.020575416
-0.016624809
-0.012440682
-0.0078337486
-0.0032124425
-0.024111121
-0.027047898
-0.029326849
-0.031057018
-0.032153969
-0.032368154
-0.031494296
-0.029570145
-0.026632141
-0.023059361
-0.018867491
-0.014161242
-0.009257028
-0.0045644858
-0.00053436622
0.0022935685
0.0036277076
0.0031220743
0.0010337973
-0.0019673259
-0.0053943896
-0.0087166346
-0.011583215
-0.013773429
-0.015171455
-0.015751968
-0.01556235
-0.014703513
-0.013312512
-0.011541441
-0.0095445275
-0.0074576763
-0.0053999574
-0.0034603374
-0.0017045191
-0.00019552514
0.0010754016
0.001968623
0.0026815011
-0.024597957
-0.020726121
-0.016557354
-0.012322436
-0.0077769644
-0.0033417926
-0.0279318
-0.030623924
-0.032779588
-0.034420068
-0.035268163
-0.034899162
-0.033332958
-0.030755587
-0.027299558
-0.023338364
-0.018915852
-0.014101228
-0.0092790194
-0.0048591505
-0.0013024388
0.00088293502
0.0014559991
0.00015782469
-0.0023960242
-0.0056778749
-0.0091287337
-0.012283099
-0.014845787
-0.016641573
-0.017596422
-0.017720541
-0.017090718
-0.015829994
-0.014090562
-0.012031631
-0.0098078717
-0.007550513
-0.00537104
-0.0033479807
-0.00153945
2.5676685e-06
0.0012895812
0.002194123
0.0029086963
-0.028545058
-0.024825149
-0.020661025
-0.016327967
-0.012109001
-0.0076533616
-0.0034553395
-0.031665584
-0.034250326
-0.036335883
-0.03779651
-0.038135944
-0.037071118
-0.03485479
-0.031745675
-0.027870304
-0.02364333
-0.019083766
-0.014290974
-0.0096912233
-0.0056772721
-0.0027176425
-0.0012174969
-0.0014570621
-0.0033820629
-0.0062867289
-0.0096991367
-0.013044364
-0.015928136
-0.018106855
-0.019450917
-0.019924648
-0.019571534
-0.018494318
-0.016835568
-0.014759005
-0.012427799
-0.0099945057
-0.0075834368
-0.0052969524
-0.0032028995
-0.0013514879
0.00021612087
0.0015139014
0.002426206
0.0031404171
-0.032389284
-0.02884325
-0.024781681
-0.020379817
-0.015944267
-0.011795921
-0.0074563387
-0.003519631
-0.035422307
-0.037958823
-0.039899159
-0.040947332
-0.040642974
-0.03893135
-0.036176518
-0.032619428
-0.028446459
-0.024049655
-0.019475785
-0.014864088
-0.010630454
-0.0071647886
-0.0048540191
-0.0040678379
-0.0050702002
-0.0074243022
-0.010563591
-0.013953543
-0.017073673
-0.019594962
-0.021322109
-0.022167271
-0.022131637
-0.021288144
-0.019763311
-0.017715436
-0.015316927
-0.012731412
-0.010107376
-0.0075596761
-0.0051809938
-0.003028077
-0.0011433237
0.0004429794
0.001746837
0.0026636564
0.0033754708
-0.036223395
-0.032740038
-0.028809823
-0.02446884
-0.019890677
-0.015416787
-0.011377491
-0.0071820945
-0.0035129952
-0.039231517
-0.041662023
-0.043257122
-0.043752167
-0.042837911
-0.04059264
-0.037372026
-0.033468993
-0.029112812
-0.024687813
-0.020249503
-0.015978162
-0.012268848
-0.0094057743
-0.0077415016
-0.0076686332
-0.0092652402
-0.011910488
-0.015134481
-0.018363874
-0.021152559
-0.023232029
-0.024451047
-0.024761214
-0.024196426
-0.022857243
-0.020890357
-0.018467055
-0.015764872
-0.012945247
-0.010149883
-0.0074828409
-0.0050266991
-0.0028268221
-0.00091748947
0.00068144972
0.0019871501
0.0029052429
0.003612723
-0.040075955
-0.036585921
-0.032693494
-0.028453753
-0.023898579
-0.019209754
-0.014745315
-0.010852359
-0.0068040859
-0.0033748249
-0.043015715
-0.045174372
-0.046290926
-0.046256308
-0.044829495
-0.042120628
-0.038516771
-0.034379486
-0.029989049
-0.025704443
-0.02158113
-0.017828074
-0.014706294
-0.012412166
-0.011378115
-0.011967412
-0.013951761
-0.016754746
-0.019909185
-0.022854189
-0.025221401
-0.02679256
-0.027458929
-0.027207292
-0.026102115
-0.024268611
-0.021870654
-0.019089884
-0.016104775
-0.013072646
-0.01012584
-0.0073570247
-0.0048380712
-0.0026021487
-0.00067584195
0.00093029364
0.0022333377
0.0031493107
0.0038510624
-0.043880169
-0.040416062
-0.03648615
-0.032265593
-0.027794111
-0.023081073
-0.018351151
-0.013926293
-0.010168876
-0.0062543743
-0.0030960895
-0.046619859
-0.048374686
-0.049065495
-0.048565472
-0.046687541
-0.043583703
-0.039695264
-0.035460463
-0.031244746
-0.027299426
-0.023683105
-0.020535358
-0.017940012
-0.016170588
-0.015745451
-0.016861215
-0.019042433
-0.021865297
-0.024802258
-0.027356475
-0.029225984
-0.030235887
-0.030315541
-0.029484507
-0.027835229
-0.025514888
-0.022702167
-0.019584942
-0.016339822
-0.013117695
-0.010039873
-0.00718694
-0.0046186728
-0.0023560909
-0.00041962681
0.0011875317
0.0024828358
0.0033942361
0.004089972
-0.047504294
-0.044170956
-0.040225061
-0.035944867
-0.031485891
-0.026833254
-0.022042024
-0.017293803
-0.012901617
-0.0092706973
-0.0055264444
-0.0027502399
-0.049924077
-0.051338241
-0.05165668
-0.050746614
-0.048469036
-0.045050913
-0.041004917
-0.036893645
-0.033086358
-0.029690185
-0.026699454
-0.024101081
-0.021942945
-0.020694865
-0.020787739
-0.02221123
-0.024447684
-0.027138578
-0.029731797
-0.031809253
-0.033119667
-0.033527109
-0.032995927
-0.031575855
-0.02938572
-0.026591819
-0.023384753
-0.019954514
-0.016474168
-0.013085455
-0.009897467
-0.0069768698
-0.0043706647
-0.0020898885
-0.00015156248
0.0014490546
0.0027333348
0.0036404671
0.0043413221
-0.05084585
-0.047745706
-0.043863383
-0.039530837
-0.035000644
-0.030356627
-0.025591171
-0.020729892
-0.015974787
-0.011660847
-0.0081807064
-0.0047237296
-0.0023799984
-0.053017831
-0.054140572
-0.054121538
-0.052850692
-0.050236395
-0.046624728
-0.042632155
-0.038896516
-0.035734528
-0.033066675
-0.030649057
-0.02848479
-0.026707482
-0.025918259
-0.026387169
-0.027891724
-0.030058338
-0.032477222
-0.034627288
-0.036159289
-0.036862341
-0.0366369
-0.035479255
-0.033468209
-0.03074667
-0.027497591
-0.023919653
-0.020202407
-0.01651324
-0.012982262
-0.0097036948
-0.0067290582
-0.0040952951
-0.0018073187
0.00012211217
0.0017115091
0.0029870536
0.0039049886
0.0046088545
-0.053999688
-0.051052841
-0.047319076
-0.042989502
-0.03837686
-0.033656145
-0.028862442
-0.023988476
-0.019103976
-0.014419703
-0.010251761
-0.0070339902
-0.0038905292
-0.0019719105
-0.055977609
-0.056825496
-0.05650236
-0.054933394
-0.052081782
-0.048481074
-0.044811371
-0.04170121
-0.039377858
-0.03745719
-0.035492782
-0.033635717
-0.032178879
-0.031737926
-0.032365282
-0.033806418
-0.03576613
-0.037800034
-0.039429783
-0.040361719
-0.04042098
-0.039541077
-0.037749301
-0.035151954
-0.031913938
-0.028232125
-0.024309806
-0.020334361
-0.016464023
-0.012813778
-0.0094608444
-0.0064448009
-0.0037978265
-0.0015173992
0.00039679429
0.0019802793
0.0032691115
0.0041857373
0.004885727
-0.057045256
-0.054193596
-0.050520838
-0.046262859
-0.041602058
-0.036788575
-0.031864448
-0.026936055
-0.022030233
-0.017230996
-0.012706995
-0.0088181053
-0.0058568977
-0.0030021293
-0.0015426602
-0.058839499
-0.059424233
-0.058843317
-0.057066808
-0.05418846
-0.050861261
-0.047802907
-0.045535997
-0.044102987
-0.042832325
-0.041151861
-0.039471092
-0.038274981
-0.038007759
-0.038593555
-0.039845852
-0.041484438
-0.043040041
-0.044089558
-0.044379299
-0.043767822
-0.042220051
-0.039793247
-0.036620329
-0.032885621
-0.028797146
-0.024560678
-0.02035802
-0.016333073
-0.012582422
-0.0091702496
-0.0061311246
-0.0034907655
-0.0012259942
0.00068223986
0.0022952934
0.0035662234
0.0044775553
0.0051716018
-0.060014937
-0.057246975
-0.053574884
-0.049298075
-0.04463555
-0.039729612
-0.034655691
-0.029581715
-0.02462104
-0.0198284
-0.015190714
-0.010977932
-0.0073444499
-0.0046069704
-0.0020848684
-0.0011116492
-0.061628331
-0.061966288
-0.061205119
-0.059439366
-0.056803401
-0.054055022
-0.051842875
-0.050514518
-0.049901009
-0.049107144
-0.047486776
-0.045939094
-0.044873284
-0.044553338
-0.044948435
-0.0459098
-0.047132838
-0.048142038
-0.04856542
-0.048181645
-0.046880585
-0.04465831
-0.041601763
-0.037868959
-0.033661974
-0.029197547
-0.02468034
-0.020280427
-0.016122745
-0.012289419
-0.0088409766
-0.0058047796
-0.0031814351
-0.00091787279
0.0010385117
0.0026255031
0.0038768905
0.0047790694
0.0054665057
-0.062931229
-0.060250509
-0.056565773
-0.052202714
-0.047452135
-0.042484757
-0.037251269
-0.031986672
-0.026896398
-0.022079019
-0.017455004
-0.013145402
-0.0091841758
-0.0057847837
-0.003287033
-0.0011772033
-0.00068795323
-0.064351453
-0.064505565
-0.063795381
-0.062315187
-0.060230928
-0.058325411
-0.057090016
-0.056621309
-0.056652302
-0.056079987
-0.05441192
-0.052939192
-0.051783394
-0.051223847
-0.051323893
-0.051912032
-0.052649165
-0.05306248
-0.052824558
-0.051744097
-0.049741345
-0.046843802
-0.043167848
-0.038895987
-0.034246557
-0.029441276
-0.024676256
-0.020103643
-0.015833914
-0.011946199
-0.0084949028
-0.0054747987
-0.0028475155
-0.00050681222
0.0014107344
0.0029722776
0.0041972755
0.0050905451
0.0057700512
-0.065774473
-0.063216228
-0.059526564
-0.055064517
-0.050154628
-0.04502702
-0.039650859
-0.034178626
-0.028906629
-0.023993073
-0.019368844
-0.015090978
-0.011011942
-0.0072879459
-0.0041500522
-0.001946478
-0.00031076468
-0.00027479852
-0.067042028
-0.067244835
-0.066883043
-0.065984174
-0.064751755
-0.063879431
-0.063551154
-0.063747359
-0.064181932
-0.063623773
-0.061852686
-0.060262845
-0.058798122
-0.057901273
-0.05762927
-0.057793326
-0.057985588
-0.057766893
-0.056841404
-0.055046884
-0.052335541
-0.048766547
-0.044487065
-0.039703627
-0.034647213
-0.029535814
-0.024550045
-0.019828148
-0.015480506
-0.011580682
-0.0081432675
-0.0051101814
-0.0023687987
-7.8410301e-05
0.001803279
0.0033281447
0.0045285457
0.0054112045
0.0060820376
-0.068562427
-0.066103474
-0.062463775
-0.057915057
-0.052831432
-0.047450177
-0.04184862
-0.036171778
-0.030704966
-0.025629983
-0.02092507
-0.016684
-0.012628452
-0.0087669267
-0.0053044571
-0.002475187
-0.00063447147
0.00050747823
0.00013982443
-0.069899592
-0.07047287
-0.070765364
-0.070749823
-0.070630615
-0.070760282
-0.071112539
-0.07175886
-0.072271082
-0.071638225
-0.069625194
-0.067677573
-0.065762655
-0.064491457
-0.063805413
-0.063498745
-0.063107198
-0.062228793
-0.060594838
-0.058073734
-0.05465051
-0.050419214
-0.045559433
-0.040298539
-0.034870849
-0.029481708
-0.024301161
-0.01947091
-0.015097717
-0.011206835
-0.007744271
-0.0045485722
-0.0018700268
0.00037519553
0.0022038245
0.003695705
0.0048694349
0.0057409523
0.006402034
-0.071489661
-0.068906195
-0.065316012
-0.060758131
-0.055515273
-0.049858886
-0.043939429
-0.037987679
-0.032314935
-0.027049313
-0.022199224
-0.017901293
-0.013896038
-0.01003813
-0.0064212664
-0.0032722755
-0.00082448672
0.00061623162
0.0012425233
0.00057516667
-0.073233034
-0.074486221
-0.0757491
-0.076919283
-0.077943421
-0.07882341
-0.079657594
-0.080401112
-0.080759268
-0.079948367
-0.07749036
-0.075030416
-0.072601203
-0.070941904
-0.069811199
-0.068993131
-0.06798919
-0.066427406
-0.064067681
-0.060809561
-0.056675866
-0.051799583
-0.046390289
-0.040687006
-0.034916064
-0.029277154
-0.023949502
-0.019075398
-0.014702859
-0.010769785
-0.0070826072
-0.0039632766
-0.0013403321
0.00083514133
0.0026165999
0.0040729853
0.0052198307
0.0060790752
0.0067297603
-0.074873066
-0.071829461
-0.068061834
-0.063505101
-0.058215821
-0.052296245
-0.046025275
-0.039713497
-0.033751966
-0.028288039
-0.023257715
-0.018828177
-0.014790902
-0.010977156
-0.0073370561
-0.0040226573
-0.0012657264
0.00073768959
0.0017984645
0.001892954
0.0010134643
-0.077345779
-0.079636584
-0.082178965
-0.084619063
-0.086549598
-0.087941433
-0.088939201
-0.089421782
-0.089447586
-0.088308809
-0.085248117
-0.082183481
-0.079269959
-0.077199749
-0.075610675
-0.074249521
-0.072610994
-0.070345875
-0.067243574
-0.063241426
-0.058406703
-0.052911285
-0.046984232
-0.04086466
-0.034778794
-0.028945318
-0.023548627
-0.018662847
-0.014225164
-0.0099891312
-0.0063919132
-0.0033398286
-0.00080676701
0.0013075837
0.0030389308
0.0044600058
0.0055788372
0.0064252767
0.0070648113
-0.079024253
-0.075178977
-0.070899476
-0.066128713
-0.060813375
-0.05475457
-0.048146449
-0.041458624
-0.035131655
-0.029380767
-0.024155882
-0.019547948
-0.015393972
-0.011543493
-0.0079426241
-0.0045893299
-0.0016528122
0.00064355922
0.002209389
0.0028534714
0.0024645608
0.0013850739
-0.082587848
-0.086239352
-0.090206148
-0.093726313
-0.096277291
-0.097906592
-0.098650345
-0.098587907
-0.098154133
-0.096520724
-0.092741367
-0.089056833
-0.085748125
-0.083223833
-0.081175698
-0.079254129
-0.076958046
-0.07396766
-0.070107529
-0.065362114
-0.059844946
-0.053755859
-0.047332917
-0.040823681
-0.034485811
-0.028551195
-0.02312487
-0.018143295
-0.013303994
-0.0091724235
-0.0056544954
-0.0027159041
-0.00026084069
0.0017892211
0.0034708159
0.0048557416
0.0059460029
0.0067788795
0.007406925
-0.084295907
-0.079280075
-0.074137391
-0.068831989
-0.063267457
-0.057098733
-0.050284237
-0.043253366
-0.036544291
-0.030431393
-0.024922434
-0.02011257
-0.015798756
-0.011825155
-0.0081917934
-0.0048682338
-0.0018757218
0.00060007114
0.0024338128
0.003537986
0.0037251107
0.0029225117
0.0016192693
-0.089271302
-0.094469691
-0.099732297
-0.10403644
-0.10693801
-0.10837408
-0.1084798
-0.10767722
-0.10673109
-0.10441373
-0.09989478
-0.095681124
-0.091973147
-0.089014454
-0.086498232
-0.083993966
-0.081015129
-0.077276806
-0.072650419
-0.067171474
-0.060988798
-0.054319806
-0.047423955
-0.0405945
-0.034115329
-0.028126122
-0.022564768
-0.017058045
-0.012337534
-0.0082983731
-0.0049212568
-0.0020799604
0.00029346413
0.002280148
0.0039111346
0.0052595916
0.0063206051
0.0071397654
0.0077554551
-0.090973616
-0.084472856
-0.078108689
-0.071901924
-0.065783383
-0.059276834
-0.052283784
-0.045046887
-0.038002813
-0.03151619
-0.025649169
-0.02055559
-0.016047894
-0.011914876
-0.0081620847
-0.004812426
-0.0018361406
0.00070730311
0.0026981014
0.0040447352
0.0046417129
0.0043675978
0.0032317985
0.001726455
-0.097577675
-0.10427221
-0.11056606
-0.11537269
-0.11821162
-0.11900081
-0.11817613
-0.11659482
-0.11501203
-0.11191047
-0.10668384
-0.10202872
-0.097928294
-0.094568199
-0.091570827
-0.088456861
-0.084767285
-0.080263318
-0.074870817
-0.068664438
-0.061817341
-0.054584544
-0.047290626
-0.040270831
-0.033704718
-0.027528285
-0.021289433
-0.015915799
-0.011300871
-0.0074345905
-0.0041768033
-0.0014368092
0.00085643711
0.0027791085
0.004359136
0.0056709154
0.0067028112
0.0075071123
0.0081100438
-0.099251759
-0.091026332
-0.083109398
-0.075649321
-0.068615581
-0.061498775
-0.054114893
-0.046696644
-0.039445307
-0.032645975
-0.026414528
-0.020980029
-0.016192042
-0.011859082
-0.007954789
-0.0044934659
-0.0014902839
0.0010437863
0.0030911873
0.0045719156
0.0053614835
0.0054511996
0.0047696492
0.0033539494
0.0017224
-0.10748434
-0.11544999
-0.12252051
-0.12742022
-0.12972212
-0.12946885
-0.12762188
-0.12524684
-0.1228701
-0.1189634
-0.1130732
-0.10810276
-0.10363492
-0.099890029
-0.096383824
-0.092629875
-0.088205086
-0.082925897
-0.076760262
-0.069810458
-0.062303578
-0.054586659
-0.047044226
-0.039896864
-0.03307784
-0.026035294
-0.019942384
-0.014687564
-0.010282391
-0.0065607417
-0.0034268791
-0.00078585493
0.0014266875
0.0032852569
0.0048143478
0.006090335
0.0070912211
0.0078803465
0.0084701922
-0.10916059
-0.099144411
-0.08941971
-0.08037461
-0.072074422
-0.064017686
-0.055981798
-0.048188261
-0.040737043
-0.033745201
-0.027205691
-0.021438432
-0.016306996
-0.01170096
-0.0076111287
-0.0040143372
-0.00091274925
0.0016509022
0.0036753294
0.0051856683
0.0060760663
0.0063155732
0.0059611349
0.0049435651
0.0033302764
0.0016307046
-0.1188327
-0.12783541
-0.13529577
-0.13980057
-0.1410915
-0.13961079
-0.13673968
-0.13352014
-0.13023906
-0.12556485
-0.11914213
-0.11392389
-0.10911704
-0.10497476
-0.10092941
-0.09650655
-0.091328704
-0.085253854
-0.078278233
-0.070571557
-0.062487596
-0.05445646
-0.046737253
-0.039255206
-0.031337698
-0.024452252
-0.018490089
-0.013487543
-0.0092554849
-0.0056837254
-0.0026704358
-0.00012860803
0.0020033123
0.0037983841
0.0052781289
0.0065158051
0.0074851665
0.0082586629
0.0088354866
-0.12057296
-0.10891331
-0.097275058
-0.086369433
-0.076462148
-0.067134333
-0.058131468
-0.049723924
-0.04191241
-0.034718922
-0.027959824
-0.021924672
-0.016465875
-0.0115237
-0.0071829059
-0.0034196091
-0.00020591508
0.0024512721
0.004485293
0.005942034
0.0068298674
0.0071458559
0.006921661
0.0062051966
0.0049364954
0.0032013752
0.001474353
-0.13144215
-0.14114636
-0.14851128
-0.15211635
-0.15210563
-0.14937027
-0.14547386
-0.14132188
-0.1370833
-0.13169016
-0.12500425
-0.11950211
-0.11437978
-0.10981997
-0.10520655
-0.10009102
-0.09412742
-0.087195833
-0.079371645
-0.070990342
-0.062521838
-0.054256353
-0.046102293
-0.037237857
-0.029484706
-0.022740294
-0.017078572
-0.01228114
-0.008228422
-0.0048018652
-0.0019090447
0.00053401917
0.0025863879
0.0043207967
0.0057476174
0.0069464253
0.007883715
0.0086415058
0.0092054536
-0.13330323
-0.12022973
-0.10676509
-0.093868477
-0.082055056
-0.071128927
-0.060885021