/*--------------------------------*- C++ -*----------------------------------*\
| =========                 |                                                 |
| \\      /  F ield         | OpenFOAM: The Open Source CFD Toolbox           |
|  \\    /   O peration     | Version:  5.0                                   |
|   \\  /    A nd           | Web:      www.OpenFOAM.org                      |
|    \\/     M anipulation  |                                                 |
\*---------------------------------------------------------------------------*/
FoamFile
{
    version     2.0;
    format      ascii;
    class       volScalarField;
    location    "200";
    object      pPrime2Mean;
}
// * * * * * * * * * * * * * * * * * * * * * * * * * * * * * * * * * * * * * //

dimensions      [0 4 -4 0 0 0 0];

internalField   nonuniform List<scalar> 
9200
(
1.4404599e-06
1.5363853e-06
9.1267701e-06
1.6673092e-06
9.5378976e-06
2.5006248e-05
1.9526042e-06
1.0040824e-05
2.5978224e-05
4.5636818e-05
2.3887918e-06
1.1021946e-05
2.734288e-05
4.7152556e-05
7.1096589e-05
3.1377142e-06
1.2381809e-05
2.9863722e-05
4.932165e-05
7.3147156e-05
9.9506943e-05
4.3614645e-06
1.4395805e-05
3.3349437e-05
5.3225828e-05
7.5978387e-05
0.00010188039
0.00013019107
6.372978e-06
1.7193284e-05
3.833204e-05
5.8552667e-05
8.1019494e-05
0.00010507495
0.00013275267
0.00016261031
9.5173207e-06
2.1053537e-05
4.5022845e-05
6.6054171e-05
8.7762802e-05
0.0001107768
0.0001360205
0.00016519215
0.00019642578
1.4314119e-05
2.6173997e-05
5.3978277e-05
7.5947656e-05
9.707708e-05
0.00011825412
0.00014192632
0.00016825181
0.00019892835
0.00023150958
2.0982017e-05
3.2835272e-05
6.576896e-05
8.8887499e-05
0.00010911952
0.000128455
0.00014950307
0.0001739739
0.00020157798
0.00023385937
0.00026782819
2.750599e-05
4.105816e-05
8.1093766e-05
0.0001054457
0.00012459905
0.00014140247
0.00015976244
0.00018114237
0.00020683346
0.00023595728
0.00026998923
0.0003053846
3.1099426e-05
5.1569195e-05
0.00010089559
0.0001265403
0.00014413214
0.00015777355
0.0001725865
0.00019083144
0.00021323892
0.00024056869
0.00027145232
0.00030735318
0.00034425162
3.513411e-05
6.8540657e-05
0.00012788428
0.00015383804
0.00016882263
0.00017810118
0.00018860205
0.00020277825
0.00022194284
0.00024600026
0.00027533166
0.00030815135
0.00034603942
0.00038443362
4.6129636e-05
9.9642779e-05
0.00016886175
0.00019110804
0.00020058812
0.00020346044
0.00020823874
0.00021756137
0.00023255593
0.00025349677
0.00027970376
0.00031129344
0.00034617347
0.00038607317
0.00042603412
6.6430163e-05
0.00015663699
0.00023455011
0.00024639306
0.00024354146
0.00023576091
0.00023248703
0.00023550786
0.00024562322
0.00026255662
0.00028593315
0.00031462785
0.00034862095
0.00038558105
0.00042755298
0.0004690238
9.6992435e-05
0.00024812645
0.00034157877
0.00033281859
0.00030571503
0.00027894804
0.00026309592
0.00025750684
0.00026139495
0.00027371428
0.0002934173
0.00031966091
0.00035101263
0.00038742737
0.00042647089
0.00047045192
0.00051349383
0.0001367242
0.00037233929
0.00050393522
0.00046976023
0.00040172312
0.00034104553
0.0003036307
0.00028510363
0.00028068308
0.00028716151
0.00030268906
0.00032570111
0.00035501694
0.000389037
0.00042781548
0.00046882674
0.00051485881
0.00055939683
0.00017941473
0.0005227927
0.00071805032
0.00067759679
0.00055375775
0.00043692651
0.00036153613
0.00032146084
0.00030486934
0.00030364651
0.00031389522
0.00033329196
0.00035986333
0.00039226209
0.00042882548
0.00046978892
0.00051272524
0.00056070511
0.00060677725
0.00021775293
0.00068057857
0.00097055367
0.00095574341
0.00078517252
0.00058845181
0.0004508222
0.00037314365
0.00033669016
0.00032438687
0.00032773245
0.00034252568
0.00036610047
0.00039626547
0.00043156084
0.00047040876
0.00051338765
0.00055807983
0.00060802974
0.00065560652
0.000245109
0.00082791503
0.0012304958
0.0012874144
0.0010992377
0.00082179499
0.00059293566
0.00045273792
0.00038171634
0.00035180297
0.00034528795
0.00035402916
0.00037376469
0.00040160613
0.00043513818
0.00047298163
0.00051379773
0.00055851087
0.00060492294
0.00065678136
0.00070590067
0.0002523583
0.00094359327
0.0014687299
0.0016342817
0.0014774787
0.0011477622
0.0008161229
0.00058233521
0.00045105802
0.000390483
0.00036868073
0.00036877914
0.00038339755
0.00040824653
0.00044012873
0.00047660892
0.00051651994
0.00055888005
0.0006051638
0.00065316034
0.00070696577
0.00075765214
0.00024092092
0.0010066301
0.0016618786
0.0019521507
0.0018816709
0.0015495007
0.0011377551
0.00078903463
0.00056561772
0.00044995583
0.00040176066
0.00038862366
0.00039585871
0.00041663847
0.00044641495
0.00048188724
0.00052067979
0.00056205176
0.00060559563
0.00065318775
0.00070278479
0.00075855741
0.00081086468
0.00022328681
0.0010190594
0.001790958
0.0022138207
0.0022626172
0.0019914847
0.0015463887
0.0010942559
0.00075106605
0.00054833489
0.0004523229
0.0004168632
0.0004127621
0.00042749135
0.00045435039
0.00048862809
0.00052692987
0.00056722542
0.00060944172
0.00065373158
0.00070255384
0.00075373553
0.00081155379
0.0008655406
0.00020541523
0.00099959592
0.0018353978
0.0024019421
0.0025841876
0.002422686
0.0020124323
0.001497558
0.0010338674
0.00071153585
0.00053567223
0.00045956591
0.00043683396
0.00044214266
0.00046446331
0.00049708115
0.00053503269
0.00057515438
0.00061604245
0.0006584175
0.00070320197
0.00075313029
0.00080599737
0.00086594771
0.00092168882
0.0001901805
0.00096898571
0.0018185418
0.0024754453
0.002822183
0.0027969431
0.0024817593
0.0019731365
0.0014231472
0.00096943445
0.00067749595
0.00052936847
0.00047302613
0.00046289448
0.00047781459
0.00050755681
0.00054512511
0.00058560226
0.00062631578
0.00066678677
0.00070877979
0.00075377501
0.00080487522
0.00085954507
0.00092174394
0.00097931444
0.00017835585
0.00092897922
0.0017759348
0.0024598972
0.0029408083
0.0030852002
0.0029057037
0.0024733417
0.0018983159
0.0013372975
0.00090686815
0.00064904295
0.00053099464
0.00049374601
0.00049631067
0.00052086862
0.00055732701
0.00059861405
0.00064008609
0.00067999492
0.0007191224
0.00076019089
0.0008053714
0.00085771757
0.00091437316
0.00097894799
0.0010384028
0.00016860974
0.00088346186
0.0017096637
0.0023974126
0.0029463258
0.0032635216
0.0032493123
0.0029423102
0.0024193308
0.0018019137
0.0012453188
0.00084672005
0.00062949178
0.00054188603
0.00052319995
0.00053845788
0.00057215359
0.00061414473
0.00065736924
0.00069801879
0.00073570749
0.00077257853
0.00081247075
0.00085782146
0.00091163797
0.00097048235
0.0010375597
0.0010989163
0.00016001932
0.0008342266
0.0016281843
0.002304449
0.0028822016
0.0033111316
0.0034872184
0.0033386925
0.0029266079
0.0023325583
0.0016916976
0.0011518783
0.000797257
0.00062241602
0.00056381569
0.00056295844
0.00059065963
0.00063240385
0.00067798668
0.00072092779
0.00075877272
0.00079281735
0.00082679465
0.00086531659
0.00091107609
0.00096661822
0.0010278826
0.0010975681
0.0011608455
0.00015129319
0.00078297099
0.0015392292
0.002191077
0.0027824254
0.0032646415
0.0035907218
0.0036341003
0.0033725312
0.0028714452
0.0022196899
0.001572862
0.0010649068
0.00076098926
0.00062944028
0.00059857331
0.00061483749
0.00065406166
0.00070189108
0.00074849168
0.00078854889
0.00082151111
0.00085073395
0.00088131746
0.00091861322
0.00096505846
0.0010226663
0.0010865875
0.0011589616
0.0012242335
0.0001387836
0.00073318365
0.001448593
0.002069216
0.002655739
0.0031718435
0.0035820232
0.0038100313
0.0037308684
0.0033646969
0.0027801163
0.002086674
0.0014498176
0.00098664471
0.00074110272
0.00065298201
0.00064795143
0.00068049965
0.00072938826
0.00078049135
0.00082487543
0.00085919325
0.00088536724
0.00090877926
0.00093588322
0.00097218264
0.0010197809
0.0010798112
0.0011466094
0.0012217308
0.0012890524
0.00012451856
0.00067512541
0.0013604087
0.0019452665
0.0025180239
0.0030476972
0.0035092153
0.0038555668
0.0039814019
0.0037834485
0.0033159735
0.0026553849
0.0019393731
0.0013271664
0.00092748272
0.00074273925
0.00069548046
0.00071419695
0.00076131592
0.00081689047
0.0008674686
0.00090593244
0.00093168492
0.00094935787
0.00096643705
0.0009901619
0.0010260252
0.0010752704
0.001138096
0.0012079548
0.0012858454
0.0013550726
0.00010845995
0.00061421739
0.0012546496
0.0018273968
0.0023771285
0.0029087243
0.0034014386
0.0038142879
0.0040914937
0.0041016543
0.0037888984
0.0032239098
0.0025014167
0.0017855395
0.0012188002
0.00089400348
0.00076889052
0.00075927582
0.00079934905
0.00085804547
0.00091606915
0.00096153205
0.00099015396
0.0010046539
0.0010126205
0.0010231668
0.001044055
0.0010800994
0.0011315949
0.0011975591
0.0012706213
0.001351237
0.0014221085
9.0479504e-05
0.00054677198
0.0011460115
0.0016885092
0.0022441836
0.0027658526
0.003273556
0.0037330126
0.0041003132
0.0042939933
0.0041747079
0.0037443452
0.0030903319
0.0023288799
0.0016317586
0.0011346228
0.00088999546
0.00082297888
0.00084655492
0.00090493079
0.00097060911
0.0010256608
0.001060867
0.0010757175
0.001076786
0.0010742951
0.0010786679
0.001097434
0.0011345045
0.0011888236
0.0012582382
0.0013345898
0.0014178426
0.00149015
7.3220426e-05
0.00047280028
0.0010256238
0.0015509385
0.0020852993
0.0026316836
0.0031394512
0.0036266378
0.0040556706
0.0043715374
0.0044571808
0.0041927232
0.0036520034
0.0029222904
0.0021468678
0.001490756
0.0010862341
0.00092154208
0.00090766082
0.00095958038
0.0010314916
0.0010980021
0.0011436224
0.001163154
0.0011607426
0.0011467527
0.0011337656
0.0011326743
0.0011503853
0.0011893207
0.0012470513
0.0013201693
0.0013998224
0.0014855825
0.0015592939
5.7981485e-05
0.000398593
0.00089416404
0.0014044808
0.0019330162
0.0024640916
0.0030142205
0.0035109599
0.0039809469
0.0043765281
0.0046152915
0.0045543055
0.0041530486
0.0035125747
0.0027293636
0.0019647476
0.0013820703
0.0010813386
0.00099298375
0.0010254942
0.0010998954
0.001178515
0.0012380991
0.0012671653
0.0012658446
0.0012432767
0.0012134808
0.0011905151
0.0011851723
0.0012029761
0.0012447165
0.0013063711
0.0013833793
0.0014662732
0.0015543059
0.0016295215
4.5342083e-05
0.00033077356
0.00076071468
0.0012477549
0.0017715959
0.0023100598
0.0028469322
0.0034025359
0.003891651
0.0043475974
0.0046857862
0.0048022
0.0045846596
0.0040609206
0.003334619
0.002523336
0.0017972377
0.0013230143
0.0011249746
0.0011085999
0.0011780452
0.0012676385
0.0013439956
0.0013876727
0.0013929686
0.0013661869
0.0013215991
0.0012760452
0.0012443265
0.0012361942
0.0012554404
0.0013008407
0.0013668745
0.0014478781
0.0015339223
0.0016239622
0.0017006407
3.6081148e-05
0.00027229033
0.00063928707
0.0010857174
0.0016001109
0.0021440977
0.0027014063
0.003241237
0.0038082051
0.0042995023
0.0047130079
0.0049530284
0.0049265096
0.0045540972
0.0039209182
0.0031279226
0.0023188869
0.0016723386
0.0013256918
0.0012232465
0.0012698129
0.0013666222
0.001461307
0.0015244562
0.0015426219
0.0015173307
0.0014616072
0.0013941801
0.0013338875
0.0012951232
0.0012859853
0.001307985
0.0013578855
0.0014286377
0.0015136411
0.0016026924
0.0016944886
0.0017725353
3.0875432e-05
0.00022655186
0.00053451439
0.00093609075
0.0014217166
0.0019692694
0.0025403542
0.0031108143
0.0036567469
0.0042544566
0.0047171659
0.0050452619
0.0051632558
0.0049753471
0.00446574
0.0037392667
0.0029083591
0.0021391852
0.001611776
0.0013944437
0.0013828195
0.0014779374
0.0015904696
0.0016773265
0.0017150231
0.0016981216
0.0016365637
0.0015497107
0.001459934
0.0013866906
0.0013431054
0.001334827
0.0013609229
0.0014160148
0.0014917271
0.0015806382
0.0016724882
0.0017657684
0.001845042
3.0271546e-05
0.00019662173
0.00045218533
0.00080766209
0.001252463
0.0017848702
0.0023717651
0.0029607676
0.0035484792
0.004121569
0.0047236622
0.0051119105
0.0053271539
0.0053088745
0.0049569224
0.0043296871
0.0035291016
0.0026942706
0.0020093374
0.0016361493
0.0015371427
0.0016054792
0.0017328079
0.0018462837
0.0019101572
0.0019095948
0.0018491201
0.001747114
0.001628617
0.0015181139
0.0014345143
0.0013885963
0.0013831408
0.0014145269
0.0014754018
0.0015561758
0.0016488261
0.0017432079
0.0018376887
0.0019179482
0.00018457949
3.4523128e-05
0.00039742931
0.00070742311
0.0011086555
0.0016042546
0.0021890218
0.0028024452
0.0034130565
0.0040441905
0.0046227189
0.0051785162
0.0054636111
0.0055630653
0.0053889135
0.0048847728
0.0041535601
0.0033059612
0.0025125542
0.001968185
0.0017538253
0.0017604304
0.0018906235
0.0020319314
0.0021281448
0.0021524759
0.0021015214
0.0019905528
0.0018459815
0.0016969064
0.0015684843
0.0014776483
0.0014321149
0.0014313525
0.0014691198
0.0015361681
0.001621996
0.0017181373
0.0018147326
0.0019101176
0.0019910785
0.00037452639
0.00019134407
4.3763329e-05
0.00064156823
0.0009971141
0.001451887
0.0020046399
0.0026261678
0.0032672995
0.0039311533
0.0045926463
0.0051172448
0.0056010956
0.0057758266
0.0057392668
0.0053933453
0.0047619218
0.0039481515
0.0030935259
0.0024047595
0.0020386008
0.001966348
0.0020688387
0.0022355062
0.0023691421
0.0024273439
0.0023956745
0.0022838342
0.0021179134
0.0019307543
0.001753845
0.0016111938
0.001516687
0.0014742417
0.0014799543
0.0015249487
0.0015984291
0.0016891671
0.0017884833
0.0018869331
0.001982913
0.0020643022
0.0006142534
0.00038471911
0.0002165753
5.797968e-05
0.00092440655
0.0013348525
0.0018472975
0.0024437668
0.0031028502
0.0038041208
0.0045154959
0.0051470241
0.0055917315
0.0059927141
0.0060429996
0.0058484766
0.0053404969
0.0045980701
0.0037308911
0.0029354865
0.0024095972
0.0022343152
0.0022835935
0.0024588926
0.0026337866
0.0027345989
0.0027331502
0.0026304697
0.002450043
0.0022273605
0.0019998856
0.0017992522
0.001646832
0.0015523715
0.0015156675
0.0015293683
0.0015822754
0.0016622472
0.0017576484
0.0018597593
0.001959674
0.0020559239
0.0021374943
0.00089477772
0.00062661134
0.00042690064
0.00025845836
7.7205479e-05
0.0012615893
0.0017294604
0.0022849333
0.0029262633
0.0036547824
0.0044191602
0.0051175241
0.0056909619
0.0060443025
0.0063527005
0.0062598051
0.0058947262
0.0052405423
0.0044038559
0.0035415675
0.0028800257
0.002562894
0.0025564517
0.0027095715
0.0029231262
0.0030748804
0.0031153328
0.0030335866
0.0028478539
0.0025944175
0.0023161608
0.0020526113
0.0018335867
0.0016762765
0.0015856252
0.0015570971
0.0015800537
0.0016412895
0.0017276635
0.0018273706
0.0019318459
0.0020328191
0.0021290143
0.0022105157
0.0012353848
0.0009091479
0.00067599167
0.00049689852
0.00031356347
0.00010036586
0.0016588195
0.0021675478
0.0027653757
0.003484104
0.0042959311
0.0050657691
0.0057205875
0.0062292595
0.0064766139
0.0066739226
0.0064168354
0.0058748806
0.0050934609
0.0042098996
0.0034367724
0.0029758912
0.0028792055
0.0030077576
0.0032395665
0.0034489629
0.0035434743
0.0034960758
0.0033164815
0.0030395679
0.0027125076
0.0023826462
0.0020890852
0.0018577959
0.0017006986
0.0016174444
0.0015992206
0.0016323928
0.0017021533
0.0017946687
0.0018982433
0.0020046122
0.0021062239
0.0022020464
0.0022832301
0.0016388268
0.0012567614
0.00096403115
0.00075671732
0.00058824319
0.00037727792
0.00012630837
0.0021010151
0.0026493929
0.0033198122
0.0041358742
0.0049818474
0.0057242128
0.006331114
0.0067615862
0.0068859643
0.0069460273
0.0065061211
0.0057977957
0.0049226589
0.0040727389
0.0034778208
0.0032582332
0.0033621481
0.0035937493
0.0038575229
0.0040187636
0.0040205303
0.0038607944
0.0035703188
0.0031988734
0.0028012708
0.0024263482
0.002110168
0.0018732824
0.0017214277
0.0016488521
0.0016426768
0.0016867215
0.0017649585
0.0018632275
0.0019701553
0.0020779204
0.0021797446
0.002274883
0.0023555056
0.0020884117
0.0016688922
0.0013207005
0.0010521085
0.00086012058
0.00069238252
0.00044484201
0.00015294014
0.002587128
0.0032016909
0.0039673463
0.0048443745
0.0056916515
0.0064047253
0.0069529817
0.007286993
0.0072611576
0.00715589
0.006519095
0.0056747253
0.0047782823
0.004067955
0.0037190436
0.0037545868
0.0040054706
0.0043043256
0.0045417085
0.0046091382
0.0044853317
0.0041939107
0.0037853077
0.0033207703
0.0028592558
0.0024478745
0.0021174588
0.0018817464
0.0017398877
0.0016808404
0.0016880526
0.0017432943
0.0018297578
0.0019332659
0.002042983
0.0021516277
0.0022532356
0.002347388
0.0024272262
0.0025820879
0.0021279767
0.0017426881
0.0014186188
0.0011630899
0.00097616777
0.00079982301
0.00051062847
0.00017777085
0.003139788
0.0038441301
0.0046803474
0.0055901045
0.0064370903
0.0071126877
0.0075868447
0.0077966539
0.0075871214
0.0072951841
0.0064662296
0.0055493739
0.0047426299
0.0042641412
0.0042038607
0.004462641
0.0048040102
0.0051135223
0.0052636635
0.0051941929
0.0049173527
0.004481743
0.0039538349
0.0034023885
0.0028865395
0.00244887
0.0021130458
0.0018850872
0.0017575273
0.0017143404
0.0017358394
0.0018023039
0.0018965494
0.0020046929
0.002116586
0.0022255792
0.0023265502
0.002419435
0.0024982844
0.0031387855
0.0026308786
0.002211274
0.0018496343
0.0015383703
0.0012846358
0.0010925423
0.00090319541
0.00056754153
0.00019644086
0.0037782244
0.0045576566
0.0054428833
0.0063848524
0.0072245255
0.0078516466
0.0082251185
0.0082736292
0.0078498325
0.0073546457
0.0063828233
0.0055038063
0.0048986829
0.0047234556
0.0049509949
0.0053638322
0.0057417828
0.0059854276
0.0059907671
0.0057471174
0.0052979595
0.0047131747
0.0040709404
0.0034428154
0.0028846217
0.0024317612
0.002099341
0.0018853096
0.0017757495
0.0017501794
0.0017864475
0.0018638696
0.0019652984
0.0020773838
0.0021908025
0.0022996116
0.0023995559
0.0024909173
0.0025685798
0.0037767656
0.003194258
0.0027232732
0.002325876
0.0019756918
0.0016644004
0.0014026867
0.001198106
0.00098866569
0.00060356425
0.00020627443
0.0044915559
0.0053283266
0.0062689489
0.0072395069
0.0080620388
0.0086201049
0.0088550333
0.0086966607
0.0080378041
0.0073573958
0.0063500239
0.0056320941
0.0053218315
0.0054875365
0.0059544771
0.0064380809
0.006777312
0.0068773734
0.0066888765
0.0062432023
0.0056115408
0.0048804244
0.0041342746
0.0034431724
0.0028561739
0.0023995659
0.0020790303
0.0018844153
0.0017958387
0.0017890715
0.0018401899
0.0019280529
0.0020359164
0.0021511781
0.0022654532
0.002373584
0.0024721536
0.0025617389
0.0026380057
0.0044916514
0.0038351457
0.0032935705
0.0028447698
0.002455048
0.0021014389
0.0017813989
0.0015009455
0.0012711403
0.0010385865
0.000614021
0.0002092085
0.0052679608
0.0061682635
0.0071654077
0.0081623496
0.008950079
0.0094033363
0.0094468094
0.0090488907
0.0081498146
0.0073664709
0.0064660947
0.0060209226
0.0060797695
0.0065741139
0.0071866614
0.0076465856
0.0078555474
0.0077465713
0.0073257883
0.0066611923
0.0058466057
0.0049791619
0.0041442232
0.0034062389
0.0028048426
0.0023557504
0.0020548625
0.0018843069
0.0018189449
0.0018316172
0.0018972822
0.0019948387
0.0021082565
0.0022258831
0.0023403908
0.0024474094
0.0025442479
0.0026317679
0.0027097743
0.0052742733
0.0045544016
0.0039387089
0.0034201795
0.0029761188
0.0025785455
0.0022109565
0.0018620087
0.0015518998
0.0012980771
0.0010475246
0.00060954692
0.0002041007
0.0061176965
0.0070847867
0.0081438244
0.0091585058
0.0098772294
0.010173342
0.0099724967
0.0093216196
0.0082279278
0.0074951404
0.0068264145
0.0067543449
0.0072196062
0.0079591276
0.0085893628
0.0089300078
0.0089226487
0.0085521815
0.0078733835
0.0069848641
0.0059960344
0.0050084612
0.0041034304
0.0033362159
0.0027349385
0.0023039641
0.002029524
0.0018867372
0.0018460766
0.0018782755
0.0019578248
0.0020641147
0.0021821249
0.0023013511
0.0024155439
0.0025209911
0.0026156514
0.0027037252
0.0027855084
0.006132378
0.0053452195
0.004662849
0.0040678549
0.0035512888
0.0030954844
0.0026747887
0.0022631252
0.0018791953
0.0015484645
0.0012795035
0.0010378411
0.00058839145
0.00019371592
0.007047942
0.0080901477
0.0092133533
0.010220928
0.010818462
0.010891815
0.010419085
0.0095318638
0.0083696707
0.0078423455
0.0075261952
0.0079088242
0.0087364666
0.0095762281
0.010098549
0.010220404
0.0099270233
0.0092576372
0.008309705
0.0072034636
0.0060571615
0.0049705603
0.0040165684
0.0032383333
0.0026511902
0.0022478715
0.002005561
0.0018932782
0.0018780566
0.0019293447
0.0020217861
0.0021357114
0.0022573923
0.002377534
0.0024908082
0.0025940474
0.0026887107
0.0027794233
0.0028631646
0.0070729515
0.006212148
0.0054606992
0.0047937092
0.0041955806
0.0036666388
0.003169498
0.0026920296
0.0022374489
0.0018368949
0.0014976411
0.0012499727
0.00099745757
0.00055668037
0.00017868444
0.0080710696
0.00919389
0.010368057
0.011326665
0.011732514
0.011529474
0.010792722
0.0097557032
0.0086801787
0.0085143781
0.0086632712
0.0095146784
0.010562919
0.011333952
0.011636887
0.011452389
0.010820626
0.0098336103
0.008619258
0.0073118446
0.006031366
0.004870452
0.0038898274
0.0031185406
0.0025584589
0.0021910299
0.0019853217
0.0019052595
0.0019154619
0.0019849235
0.0020890622
0.0022095347
0.0023340376
0.0024543045
0.0025657853
0.0026685787
0.0027655295
0.0028573796
0.0029427327
0.0081087047
0.0071615088
0.0063336291
0.0055927863
0.0049137485
0.0042972855
0.0037084625
0.0031473944
0.0026176709
0.00215066
0.0017419074
0.0014442721
0.0011859286
0.00094113666
0.00051257758
0.00016032393
0.0091969321
0.010391015
0.011584914
0.012430767
0.012578957
0.012086586
0.011136023
0.010084602
0.0092689677
0.0096239018
0.010298433
0.011523549
0.012590345
0.01314311
0.013126777
0.012565715
0.011566084
0.010259091
0.0087936006
0.0073101191
0.005923727
0.0047152652
0.0037304874
0.0029831318
0.0024615661
0.0021367914
0.001970844
0.0019236942
0.0019586207
0.0020450337
0.0021596266
0.0022855994
0.0024118969
0.0025311293
0.0026422147
0.0027470876
0.0028449455
0.002937581
0.0030241889
0.0092494089
0.0082089537
0.0072883012
0.0064640186
0.005703891
0.0050014839
0.0043054667
0.0036396643
0.0030225293
0.0024825976
0.0020057029
0.0016544752
0.0013491259
0.0011062984
0.00086660538
0.00045771957
0.00014073021
0.010417958
0.011659115
0.012825928
0.013480472
0.013342274
0.012587577
0.011526248
0.010615424
0.010252058
0.011254977
0.012421418
0.013811767
0.014698955
0.014918583
0.014491636
0.013512643
0.012135636
0.010521399
0.0088308987
0.0072030868
0.0057422152
0.0045137469
0.0035464825
0.0028384793
0.0023651409
0.0020881542
0.0019637422
0.0019492673
0.0020077638
0.0021097723
0.0022335408
0.0023636901
0.0024902789
0.0026095797
0.0027230744
0.0028285723
0.0029269848
0.00301998
0.003107503
0.010482401
0.0093636699
0.0083423213
0.007414033
0.0065616845
0.0057685542
0.0049636213
0.0041805804
0.0034602343
0.0028356252
0.0022840983
0.0018788822
0.0015168387
0.0012389776
0.0010077957
0.00077631956
0.00039475579
0.0001212919
0.011711374
0.012959941
0.01402964
0.014444314
0.014029992
0.013096749
0.01204668
0.011471583
0.011736746
0.013430653
0.014917222
0.016227693
0.016777908
0.016571514
0.015671983
0.01425701
0.012511673
0.010616176
0.0087354327
0.0069994546
0.005497106
0.0042756675
0.0033460304
0.0026907902
0.0022734026
0.0020475678
0.0019652091
0.0019825247
0.0020632003
0.0021792672
0.0023105236
0.0024429411
0.0025706948
0.0026931889
0.0028073231
0.0029131289
0.0030115698
0.003104532
0.0031926342
0.011779162
0.010604951
0.0095057071
0.0084632544
0.007493766
0.0065876494
0.0056769178
0.0047720501
0.0039424236
0.0032177979
0.002579901
0.0021160467
0.0016945827
0.0013673933
0.0011105686
0.00089535012
0.00067253324
0.0003286618
0.00010314926
0.013036123
0.014247486
0.015158575
0.015324853
0.014697252
0.013684017
0.012809564
0.012779556
0.013764119
0.016061463
0.017608402
0.018635968
0.018739476
0.018025039
0.016625452
0.014775776
0.012686342
0.010546649
0.0085163863
0.0067110393
0.0052002397
0.004011378
0.0031372908
0.0025458271
0.0021899196
0.0020169503
0.0019762924
0.0020240723
0.0021251529
0.0022531468
0.0023895181
0.0025249689
0.0026573236
0.0027806493
0.0028951667
0.0030006409
0.0030986465
0.0031911692
0.0032795392
0.013098945
0.011893698
0.010747124
0.0096219742
0.0085215475
0.0074719716
0.0064318726
0.005410777
0.0044690636
0.0036379887
0.002902211
0.0023689415
0.0018812981
0.0015006845
0.0012019509
0.00097069195
0.00077173541
0.00056255938
0.00026404344
8.6670888e-05
0.014350668
0.015482385
0.016203969
0.016157743
0.015399962
0.014421787
0.013957902
0.014601688
0.016285836
0.018964126
0.020327742
0.020923205
0.020496
0.019223044
0.017319918
0.015056104
0.012660946
0.010322054
0.0081870929
0.0063518843
0.0048643946
0.003731326
0.002927904
0.0024085754
0.002117622
0.0019980526
0.0019980725
0.0020742944
0.0021931329
0.0023301642
0.0024724357
0.0026146847
0.0027483467
0.0028723312
0.0029864526
0.0030910558
0.0031881271
0.0032798223
0.0033681643
0.014408365
0.013201497
0.012019191
0.010845266
0.0096592846
0.0084476717
0.0072400282
0.0060800626
0.0050279692
0.0040937984
0.0032544587
0.0026460038
0.0020815339
0.0016403946
0.0012927568
0.0010287522
0.0008241734
0.00064529552
0.00045622032
0.00020485436
7.2138166e-05
0.015615318
0.016634407
0.017189739
0.016999199
0.016185623
0.01545803
0.01557069
0.016912649
0.019160171
0.021941863
0.022940832
0.022998435
0.021976584
0.020130498
0.017736236
0.01509699
0.012444406
0.0099570945
0.0077638635
0.0059374871
0.0045026655
0.0034454645
0.0027246532
0.0022833304
0.0020592472
0.0019926083
0.0020311323
0.0021325691
0.0022657194
0.0024127936
0.0025650237
0.0027094396
0.0028443577
0.0029680502
0.0030811273
0.0031842668
0.0032799191
0.0033704026
0.0034584517
0.015666784
0.014493458
0.013302406
0.012080714
0.010846361
0.0095206739
0.0081261018
0.0067944653
0.0056097846
0.0045759451
0.0036366287
0.0029494531
0.0023031924
0.0017912496
0.001389341
0.0010815315
0.00085424511
0.00067891125
0.00052484785
0.0003585042
0.00015382017
5.9321908e-05
0.016796138
0.017719573
0.018171144
0.017882621
0.017181271
0.0169004
0.017631703
0.019609418
0.022193224
0.024838813
0.025339197
0.024794164
0.023132049
0.020722077
0.017870799
0.014906473
0.012052465
0.0094703973
0.007265171
0.0054839858
0.0041277235
0.0031627799
0.0025335712
0.0021741834
0.0020174248
0.002001515
0.0020746619
0.0021973449
0.002346269
0.0025077156
0.0026634533
0.0028101317
0.0029451264
0.0030677487
0.0031790788
0.0032801608
0.003373908
0.0034628174
0.0035503325
0.016837476
0.015724842
0.014563506
0.013315745
0.012027182
0.010620382
0.0090905335
0.0075764986
0.0062267243
0.005072936
0.0040350835
0.0032776139
0.0025462788
0.0019609809
0.0014951706
0.0011395779
0.00087664099
0.00068825419
0.00054493334
0.00041541517
0.00027358181
0.0001127786
4.8044407e-05
0.017906785
0.018790132
0.019176448
0.018909979
0.018510402
0.018730252
0.020049244
0.022541597
0.025210535
0.027532644
0.027449991
0.026247928
0.023937086
0.020985544
0.017729767
0.014500809
0.011506036
0.008883586
0.0067105491
0.0050071646
0.0037512128
0.0028914636
0.0023604945
0.0020849466
0.0019934704
0.0020238357
0.0021270838
0.0022732622
0.0024425074
0.0026094923
0.0027690144
0.0029164632
0.0030506021
0.0031713051
0.0032801747
0.003378604
0.0034699682
0.0035569576
0.0036437537
0.017934834
0.016858442
0.015750693
0.014521707
0.01319037
0.011692692
0.010056182
0.0084122502
0.0068961159
0.0055937481
0.0044369066
0.0036164927
0.0028074904
0.0021484454
0.001616825
0.0012057565
0.00090336106
0.00068790014
0.00053946135
0.0004271897
0.0003213889
0.00020592459
8.1608038e-05
3.7695598e-05
0.019001624
0.019889769
0.020295896
0.020206688
0.020173614
0.020862797
0.022715956
0.025558485
0.028077664
0.029943469
0.02921967
0.027319527
0.024383771
0.020927726
0.017329596
0.013903044
0.010829984
0.008219969
0.0061194143
0.0045218301
0.0033839712
0.0026395491
0.002210807
0.0020174982
0.0019863338
0.0020580991
0.0021948187
0.0023692068
0.0025469216
0.0027199135
0.002881314
0.0030284024
0.0031606527
0.0032785772
0.0033842633
0.0034794402
0.0035679555
0.0036527328
0.0037386367
0.019010586
0.017914908
0.016837269
0.015649968
0.014306917
0.012731683
0.010978698
0.009237815
0.0076010801
0.0061540045
0.0048545292
0.0039564176
0.0030754974
0.0023507089
0.0017538813
0.0012855837
0.00093764172
0.00069161481
0.00052370222
0.0004140983
0.00032961941
0.00024683084
0.00015535642
5.8641036e-05
2.8604573e-05
0.020133148
0.021090402
0.021642514
0.021778498
0.022073464
0.02319524
0.025526801
0.02851204
0.030703845
0.032018119
0.030603579
0.027988396
0.024466475
0.020560181
0.016694819
0.013141057
0.010051647
0.0075029516
0.0055101379
0.0040420193
0.0030367556
0.0024143996
0.0020871537
0.001970718
0.0019949157
0.0021128237
0.002288043
0.0024750649
0.0026619176
0.0028384543
0.0030003501
0.0031458061
0.0032751295
0.0033893984
0.0034911588
0.0035824948
0.0036677535
0.0037500246
0.0038349012
0.020134787
0.018946622
0.01784292
0.016676746
0.015340495
0.013714731
0.011854911
0.010007025
0.0082796553
0.0067341287
0.0052963139
0.004304003
0.0033385098
0.0025552712
0.0019034287
0.0013789132
0.00098418876
0.00070290246
0.00051234217
0.00039147548
0.00031523635
0.00025509673
0.00019134665
0.00011755571
4.2433603e-05
2.043002e-05
0.021379513
0.022502191
0.023221814
0.023524054
0.024083684
0.025646466
0.028360964
0.031295743
0.033032777
0.033725624
0.031566311
0.028244953
0.024181409
0.019908326
0.0158552
0.012246011
0.009198857
0.0067550782
0.0049005804
0.0035818023
0.0027193435
0.0022197021
0.0019883906
0.001944183
0.0020302339
0.0021998084
0.0023935042
0.0025939994
0.0027867902
0.0029651537
0.0031259653
0.0032685208
0.0033938515
0.0035035592
0.0036006588
0.0036876245
0.0037692105
0.0038487059
0.0039324606
0.021396159
0.020029166
0.018814818
0.017622287
0.016278666
0.014614394
0.012668497
0.010729625
0.008905424
0.0072786792
0.0057408385
0.0046658404
0.0036044227
0.0027528423
0.0020536817
0.0014832278
0.0010426806
0.00072577107
0.00050930368
0.00037317304
0.00029282249
0.0002437081
0.00020110948
0.00015035884
8.9795073e-05
3.1257161e-05
1.3646639e-05
0.022834373
0.024128578
0.024932081
0.025304228
0.026135093
0.028160469
0.031102972
0.033844089
0.03502733
0.035042467
0.032067988
0.02809121
0.023552812
0.019005061
0.01484572
0.011250463
0.0082987808
0.0059985699
0.0043088125
0.0031538574
0.0024367052
0.0020543494
0.0019151788
0.0019516718
0.0021060464
0.0023021726
0.0025152686
0.0027250619
0.0029216265
0.0030998345
0.0032580013
0.0033963541
0.003516591
0.0036208304
0.0037126037
0.003794653
0.0038721559
0.0039486376
0.0040312253
0.022880287
0.021257524
0.019834816
0.018530418
0.017129837
0.015421339
0.013414094
0.011393564
0.0094852377
0.0077786217
0.0061501542
0.0050237202
0.0038762078
0.0029502764
0.0021959028
0.0015876588
0.0011107617
0.00076014293
0.0005176281
0.00036320419
0.00027416602
0.0002249803
0.00019461227
0.00016239233