/*--------------------------------*- C++ -*----------------------------------*\
| =========                 |                                                 |
| \\      /  F ield         | OpenFOAM: The Open Source CFD Toolbox           |
|  \\    /   O peration     | Version:  5.0                                   |
|   \\  /    A nd           | Web:      www.OpenFOAM.org                      |
|    \\/     M anipulation  |                                                 |
\*---------------------------------------------------------------------------*/
FoamFile
{
    version     2.0;
    format      ascii;
    class       volVectorField;
    location    "200";
    object      U;
}
// * * * * * * * * * * * * * * * * * * * * * * * * * * * * * * * * * * * * * //

dimensions      [0 1 -1 0 0 0 0];

internalField   nonuniform List<vector> 
9200
(
(1.0391169 0.00074983988 -1.8851738e-24)
(1.0393016 0.0023944056 8.5632697e-22)
(1.0368584 0.00074814995 0)
(1.0395913 0.0038139791 -4.5362326e-22)
(1.0370144 0.0024125421 7.4863009e-22)
(1.0358674 0.00073229511 0)
(1.0399929 0.0052327419 -4.5425838e-23)
(1.0372857 0.00384999 8.9196405e-24)
(1.0360075 0.0023743245 0)
(1.034428 0.00069972813 0)
(1.0404612 0.0065364328 9.4288649e-22)
(1.0376483 0.0052975268 7.1041794e-22)
(1.0362582 0.0037930035 4.2408768e-22)
(1.0345444 0.0022789082 2.5813823e-23)
(1.0333276 0.00066373997 2.5261993e-25)
(1.0410007 0.0077640478 9.0246065e-22)
(1.0380957 0.006652246 -2.757867e-23)
(1.0365881 0.0052255219 1.4164799e-21)
(1.0347667 0.0036419304 5.8272283e-22)
(1.0334283 0.0021619964 1.9232842e-23)
(1.0322434 0.00062929227 -1.082927e-21)
(1.0415953 0.0088822792 9.6308323e-22)
(1.0386393 0.0079671029 1.015618e-21)
(1.0369868 0.0065817727 -8.4897479e-22)
(1.0350456 0.0050151987 -6.3164086e-23)
(1.0336311 0.0034521405 5.2051606e-22)
(1.0323333 0.0020408389 5.2918559e-22)
(1.0312803 0.00060307581 9.3012985e-23)
(1.0422684 0.0098608793 5.3286819e-22)
(1.0392931 0.0092382561 8.6392041e-22)
(1.0374596 0.0079234427 1.0228489e-21)
(1.0353681 0.0063213712 6.5647034e-23)
(1.0338781 0.0047399204 -1.3405498e-21)
(1.0325231 0.0032543751 -5.9560169e-22)
(1.031368 0.0019395297 -6.0917032e-22)
(1.0303815 0.00058467359 1.0065968e-21)
(1.0430426 0.010668767 -1.316305e-21)
(1.0400927 0.010458731 8.5615119e-22)
(1.0380032 0.0092719821 7.0804419e-23)
(1.0357188 0.0076178594 4.7837153e-22)
(1.0341524 0.0059544537 1.449132e-22)
(1.0327532 0.0044489829 -1.9883379e-21)
(1.0315532 0.00309049 1.7280352e-22)
(1.0304717 0.0018652565 -1.0366653e-21)
(1.0295437 0.00057067302 -2.1371762e-21)
(1.0438996 0.011299849 1.083417e-21)
(1.041095 0.011674551 -2.5430733e-22)
(1.0386186 0.010662227 -5.850208e-23)
(1.03606 0.0089375109 -2.6024949e-22)
(1.034426 0.007133319 -2.0508024e-22)
(1.0330078 0.0055614823 2.3178966e-22)
(1.0317837 0.004209163 6.9497759e-22)
(1.0306541 0.0029747742 1.1668081e-21)
(1.0296372 0.0018148794 6.6213514e-22)
(1.028753 0.00055748256 1.7079618e-22)
(1.0447923 0.01171245 -5.2521403e-22)
(1.0424615 0.0128587 3.1389886e-22)
(1.0393146 0.012183802 6.2180331e-22)
(1.0363641 0.0103337 -8.0127068e-22)
(1.0346362 0.0082970359 5.2626057e-22)
(1.0332549 0.006604034 -1.7742342e-21)
(1.0320471 0.005243035 7.203797e-23)
(1.0308889 0.004047179 1.7520749e-21)
(1.0298137 0.0029025014 -8.778401e-22)
(1.0288458 0.0017767089 1.935024e-21)
(1.0280066 0.00054348161 -2.9380926e-22)
(1.0460617 0.011762313 6.542064e-23)
(1.0439336 0.014045348 -7.5340507e-22)
(1.0398847 0.013976156 -8.6959396e-22)
(1.036546 0.011897515 0)
(1.0347355 0.009468918 3.7944183e-23)
(1.0334342 0.0075783258 -3.3467312e-22)
(1.0323247 0.006187179 -3.5267654e-22)
(1.031165 0.0050430588 -8.6255884e-22)
(1.0300471 0.0039560294 -2.2483314e-22)
(1.0290114 0.0028524002 -1.1133417e-21)
(1.0280932 0.0017374499 -7.5989084e-22)
(1.027305 0.00052760574 1.7509048e-22)
(1.0477862 0.011412693 3.7828063e-23)
(1.0456881 0.015594559 9.2868344e-23)
(1.0403652 0.016120799 0)
(1.0365383 0.013676737 0)
(1.0346054 0.010679476 -1.5896249e-22)
(1.0335023 0.0084647441 -2.4344948e-22)
(1.0325703 0.0070283677 -4.6096059e-22)
(1.0314814 0.0059517085 1.0143437e-21)
(1.0303255 0.0049487617 1.0518423e-22)
(1.0292335 0.0038993361 2.6420022e-24)
(1.0282439 0.0027999949 1.2540249e-21)
(1.0273816 0.0016854857 -1.3638326e-21)
(1.0266521 0.00050787037 2.8146836e-21)
(1.0500407 0.010523508 -3.6714235e-22)
(1.0481158 0.01745088 9.667024e-24)
(1.0409394 0.018614253 -1.647174e-22)
(1.0362925 0.015721516 -1.3961008e-23)
(1.0341692 0.011920028 -1.2455519e-24)
(1.0333815 0.0092527204 -1.6575147e-22)
(1.0327588 0.007721436 2.7654819e-22)
(1.0318115 0.006758391 1.649043e-23)
(1.0306681 0.0058715136 1.1307428e-21)
(1.0294999 0.0049034372 1.0562915e-21)
(1.028445 0.0038370589 3.4414017e-22)
(1.0275152 0.0027244863 9.9806517e-22)
(1.0267181 0.0016128179 6.8073385e-22)
(1.0260538 0.00048231115 -7.7327462e-22)
(1.0527348 0.0091909909 -3.4286365e-22)
(1.0512537 0.019741576 2.6035463e-22)
(1.0415783 0.021683329 -4.3616123e-22)
(1.0356812 0.018162098 8.7684424e-23)
(1.0333062 0.013230261 -7.417295e-23)
(1.0330041 0.009868148 3.0317397e-22)
(1.032843 0.0082112615 2.6090743e-22)
(1.0321557 0.0074065417 -3.5350675e-22)
(1.0310671 0.0067165618 -9.8158755e-23)
(1.0298412 0.0058601317 -1.245127e-22)
(1.0286824 0.0048498923 -2.0421109e-23)
(1.0276873 0.003737293 -1.4814929e-22)
(1.0268349 0.0026120596 -1.2855806e-21)
(1.0261111 0.0015166735 6.5692647e-22)
(1.0255152 0.00045102599 -5.9516234e-22)
(1.0557057 0.0072253262 2.0469923e-21)
(1.0550808 0.022392441 -1.1750567e-21)
(1.0422678 0.025557523 -1.7406099e-22)
(1.0345642 0.021160532 1.8208925e-22)
(1.0318348 0.014662105 -2.1683623e-22)
(1.0321992 0.010239658 -4.1202098e-22)
(1.0328826 0.0084251172 -1.861476e-23)
(1.032537 0.0078224351 3.2366752e-23)
(1.0315581 0.0074312353 -2.1819132e-22)
(1.0302663 0.0067780569 -2.6791077e-22)
(1.0289867 0.0058406751 -2.2032637e-21)
(1.0278799 0.0047413184 4.7627217e-22)
(1.0269771 0.0035799529 4.0000578e-22)
(1.0262139 0.0024585507 1.9815863e-22)
(1.0255672 0.0014003724 3.6297491e-23)
(1.0250388 0.00041643834 6.6324512e-22)
(1.0590033 0.0049807511 0)
(1.0593603 0.02573035 -1.1761502e-21)
(1.0428862 0.030491729 9.6769178e-22)
(1.0328161 0.024886641 0)
(1.0295622 0.016247162 0)
(1.0308483 0.010333592 0)
(1.0326882 0.0081508343 1.096835e-22)
(1.0331392 0.0079564618 5.0153844e-22)
(1.0322518 0.0079570251 3.5030418e-22)
(1.0308474 0.0076291041 6.5191684e-22)
(1.0293699 0.0068404404 9.6927195e-23)
(1.0281146 0.005744927 4.811444e-22)
(1.0271157 0.0045457111 3.1399613e-25)
(1.0263302 0.0033586479 -4.5807821e-22)
(1.0256612 0.0022701303 -1.3140647e-22)
(1.0250893 0.0012721868 -3.2288014e-22)
(1.0246231 0.00038172124 0)
(1.0629587 0.0018569259 3.8353551e-21)
(1.0638569 0.029509538 3.9346178e-21)
(1.0431265 0.036648181 -3.9566599e-22)
(1.0302165 0.029530075 1.9092964e-21)
(1.0262787 0.018046745 1.4256133e-21)
(1.0287715 0.010054411 0)
(1.0322035 0.007319105 7.1878821e-22)
(1.0338441 0.0075779702 -1.9458657e-22)
(1.0331776 0.0082060648 4.6494488e-22)
(1.0316842 0.0083961328 4.0113577e-22)
(1.0299058 0.0078676725 -3.9339557e-22)
(1.0283847 0.0067977015 1.2870494e-22)
(1.0272657 0.0055191093 8.076721e-22)
(1.0264221 0.0042550624 -1.4963507e-21)
(1.0257608 0.0030832199 -4.0562583e-22)
(1.0251813 0.0020608492 -2.1707605e-21)
(1.0246762 0.0011425251 -8.6374189e-22)
(1.0242629 0.00034964452 -8.4260556e-22)
(1.0695911 -0.0011789071 -7.1159172e-22)
(1.0699199 0.034035871 2.4620187e-21)
(1.0429041 0.044249269 8.9651161e-22)
(1.0264035 0.035213203 1.471367e-21)
(1.0217261 0.020106711 -2.6830209e-22)
(1.025759 0.0093089668 -3.5624491e-22)
(1.031367 0.0057406112 -1.6133215e-21)
(1.0345975 0.0065753424 -6.6049668e-22)
(1.034508 0.0083092286 -7.7903445e-23)
(1.0327204 0.0091081668 -6.9211753e-22)
(1.0306114 0.0089866914 -9.8452735e-23)
(1.0287284 0.0079639167 -8.8181826e-22)
(1.0273864 0.0065592588 1.4858317e-22)
(1.02649 0.0051452889 1.2028616e-22)
(1.0258227 0.0038837933 1.8002169e-22)
(1.0252766 0.0027760916 3.2685209e-22)
(1.0247729 0.0018484117 -7.2183129e-22)
(1.0243226 0.0010210389 3.575316e-23)
(1.023951 0.00032273323 -8.0601018e-22)
(1.0779463 -0.0062848978 -3.9509265e-21)
(1.0806319 0.038624718 -4.7383729e-21)
(1.0438685 0.053255049 7.7238672e-21)
(1.0213458 0.041985801 -1.4943881e-21)
(1.015673 0.022502111 2.5761382e-22)
(1.0215743 0.0079762258 -1.2024806e-22)
(1.0300716 0.0032165063 2.1446005e-22)
(1.0354982 0.0047394235 -7.4733098e-23)
(1.0363476 0.0079370928 -1.8402534e-24)
(1.0342178 0.0098455844 3.7424454e-22)
(1.0314733 0.010278475 -1.1605345e-21)
(1.029102 0.0093414051 3.0336383e-22)
(1.0274749 0.0077370386 4.7435408e-22)
(1.0264767 0.006092955 -4.199349e-23)
(1.0258368 0.0046502325 1.2169549e-22)
(1.0253299 0.0034637101 1.0327106e-21)
(1.0248773 0.0024643796 -2.3494165e-22)
(1.0244301 0.0016496684 1.1862107e-21)
(1.0240203 0.00091508066 3.1517468e-22)
(1.0236785 0.00030345953 8.4785028e-22)
(1.0838266 -0.012005579 -2.8440674e-22)
(1.0965089 0.043994152 -1.0864112e-20)
(1.0491256 0.063776922 1.7897449e-21)
(1.0162664 0.050081173 1.4809881e-21)
(1.0078281 0.025172658 -1.1452081e-21)
(1.0159971 0.00594306 -1.2651596e-21)
(1.0282027 -0.00048717901 1.8379999e-21)
(1.0365963 0.0018283711 7.2167503e-22)
(1.038806 0.0069580133 4.8842143e-22)
(1.036427 0.010537842 0)
(1.0327452 0.01176619 8.0051956e-22)
(1.029544 0.01100414 3.3879634e-22)
(1.0274718 0.0091369636 -6.4902062e-22)
(1.0263449 0.0071414371 9.332612e-23)
(1.0257327 0.0054375486 -4.4685818e-22)
(1.0253271 0.0040854744 8.0052297e-22)
(1.0249441 0.0030347072 1.4322298e-22)
(1.024556 0.0021728446 -3.706821e-22)
(1.0241435 0.0014774226 7.2446304e-22)
(1.0237599 0.00082946261 5.0064124e-23)
(1.0234364 0.00029334577 8.1954574e-22)
(1.0832709 -0.017790551 8.1957324e-21)
(1.1058791 0.046731096 -1.4783874e-20)
(1.0596514 0.076095514 -1.0941717e-20)
(1.0134642 0.060074399 -7.2008766e-22)
(0.99815167 0.028289319 -4.3142236e-21)
(1.0088026 0.0031102536 1.8703222e-22)
(1.0256204 -0.0055985557 0)
(1.0379446 -0.0024170434 4.5874677e-22)
(1.0420652 0.0051717013 2.5844025e-22)
(1.0395415 0.011145506 1.142423e-21)
(1.0346008 0.013599423 4.641815e-22)
(1.0301622 0.01306973 7.9068725e-23)
(1.027378 0.010851392 -8.2126139e-23)
(1.0260207 0.0083595208 3.7057438e-22)
(1.0254581 0.0062619923 -2.4190455e-22)
(1.0251901 0.0046789922 2.6957681e-22)
(1.0249604 0.0035106355 -1.010685e-22)
(1.0246547 0.0026346563 6.3834695e-22)
(1.0243001 0.0019198535 1.2269658e-22)
(1.0239024 0.0013390819 1.6035971e-23)
(1.0235323 0.00076638847 4.3564859e-22)
(1.0232158 0.00029143852 0)
(1.0775352 -0.024122484 2.7042494e-21)
(1.1063716 0.049632439 1.0998801e-20)
(1.0710611 0.091711324 -5.2565395e-22)
(1.0121796 0.072906069 -2.0881434e-21)
(0.98686958 0.03237214 -4.8213421e-21)
(0.99961596 -0.00061439094 1.7953732e-21)
(1.0221918 -0.0123437 -1.0065846e-21)
(1.0395106 -0.0082849869 7.1919912e-23)
(1.0463524 0.0023724905 -2.5195078e-22)
(1.0438257 0.011600504 -8.213963e-23)
(1.0372448 0.015907842 -8.2490956e-24)
(1.0310238 0.015757263 -3.0458158e-22)
(1.0271453 0.013036684 -1.0615717e-22)
(1.0254291 0.0098331372 1.3010548e-21)
(1.0249172 0.0071637371 8.8817881e-22)
(1.0248666 0.0052363225 6.3890203e-22)
(1.0248485 0.0039101519 -1.3391244e-22)
(1.024719 0.0029804605 -9.8677808e-22)
(1.0244434 0.0022928969 -3.9366651e-23)
(1.0240945 0.0017164125 3.8959745e-22)
(1.0236961 0.001236981 0)
(1.0233296 0.00072520364 -9.9058396e-22)
(1.0230097 0.00029378004 -2.2964391e-24)
(1.0643556 -0.030010261 -1.0325521e-20)
(1.0988851 0.052473639 3.7426516e-20)
(1.0681276 0.10791536 -1.7166012e-20)
(1.0077448 0.090098301 -1.7648767e-21)
(0.9736263 0.038468651 -9.7427883e-21)
(0.98788306 -0.0053542378 0)
(1.0177303 -0.020951306 -3.4426381e-22)
(1.0412789 -0.016065813 7.1739513e-22)
(1.0518127 -0.0017175194 -1.6438419e-21)
(1.0495977 0.0118409 -1.5495308e-21)
(1.0409203 0.01885099 9.2026196e-22)
(1.0322274 0.019313208 2.5721668e-22)
(1.0267387 0.015901493 -1.7920843e-22)
(1.0244543 0.011675351 6.3074497e-22)
(1.0240057 0.0081887153 -7.0880912e-22)
(1.0242563 0.0057592683 -1.4209522e-21)
(1.024568 0.0042021751 -2.0632603e-22)
(1.0246798 0.0032115764 -3.4014672e-22)
(1.0245746 0.0025357665 1.0220036e-21)
(1.0242881 0.0020262385 -3.3072586e-22)
(1.0239244 0.0015672161 -8.4632229e-22)
(1.023515 0.0011698013 9.2427156e-22)
(1.0231446 0.00070285489 -7.0733033e-22)
(1.0228135 0.00029548169 -1.201742e-24)
(1.0449685 -0.035911923 -3.620963e-22)
(1.0835222 0.057735491 3.4496372e-20)
(1.0498635 0.12367476 -6.3790892e-22)
(0.99759379 0.10896711 -9.8834024e-22)
(0.95807761 0.046576803 6.9823934e-21)
(0.97341779 -0.010872469 -7.8355537e-21)
(1.0119368 -0.031690736 -4.5199225e-22)
(1.0432247 -0.026044834 7.4831967e-22)
(1.0586284 -0.0073730161 8.3394412e-23)
(1.057177 0.01177775 -1.1719851e-21)
(1.045901 0.022610507 1.0026529e-21)
(1.0338397 0.024042982 -5.4998941e-23)
(1.0260921 0.019703297 5.7659994e-22)
(1.0229648 0.014035323 -8.1537416e-23)
(1.022576 0.0093851075 -1.0600201e-21)
(1.0232512 0.0062440244 -2.2998902e-23)
(1.0240303 0.0043551296 -4.6719569e-23)
(1.0245155 0.0032795247 -4.7869085e-22)
(1.0246385 0.0026405689 0)
(1.0244953 0.0021991111 -1.0662029e-22)
(1.024168 0.0018374261 -3.194993e-23)
(1.0237779 0.0014717129 6.7381638e-23)
(1.0233499 0.0011337912 -5.1369497e-23)
(1.0229699 0.00069524585 1.0081429e-21)
(1.022625 0.00029451346 5.706083e-22)
(1.0211828 -0.041425829 2.039753e-21)
(1.0646394 0.062699121 -2.1100554e-20)
(1.0282306 0.13852957 -4.0505785e-21)
(0.98337912 0.12702393 -6.5855132e-23)
(0.94214391 0.055464672 2.4517563e-20)
(0.9568043 -0.017241642 6.3106734e-22)
(1.004589 -0.044884997 -6.3277255e-22)
(1.0452625 -0.038460708 -4.327461e-23)
(1.066841 -0.01488942 -4.4937123e-21)
(1.0668873 0.011307841 -1.9983328e-24)
(1.0524818 0.027417447 -1.2853593e-21)
(1.0359211 0.030309777 -3.6924539e-23)
(1.0250999 0.024742422 -3.6178412e-22)
(1.0207803 0.017085862 -3.4041255e-22)
(1.0204452 0.010813185 -3.7390911e-22)
(1.0217027 0.0066753946 1.3777568e-21)
(1.0231436 0.0043211704 2.0596235e-21)
(1.0241596 0.0031291775 6.0476817e-22)
(1.0246349 0.002551623 8.8260515e-22)
(1.0246737 0.0022256528 1.9031382e-23)
(1.0244517 0.0019744336 -1.0659029e-21)
(1.0240663 0.001718733 -2.8366102e-22)
(1.0236451 0.0014241136 7.7539797e-22)
(1.023193 0.0011233166 -8.9455053e-22)
(1.0228011 0.00069871487 7.656574e-22)
(1.0224425 0.0002933328 -4.1379487e-23)
(0.99515737 -0.046391051 -1.097453e-22)
(1.0413253 0.067457192 -2.5081094e-20)
(1.0059992 0.152691 1.9044423e-20)
(0.96738249 0.14253079 -7.6214421e-21)
(0.92685319 0.066376823 -9.4318937e-21)
(0.93872209 -0.024408821 5.7560437e-21)
(0.9955889 -0.060582904 5.1188333e-22)
(1.0469064 -0.053367011 3.4482581e-22)
(1.0761214 -0.024361968 1.0231323e-20)
(1.0787069 0.010363411 3.6150802e-21)
(1.0608745 0.033543498 -2.767856e-22)
(1.0385214 0.038528276 2.1769408e-21)
(1.0236384 0.031354137 -7.6605334e-22)
(1.0177012 0.02102868 -6.6860451e-22)
(1.0173914 0.012535791 -2.7287678e-22)
(1.0194297 0.0070304181 2.9315587e-22)
(1.0217843 0.0040298925 -3.7320901e-23)
(1.0235525 0.0026824299 -3.1873846e-24)
(1.0245253 0.0022011473 2.1811673e-22)
(1.0248447 0.0020540222 4.6377924e-23)
(1.0247398 0.0019682232 0)
(1.0244187 0.0018484518 -4.0288264e-22)
(1.0239703 0.0016589185 -3.7127345e-23)
(1.023518 0.0014140666 0)
(1.023041 0.001132103 1.0983259e-21)
(1.0226345 0.0007109904 2.4051262e-24)
(1.0222636 0.00029583109 -5.623405e-22)
(0.96822384 -0.05075653 -1.1004551e-21)
(1.0158232 0.072117644 -1.7915584e-21)
(0.9803601 0.16598088 1.6924956e-20)
(0.94601353 0.15719292 -2.9578809e-21)
(0.91016453 0.076884849 -1.1889554e-21)
(0.91991665 -0.031184232 -5.5950522e-21)
(0.98423693 -0.07803161 -1.5905306e-22)
(1.0473251 -0.070576643 3.3563304e-21)
(1.0856051 -0.035558874 -2.8583538e-21)
(1.0917691 0.0090567383 -7.8241825e-21)
(1.0706477 0.041350678 3.8086165e-21)
(1.0415292 0.049159865 -4.1249523e-22)
(1.0215073 0.039905654 -4.1086295e-22)
(1.0134561 0.02606711 -4.2499454e-22)
(1.0131609 0.014619185 -9.6133274e-22)
(1.0162156 0.0072684464 -2.4856454e-22)
(1.0198053 0.0033914508 -1.3771776e-21)
(1.0226126 0.001829042 -1.0172599e-21)
(1.0242905 0.0014971157 -4.2418624e-22)
(1.024999 0.0016163096 -6.4326876e-22)
(1.0250731 0.0017811614 -3.8573133e-22)
(1.0248027 0.001849067 9.0226476e-23)
(1.0243761 0.0017964957 3.4171446e-23)
(1.0238745 0.0016468528 0)
(1.0233946 0.0014304223 0)
(1.0228911 0.0011552426 -7.9847973e-23)
(1.0224675 0.00073061929 9.9582656e-22)
(1.0220867 0.00030318258 1.0804213e-21)
(0.94110482 -0.054613102 0)
(0.98950837 0.076348826 -1.2770284e-20)
(0.95367606 0.17821633 -1.5997446e-20)
(0.92182749 0.17061906 -3.4120626e-21)
(0.88997778 0.087189915 0)
(0.90057117 -0.037890906 -1.1576746e-22)
(0.97065332 -0.097115735 -1.0315544e-21)
(1.0460811 -0.089970932 9.1701711e-21)
(1.0947692 -0.048619098 -1.5894665e-20)
(1.1054252 0.0076883491 2.5864546e-21)
(1.0804249 0.05143967 -5.0835415e-22)
(1.0440002 0.062762716 -1.5566716e-21)
(1.0183387 0.050807271 -3.9007936e-22)
(1.0077019 0.032416515 -9.3895265e-22)
(1.0074509 0.017118098 -2.3150343e-22)
(1.0118174 0.0073374113 -1.0139092e-21)
(1.0170326 0.002288178 -1.2512715e-22)
(1.0212462 0.00043341978 -2.8642341e-22)
(1.0239002 0.00030977575 -1.3229825e-22)
(1.0251586 0.00082326343 -2.9888137e-22)
(1.0254684 0.0013570111 -2.5667409e-22)
(1.025268 0.0016993366 -1.9810344e-22)
(1.024837 0.0018332177 2.2596645e-23)
(1.0243218 0.0017940208 9.3346439e-22)
(1.0237835 0.0016715341 2.6621848e-22)
(1.0232721 0.0014658167 -7.7896267e-24)
(1.0227413 0.0011887529 -1.0664204e-21)
(1.0223001 0.00075526404 6.5877181e-22)
(1.0219105 0.00031344274 -1.6195545e-21)
(0.91438786 -0.057853587 8.0164156e-22)
(0.96323344 0.079985827 0)
(0.92702196 0.18947915 0)
(0.8967339 0.1826422 0)
(0.86907211 0.096840092 5.1113106e-24)
(0.88168741 -0.044638033 3.0958339e-21)
(0.95515858 -0.11754588 -1.3652057e-21)
(1.043172 -0.11191318 -4.4606691e-21)
(1.1039848 -0.064520087 -3.5104404e-20)
(1.1213464 0.0054639519 3.15146e-20)
(1.09109 0.064126779 -8.5103615e-21)
(1.0446375 0.079754116 1.9192713e-21)
(1.0131808 0.064408596 8.637744e-22)
(1.0000015 0.040287267 1.6009736e-21)
(0.9999087 0.020068267 2.3320705e-21)
(1.0059654 0.0071664588 -1.2771834e-22)
(1.0132727 0.00058140786 -1.0692768e-21)
(1.0193444 -0.0016729858 2.0157608e-22)
(1.0233253 -0.0015174458 6.1682979e-22)
(1.0253464 -0.00045258409 4.3049779e-22)
(1.0259837 0.00062557273 2.3840243e-22)
(1.0258523 0.0013653713 -1.3473239e-22)
(1.0253977 0.0017566006 -3.9656082e-22)
(1.0248287 0.0018697759 3.0884154e-22)
(1.0242598 0.0018283981 -8.2904863e-24)
(1.0236908 0.0017233418 2.2190221e-22)
(1.0231455 0.0015150007 -8.4284806e-22)
(1.0225905 0.0012276759 5.8459126e-24)
(1.022133 0.00078177632 -2.5544965e-21)
(1.0217346 0.00032405135 -9.7533524e-22)
(0.88600938 -0.061420569 -2.5983018e-21)
(0.93780925 0.083506528 -1.0853918e-20)
(0.9011678 0.19970624 0)
(0.87173846 0.19353804 0)
(0.84741747 0.10434481 0)
(0.86340876 -0.049230472 0)
(0.93866356 -0.13846827 0)
(1.0371451 -0.13558847 1.3226716e-21)
(1.1133892 -0.083467278 1.5417098e-20)
(1.1417907 0.00056915881 -5.0231585e-20)
(1.1082629 0.078121878 6.155169e-22)
(1.0468965 0.10027276 -8.4511468e-21)
(1.0051147 0.080676602 3.5204021e-21)
(0.98969183 0.049792164 2.9156191e-21)
(0.99014282 0.023461722 -2.8919092e-22)
(0.99837272 0.0066594386 6.3505405e-22)
(1.0083167 -0.0018881363 -3.4889588e-22)
(1.016783 -0.0046852485 4.681076e-22)
(1.0225319 -0.0041807396 -4.7538793e-22)
(1.0255996 -0.0023649091 -1.908205e-22)
(1.026688 -0.00051908014 -2.4646695e-23)
(1.0266391 0.00080898351 -3.603949e-22)
(1.0261034 0.0015613248 -1.9292785e-23)
(1.0254425 0.0018882727 1.4269525e-22)
(1.0247835 0.0019484047 -9.8596301e-23)
(1.0241801 0.0019081205 -7.2080501e-22)
(1.0235825 0.0017928521 -2.3942188e-22)
(1.0230135 0.0015695368 3.6855623e-22)
(1.02244 0.0012672722 1.4769163e-24)
(1.0219669 0.00080772609 1.8439929e-21)
(1.0215597 0.00033361532 6.3433951e-22)
(0.8561133 -0.064646257 4.5367936e-21)
(0.91117028 0.086194503 -9.573501e-22)
(0.87662427 0.20896575 -1.2272642e-20)
(0.84765743 0.20321646 -2.4440161e-20)
(0.82601752 0.11084902 0)
(0.84494071 -0.056512072 0)
(0.92188733 -0.15905516 -1.7336215e-21)
(1.0274011 -0.15963059 -1.9089731e-20)
(1.1148741 -0.10376264 4.9162241e-20)
(1.1600686 -0.0076746556 -6.4262637e-20)
(1.1353241 0.09126143 -1.8227663e-21)
(1.0588244 0.12305155 1.3374743e-20)
(0.99771964 0.099884915 1.0172989e-21)
(0.97603909 0.060688219 -3.4080794e-22)
(0.97774025 0.027217939 -2.028085e-21)
(0.98874819 0.0056777586 -4.9038201e-23)
(1.0019542 -0.0052943649 2.5162037e-21)
(1.0134282 -0.0088220322 -7.0177683e-23)
(1.0214794 -0.0079054904 -1.1102622e-21)
(1.0259631 -0.0051106698 -2.3839405e-22)
(1.0276793 -0.0022039384 -5.9284323e-22)
(1.0277312 -3.8025524e-05 1.725197e-22)
(1.027052 0.0012480298 -2.054356e-22)
(1.0262012 0.0018536554 -2.8951385e-22)
(1.0254084 0.0020518279 -5.9254082e-24)
(1.0247091 0.0020604206 -2.745653e-22)
(1.0240896 0.002001888 -1.9693837e-22)
(1.0234725 0.0018552898 -2.1125911e-22)
(1.0228855 0.0016206201 5.0652686e-22)
(1.0222918 0.0013052107 -3.7295293e-23)
(1.0218022 0.00083209609 8.9170203e-22)
(1.0213864 0.00034187661 6.7126035e-23)
(0.82596257 -0.068160144 -3.3117808e-21)
(0.88346943 0.089362906 5.8710462e-21)
(0.85143905 0.21802814 1.6152406e-20)
(0.82509892 0.21185456 4.3627375e-20)
(0.80573918 0.11572762 0)
(0.82635085 -0.062615307 0)
(0.904847 -0.17887251 0)
(1.0144715 -0.18330674 -2.3454351e-22)
(1.1105837 -0.12398287 -7.1791014e-20)
(1.1641128 -0.018121074 -6.8482954e-20)
(1.1624215 0.10330135 -2.3153464e-21)
(1.0812899 0.14752069 4.1244141e-21)
(0.99885621 0.12234146 -1.2089616e-20)
(0.96027511 0.073058075 1.8196934e-21)
(0.96223212 0.031101523 -6.8160217e-22)
(0.97683208 0.004040749 0)
(0.99398572 -0.0098285783 7.2335386e-22)
(1.0091411 -0.014308952 -5.3198094e-22)
(1.0201198 -0.012945149 -2.542731e-22)
(1.0264882 -0.0089173982 1.332727e-22)
(1.0290775 -0.0045969908 2.2433132e-22)
(1.0292736 -0.0012557235 2.6707003e-22)
(1.0283653 0.0007964983 2.7083069e-22)
(1.0271998 0.0018075531 2.4770178e-22)
(1.0261561 0.0021701283 -1.9556444e-23)
(1.0253129 0.0022287713 -4.164272e-23)
(1.024614 0.002179054 1.2863106e-23)
(1.0239934 0.0020774006 -1.3159964e-23)
(1.0233677 0.0019106416 5.4467368e-22)
(1.0227605 0.0016694624 3.8365411e-22)
(1.0221445 0.0013412519 1.7133477e-23)
(1.0216392 0.00085462234 -2.5011996e-21)
(1.0212152 0.00034902358 9.4157809e-22)
(0.79558295 -0.071099264 -6.3768705e-21)
(0.85326111 0.087741416 0)
(0.82542925 0.22648319 1.9348506e-20)
(0.80305396 0.22049962 7.9843588e-20)
(0.78679532 0.11943827 -1.5815423e-20)
(0.8077961 -0.068542572 -1.3043179e-21)
(0.88737146 -0.19772964 -4.0142345e-20)
(0.99880562 -0.20601574 2.7148288e-20)
(1.1015929 -0.1435704 1.38082e-20)
(1.1616235 -0.028901778 1.6921276e-19)
(1.1721106 0.11333174 -5.2511298e-20)
(1.1046203 0.17528848 -4.9621816e-20)
(1.0086472 0.14963239 1.9301746e-21)
(0.94700002 0.088548616 -2.6304137e-21)
(0.94325859 0.034738974 -2.2007396e-21)
(0.96242683 0.0015568725 1.1323254e-22)
(0.98424437 -0.015678073 3.3517903e-22)
(1.0037886 -0.021367494 5.1728577e-22)
(1.0183936 -0.019561882 -1.1261201e-22)
(1.0272235 -0.014048136 1.0506744e-23)
(1.0310241 -0.0078970311 2.7107926e-22)
(1.0314453 -0.0029558612 2.7040679e-22)
(1.0302128 0.00018762029 -1.4542867e-22)
(1.0285609 0.0017786532 2.4526916e-22)
(1.0271052 0.0023719111 2.5383363e-22)
(1.0259993 0.0024639724 7.6851099e-23)
(1.0251796 0.0023868236 9.8583234e-23)
(1.0245115 0.0022674668 1.5235424e-23)
(1.0238982 0.0021370126 2.0394912e-22)
(1.0232619 0.001966449 -6.1078046e-23)
(1.0226333 0.001716275 2.6010884e-22)
(1.0219986 0.0013742061 2.3543263e-23)
(1.0214783 0.00087526579 1.0123732e-21)
(1.0210465 0.00035528306 -1.7547924e-21)
(0.76655797 -0.073656032 6.6352753e-21)
(0.82054054 0.087891179 -1.7290724e-22)
(0.79894332 0.23412304 -8.6815242e-21)
(0.78153356 0.22999434 -4.6506609e-20)
(0.76851643 0.12381793 9.5498979e-20)
(0.79045584 -0.076762954 4.4988865e-20)
(0.86928563 -0.2151123 6.9182169e-21)
(0.98121534 -0.22717561 0)
(1.0865553 -0.16271237 5.356996e-20)
(1.1541659 -0.037732423 2.2353897e-19)
(1.1668216 0.1220055 3.2608323e-21)
(1.114976 0.20420733 2.2178548e-20)
(1.0164916 0.18274322 0)
(0.93911237 0.10957376 3.0761103e-21)
(0.92128677 0.039150274 2.8852672e-21)
(0.94522395 -0.0021662149 -8.8567187e-23)
(0.9726337 -0.023010001 -2.6233036e-21)
(0.99725352 -0.030191929 0)
(1.0162309 -0.028016862 7.499104e-23)
(1.0282052 -0.020787177 1.6119038e-22)
(1.0336701 -0.012344291 -2.672267e-24)
(1.0344643 -0.0052754322 2.6181443e-22)
(1.0328077 -0.00061410706 0)
(1.0304536 0.0018131597 2.0450656e-22)
(1.0283604 0.0027229269 1.196463e-22)
(1.0268257 0.0028465357 -9.7134117e-24)
(1.0257784 0.0026813643 8.9951017e-23)
(1.0250358 0.0024868734 -8.9501889e-23)
(1.0244122 0.0023216433 1.3840258e-26)
(1.0238105 0.0021856535 6.587883e-22)
(1.0231624 0.0020118838 -1.1907101e-21)
(1.0225122 0.0017558325 -6.7477928e-22)
(1.0218562 0.0014036026 0)
(1.0213202 0.00089432431 -3.9624015e-23)
(1.0208807 0.00036085604 -5.1915016e-22)
(0.73989462 -0.076129856 1.0032378e-20)
(0.78925552 0.08934391 -1.0045473e-20)
(0.77374914 0.24084275 3.7522605e-21)
(0.76109465 0.23828029 -1.5574276e-20)
(0.75054601 0.13170702 3.163549e-20)
(0.77112274 -0.0799967 1.1720563e-20)
(0.85224458 -0.23220392 6.055163e-20)
(0.96223669 -0.24687445 6.0153377e-21)
(1.0678354 -0.18029477 0)
(1.1408451 -0.04515014 -7.9913657e-20)
(1.1516001 0.132837 7.2195073e-20)
(1.1028294 0.23097823 -7.8899262e-21)
(1.0158792 0.21753675 1.0490564e-20)
(0.93393708 0.13692324 -1.2025602e-21)
(0.8989253 0.045069073 1.0155167e-21)
(0.92478936 -0.0070355336 1.7270744e-21)
(0.95910874 -0.032011179 -4.2174375e-21)
(0.98945188 -0.040957293 -4.7465163e-22)
(1.0135607 -0.038546845 1.1478878e-21)
(1.0294527 -0.029433601 -3.183442e-22)
(1.037167 -0.018213949 1.2994522e-22)
(1.0385752 -0.0083894772 -9.8502251e-23)
(1.036414 -0.001656442 0)
(1.0330925 0.0019616175 6.3895955e-23)
(1.0300642 0.0033362371 3.469792e-23)
(1.027858 0.0034863578 -8.769806e-24)
(1.0264347 0.0031704851 -1.0023404e-22)
(1.0255356 0.002797171 -3.0534308e-23)
(1.024899 0.002526976 -5.0497948e-23)
(1.0243261 0.0023499237 0)
(1.0237333 0.0022212844 -5.1907829e-22)
(1.0230693 0.0020491857 -1.3051509e-21)
(1.0223949 0.00179171 1.8526176e-21)
(1.0217165 0.0014308132 -5.869781e-22)
(1.0211646 0.00091241311 7.7794846e-23)
(1.020718 0.00036594441 1.8510139e-21)
(0.71601208 -0.078467397 -1.1235985e-20)
(0.76089993 0.08989719 -1.934387e-22)
(0.75066787 0.24648971 -6.2484788e-21)
(0.7424049 0.24565409 -1.4791577e-22)
(0.73383399 0.13820438 -1.5208633e-19)
(0.75179134 -0.078491833 -9.9619864e-20)
(0.83147888 -0.2460206 -1.7953928e-21)
(0.94308698 -0.26436601 3.9660836e-20)
(1.0469452 -0.19729151 5.3662517e-21)
(1.1224341 -0.051353391 7.2651266e-20)
(1.1332624 0.14420699 1.0080804e-21)
(1.0820773 0.2567001 -2.2086627e-20)
(1.0085029 0.24949336 3.3729195e-21)
(0.93243675 0.1667842 -7.739168e-21)
(0.88021405 0.056367199 0)
(0.90068308 -0.014177154 0)
(0.94388959 -0.042891371 3.9068101e-22)
(0.98035371 -0.053746689 6.2213743e-22)
(1.0103186 -0.051348399 2.0194085e-22)
(1.0309698 -0.040268279 1.6285054e-22)
(1.0416563 -0.025809405 2.5041796e-22)
(1.044053 -0.012510034 3.3604666e-22)
(1.0413413 -0.003002542 -1.0851276e-22)
(1.036746 0.0022809884 0)
(1.0323993 0.004339633 -5.4107335e-22)
(1.0291947 0.0045379426 -9.8325424e-23)
(1.0271725 0.0039803795 -1.233503e-22)
(1.0260041 0.0033159448 1.0422211e-22)
(1.025306 0.0028107768 -4.462886e-24)
(1.0247864 0.0025170779 4.3337576e-23)
(1.0242605 0.0023557274 3.3025769e-22)
(1.0236682 0.0022451877 -4.9840896e-22)
(1.0229827 0.0020820332 1.3955229e-23)
(1.0222803 0.0018251501 1.883467e-21)
(1.0215791 0.0014564889 -3.6637531e-24)
(1.0210121 0.00093003364 -5.2148646e-23)
(1.0205581 0.00037079943 6.6529172e-22)
(0.69541387 -0.080685042 -8.089076e-22)
(0.73572694 0.089641089 1.6978288e-20)
(0.73067455 0.25127953 -1.5627523e-20)
(0.72601621 0.25204519 1.5045812e-20)
(0.71896065 0.14445024 -2.2386572e-22)
(0.73430552 -0.078175972 5.5890906e-22)
(0.80897885 -0.25767454 3.4019413e-20)
(0.91907723 -0.28182046 -2.0772489e-21)
(1.0236659 -0.21014255 0)
(1.0997815 -0.057441575 -1.6028575e-20)
(1.1110085 0.15495391 0)
(1.060802 0.28000381 0)
(0.99419842 0.27744348 -1.3825291e-20)
(0.92892996 0.19594427 7.077076e-22)
(0.8663076 0.071085545 7.9289138e-22)
(0.87615266 -0.019654776 1.7093524e-21)
(0.92607636 -0.056026513 1.3473208e-22)
(0.97007373 -0.068614437 -2.9059141e-21)
(1.0064009 -0.066521222 -1.4063666e-21)
(1.0326781 -0.053542384 -5.6679416e-22)
(1.0472175 -0.035453753 -3.4781177e-23)
(1.0511589 -0.017906488 -9.5920278e-22)
(1.0479611 -0.0047553372 -8.4603026e-23)
(1.0417446 0.0028503828 -4.2640481e-22)
(1.0355945 0.0058945571 -1.195733e-22)
(1.0309608 0.0061870423 3.0033928e-23)
(1.0280368 0.0052890187 1.7103691e-22)
(1.0264238 0.0041713787 -1.1033751e-22)
(1.0255973 0.0032846688 -1.4472613e-24)
(1.0251194 0.0027331821 -1.1787811e-22)
(1.0247104 0.0024657505 -3.5890963e-23)
(1.0242186 0.0023436577 -5.8870951e-23)
(1.0236163 0.0022616282 4.2258609e-22)
(1.0229029 0.0021109825 1.1597694e-21)
(1.0221703 0.0018563455 -3.7523643e-21)
(1.0214454 0.0014813796 -7.4855233e-22)
(1.0208625 0.00094792939 -6.5477323e-22)
(1.0204015 0.00037565355 0)
(0.67881351 -0.082755151 2.6616597e-20)
(0.71414016 0.088394434 -1.1636352e-22)
(0.71432075 0.2550148 -7.2190997e-21)
(0.71226164 0.25774066 1.4661503e-20)
(0.70653189 0.1500076 1.038973e-19)
(0.71920837 -0.077886745 6.7850477e-20)
(0.78647454 -0.26852632 -3.6862222e-21)
(0.89248366 -0.29901634 -7.0609442e-20)
(0.99598643 -0.22776476 -8.0728215e-21)
(1.0748111 -0.057408018 -1.6196893e-19)
(1.0850511 0.16633552 2.5060509e-21)
(1.0361501 0.30245627 0)
(0.97413796 0.30296555 0)
(0.91800382 0.22214181 1.0198815e-20)
(0.85619188 0.089439595 -8.4276575e-21)
(0.85329454 -0.025599518 -5.4531322e-21)
(0.90604704 -0.070983437 1.5044457e-21)
(0.95850428 -0.085417818 7.892302e-22)
(1.0016381 -0.084085382 -1.2593698e-21)
(1.0344486 -0.069444067 -1.8367284e-21)
(1.0538729 -0.047483366 -1.5822246e-22)