/*--------------------------------*- C++ -*----------------------------------*\
| =========                 |                                                 |
| \\      /  F ield         | OpenFOAM: The Open Source CFD Toolbox           |
|  \\    /   O peration     | Version:  5.0                                   |
|   \\  /    A nd           | Web:      www.OpenFOAM.org                      |
|    \\/     M anipulation  |                                                 |
\*---------------------------------------------------------------------------*/
FoamFile
{
    version     2.0;
    format      ascii;
    class       volVectorField;
    location    "200";
    object      U_0;
}
// * * * * * * * * * * * * * * * * * * * * * * * * * * * * * * * * * * * * * //

dimensions      [0 1 -1 0 0 0 0];

internalField   nonuniform List<vector> 
9200
(
(1.0390962 0.00074934638 -1.8410939e-24)
(1.0392804 0.0023924744 8.5595044e-22)
(1.0368392 0.00074800156 0)
(1.0395693 0.0038106447 -4.5316528e-22)
(1.0369952 0.0024114483 7.4892165e-22)
(1.0358484 0.00073264133 0)
(1.0399693 0.0052277118 -4.5400948e-23)
(1.0372661 0.0038478166 9.6900699e-24)
(1.0359887 0.0023749166 0)
(1.0344078 0.00070048906 0)
(1.0404351 0.0065292756 9.4046981e-22)
(1.0376282 0.0052937042 7.0672882e-22)
(1.0362394 0.0037936638 4.2409041e-22)
(1.0345245 0.0022810785 2.5846503e-23)
(1.0333063 0.00066446766 2.4642701e-25)
(1.0409703 0.0077539291 9.0001537e-22)
(1.0380749 0.0066457566 -2.8862769e-23)
(1.0365698 0.0052258721 1.4155691e-21)
(1.0347469 0.0036453465 5.8161518e-22)
(1.0334072 0.0021644875 1.859494e-23)
(1.0322207 0.00062960078 -1.0863927e-21)
(1.0415581 0.0088677466 9.5580078e-22)
(1.0386176 0.0079560833 1.0153485e-21)
(1.0369695 0.0065811095 -8.4897835e-22)
(1.0350262 0.0050198717 -6.2865693e-23)
(1.0336101 0.0034562832 5.2172217e-22)
(1.0323106 0.00204243 5.3010501e-22)
(1.0312574 0.00060283806 9.2979149e-23)
(1.042221 0.0098398836 5.2199607e-22)
(1.0392703 0.0092195774 8.5952244e-22)
(1.0374447 0.0079205509 1.0205346e-21)
(1.03535 0.0063272764 6.3263963e-23)
(1.0338574 0.0047461078 -1.3411315e-21)
(1.0325001 0.0032571229 -5.9584936e-22)
(1.0313447 0.001939467 -6.1274619e-22)
(1.0303592 0.00058403118 1.0119605e-21)
(1.0429802 0.010637135 -1.301588e-21)
(1.0400697 0.010427331 8.5917815e-22)
(1.0379933 0.0092647808 6.7525914e-23)
(1.0357037 0.0076252509 4.7913001e-22)
(1.0341323 0.005963146 1.4021837e-22)
(1.0327297 0.0044533284 -1.9927689e-21)
(1.0315296 0.0030904612 1.7945727e-22)
(1.0304488 0.0018634054 -1.0433414e-21)
(1.0295225 0.00056987321 -2.1502071e-21)
(1.0438151 0.011251607 1.064314e-21)
(1.0410736 0.011622649 -2.6825128e-22)
(1.0386179 0.010647132 -5.7289094e-23)
(1.0360511 0.0089468287 -2.5017045e-22)
(1.0344074 0.0071457584 -2.0454425e-22)
(1.0329834 0.0055678904 2.2499572e-22)
(1.0317592 0.0042092911 6.9696819e-22)
(1.030631 0.0029716193 1.1721675e-21)
(1.0296156 0.0018117488 6.6474651e-22)
(1.0287332 0.00055668297 1.715502e-22)
(1.0446842 0.011642433 -5.1611912e-22)
(1.0424468 0.012773237 2.9740679e-22)
(1.0393319 0.012155999 6.2783182e-22)
(1.0363663 0.010345798 -8.0048777e-22)
(1.0346206 0.0083154409 5.385379e-22)
(1.0332292 0.006613637 -1.785827e-21)
(1.0320214 0.0052433566 6.9982086e-23)
(1.0308652 0.0040423164 1.76441e-21)
(1.0297925 0.002897077 -8.8441172e-22)
(1.0288261 0.0017731412 1.9474218e-21)
(1.0279883 0.00054276421 -2.9644059e-22)
(1.0459314 0.011652693 7.04905e-23)
(1.0439288 0.013910071 -7.2143449e-22)
(1.039932 0.013930856 -8.6432517e-22)
(1.0365673 0.011915016 0)
(1.0347247 0.0094975206 3.7462188e-23)
(1.0334062 0.0075934069 -3.2732097e-22)
(1.0322963 0.0061878684 -3.5524092e-22)
(1.0311405 0.0050360582 -8.6918074e-22)
(1.0300259 0.0039476118 -2.1920616e-22)
(1.0289924 0.0028462372 -1.1219744e-21)
(1.0280754 0.0017343497 -7.6609642e-22)
(1.0272877 0.00052711304 1.763821e-22)
(1.0476293 0.011241991 3.7609454e-23)
(1.0457079 0.015398888 7.6194995e-23)
(1.0404512 0.016052694 0)
(1.0365848 0.013705362 0)
(1.0345999 0.01072447 -1.6485176e-22)
(1.0334708 0.0084890288 -2.2963213e-22)
(1.0325373 0.0070301987 -4.7251034e-22)
(1.031455 0.0059417962 1.0204235e-21)
(1.0303043 0.004936754 1.0531552e-22)
(1.0292152 0.0038899002 2.5832095e-24)
(1.028227 0.0027947066 1.2671397e-21)
(1.027365 0.0016836562 -1.3792785e-21)
(1.0266352 0.0005078179 2.8416619e-21)
(1.0498415 0.010262196 -4.3281539e-22)
(1.0481809 0.017173436 1.2521862e-23)
(1.0410825 0.018518233 -1.8545514e-22)
(1.0363747 0.015767164 1.9918703e-24)
(1.034171 0.011991761 -1.1252225e-23)
(1.0333438 0.0092922517 -1.6139808e-22)
(1.032718 0.007725794 2.7769226e-22)
(1.0317808 0.0067447453 1.6001932e-23)
(1.030646 0.0058547915 1.1334648e-21)
(1.0294826 0.0048901033 1.058619e-21)
(1.0284295 0.0038291145 3.4743016e-22)
(1.0274997 0.0027214469 1.0067987e-21)
(1.0267019 0.0016128185 6.868313e-22)
(1.0260365 0.00048283088 -7.810246e-22)
(1.0524472 0.0088474783 -2.626555e-22)
(1.0513849 0.019350067 3.6596194e-22)
(1.0418064 0.02155352 -4.2844064e-22)
(1.0358155 0.018230956 8.4984433e-23)
(1.0333211 0.013342681 -7.3048724e-23)
(1.0329535 0.0099302394 2.9775911e-22)
(1.0327887 0.0082223031 2.6216046e-22)
(1.0321172 0.0073886155 -3.550906e-22)
(1.0310422 0.0066935716 -9.5194171e-23)
(1.0298248 0.0058415996 -1.2432262e-22)
(1.0286689 0.0048386389 -2.0631512e-23)
(1.0276736 0.0037328379 -1.4650586e-22)
(1.0268197 0.0026121757 -1.2999173e-21)
(1.0260945 0.0015186643 6.6426962e-22)
(1.0254969 0.00045205262 -6.0145678e-22)
(1.0553531 0.0067457245 2.1021324e-21)
(1.0553003 0.02184622 -1.2268356e-21)
(1.0426153 0.025389399 -1.3077013e-22)
(1.0347724 0.021265079 1.5216824e-22)
(1.0318663 0.01483333 -2.0224667e-22)
(1.0321309 0.010340155 -4.2650124e-22)
(1.0327999 0.0084441985 -8.9675902e-24)
(1.0324828 0.0077995632 3.1341427e-23)
(1.0315262 0.0073998929 -2.204884e-22)
(1.0302501 0.006752064 -2.5946469e-22)
(1.0289763 0.005824733 -2.227423e-21)
(1.0278693 0.004735123 4.8836947e-22)
(1.0269639 0.0035802921 4.0520146e-22)
(1.0261981 0.0024620316 1.9968585e-22)
(1.0255493 0.0014040588 3.6181101e-23)
(1.025019 0.000417772 6.7029787e-22)
(1.0585962 0.0043444439 0)
(1.0596997 0.024984439 -1.2691292e-21)
(1.0433943 0.03027934 9.5811077e-22)
(1.0331247 0.0250436 0)
(1.0296151 0.016501643 0)
(1.0307533 0.010490368 0)
(1.0325628 0.0081864421 1.0920482e-22)
(1.0330605 0.0079283503 5.0457678e-22)
(1.0322061 0.0079141592 3.3696091e-22)
(1.0308293 0.007591544 6.5796327e-22)
(1.029364 0.0068174056 9.3989913e-23)
(1.0281087 0.0057360155 4.8646524e-22)
(1.0271058 0.0045464654 -9.9453709e-25)
(1.0263161 0.0033640711 -4.6403513e-22)
(1.0256439 0.0022764564 -1.3245225e-22)
(1.0250698 0.0012769327 -3.2657865e-22)
(1.0246015 0.00038314433 0)
(1.0624565 0.0010637443 3.9115335e-21)
(1.064335 0.028511087 4.0290412e-21)
(1.0438402 0.036388737 -6.7055799e-22)
(1.0306537 0.029760663 1.8323719e-21)
(1.0263599 0.018415809 1.4015297e-21)
(1.0286372 0.010290927 0)
(1.0320213 0.0073803582 7.1633976e-22)
(1.0337175 0.007534367 -1.9331281e-22)
(1.0331202 0.0081473918 4.8459065e-22)
(1.0316652 0.0083383585 3.827226e-22)
(1.0299068 0.0078320881 -3.9719043e-22)
(1.0283869 0.0067844929 1.2528265e-22)
(1.0272612 0.0055204745 8.2413186e-22)
(1.0264106 0.0042630613 -1.5171887e-21)
(1.0257446 0.0030928579 -4.0899727e-22)
(1.0251619 0.0020689462 -2.1989218e-21)
(1.0246548 0.0011475728 -8.7376251e-22)
(1.0242397 0.00035094253 -8.5133978e-22)
(1.0689626 -0.0021062114 -6.9360102e-22)
(1.070523 0.032730656 2.4964629e-21)
(1.0438524 0.04394592 9.3677839e-22)
(1.0269947 0.035546046 1.3618876e-21)
(1.0218428 0.020630731 -2.6578686e-22)
(1.0255699 0.0096551072 -3.7363374e-22)
(1.0311042 0.0058399049 -1.6309445e-21)
(1.0344032 0.0065156715 -6.6591939e-22)
(1.0344327 0.0082150702 -6.7642379e-23)
(1.0327032 0.0090164445 -6.9314868e-22)
(1.0306266 0.008928826 -9.3495745e-23)
(1.028745 0.0079429793 -8.9508838e-22)
(1.027391 0.0065610812 1.6051181e-22)
(1.0264832 0.0051574187 1.1992368e-22)
(1.0258079 0.0038978258 1.8073022e-22)
(1.0252574 0.0027882588 3.3183247e-22)
(1.0247512 0.0018569638 -7.3125302e-22)
(1.0242994 0.0010256942 3.5938489e-23)
(1.0239265 0.00032365824 -8.1382818e-22)
(1.0769737 -0.0075995885 -3.7626064e-21)
(1.0813043 0.036958212 -4.7736351e-21)
(1.0450681 0.052908226 8.6718798e-21)
(1.0221158 0.042452558 -1.4372387e-21)
(1.0158285 0.023225044 2.327065e-22)
(1.0213105 0.0084697749 -1.309138e-22)
(1.029697 0.0033695214 2.1768225e-22)
(1.0352111 0.0046592098 -6.9877703e-23)
(1.0362303 0.0077876774 1.2013674e-24)
(1.0342031 0.0097121406 4.0581716e-22)
(1.0315075 0.010188441 -1.1699587e-21)
(1.0291413 0.0093089332 3.0112423e-22)
(1.027495 0.0077401862 4.7892297e-22)
(1.0264773 0.0061108728 -4.2352556e-23)
(1.0258245 0.0046708322 1.2109925e-22)
(1.0253108 0.0034813701 1.0518713e-21)
(1.024855 0.0024771195 -2.3892501e-22)
(1.0244062 0.0016574397 1.2018698e-21)
(1.0239956 0.00091878691 3.1887047e-22)
(1.0236531 0.00030376516 8.5561084e-22)
(1.0829111 -0.013468284 -2.8779251e-22)
(1.097234 0.041936213 -1.0983666e-20)
(1.050626 0.063368638 1.6518267e-21)
(1.0172779 0.05070334 1.3153245e-21)
(1.0080294 0.026142453 -1.1783322e-21)
(1.0156354 0.006629663 -1.2686572e-21)
(1.0276764 -0.00026198103 1.8815896e-21)
(1.0361815 0.0017236325 7.7530938e-22)
(1.0386228 0.0067322263 4.7406387e-22)
(1.0364134 0.010338453 0)
(1.0328073 0.011632084 8.0493333e-22)
(1.0296144 0.010956155 3.1963424e-22)
(1.0275146 0.0091432933 -6.7185892e-22)
(1.0263574 0.0071687999 1.1275565e-22)
(1.0257246 0.0054679294 -4.5445488e-22)
(1.0253079 0.0041107845 8.1781512e-22)
(1.0249204 0.0030530606 1.4472718e-22)
(1.0245308 0.0021843871 -3.7618549e-22)
(1.024118 0.0014834846 7.3313853e-22)
(1.0237341 0.00083183095 5.1030458e-23)
(1.0234106 0.00029294013 8.2626711e-22)
(1.0823772 -0.019381127 7.6942057e-21)
(1.1063607 0.044006681 -1.5052872e-20)
(1.0615941 0.075567795 -1.1823141e-20)
(1.0148809 0.060850834 -2.7190726e-22)
(0.99844439 0.029561746 -4.3050781e-21)
(1.0083148 0.0040417357 1.7072612e-22)
(1.0248978 -0.0052785328 0)
(1.0373585 -0.0025510991 4.5940065e-22)
(1.0417875 0.0048439786 2.6410937e-22)
(1.0395243 0.010846062 1.1649773e-21)
(1.0347055 0.013401126 4.5536708e-22)
(1.0302825 0.012997245 6.6697415e-23)
(1.0274554 0.01086202 -7.8889676e-23)
(1.0260512 0.0084014816 3.7764622e-22)
(1.0254564 0.0063071909 -2.5461685e-22)
(1.025171 0.0047156089 2.7988283e-22)
(1.0249343 0.0035363305 -1.0331848e-22)
(1.0246271 0.002650881 6.5055599e-22)
(1.0242729 0.0019288659 1.2572315e-22)
(1.0238757 0.0013429079 1.6637647e-23)
(1.0235059 0.00076726478 4.3961495e-22)
(1.0231901 0.00029055469 0)
(1.0764371 -0.026102888 2.4193728e-21)
(1.1068672 0.046283518 1.1322372e-20)
(1.0737125 0.090885813 -4.7153135e-22)
(1.0142463 0.073812648 -1.5155696e-21)
(0.98737841 0.0340288 -4.8767654e-21)
(0.99897144 0.00062340456 1.7958745e-21)
(1.0212234 -0.011902539 -9.695242e-22)
(1.0387009 -0.0084516294 1.5252013e-22)
(1.0459445 0.0019087485 -2.4290486e-22)
(1.0437973 0.011155802 -8.794253e-23)
(1.0374103 0.015615761 -6.4486975e-24)
(1.0312194 0.015649586 -2.6902445e-22)
(1.0272765 0.013053796 -1.0830557e-22)
(1.0254874 0.0098969252 1.2922202e-21)
(1.024925 0.0072313937 9.0685768e-22)
(1.0248472 0.0052898015 6.5814295e-22)
(1.0248185 0.0039464408 -1.3565138e-22)
(1.0246873 0.0030025171 -1.0103569e-21)
(1.0244131 0.0023048034 -3.9891336e-23)
(1.0240661 0.0017220434 3.9527025e-22)
(1.0236689 0.0012384155 0)
(1.0233031 0.00072470943 -9.9841696e-22)
(1.0229844 0.00029293202 -2.5078965e-24)
(1.0631562 -0.032384433 -9.2204601e-21)
(1.100159 0.048405831 3.8366679e-20)
(1.0715597 0.10664719 -1.6253311e-20)
(1.0105435 0.091196012 -2.1514261e-21)
(0.9744568 0.040600858 -9.8144112e-21)
(0.98705472 -0.0037328323 0)
(1.0164574 -0.020359968 -3.3257924e-22)
(1.0401867 -0.016267206 7.6296285e-22)
(1.0512274 -0.0023521389 -1.6404417e-21)
(1.0495487 0.011194365 -1.6562267e-21)
(1.0411715 0.01842267 9.3397159e-22)
(1.032533 0.019155155 2.8572575e-22)
(1.02695 0.015929413 -2.1063845e-22)
(1.0245535 0.011772206 6.5292601e-22)
(1.0240274 0.0082899228 -7.4290047e-22)
(1.0242357 0.0058379183 -1.4624618e-21)
(1.0245314 0.0042540912 -1.9964329e-22)
(1.0246412 0.0032416894 -3.5037564e-22)
(1.0245392 0.0025511691 1.0464173e-21)
(1.0242566 0.002032722 -3.342076e-22)
(1.0238957 0.0015690667 -8.5682692e-22)
(1.0234878 0.0011689707 9.314003e-22)
(1.0231183 0.00070130401 -7.1084841e-22)
(1.0227888 0.00029509269 -1.3685041e-24)
(1.0435877 -0.038606141 -2.8609344e-22)
(1.0852592 0.053038128 3.5513169e-20)
(1.0535028 0.12217653 -5.6351112e-22)
(1.0007288 0.11031092 1.0089054e-21)
(0.95919644 0.049314284 7.0787052e-21)
(0.97237747 -0.008738247 -7.879718e-21)
(1.0102859 -0.030919169 -4.3498205e-22)
(1.0417839 -0.026281029 5.1169514e-22)
(1.0578093 -0.008218185 1.3462887e-22)
(1.0570942 0.010858532 -1.1979139e-21)
(1.0462719 0.021988011 9.9274311e-22)
(1.0343046 0.023815298 -1.2822129e-22)
(1.0264198 0.019749353 5.9189459e-22)
(1.0231236 0.014182079 -7.8597931e-23)
(1.0226169 0.0095355976 -1.0780723e-21)
(1.0232282 0.0063598793 -2.7749146e-23)
(1.0239826 0.0044299406 -4.5125275e-23)
(1.0244653 0.0033210867 -4.9687239e-22)
(1.0245945 0.0026603462 0)
(1.0244585 0.0022062321 -1.0947225e-22)
(1.0241367 0.0018385485 -3.2653166e-23)
(1.0237496 0.0014698781 6.8472442e-23)
(1.0233233 0.0011310526 -5.0592995e-23)
(1.0229443 0.00069298978 1.01342e-21)
(1.0226007 0.00029452884 5.7243602e-22)
(1.019692 -0.044354018 2.9943132e-21)
(1.0666181 0.057383306 -2.1979499e-20)
(1.0317723 0.1369933 -3.7965072e-21)
(0.98628064 0.12856347 -3.0788269e-22)
(0.94344637 0.058892693 2.2646263e-20)
(0.95554355 -0.014449225 6.7031621e-22)
(1.0024972 -0.043908671 -6.0797678e-22)
(1.0434093 -0.038737702 -2.0668681e-23)
(1.0657344 -0.015996401 -4.3539478e-21)
(1.066755 0.01002909 -6.1126592e-23)
(1.0530165 0.026524875 -1.3319485e-21)
(1.0366077 0.029988992 -2.4765896e-23)
(1.025587 0.024818144 -3.2474455e-22)
(1.0210222 0.017306412 -3.4561493e-22)
(1.0205126 0.011035079 -3.6616145e-22)
(1.0216752 0.0068450074 1.4091065e-21)
(1.0230789 0.0044292204 2.0987975e-21)
(1.024091 0.0031871051 6.3394529e-22)
(1.0245768 0.0025769335 9.1794011e-22)
(1.0246282 0.0022331003 1.9689117e-23)
(1.0244156 0.0019732628 -1.0912764e-21)
(1.0240364 0.0017151832 -2.8544494e-22)
(1.0236179 0.0014192458 7.809759e-22)
(1.0231674 0.0011191976 -8.9909582e-22)
(1.0227763 0.00069602188 7.6854179e-22)
(1.0224188 0.00029330066 -4.15597e-23)
(0.99379406 -0.049461143 -1.5365184e-22)
(1.0434864 0.061567211 -2.6301092e-20)
(1.0096007 0.15120047 1.8840944e-20)
(0.97011241 0.14419982 -8.4790402e-21)
(0.9284997 0.070592197 -7.3961049e-21)
(0.93732873 -0.02088899 6.4374091e-21)
(0.99302398 -0.05938753 7.5325716e-22)
(1.0446039 -0.053714278 6.6515207e-22)
(1.0747064 -0.025797236 9.9339052e-21)
(1.078533 0.0086122216 3.7334274e-21)
(1.0616424 0.032282484 -2.6157788e-22)
(1.039511 0.038087698 2.300384e-21)
(1.024341 0.031477641 -8.5920465e-22)
(1.0180551 0.021355124 -6.394389e-22)
(1.017494 0.012859137 -2.8248132e-22)
(1.0193943 0.0072760483 2.9031734e-22)
(1.0216937 0.0041853596 -1.8633622e-23)
(1.0234559 0.0027636417 -1.8481399e-23)
(1.024445 0.0022337619 2.3248375e-22)
(1.024785 0.0020607087 4.7616579e-23)
(1.0246961 0.0019634075 0)
(1.0243855 0.0018406085 -4.111759e-22)
(1.0239425 0.001651516 -3.9765503e-23)
(1.0234921 0.0014071933 0)
(1.0230164 0.0011271489 1.1035275e-21)
(1.0226108 0.00070802413 3.1620454e-24)
(1.0222405 0.00029540385 -5.6259798e-22)
(0.9670275 -0.053942567 -1.4370922e-21)
(1.018105 0.06572129 -1.9150353e-21)
(0.98391825 0.16457667 1.7191609e-20)
(0.94874779 0.15898313 -2.9726104e-21)
(0.91213184 0.081693361 -8.8430852e-22)
(0.91850185 -0.026783663 -6.9619895e-21)
(0.98113774 -0.076567856 -1.4077736e-22)
(1.0445618 -0.071025104 2.9337018e-21)
(1.0838736 -0.037395066 -2.8639895e-21)
(1.0916032 0.0066964241 -8.103077e-21)
(1.0717639 0.039596233 3.9394062e-21)
(1.0429249 0.048571482 -3.4103613e-22)
(1.0224953 0.040102698 -3.4525527e-22)
(1.0139571 0.026541612 -4.3866911e-22)
(1.0133088 0.015083227 -9.376085e-22)
(1.0161671 0.0076190847 -2.6261448e-22)
(1.0196766 0.0036130524 -1.3782342e-21)
(1.0224744 0.0019430464 -1.0974914e-21)
(1.0241764 0.0015395348 -4.4817565e-22)
(1.0249168 0.0016206888 -6.6635948e-22)
(1.0250173 0.0017698732 -4.0155036e-22)
(1.0247635 0.0018338555 9.5200511e-23)
(1.0243471 0.0017843189 3.5142284e-23)
(1.0238487 0.0016365709 0)
(1.0233701 0.0014225126 0)
(1.0228677 0.0011499215 -8.033188e-23)
(1.0224448 0.00072757736 9.9627378e-22)
(1.0220642 0.00030242078 1.0796206e-21)
(0.94007035 -0.057898489 0)
(0.99185908 0.069503608 -1.3413074e-20)
(0.9571278 0.17690493 -1.6557493e-20)
(0.92449681 0.17253867 -3.0900973e-21)
(0.89201478 0.092455207 0)
(0.89917522 -0.032501929 -2.1540486e-23)
(0.96702015 -0.095367594 -8.0882067e-22)
(1.0428116 -0.090495474 8.3911758e-21)
(1.0926163 -0.050872415 -1.5250056e-20)
(1.1052195 0.0045695198 2.3335253e-21)
(1.0820122 0.049047579 -5.1014475e-22)
(1.045938 0.062004865 -1.5700071e-21)
(1.0196959 0.051112914 -1.6173212e-22)
(1.00839 0.033093199 -9.6900175e-22)
(1.0076541 0.0177718 -2.5087336e-22)
(1.0117484 0.0078296323 -1.0003874e-21)
(1.01685 0.002599605 -1.3941571e-22)
(1.021048 0.00059268903 -2.7528105e-22)
(1.0237361 0.0003654506 -1.7070559e-22)
(1.0250424 0.00082311012 -3.0455623e-22)
(1.0253933 0.001334811 -2.7077117e-22)
(1.0252201 0.0016731155 -2.0605121e-22)
(1.0248051 0.0018114768 2.4122861e-23)
(1.0242964 0.0017792667 9.4927701e-22)
(1.0237594 0.0016595317 2.7261974e-22)
(1.0232492 0.0014575709 -9.7092516e-24)
(1.0227189 0.0011836015 -1.0670735e-21)
(1.0222782 0.00075246979 6.5790345e-22)
(1.0218885 0.00031264659 -1.6159349e-21)
(0.91349346 -0.061220417 1.2422791e-21)
(0.96559829 0.072714002 0)
(0.93032708 0.18825105 0)
(0.89933286 0.18470911 0)
(0.87099549 0.10236048 3.2987432e-23)
(0.88030251 -0.038345024 3.0039387e-21)
(0.9511503 -0.11555508 -1.4947329e-21)
(1.0393223 -0.11243963 -4.3635032e-21)
(1.1012099 -0.067098387 -3.3553974e-20)
(1.1208378 0.0014820465 3.1035749e-20)
(1.0930576 0.060976848 -8.5161976e-21)
(1.0471907 0.078839141 1.9522229e-21)
(1.0149843 0.064879459 7.6035427e-22)
(1.0009175 0.041235266 1.6514884e-21)
(1.0001744 0.020971711 2.2690895e-21)
(1.0058653 0.0078445791 -1.5233939e-22)
(1.0130155 0.0010120332 -1.0670047e-21)
(1.0190626 -0.0014525807 2.3821542e-22)
(1.0230894 -0.0014438948 6.3271817e-22)
(1.0251797 -0.00046024798 4.5489625e-22)
(1.0258793 0.00058590488 2.5600529e-22)
(1.025791 0.0013215248 -1.4219825e-22)
(1.0253608 0.0017205518 -4.1036123e-22)
(1.0248039 0.0018464419 3.1453329e-22)
(1.0242378 0.0018111396 -5.1937833e-24)
(1.0236694 0.0017108176 2.2281831e-22)
(1.0231243 0.0015072667 -8.4247082e-22)
(1.022569 0.0012232679 2.7727141e-24)
(1.0221116 0.00077956473 -2.5485168e-21)
(1.0217131 0.00032347288 -9.71931e-22)
(0.88526687 -0.064866044 -2.9702408e-21)
(0.9401704 0.075931719 -1.1449455e-20)
(0.90429762 0.19854484 0)
(0.87425756 0.19574923 0)
(0.8490872 0.11024097 0)
(0.86201013 -0.04187075 0)
(0.93448626 -0.13610126 0)
(1.0328604 -0.13613659 1.2873332e-21)
(1.1097041 -0.086459964 1.4360735e-20)
(1.1406162 -0.0042951501 -5.2162312e-20)
(1.1102287 0.074160075 5.6903293e-22)
(1.0499144 0.099224087 -8.5433337e-21)
(1.0073846 0.081393158 3.8844034e-21)
(0.99085912 0.051098983 2.8415141e-21)
(0.99047286 0.024686985 -2.8483234e-22)
(0.99822542 0.0075751029 5.9692078e-22)
(1.0079597 -0.001303572 -2.9673572e-22)
(1.0163881 -0.0043841453 4.7358741e-22)
(1.0221964 -0.0040830946 -5.2566044e-22)
(1.0253605 -0.0023839337 -2.0932035e-22)
(1.0265403 -0.00058521838 -2.7126583e-23)
(1.0265574 0.00073770511 -3.8312573e-22)
(1.0260602 0.0015032149 -2.0556603e-23)
(1.0254185 0.0018490652 1.4783883e-22)
(1.0247653 0.0019229161 -1.0677986e-22)
(1.0241617 0.0018897335 -7.2774745e-22)
(1.0235636 0.0017819785 -2.4147011e-22)
(1.0229932 0.001563362 3.6833194e-22)
(1.0224189 0.0012640067 1.1561474e-24)
(1.0219458 0.00080630738 1.8376084e-21)
(1.0215384 0.00033335413 6.3170335e-22)
(0.85553776 -0.068176634 4.7747462e-21)
(0.91349384 0.078214072 -1.0599392e-21)
(0.8796266 0.20781984 -1.2636707e-20)
(0.85007817 0.2055768 -2.3809343e-20)
(0.82746199 0.11714621 0)
(0.84345888 -0.04842955 0)
(0.91764854 -0.15631301 -1.664599e-21)
(1.0227921 -0.16024157 -1.7591132e-20)
(1.1112194 -0.10711651 4.695788e-20)
(1.1588864 -0.013349114 -6.4568939e-20)
(1.1370965 0.086367847 -1.7538441e-21)
(1.0621803 0.12187043 1.3836248e-20)
(1.0004677 0.10091785 9.4358e-22)
(0.9774524 0.062446368 -3.2739815e-22)
(0.97812355 0.028848483 -1.967957e-21)
(0.98853074 0.0068885953 -5.6896202e-23)
(1.001467 -0.0045163831 2.4986529e-21)
(1.0128845 -0.0084167223 -6.8391846e-23)
(1.0210092 -0.0077757247 -1.146589e-21)
(1.0256228 -0.0051455927 -3.2098372e-22)
(1.0274689 -0.002308463 -6.2869255e-22)
(1.0276192 -0.00015051746 1.8773185e-22)
(1.0269998 0.0011562799 -2.1997617e-22)
(1.0261784 0.0017904204 -3.0813823e-22)
(1.0253959 0.0020123901 -1.3330448e-23)
(1.0246967 0.0020346459 -2.7793276e-22)
(1.0240746 0.0019864638 -1.9892938e-22)
(1.0234544 0.0018475084 -2.0899994e-22)
(1.0228656 0.0016163721 5.0454488e-22)
(1.022271 0.0013032487 -3.5989465e-23)
(1.0217813 0.00083154722 8.8681309e-22)
(1.0213651 0.00034193038 6.6785443e-23)
(0.82557269 -0.071745411 -3.5464018e-21)
(0.88579717 0.081161788 4.8144513e-21)
(0.85436268 0.2168599 1.6039457e-20)
(0.8273822 0.2143609 4.281978e-20)
(0.80699782 0.12246762 0)
(0.82474268 -0.053775193 0)
(0.90060011 -0.17578091 0)
(1.0096549 -0.18397991 -3.6235108e-22)
(1.1067548 -0.12777962 -7.0432181e-20)
(1.1629331 -0.024619088 -6.8872022e-20)
(1.1639656 0.097285662 -2.2199614e-21)
(1.0851598 0.14601007 4.2262796e-21)
(1.0022228 0.12363953 -1.2869021e-20)
(0.96203639 0.075366207 2.072168e-21)
(0.96263628 0.033218115 -7.2088279e-22)
(0.97651299 0.0056075483 0)
(0.99333242 -0.0088147879 7.1270266e-22)
(1.008408 -0.013772412 -5.4413826e-22)
(1.0194727 -0.012772883 -3.1813606e-22)
(1.02601 -0.0089731871 1.4201514e-22)
(1.0287786 -0.0047550734 2.6282181e-22)
(1.0291174 -0.001427928 2.8654216e-22)
(1.0282995 0.00065473864 2.9303612e-22)
(1.0271797 0.0017084871 2.6499439e-22)
(1.0261525 0.0021081826 -1.7598472e-23)
(1.0253103 0.0021913547 -4.6423124e-23)
(1.0246062 0.002157524 1.5377769e-23)
(1.0239802 0.0020669138 -1.2865662e-23)
(1.0233505 0.0019051645 5.3905483e-22)
(1.0227411 0.001667117 3.8305409e-22)
(1.0221238 0.0013407274 1.5693255e-23)
(1.0216182 0.00085494903 -2.4848244e-21)
(1.0211938 0.00034935878 9.3543562e-22)
(0.79540074 -0.074740211 -6.8163227e-21)
(0.85548578 0.079016631 0)
(0.82823101 0.22526634 2.124875e-20)
(0.80515814 0.22313734 7.8203399e-20)
(0.78789787 0.12663677 -1.480497e-20)
(0.80605917 -0.059181225 -1.0428065e-21)
(0.8831451 -0.19433829 -3.8916756e-20)
(0.99393819 -0.20675026 2.5889102e-20)
(1.0976616 -0.1478583 1.3926914e-20)
(1.1605459 -0.036108309 1.6858458e-19)
(1.1730119 0.105892 -5.5256787e-20)
(1.1094661 0.17317603 -4.9330596e-20)
(1.0128976 0.15095451 1.9545398e-21)
(0.94950584 0.091447773 -2.485369e-21)
(0.9436885 0.037433851 -2.1344696e-21)
(0.96196233 0.0035370675 1.4899908e-22)
(0.98338439 -0.014386636 3.2928566e-22)
(1.002821 -0.020669805 4.2396024e-22)
(1.0175208 -0.019333853 -1.1484413e-22)
(1.0265624 -0.014129552 2.2595948e-23)
(1.0306031 -0.0081271438 3.0077359e-22)
(1.031226 -0.0032120029 3.0978135e-22)
(1.0301272 -2.6774849e-05 -1.5682934e-22)
(1.0285451 0.0016269317 2.6247658e-22)
(1.0271154 0.0022767811 2.7344381e-22)
(1.0260117 0.0024091299 8.0762017e-23)
(1.025184 0.0023572576 9.9574967e-23)
(1.0245064 0.0022535787 2.1006073e-23)
(1.0238858 0.0021310317 2.0249928e-22)
(1.0232447 0.0019642148 -5.9857195e-23)
(1.0226136 0.0017164129 2.5782323e-22)
(1.0219776 0.00137522 2.373252e-23)
(1.021457 0.00087642621 1.0049066e-21)
(1.0210249 0.00035586432 -1.7419591e-21)
(0.76655463 -0.077362531 6.9569694e-21)
(0.82256565 0.078854952 -2.1720202e-22)
(0.8015148 0.23280512 -1.0824262e-20)
(0.78346759 0.23266738 -4.5470306e-20)
(0.76947753 0.13151798 9.7484146e-20)
(0.78869046 -0.066830628 4.6657888e-20)
(0.86508603 -0.21140907 6.7842181e-21)
(0.97639437 -0.22801132 0)
(1.0828998 -0.16741995 5.2251043e-20)
(1.1531711 -0.045804134 2.2139929e-19)
(1.1686103 0.11297737 3.4130283e-21)
(1.1212072 0.20140561 2.1691229e-20)
(1.0218029 0.18407267 0)
(0.94275945 0.11317406 3.1385289e-21)
(0.9219229 0.042584264 2.8435697e-21)
(0.94455256 0.00027484008 -1.4490788e-22)
(0.97152347 -0.021399212 -2.5511457e-21)
(0.99600392 -0.029300817 0)
(1.0150785 -0.027715609 1.4445794e-22)
(1.0273075 -0.02089705 2.5124059e-22)
(1.0330845 -0.012667598 5.7954656e-23)
(1.0341565 -0.0056460041 2.9932523e-22)
(1.0326932 -0.00093125988 0)
(1.0304443 0.001585686 2.2272018e-22)
(1.0283915 0.0025798247 1.2725237e-22)
(1.0268607 0.0027657906 -1.0535294e-23)
(1.0258017 0.0026402947 9.7323641e-23)
(1.0250442 0.0024687143 -8.9520088e-23)
(1.0244081 0.0023153119 -7.2466226e-25)
(1.0237978 0.0021845311 6.4683516e-22)
(1.0231446 0.0020133849 -1.1762941e-21)
(1.0224919 0.0017583176 -6.6956081e-22)
(1.0218348 0.0014060318 0)
(1.0212985 0.00089621969 -3.9321748e-23)
(1.0208586 0.00036164518 -5.1493536e-22)
(0.74001453 -0.079888177 1.048479e-20)
(0.79101286 0.08005551 -1.0950901e-20)
(0.77601259 0.239453 3.8710129e-21)
(0.76281757 0.24101767 -1.5070762e-20)
(0.75149904 0.13956687 3.2024631e-20)
(0.7695003 -0.069329169 1.1362395e-20)
(0.84813346 -0.22835245 6.0053462e-20)
(0.95748587 -0.24776717 5.8877806e-21)
(1.0642949 -0.18541575 0)
(1.1396833 -0.054225279 -7.8713016e-20)
(1.15457 0.12246499 7.1686826e-20)
(1.1091897 0.22775394 -8.0130859e-21)
(1.0216234 0.21899078 1.0889753e-20)
(0.93859795 0.14122883 -1.8223394e-21)
(0.90012939 0.049524655 1.0725615e-21)
(0.92381905 -0.0040499847 1.5537768e-21)
(0.95769698 -0.030053277 -4.0718818e-21)
(0.98787124 -0.03983969 -5.5125196e-22)
(1.0120694 -0.038150721 1.0706804e-21)
(1.0282555 -0.029572116 -3.736883e-22)
(1.0363628 -0.01865401 1.1370601e-22)
(1.0381455 -0.008912413 -1.596896e-22)
(1.0362582 -0.0021152589 0)
(1.0330924 0.0016266793 6.8677494e-23)
(1.0301265 0.0031240197 3.6922387e-23)
(1.0279275 0.0033673405 -1.2663585e-23)
(1.0264872 0.0031117676 -1.1048163e-22)
(1.0255652 0.0027730741 -3.5471268e-23)
(1.0249087 0.0025205352 -4.8098701e-23)
(1.0243213 0.0023510849 0)
(1.0237195 0.0022253345 -5.098923e-22)
(1.0230505 0.0020539169 -1.2883983e-21)
(1.022374 0.0017962476 1.8280967e-21)
(1.0216945 0.0014344869 -5.799309e-22)
(1.0211424 0.00091491783 7.7313994e-23)
(1.0206955 0.00036689305 1.8352996e-21)
(0.71620233 -0.082266347 -1.1493903e-20)
(0.76235561 0.080478298 -2.141637e-22)
(0.75259446 0.2450387 -7.0043988e-21)
(0.74390674 0.24845175 -1.7116834e-22)
(0.73474366 0.14625327 -1.5024605e-19)
(0.75032463 -0.067135477 -1.0053e-19)
(0.82752778 -0.24180368 -1.722107e-21)
(0.93853104 -0.26545492 3.8599824e-20)
(1.0436131 -0.20281174 5.52255e-21)
(1.1214674 -0.061270563 7.1714566e-20)
(1.1367482 0.13278247 9.5825562e-22)
(1.088053 0.25317669 -2.3516821e-20)
(1.0140979 0.25106717 3.2401793e-21)
(0.93752031 0.17169933 -8.8368969e-21)
(0.88200729 0.061997458 0)
(0.89940837 -0.010536553 0)
(0.94211169 -0.040561345 3.4894538e-22)
(0.97839466 -0.052371779 6.0855464e-22)
(1.0084288 -0.050833148 1.3991467e-22)
(1.0294049 -0.040431659 1.3539182e-22)
(1.0405695 -0.026389526 2.1022045e-22)
(1.0434566 -0.013230265 2.9736451e-22)
(1.0411264 -0.0036537322 -7.3680761e-23)
(1.0367586 0.0017962591 0)
(1.032507 0.004029629 -5.8081624e-22)
(1.0293154 0.0043642667 -1.1248316e-22)
(1.0272689 0.0038963063 -1.2818126e-22)
(1.0260663 0.0032836305 1.0504155e-22)
(1.0253373 0.0028047872 -5.6014103e-24)
(1.0247946 0.0025222185 3.9469853e-23)
(1.0242535 0.0023643069 3.1454075e-22)
(1.0236525 0.0022540421 -4.8136051e-22)
(1.0229625 0.0020898467 1.4166106e-23)
(1.0222583 0.0018316408 1.8576254e-21)
(1.0215563 0.0014612306 -2.2733892e-24)
(1.0209893 0.00093298888 -5.1553605e-23)
(1.0205351 0.00037185219 6.593273e-22)
(0.69562555 -0.084505427 -8.1862818e-22)
(0.73686408 0.080086911 1.7695789e-20)
(0.73221923 0.24977261 -1.7314566e-20)
(0.72729729 0.25486211 1.433879e-20)
(0.71980654 0.15268334 -1.7380099e-22)
(0.73301839 -0.066292791 4.9433447e-22)
(0.80515917 -0.25293874 3.4676086e-20)
(0.91474612 -0.28286669 -2.0119397e-21)
(1.0205688 -0.21609177 0)
(1.099084 -0.068119575 -1.5890543e-20)
(1.1148588 0.1424841 0)
(1.0667447 0.27623285 0)
(0.99967969 0.27912309 -1.449031e-20)
(0.93381322 0.20130396 7.1315485e-22)
(0.86877671 0.07808059 9.5329337e-22)
(0.87485925 -0.01504654 2.0457444e-21)
(0.92382223 -0.053352288 -1.7717823e-22)
(0.96771179 -0.066961576 -2.7221298e-21)
(1.0040634 -0.065859307 -1.3194828e-21)
(1.030679 -0.053719874 -5.2534551e-22)
(1.0457747 -0.036193572 -2.1028339e-23)
(1.0503398 -0.018873871 -8.4613865e-22)
(1.0476627 -0.0056617542 -9.6881496e-23)
(1.041773 0.0021607564 -4.9001765e-22)
(1.0357668 0.0054481542 -1.2863481e-22)
(1.0311558 0.0059368751 3.1059346e-23)
(1.0281976 0.0051695504 1.8367651e-22)
(1.0265345 0.0041281089 -1.1062921e-22)
(1.0256615 0.0032803498 -6.913559e-25)
(1.025148 0.0027453157 -1.2835975e-22)
(1.0247148 0.0024822435 -2.7267762e-23)
(1.0242084 0.0023591313 -5.4043935e-23)
(1.0235982 0.0022747945 4.1494262e-22)
(1.022881 0.0021215362 1.1362812e-21)
(1.022147 0.0018644037 -3.7004258e-21)
(1.0214218 0.0014868923 -7.4110585e-22)
(1.020839 0.00095115034 -6.4847664e-22)
(1.020378 0.00037675178 0)
(0.67898754 -0.086567863 2.6318345e-20)
(0.71492535 0.078742653 -1.2376688e-22)
(0.71550568 0.2535606 -7.8697533e-21)
(0.71333937 0.26056988 1.2867813e-20)
(0.70728055 0.15842174 1.0143066e-19)
(0.71809364 -0.065445354 6.911913e-20)
(0.78289436 -0.26333689 -3.4306273e-21)
(0.88845771 -0.29988841 -6.9102071e-20)
(0.99299008 -0.23392124 -8.2835772e-21)
(1.0743684 -0.068794362 -1.488048e-19)
(1.0890849 0.15276255 2.3278186e-21)
(1.0421341 0.29846363 0)
(0.97968728 0.30467891 0)
(0.92288265 0.22785228 1.0276661e-20)
(0.85963447 0.097744075 -9.000367e-21)
(0.8522754 -0.019909555 -5.8759434e-21)
(0.90326701 -0.067856316 1.63502e-21)
(0.95568657 -0.08348449 8.6060655e-22)
(0.99881692 -0.083246319 -1.2687411e-21)
(1.0319464 -0.069614893 -1.7187145e-21)
(1.0519877 -0.048394674 -1.4810112e-22)