/*--------------------------------*- C++ -*----------------------------------*\
| =========                 |                                                 |
| \\      /  F ield         | OpenFOAM: The Open Source CFD Toolbox           |
|  \\    /   O peration     | Version:  5.0                                   |
|   \\  /    A nd           | Web:      www.OpenFOAM.org                      |
|    \\/     M anipulation  |                                                 |
\*---------------------------------------------------------------------------*/
FoamFile
{
    version     2.0;
    format      ascii;
    class       volVectorField;
    location    "200";
    object      UMean;
}
// * * * * * * * * * * * * * * * * * * * * * * * * * * * * * * * * * * * * * //

dimensions      [0 1 -1 0 0 0 0];

internalField   nonuniform List<vector> 
9200
(
(1.0264675 0.00021568837 -2.7514591e-24)
(1.0266791 0.00068703332 2.6280829e-22)
(1.0259206 0.00019402378 0)
(1.0270022 0.0011760232 -1.4683937e-22)
(1.0260824 0.00062565921 2.3098099e-22)
(1.0256436 0.00018168169 0)
(1.02741 0.0016449146 -1.3466215e-23)
(1.026348 0.0010759044 -2.0487928e-23)
(1.0257969 0.0005705385 0)
(1.0253453 0.00014840938 0)
(1.0278855 0.0022062013 3.4489552e-22)
(1.0266635 0.001484286 3.3540639e-22)
(1.0260354 0.00098894374 1.3351511e-22)
(1.0254702 0.00046177719 6.768336e-24)
(1.0250986 0.00012375422 3.5764361e-25)
(1.0283873 0.002765793 3.2422842e-22)
(1.027026 0.0019841862 2.4712037e-23)
(1.0263181 0.0013536029 4.7796049e-22)
(1.0256774 0.00082205112 2.1788264e-22)
(1.0252164 0.00036390877 3.1463691e-23)
(1.0249586 9.0702615e-05 -1.8407006e-22)
(1.0288726 0.0034069449 4.6517078e-22)
(1.0274063 0.0024565761 3.3806464e-22)
(1.0266381 0.0018084159 -2.7535698e-22)
(1.0259204 0.0011096014 -2.9153245e-23)
(1.0254018 0.00066816526 1.1648295e-22)
(1.0250635 0.00023981167 1.2526234e-22)
(1.0248318 6.0186826e-05 3.2270576e-23)
(1.029303 0.0040728289 3.895931e-22)
(1.0277764 0.0029921765 3.7165223e-22)
(1.0269697 0.0022235572 3.9454178e-22)
(1.026195 0.001496421 8.6873297e-23)
(1.0256147 0.00088480052 -4.0012694e-22)
(1.0252287 0.00047759786 -1.7502091e-22)
(1.0249307 0.0001188557 -2.9183348e-23)
(1.0248125 2.7126184e-05 5.989905e-23)
(1.029661 0.0047922215 -6.4377157e-22)
(1.0281216 0.0035222958 2.5453345e-22)
(1.0272856 0.0026916938 8.2814162e-23)
(1.0264832 0.0018364724 1.4207078e-22)
(1.02585 0.0012064046 1.9207595e-22)
(1.0254191 0.00061172162 -4.6916982e-22)
(1.0250803 0.00029045161 -2.3099059e-22)
(1.0249076 -1.4145864e-05 -1.1444517e-23)
(1.0248117 -3.7575016e-06 -3.286129e-23)
(1.0298918 0.0055185195 5.8250153e-22)
(1.0284096 0.0040747662 6.3246501e-23)
(1.0275653 0.0031431745 -3.8075736e-23)
(1.0267582 0.0022331203 -2.852886e-22)
(1.0260959 0.0014752068 -8.5144502e-23)
(1.0256262 0.00086013394 3.2179014e-22)
(1.025251 0.00034347998 1.4576482e-22)
(1.0250463 8.5006582e-05 1.3595571e-22)
(1.0249052 -0.00014173543 9.3608985e-23)
(1.0248991 -3.460142e-05 2.0283798e-23)
(1.0299263 0.006232604 -2.6381077e-22)
(1.0286058 0.0046096157 2.3836326e-22)
(1.0277922 0.003605946 1.8736358e-22)
(1.0270116 0.0026165006 -3.1114185e-22)
(1.0263275 0.0017990129 -8.3184976e-23)
(1.0258423 0.0010510624 -2.5228375e-22)
(1.0254317 0.00051842763 1.0688809e-22)
(1.0252052 4.9544909e-05 3.8929233e-23)
(1.0250351 -0.00011247005 2.4229846e-23)
(1.0249955 -0.00027291579 1.3097319e-23)
(1.025006 -6.2658526e-05 5.0306486e-23)
(1.0298843 0.0069514499 3.4468335e-23)
(1.0286438 0.0051163913 -3.7238001e-22)
(1.0279488 0.0040501253 -3.7711544e-22)
(1.0272315 0.0030135342 0)
(1.0265391 0.0021058096 2.3141237e-23)
(1.0260422 0.0013013064 -3.4288416e-22)
(1.0256191 0.00063247969 -2.8575531e-23)
(1.0253677 0.00014416647 -1.7326016e-23)
(1.025185 -0.00023290251 -3.5600588e-22)
(1.0251223 -0.00031631342 5.325764e-23)
(1.0251066 -0.0003955898 7.8432904e-23)
(1.0251811 -8.8992253e-05 -1.0616121e-23)
(1.0297233 0.0076578759 2.9981493e-23)
(1.0285763 0.0056160007 -8.6912359e-24)
(1.0279846 0.0044724886 0)
(1.0274042 0.0033980301 0)
(1.0267128 0.0024287954 -2.7708232e-24)
(1.0262217 0.0015410354 -4.282341e-22)
(1.0257856 0.00080753979 2.3462287e-22)
(1.0255352 0.00017564957 1.2198931e-22)
(1.025332 -0.00021695193 3.376984e-23)
(1.0252711 -0.00052585156 4.2026566e-24)
(1.0252328 -0.00050745917 -2.6976123e-22)
(1.0252909 -0.00051521903 4.6260914e-22)
(1.0253716 -0.00011186674 -6.6712733e-22)
(1.0286987 0.008112658 -4.3878468e-22)
(1.0284978 0.0061653805 2.1272609e-23)
(1.0278605 0.0048549419 -1.506415e-22)
(1.0274756 0.0037595612 3.2012058e-23)
(1.0268431 0.0027474421 3.6947627e-23)
(1.0263671 0.0018041431 -1.4826895e-22)
(1.0259328 0.00097367392 7.3832018e-23)
(1.025677 0.00027166166 2.5097129e-23)
(1.0254814 -0.00026780361 3.2766968e-22)
(1.0254109 -0.00059400255 3.1694646e-22)
(1.0253841 -0.00080132225 -4.2470567e-23)
(1.0254226 -0.00069498993 -1.0629111e-22)
(1.025492 -0.00062341349 -1.0241984e-22)
(1.02561 -0.00013171281 2.2201582e-22)
(1.0263631 0.0081578398 -1.8877677e-22)
(1.0281144 0.0066750491 9.4818656e-22)
(1.0276447 0.0052077535 -1.2937161e-22)
(1.02738 0.0040875437 1.3408247e-23)
(1.0269006 0.0030636782 -2.5420419e-23)
(1.0264714 0.0020692698 1.8637707e-22)
(1.0260443 0.0011674304 8.2515181e-23)
(1.0257934 0.00036171915 -8.8120562e-23)
(1.0255992 -0.00025372351 -1.6852032e-22)
(1.025551 -0.00073194422 -6.1401868e-23)
(1.025521 -0.00095085827 2.5070324e-24)
(1.0255848 -0.0010737147 -1.8139829e-22)
(1.0256321 -0.00086537593 3.6106522e-22)
(1.025746 -0.00072305943 -2.4298946e-22)
(1.025858 -0.00014754804 2.2111631e-22)
(1.0228394 0.0078602487 9.2694238e-22)
(1.0267135 0.0069316343 -1.0297738e-21)
(1.027341 0.0056208085 3.0917903e-22)
(1.0271262 0.0043789041 -2.2378453e-22)
(1.0268084 0.0033602133 7.2433562e-23)
(1.0265154 0.0023397427 -2.2463856e-22)
(1.0261118 0.0013691432 -2.5926703e-22)
(1.0258694 0.00048386714 5.0026731e-23)
(1.0256898 -0.00024243094 -2.0023009e-24)
(1.0256526 -0.00080433233 -4.9946734e-22)
(1.0256559 -0.0011749069 2.5966059e-22)
(1.0257282 -0.0013074591 -4.8882734e-22)
(1.0258098 -0.0013227771 -1.3896884e-22)
(1.0259015 -0.0010236011 1.3839943e-23)
(1.026011 -0.00080877624 7.4171811e-23)
(1.0261338 -0.00015945214 -2.7099715e-22)
(1.0183617 0.0073421895 0)
(1.0243171 0.0069237344 -1.3836454e-21)
(1.026261 0.0059310966 2.4368444e-22)
(1.0268097 0.0047148613 0)
(1.0264962 0.003621871 0)
(1.0264371 0.002600213 0)
(1.0261295 0.0015859032 6.8113373e-23)
(1.0258973 0.00061928015 1.3942456e-22)
(1.0257368 -0.00019615087 6.9657412e-22)
(1.0257196 -0.00087922313 1.4577613e-23)
(1.025746 -0.0013362984 1.8268259e-22)
(1.0258678 -0.0016215937 -5.3562558e-23)
(1.0259656 -0.0016368678 8.7773463e-23)
(1.0261041 -0.0015566785 1.5853059e-22)
(1.0261843 -0.0011606711 -2.7930134e-23)
(1.0263087 -0.0008816384 1.4473613e-22)
(1.0264126 -0.00016696706 0)
(1.0133904 0.0067022695 8.3943823e-22)
(1.0208248 0.0066695828 2.4619265e-21)
(1.024138 0.0060059098 -2.4111325e-21)
(1.0259961 0.0050789994 -6.9889631e-22)
(1.0260747 0.0039190271 -3.8421628e-22)
(1.026108 0.0028265425 0)
(1.0260544 0.001806762 2.6995039e-22)
(1.0258758 0.00077606951 -2.2369366e-22)
(1.0257315 -0.00013243084 -4.7951096e-22)
(1.0257359 -0.0009179506 9.4742797e-22)
(1.0257971 -0.0014995855 2.897106e-24)
(1.0259557 -0.0018765798 2.3089313e-22)
(1.0261167 -0.0020385331 -5.1067678e-22)
(1.0262828 -0.0019507439 4.5784373e-22)
(1.0264166 -0.0017616042 -9.0431435e-23)
(1.0265072 -0.0012785515 1.1126548e-21)
(1.0266107 -0.00093870617 3.8831924e-22)
(1.0267009 -0.00016999856 4.1394801e-22)
(1.0085039 0.006023642 -8.6987344e-23)
(1.0163165 0.0061745117 1.2360954e-21)
(1.0209909 0.0059634604 4.7273383e-22)
(1.0241967 0.0052287516 -1.1931648e-21)
(1.0253364 0.0042927874 8.4835369e-23)
(1.0255696 0.0030553494 -3.323399e-22)
(1.0257374 0.0020030355 -5.598721e-22)
(1.0257866 0.00094710308 -7.3659383e-22)
(1.0256748 -4.2081356e-05 -4.0307063e-22)
(1.0256938 -0.0009341472 -2.0637153e-22)
(1.0257911 -0.0016262959 -2.3336612e-22)
(1.0259967 -0.0021359174 2.0123084e-22)
(1.02621 -0.0023878274 -5.4329668e-22)
(1.026457 -0.0024412899 1.1269071e-22)
(1.0266252 -0.0022300542 1.2724278e-22)
(1.0267791 -0.0019410072 -1.9402038e-22)
(1.0268366 -0.0013720717 4.1964371e-22)
(1.026926 -0.00098007843 -4.2118981e-23)
(1.0269849 -0.00016841502 4.227816e-22)
(1.0034697 0.0053409346 -6.2592058e-22)
(1.011618 0.0056009049 -1.3991393e-21)
(1.0169085 0.005748111 5.9052188e-21)
(1.021424 0.0052518401 6.0086584e-22)
(1.0237704 0.0045424836 -4.6134253e-22)
(1.0248038 0.0033787313 -1.6277658e-22)
(1.0251047 0.002169644 -2.1343108e-23)
(1.0254999 0.0011101915 -2.0935586e-22)
(1.0255627 6.9383718e-05 -1.4424836e-22)
(1.0255947 -0.00091888254 -8.9651906e-22)
(1.0257205 -0.0017272081 3.446756e-24)
(1.0259709 -0.0023604056 2.0198258e-22)
(1.0262505 -0.0027455528 3.2609006e-23)
(1.0265674 -0.0028884503 -8.2147012e-24)
(1.0268311 -0.0028051159 1.6786943e-22)
(1.0270291 -0.0024799448 -7.5219131e-22)
(1.027152 -0.0020865179 3.4954372e-22)
(1.027186 -0.0014415023 -7.0010576e-22)
(1.0272383 -0.0010045166 -1.7378013e-22)
(1.0272641 -0.00016228989 -4.5886993e-22)
(0.99731631 0.0046039093 -7.5072288e-23)
(1.0070858 0.0051180061 -1.9491027e-21)
(1.0124244 0.0054088188 -2.0155084e-22)
(1.0176528 0.0051394755 -1.4470095e-21)
(1.0212558 0.0046680991 -1.273572e-23)
(1.0233847 0.0036609937 6.017875e-22)
(1.0242484 0.0024143482 -7.0575171e-22)
(1.0248386 0.0012162062 4.9254846e-23)
(1.0253073 0.00019080909 4.2777661e-22)
(1.0254428 -0.00087532694 0)
(1.0255855 -0.0017932269 4.0526051e-23)
(1.0258718 -0.0025568338 7.572049e-22)
(1.026215 -0.003071996 5.9628422e-22)
(1.0266181 -0.0033505273 -9.1023342e-22)
(1.0269692 -0.003348267 9.83221e-23)
(1.0272799 -0.0031371369 -5.9083014e-22)
(1.02745 -0.0026882536 1.7529278e-22)
(1.0275548 -0.0021986705 3.5770806e-22)
(1.0275344 -0.0014845082 -5.1769345e-22)
(1.0275483 -0.0010119874 -2.4144937e-23)
(1.0275311 -0.00015166633 -4.4675172e-22)
(0.98946226 0.0035429097 5.9795322e-22)
(1.001732 0.0044433765 -1.43926e-21)
(1.007997 0.0050560485 -2.737878e-21)
(1.0134102 0.0049104881 3.0550162e-21)
(1.017749 0.0046753034 1.8455627e-21)
(1.0210788 0.003831916 -2.7175227e-22)
(1.0229095 0.0026914385 0)
(1.0238685 0.0013637734 -4.5164955e-22)
(1.0246883 0.0002573601 -3.0500697e-22)
(1.0251953 -0.00080584668 -2.7030518e-22)
(1.0253917 -0.0018252844 2.8738164e-22)
(1.0256991 -0.0027155163 3.724672e-22)
(1.0260971 -0.0033709457 -1.4607692e-22)
(1.0265813 -0.0037886452 -7.2697773e-23)
(1.0270422 -0.0039158718 5.1130269e-22)
(1.0274599 -0.00377648 -4.9227977e-22)
(1.0277549 -0.0034206559 7.9603474e-23)
(1.0279127 -0.0028558017 -5.7495012e-22)
(1.0279595 -0.0022734626 4.6280605e-24)
(1.0278852 -0.0015009162 -1.7301496e-24)
(1.0278471 -0.0010023809 -2.7598466e-22)
(1.0277829 -0.00013668515 0)
(0.98041407 0.0026088693 -3.7030509e-23)
(0.99415619 0.003592085 8.1833566e-22)
(1.0031662 0.0046583531 -7.2163785e-24)
(1.0091775 0.0046500173 3.3118232e-21)
(1.0136469 0.0045708184 1.4343961e-21)
(1.0178012 0.0038878584 -9.2844244e-22)
(1.02076 0.0028810112 5.2271044e-22)
(1.0225191 0.001577187 -1.2089186e-21)
(1.0236236 0.00030010429 -2.2052285e-22)
(1.024655 -0.00076173868 5.1849743e-23)
(1.0251289 -0.001821401 -3.0556965e-23)
(1.0254566 -0.0028335417 -8.7315255e-22)
(1.0258946 -0.0036317486 1.9832364e-23)
(1.0264516 -0.004202628 1.063526e-21)
(1.0270185 -0.0044694488 -1.6882253e-22)
(1.0275702 -0.0044523821 -5.2278793e-22)
(1.0279888 -0.0041511874 -8.6166151e-23)
(1.0282853 -0.0036568881 1.061962e-21)
(1.0283822 -0.0029762967 8.2602963e-23)
(1.0283743 -0.0023105021 -3.544622e-22)
(1.0282265 -0.0014903077 0)
(1.028132 -0.00097603686 6.2639515e-22)
(1.0280155 -0.00011751197 1.0021603e-23)
(0.9702815 0.0017480211 7.0797964e-24)
(0.98499096 0.0026441597 2.1873775e-21)
(0.9963221 0.0040759619 -3.2473808e-21)
(1.004668 0.0043977703 -1.6353234e-21)
(1.009525 0.0044373644 3.5091233e-21)
(1.0138182 0.0038463782 0)
(1.0177014 0.0029545633 1.1842996e-22)
(1.0205051 0.0017442462 -8.0012056e-22)
(1.0222146 0.00041389378 -6.0909688e-22)
(1.0235895 -0.0008027632 2.440707e-22)
(1.0246624 -0.0018043761 1.7961992e-23)
(1.0251505 -0.0029074255 -4.2704014e-22)
(1.0256089 -0.0038474633 6.4774396e-22)
(1.0262235 -0.0045802207 -3.4013967e-22)
(1.0268915 -0.0050059136 8.2269051e-22)
(1.0275743 -0.0051274304 7.1500945e-22)
(1.028151 -0.0049326439 -9.2741774e-22)
(1.0285885 -0.0044740302 4.3256214e-22)
(1.0288305 -0.0038364521 -1.5650788e-21)
(1.0288728 -0.0030487007 5.7972298e-22)
(1.028782 -0.0023087689 8.3634479e-22)
(1.0285565 -0.0014530453 -7.0283701e-22)
(1.028398 -0.00093360075 4.091621e-22)
(1.028226 -9.4454436e-05 9.3293395e-24)
(0.95925368 0.00093170282 4.6912662e-22)
(0.97513333 0.0019835605 2.018858e-21)
(0.98772071 0.0031809502 6.0317678e-22)
(0.99835253 0.0040606761 9.4193446e-21)
(1.0052943 0.0043549718 -2.5212205e-21)
(1.0097279 0.0037499515 4.0773477e-21)
(1.0138575 0.0029389718 1.0669437e-22)
(1.0176494 0.0018113831 2.7098111e-21)
(1.0203071 0.00053912201 -4.7155592e-22)
(1.0220818 -0.00080155004 -2.8652446e-22)
(1.0236937 -0.0018820034 2.5541161e-22)
(1.0247142 -0.0029383726 7.7232323e-22)
(1.0252483 -0.0040139685 -1.0622774e-22)
(1.0258971 -0.0049115107 -1.0750175e-22)
(1.0266521 -0.0055123397 -1.3706457e-22)
(1.0274645 -0.0057964427 1.9140472e-22)
(1.0282008 -0.005729404 -1.8040597e-22)
(1.0288198 -0.0053585641 7.1083353e-22)
(1.0292145 -0.0047315703 0)
(1.0294096 -0.00395745 1.0719691e-22)
(1.0293594 -0.0030712227 3.4702826e-23)
(1.0291831 -0.0022684245 -6.8400465e-23)
(1.0288688 -0.0013899672 1.7941752e-23)
(1.0286423 -0.00087587442 -5.9004265e-22)
(1.0284121 -6.7700846e-05 -2.4289167e-22)
(0.94763349 0.00019067592 -3.3711295e-22)
(0.96427801 0.0012913011 -1.3932707e-21)
(0.97783623 0.002577211 -1.242744e-21)
(0.98993338 0.0033407391 -1.2939399e-21)
(0.99964012 0.0041773266 -9.1670837e-21)
(1.0056357 0.0037104514 -4.8992673e-22)
(1.0098182 0.0028454067 1.0219324e-22)
(1.0139605 0.0017838493 -2.1891897e-22)
(1.0176232 0.00058354145 -1.9015106e-21)
(1.0201978 -0.00073947663 2.3200028e-22)
(1.0221228 -0.0019865308 -2.8315356e-22)
(1.0238765 -0.0030148352 -7.0089036e-23)
(1.024796 -0.0041219392 -5.0613381e-22)
(1.0254769 -0.0051898641 -3.8016561e-23)
(1.0262984 -0.0059756017 -4.3942868e-22)
(1.0272279 -0.0064456455 1.5002905e-22)
(1.0281279 -0.0065348402 8.7944486e-22)
(1.0289338 -0.00627735 -1.0386629e-21)
(1.0295301 -0.0057118276 -1.6334833e-21)
(1.0298892 -0.0049211136 8.8688879e-24)
(1.02999 -0.004016825 1.6538065e-21)
(1.0298472 -0.0030431482 4.196379e-22)
(1.0295675 -0.0021903965 -7.7406697e-22)
(1.0291599 -0.0013022567 6.3593897e-22)
(1.0288619 -0.00080390967 -4.1017587e-22)
(1.0285722 -3.8098544e-05 2.2236206e-23)
(0.93571325 -0.00047897255 1.9530749e-23)
(0.95263848 0.00066963311 -1.6200298e-21)
(0.96707659 0.0018783494 5.0273103e-21)
(0.98026815 0.0027886447 -7.2269363e-21)
(0.9917184 0.0037052996 8.5049702e-21)
(1.0005233 0.003650172 -5.2579783e-21)
(1.005816 0.0027757939 -2.8078101e-21)
(1.0099939 0.001672255 -2.8538103e-21)
(1.014109 0.00053906399 3.4755313e-21)
(1.0176506 -0.00072294751 1.0429705e-21)
(1.0201515 -0.0020192902 -6.3641415e-23)
(1.0223236 -0.003200664 3.2051147e-22)
(1.0240662 -0.0042100621 4.5735294e-22)
(1.0249698 -0.0054034263 -6.1482937e-22)
(1.0258307 -0.0063870267 4.7753233e-23)
(1.0268607 -0.0070589396 3.3626031e-22)
(1.0279157 -0.0073345601 -8.4444986e-22)
(1.0289183 -0.0072226788 1.0020966e-21)
(1.0297275 -0.0067470167 -8.395139e-22)
(1.0303055 -0.0059887906 1.9582324e-22)
(1.0305743 -0.0050372103 0)
(1.0305823 -0.0040122445 7.2108038e-22)
(1.0303201 -0.0029655709 5.2622966e-23)
(1.0299327 -0.0020760304 0)
(1.0294263 -0.0011915699 -7.7674322e-22)
(1.0290549 -0.00071897373 -3.6739909e-23)
(1.0287049 -5.848796e-06 1.6452122e-22)
(0.9236507 -0.0010473392 8.8831109e-23)
(0.9406348 0.00010630405 -1.9447934e-22)
(0.95560114 0.001287987 4.8192269e-21)
(0.9697724 0.0021731772 -6.4325525e-22)
(0.98224835 0.0031179684 2.1530503e-21)
(0.99306276 0.0033534376 6.8798689e-21)
(1.0011674 0.0027489609 3.0516345e-22)
(1.0060721 0.0015482604 3.3582698e-21)
(1.0102335 0.00040045597 -4.2634128e-22)
(1.0143128 -0.00077884879 -2.2660682e-21)
(1.0176984 -0.0020137776 1.5027331e-21)
(1.0202045 -0.0033489887 1.749046e-22)
(1.0226659 -0.004424641 -1.3978054e-22)
(1.0242822 -0.0055552105 5.509991e-24)
(1.0252589 -0.0067336678 -8.1589818e-22)
(1.0263595 -0.0076258812 1.3200654e-22)
(1.0275578 -0.0081111792 -1.6214397e-21)
(1.0287525 -0.0081802053 2.1796538e-21)
(1.0297917 -0.0078292296 6.8379995e-22)
(1.0306057 -0.0071336507 -4.2545255e-22)
(1.0311049 -0.0061802185 1.0449661e-21)
(1.0312836 -0.005075995 -2.3646976e-23)
(1.031162 -0.0039452925 -6.1001593e-23)
(1.0307775 -0.002839407 0)
(1.0302729 -0.0019275579 0)
(1.0296653 -0.0010598154 6.3272033e-23)
(1.0292197 -0.00062230399 -4.0092767e-22)
(1.0288095 2.838069e-05 -2.4405647e-22)
(0.91167469 -0.0015364647 0)
(0.92844816 -0.000411975 -1.1382465e-21)
(0.94381622 0.00073099841 -4.9308087e-21)
(0.95846004 0.0017255906 -4.402507e-21)
(0.97187126 0.0026330008 -8.8900623e-21)
(0.9838928 0.0027305119 -1.057444e-21)
(0.99429323 0.0025087604 4.2514671e-21)
(1.0017941 0.0015020634 6.7360856e-21)
(1.0064206 0.00024696659 -5.4992885e-21)
(1.01051 -0.00092762352 8.4122679e-22)
(1.0145031 -0.0020627448 -1.8373049e-22)
(1.0177292 -0.0033678216 -3.3570477e-22)
(1.0204434 -0.004692788 7.2860701e-22)
(1.02307 -0.0057681931 -5.3969585e-23)
(1.0245556 -0.0070034928 1.1757051e-22)
(1.0257299 -0.0081328481 -9.0557324e-22)
(1.0270478 -0.0088520603 2.3164921e-22)
(1.0284271 -0.0091314089 -9.401748e-22)
(1.0296983 -0.0089448647 2.1371298e-21)
(1.030772 -0.0083480064 -9.329258e-22)
(1.0315254 -0.0074233921 8.8887962e-22)
(1.0319423 -0.0062808703 5.8900157e-22)
(1.0319858 -0.0050386306 -1.817913e-23)
(1.0317333 -0.0038150831 -1.9628828e-21)
(1.0312101 -0.0026673818 -4.863537e-22)
(1.0305849 -0.0017473347 8.272662e-23)
(1.0298747 -0.00090903084 6.1406398e-22)
(1.0293554 -0.00051554265 -2.0314233e-22)
(1.0288859 6.3863436e-05 2.1219823e-22)
(0.90006929 -0.001962094 -4.3495057e-22)
(0.91623459 -0.0010149698 0)
(0.93179242 0.00011320737 0)
(0.94671908 0.0011759165 0)
(0.96070014 0.0022416842 2.5967834e-21)
(0.97368432 0.0023396004 -8.3935759e-21)
(0.98551931 0.0018406203 2.4660965e-22)
(0.99564757 0.0012489267 8.2224875e-23)
(1.0024587 0.00014835105 -9.7301473e-21)
(1.0067916 -0.0010748254 7.6996822e-21)
(1.0107488 -0.002177518 -2.371252e-21)
(1.0146002 -0.0034022337 5.9615757e-22)
(1.0177648 -0.0048216919 -6.2011753e-22)
(1.0208913 -0.0061312159 1.860326e-22)
(1.0234898 -0.0072519081 9.2333897e-22)
(1.0249751 -0.0085652845 2.2756191e-22)
(1.0263858 -0.0095422204 -1.0869476e-21)
(1.0279336 -0.010062508 -7.6465261e-22)
(1.0294345 -0.010074777 8.5058721e-22)
(1.0307763 -0.0096196975 -1.894909e-22)
(1.0318153 -0.0087594041 -1.0525372e-21)
(1.0325001 -0.0076094095 -2.4918649e-23)
(1.0327826 -0.0062899953 1.511077e-21)
(1.032688 -0.0049219228 -9.9131126e-22)
(1.0322793 -0.0036261511 -1.6018596e-23)
(1.031615 -0.0024521399 -3.2215105e-22)
(1.0308657 -0.0015383781 7.0567337e-22)
(1.0300533 -0.00074152212 1.7650332e-22)
(1.0294615 -0.0003999446 6.3150545e-22)
(1.0289354 0.00010027541 4.4566381e-23)
(0.8881203 -0.00237345 -3.0969077e-22)
(0.90422665 -0.0015450796 -1.587451e-21)
(0.91961956 -0.00050343694 0)
(0.9346854 0.00068183926 0)
(0.94904749 0.0017307133 0)
(0.96270206 0.0019630252 0)
(0.9755366 0.0013782571 0)
(0.98734786 0.00060773651 -4.7237249e-24)
(0.99707353 -8.3139696e-05 4.881736e-21)
(1.0030938 -0.0012104078 -1.0827619e-20)
(1.0070657 -0.0022593777 8.8578866e-23)
(1.0108459 -0.0034461783 -2.3278019e-21)
(1.0146037 -0.0048597753 3.0571903e-21)
(1.0179566 -0.0064542391 -6.7800178e-22)
(1.0215673 -0.0076646322 -3.3813947e-23)
(1.0239787 -0.0089291889 5.2628476e-22)
(1.0255793 -0.010168502 -9.7444059e-22)
(1.0272678 -0.010957083 5.7120097e-22)
(1.0289892 -0.011204796 6.5681297e-22)
(1.0306028 -0.010929309 4.403593e-22)
(1.0319433 -0.010178234 1.3979481e-22)
(1.0329338 -0.009054579 6.123326e-22)
(1.0334914 -0.0076876282 4.7929756e-24)
(1.0336329 -0.0062032108 -6.0622946e-22)
(1.0333666 -0.0047318728 2.7089705e-22)
(1.0327999 -0.00337942 1.6966836e-21)
(1.0319868 -0.0021974585 4.0848837e-22)
(1.031113 -0.0013037237 -3.1196801e-22)
(1.0302001 -0.00055960534 2.0468573e-23)
(1.0295381 -0.00027695655 -3.1754458e-22)
(1.0289586 0.00013753152 -4.4366574e-24)
(0.87564455 -0.0028766476 7.0972871e-23)
(0.89177816 -0.0020941204 -5.5647236e-22)
(0.90750158 -0.0010729191 -5.6432146e-21)
(0.92247349 0.00017535828 -9.8882761e-21)
(0.93711173 0.0013010554 0)
(0.95112995 0.0014572761 0)
(0.96477995 0.00090761081 -4.6948515e-23)
(0.97767225 -5.0112463e-06 -9.8416717e-21)
(0.98938187 -0.00065633567 1.3024746e-20)
(0.9983616 -0.0013870644 -1.2847178e-20)
(1.0035516 -0.0023749997 -2.0638186e-22)
(1.0070967 -0.003430729 4.8813912e-21)
(1.0107978 -0.0048624721 -6.9194654e-22)
(1.0146253 -0.0065873682 2.1827591e-22)
(1.0185118 -0.0081890754 3.5263892e-22)
(1.0223435 -0.0093683405 1.8202385e-23)
(1.0245918 -0.010717844 1.7411267e-21)
(1.0264322 -0.011801654 -1.1667664e-22)
(1.0283555 -0.01231704 -1.6946207e-21)
(1.0302375 -0.012262435 3.1900386e-21)
(1.0318904 -0.011660777 -7.1733181e-22)
(1.0332097 -0.010608953 -9.3529159e-22)
(1.0340868 -0.0092251988 2.3219751e-21)
(1.0345049 -0.0076523869 9.0279152e-22)
(1.0344646 -0.0060262299 -3.6726549e-22)
(1.0340243 -0.0044675415 1.0271216e-21)
(1.0332848 -0.0030806741 5.0175902e-22)
(1.0323224 -0.0019066615 1.7780607e-22)
(1.0313251 -0.0010466066 -3.4049941e-22)
(1.0303149 -0.00036564091 -7.5108346e-23)
(1.0295858 -0.00014810307 -8.1754019e-24)
(1.0289553 0.00017420126 5.6924939e-24)
(0.86311735 -0.0034456581 6.7479777e-23)
(0.87881449 -0.0025630579 1.9034604e-21)
(0.89474669 -0.0016571285 8.4491683e-21)
(0.91026434 -0.00028363573 1.2359837e-20)
(0.92497997 0.00084039343 0)
(0.93925257 0.0010194166 0)
(0.95331886 0.00033955149 0)
(0.96715271 -0.00058522417 1.3853852e-21)
(0.98010088 -0.0013956591 -1.5483426e-20)
(0.99139131 -0.0018571381 -1.3061982e-20)
(0.99938195 -0.0024293037 -1.6919888e-22)
(1.0036546 -0.0034653321 1.1780514e-21)
(1.0068658 -0.0047795965 -9.137603e-21)
(1.0106929 -0.0066111513 3.2500049e-21)
(1.0148375 -0.0085695488 -1.6210956e-22)
(1.0194693 -0.010043038 0)
(1.0231715 -0.011244828 3.5669754e-22)
(1.0254241 -0.012580955 -4.9418429e-22)
(1.0275306 -0.013397536 3.8768827e-22)
(1.0296714 -0.013600858 2.5811866e-22)
(1.0316398 -0.013193186 -1.4857119e-21)
(1.0333056 -0.012254129 2.4806812e-22)
(1.0345326 -0.010898172 -1.48025e-21)
(1.0352776 -0.0092640201 -1.9022814e-21)
(1.0355086 -0.0075077108 7.2026262e-22)
(1.0352805 -0.0057566674 1.3164271e-22)
(1.0346442 -0.0041374836 -9.4991989e-23)
(1.0337325 -0.002733315 1.7274803e-23)
(1.0326196 -0.0015843161 -4.8064258e-22)
(1.0315014 -0.00077054386 -3.5431441e-22)
(1.0303978 -0.0001618741 1.1187317e-22)
(1.0296051 -1.4860196e-05 -2.2047001e-22)
(1.0289249 0.00020688281 2.2128358e-22)
(0.85037492 -0.0038611706 -1.9786561e-23)
(0.86573136 -0.0031913586 2.6988386e-22)
(0.88135898 -0.0021778001 1.4582789e-20)
(0.89729837 -0.00079163984 2.5152579e-20)
(0.91280632 0.00041804504 -5.5353014e-21)
(0.9271759 0.00056064773 -6.2812198e-22)
(0.94149015 -0.00018452112 -2.3405135e-20)
(0.95583562 -0.0012541991 1.1471595e-20)
(0.96984037 -0.0021103366 1.7496825e-21)
(0.98262204 -0.0025994576 3.1924634e-20)
(0.99322527 -0.0027200481 -1.136529e-20)
(0.99989947 -0.003328727 -1.3051896e-20)
(1.0033432 -0.0047149157 1.3753335e-22)
(1.0064805 -0.0065376083 3.5773854e-21)
(1.0106943 -0.0087126199 2.2408523e-21)
(1.0155003 -0.010753406 6.0041171e-23)
(1.0207487 -0.011989655 6.1948869e-23)
(1.0241277 -0.013292689 7.9488481e-22)
(1.0265145 -0.014430881 -2.1865497e-22)
(1.0288982 -0.014929098 -1.7070587e-22)
(1.0311798 -0.014756984 6.2661796e-22)
(1.0332023 -0.013977441 -2.7027775e-21)
(1.034804 -0.012689433 -7.2589233e-23)
(1.0359125 -0.011036698 8.973316e-22)
(1.0364706 -0.0091725186 -2.5822094e-21)
(1.0365032 -0.0072506871 -8.7710832e-22)
(1.036059 -0.0054045163 -7.8208967e-22)
(1.0352271 -0.0037427968 -2.5706088e-22)
(1.0341369 -0.002343599 -4.4460567e-22)
(1.0328765 -0.0012348273 1.0795929e-23)
(1.0316414 -0.00047864469 -9.1963434e-23)
(1.0304494 4.9469193e-05 -3.6845627e-23)
(1.029597 0.00012162681 1.7603854e-22)
(1.0288723 0.00023836302 -5.6944508e-22)
(0.8374351 -0.0042064054 -2.2799213e-22)
(0.85246266 -0.0036508485 -3.9546231e-22)
(0.86788251 -0.0028084422 -1.7187418e-20)
(0.88363501 -0.0012603478 -1.2689991e-20)
(0.89970974 -7.4953517e-05 2.1876428e-20)
(0.91503805 0.00015974386 2.7843055e-20)
(0.92945577 -0.0007236646 3.3104323e-21)
(0.94405019 -0.0019014012 0)
(0.95869672 -0.0028655471 1.3288613e-20)
(0.97264926 -0.0034337075 4.3634375e-20)
(0.98500065 -0.0033878295 1.668665e-21)
(0.99460579 -0.0033615693 6.0498221e-21)
(0.99982946 -0.0043616223 0)
(1.0026809 -0.0063883012 -3.8077888e-22)
(1.0061319 -0.0087390269 -5.9879643e-21)
(1.011009 -0.011182772 -1.7544492e-22)
(1.0167823 -0.012987693 7.0575679e-22)
(1.0221257 -0.014097695 0)
(1.0252772 -0.015399354 2.6205422e-22)
(1.0279123 -0.016232651 7.4366812e-22)
(1.0305026 -0.016335903 -2.2916412e-21)
(1.0328853 -0.015760204 5.7859999e-22)
(1.0348794 -0.014587741 0)
(1.036383 -0.012954804 -2.4445255e-21)
(1.0373108 -0.01102254 9.9626252e-22)
(1.037664 -0.0089471372 -6.5144164e-23)
(1.0374635 -0.0068910189 -1.0771922e-21)
(1.0368007 -0.0049697677 8.8955892e-22)
(1.0357615 -0.0032934727 3.8119226e-23)
(1.0344967 -0.0019160957 -1.0528882e-21)
(1.0330921 -0.00086255686 9.4802927e-22)
(1.0317454 -0.00017431731 3.3113237e-22)
(1.0304705 0.00026625004 0)
(1.0295624 0.00026047331 -7.8038664e-24)
(1.0287985 0.0002677688 -2.153154e-22)
(0.82414515 -0.004499424 -1.1703707e-22)
(0.83907769 -0.0038735133 9.2264693e-22)
(0.85429175 -0.0034118379 -1.6391362e-20)
(0.86983775 -0.0016774103 -4.5251752e-21)
(0.88579923 -0.00052189523 5.8942676e-21)
(0.90185065 -0.00032361897 3.8639216e-21)
(0.91737029 -0.0011865522 2.5076173e-20)
(0.93203666 -0.002546495 1.4985248e-22)
(0.94698 -0.0036050067 0)
(0.96170268 -0.0042103157 -1.632272e-20)
(0.97533269 -0.0042234283 1.4238688e-20)
(0.98691845 -0.0038240935 -1.0032494e-21)
(0.99517894 -0.0041492795 6.3488637e-21)
(0.99917589 -0.0058972203 -6.8024526e-21)
(1.0018905 -0.0086025433 -3.2663608e-21)
(1.0060538 -0.011402367 -3.7170443e-21)
(1.0118581 -0.013860403 4.8353151e-21)
(1.0186455 -0.015259916 3.8353523e-22)
(1.0235756 -0.016359373 1.3927348e-21)
(1.0267129 -0.017493953 -2.7907458e-21)
(1.0295972 -0.017915302 2.5929811e-21)
(1.0323454 -0.017586066 -2.0906144e-21)
(1.0347419 -0.016574764 0)
(1.0366648 -0.015008743 -6.6117411e-22)
(1.0380002 -0.013043878 2.3307546e-22)
(1.0387217 -0.01085095 1.2856273e-21)
(1.0388288 -0.0085963653 3.4493861e-22)
(1.0383881 -0.0064288883 1.8223124e-22)
(1.0374902 -0.0044649439 6.3787657e-22)
(1.0362478 -0.0027922281 0)
(1.0348091 -0.0014570193 9.2514745e-22)
(1.0332664 -0.00047184492 1.0523424e-21)
(1.0318142 0.00013933404 1.2861014e-22)
(1.0304625 0.0004865948 -2.6581404e-22)
(1.0295023 0.00040066468 -3.0636157e-24)
(1.0287081 0.00029800925 8.4845014e-22)
(0.8107527 -0.0046940879 2.7753332e-22)
(0.82549601 -0.0041003924 -1.3967143e-22)
(0.84058394 -0.0037012198 5.0439745e-21)
(0.85597552 -0.0022506673 2.08424e-22)
(0.8715835 -0.00085402809 -2.6588003e-20)
(0.88771186 -0.0007290971 -2.8707889e-20)
(0.90412493 -0.0017072031 -1.1012296e-22)
(0.91999608 -0.0031102634 1.9716272e-20)
(0.9349867 -0.0043409396 1.4828728e-22)
(0.95008051 -0.0049988431 1.581446e-20)
(0.96460596 -0.0049462831 -2.8850285e-23)
(0.97752019 -0.0044791028 -7.7766086e-21)
(0.98804896 -0.0043002073 -8.9558245e-22)
(0.99494183 -0.0054752773 -6.7771879e-21)
(0.9981626 -0.0080960733 2.3694439e-20)
(1.0012542 -0.011422157 3.6335174e-22)
(1.0064471 -0.014422992 -3.0501816e-21)
(1.0135252 -0.016576533 -1.378064e-21)
(1.0207843 -0.017584178 -3.8407402e-22)
(1.0251993 -0.01871092 -4.9761624e-22)
(1.0284627 -0.019479813 1.329479e-21)
(1.0315697 -0.019439527 -3.0424557e-21)
(1.0343801 -0.018634553 2.5088492e-21)
(1.036739 -0.017180821 0)
(1.0385126 -0.015228906 1.8176027e-21)
(1.0396461 -0.012950434 2.7369655e-21)
(1.0401129 -0.010528873 -1.1185874e-21)
(1.0399609 -0.008120639 2.245067e-21)
(1.0392585 -0.0058774565 5.0480967e-23)
(1.0381275 -0.003891944 -7.2370777e-22)
(1.0366792 -0.0022492842 -8.958169e-22)
(1.0350735 -0.00097136675 -2.9300223e-23)
(1.0333995 -6.6905543e-05 -6.5579248e-23)
(1.031849 0.00045931083 2.8088915e-22)
(1.030427 0.00070880729 -1.9870979e-22)
(1.0294187 0.00054151725 -4.0999528e-23)
(1.0285993 0.00033363682 3.5635606e-22)
(0.79823749 -0.0048433662 -1.26293e-22)
(0.81188643 -0.0042988437 -9.1895144e-22)
(0.82672338 -0.003921824 6.6993266e-21)
(0.84192625 -0.0024487882 3.7932477e-21)
(0.85732095 -0.001301772 -2.3189439e-22)
(0.87304295 -0.0010228485 2.0160912e-22)
(0.88979588 -0.0021382219 1.60206e-20)
(0.90669931 -0.0036737083 -7.5024001e-21)
(0.92298485 -0.0049911535 0)
(0.93811671 -0.0057688432 -3.5758641e-21)
(0.95311718 -0.0056913728 0)
(0.96701926 -0.0050964517 0)
(0.97900768 -0.0047120129 -8.2741009e-21)
(0.98840155 -0.0052988771 1.0205554e-21)
(0.9940842 -0.0075483234 4.7738011e-21)
(0.9971133 -0.011035758 6.649363e-21)
(1.0010421 -0.014709012 -8.2057517e-21)
(1.0075406 -0.017673868 -3.1101055e-21)
(1.0160227 -0.019199086 -8.8219694e-22)
(1.0229656 -0.020022679 2.8227117e-22)
(1.027079 -0.021010913 -2.210311e-21)
(1.0305506 -0.021306055 1.2252716e-21)
(1.0337809 -0.020749896 4.8389016e-22)
(1.0365919 -0.019455356 -4.7042799e-22)
(1.0388271 -0.017560716 6.608588e-24)
(1.040409 -0.015239921 5.799911e-22)
(1.0412843 -0.012679162 -3.2008121e-22)
(1.0414765 -0.010056788 -1.4022544e-21)
(1.0410384 -0.0075332138 -1.2549275e-22)
(1.0400728 -0.0052392575 -2.1669964e-21)
(1.0387029 -0.0032638884 -5.5044595e-22)
(1.0370562 -0.0016682236 -2.134255e-22)
(1.0352894 -0.00046498502 -1.0726127e-21)
(1.0334923 0.00034838174 1.0605705e-22)
(1.0318511 0.00078306242 -6.3453498e-22)
(1.0303659 0.00093152036 -1.1402719e-22)
(1.029314 0.00068155254 -3.0504135e-22)
(1.0284752 0.00036933949 0)