/*--------------------------------*- C++ -*----------------------------------*\
| =========                 |                                                 |
| \\      /  F ield         | OpenFOAM: The Open Source CFD Toolbox           |
|  \\    /   O peration     | Version:  5.0                                   |
|   \\  /    A nd           | Web:      www.OpenFOAM.org                      |
|    \\/     M anipulation  |                                                 |
\*---------------------------------------------------------------------------*/
FoamFile
{
    version     2.0;
    format      ascii;
    class       volSymmTensorField;
    location    "200";
    object      UPrime2Mean;
}
// * * * * * * * * * * * * * * * * * * * * * * * * * * * * * * * * * * * * * //

dimensions      [0 2 -2 0 0 0 0];

internalField   nonuniform List<symmTensor> 
9200
(
(0.00068127383 2.570272e-05 -8.957614e-26 2.2404772e-06 -6.6330646e-27 5.4312761e-47)
(0.00069916851 8.4207697e-05 2.4068442e-23 2.5423914e-05 2.9897736e-24 1.004674e-42)
(0.00054580043 2.188725e-05 0 2.1606347e-06 0 0)
(0.00072665933 0.00013571719 -1.3202131e-23 6.5948936e-05 -2.6108022e-24 2.9058001e-43)
(0.00055897476 7.1940398e-05 1.8744608e-23 2.496572e-05 2.7769703e-24 7.4961024e-43)
(0.0004821329 2.0162841e-05 0 2.0544854e-06 0 0)
(0.00077156028 0.0001916543 -1.3133488e-24 0.00013302268 -3.4192006e-25 2.6623948e-45)
(0.00058058185 0.00011468109 1.4006126e-26 6.4343448e-05 -1.65576e-25 2.5808311e-45)
(0.00049459395 6.5503705e-05 0 2.3714325e-05 0 0)
(0.00041119337 1.7219723e-05 0 1.9095497e-06 0 0)
(0.00083021416 0.00024619945 3.0328852e-23 0.00022349099 1.0604636e-23 1.348272e-42)
(0.00061602714 0.00015896737 1.9729341e-23 0.00012919867 7.6317862e-24 8.5684381e-43)
(0.00051307532 0.00010383057 9.9245784e-24 6.0827956e-05 2.9062013e-24 2.3998797e-43)
(0.00042148003 5.6038627e-05 5.2042424e-25 2.2324571e-05 1.0782825e-25 8.3932373e-46)
(0.00035664037 1.5135695e-05 3.8750834e-27 1.7894637e-06 6.5181673e-28 4.6498539e-49)
(0.00090758318 0.00030358976 2.950274e-23 0.00034969828 1.1645711e-23 1.1374871e-42)
(0.00066337369 0.00019941041 -4.0066639e-25 0.00021525678 5.5046092e-25 7.9649882e-45)
(0.00054356248 0.00014278841 3.3979599e-23 0.00012150212 1.4094522e-23 2.7297175e-42)
(0.00043838231 8.8325121e-05 1.1843277e-23 5.6957736e-05 4.3835147e-24 4.7164737e-43)
(0.0003669066 4.8847774e-05 2.7248294e-25 2.0891565e-05 1.7997611e-25 3.4303265e-45)
(0.00030982413 1.3031947e-05 -1.685734e-23 1.6618751e-06 -1.3057122e-24 1.4145968e-42)
(0.0010038383 0.00036023652 3.9155227e-23 0.00051675756 2.2100625e-23 2.1090083e-42)
(0.00072751491 0.00023852261 2.8632058e-23 0.00033350301 1.2691122e-23 1.3136421e-42)
(0.00058440116 0.00017702492 -2.0797416e-23 0.00020087603 -1.0452599e-23 9.4591208e-43)
(0.00046708424 0.00012028291 -1.2784912e-24 0.00011325295 -7.3969593e-25 6.2945831e-45)
(0.00038296204 7.6565555e-05 9.2952459e-24 5.2938966e-05 3.3946116e-24 3.2428913e-43)
(0.00031938348 4.1918718e-05 8.1237426e-24 1.9520989e-05 2.2337e-24 3.3574644e-43)
(0.00027145053 1.1270237e-05 1.1767175e-24 1.5486021e-06 1.23277e-25 1.0942867e-44)
(0.0011238379 0.00041430379 3.0214969e-23 0.00073916659 2.7968204e-23 1.9697207e-42)
(0.00081235197 0.0002727838 2.5829042e-23 0.00048759424 1.6937203e-23 1.1133377e-42)
(0.00064015775 0.00020832618 2.5655116e-23 0.00030827614 1.7269978e-23 1.483002e-42)
(0.00050652814 0.0001473048 9.6145316e-25 0.00018601627 2.0837285e-24 4.1047347e-44)
(0.00041013543 0.00010351234 -2.3679453e-23 0.00010474215 -1.3027396e-23 2.174292e-42)
(0.00033477517 6.5570156e-05 -8.9724402e-24 4.9272813e-05 -4.1164255e-24 4.264798e-43)
(0.00028090514 3.6074922e-05 -8.6462966e-24 1.8232041e-05 -2.32183e-24 4.6953e-43)
(0.00023918899 9.6730958e-06 1.211739e-23 1.4474602e-06 1.1615931e-24 1.2581633e-42)
(0.0012727371 0.00046194288 -5.6612408e-23 0.0010312481 -4.2678669e-23 3.7078429e-42)
(0.00092637032 0.00030072338 2.7214518e-23 0.00069054657 9.2484194e-24 9.1765237e-43)
(0.00071463324 0.00023311031 9.4473515e-25 0.00044536315 4.3313696e-24 6.6874133e-44)
(0.00056194225 0.00017092316 1.0396945e-23 0.00028360462 6.7787323e-24 2.7071721e-43)
(0.00044763658 0.00012567013 9.1035293e-25 0.00017089602 3.9403695e-24 1.7367979e-43)
(0.00036118987 8.8338509e-05 -3.1010126e-23 9.7253177e-05 -1.8155495e-23 4.5712885e-42)
(0.0002959544 5.6427721e-05 4.1351371e-24 4.5812043e-05 1.8265258e-25 2.6890129e-43)
(0.00024832582 3.0820866e-05 -1.2879067e-23 1.7134615e-05 -3.976173e-24 1.3919082e-42)
(0.00021304624 8.2887693e-06 -2.2277883e-23 1.3576872e-06 -2.4446683e-24 5.8270461e-42)
(0.0014545712 0.00049392113 4.7942836e-23 0.0014083349 5.2175703e-23 3.2260707e-42)
(0.0010800379 0.00031811788 -1.4726667e-23 0.0009545563 1.6682942e-23 9.7450938e-43)
(0.00081552414 0.00024999486 -9.3765486e-25 0.0006218678 -2.5746297e-24 1.32837e-44)
(0.00063761832 0.00018840891 6.8305724e-26 0.00040716246 -1.2655121e-23 6.7200828e-43)
(0.00050065218 0.00014437755 -3.2718475e-24 0.00025885926 -3.4592047e-24 5.4026656e-44)
(0.0003981064 0.00010697814 1.6662238e-25 0.00015793386 5.4407979e-24 4.0485916e-43)
(0.00032165597 7.5934824e-05 9.4362003e-24 9.022398e-05 6.2028848e-24 5.5035869e-43)
(0.00026294369 4.8297091e-05 1.3972462e-23 4.2926099e-05 7.2287267e-24 1.6164032e-42)
(0.00022195439 2.6264044e-05 6.527526e-24 1.6162005e-05 2.6326955e-24 5.1315771e-43)
(0.00019123219 7.0242624e-06 1.3977516e-24 1.2804637e-06 1.995874e-25 3.5232042e-44)
(0.0016731452 0.00050176348 -2.4356466e-23 0.0018887044 -2.430973e-23 6.1807055e-43)
(0.0012856718 0.00031736008 -4.9822199e-24 0.0012961242 3.3937216e-23 1.2500919e-42)
(0.00095329983 0.00025577264 2.3568273e-23 0.00084658182 8.5328437e-24 6.7154745e-43)
(0.00074214172 0.00019904473 -1.6740121e-23 0.00056566502 -1.8251235e-23 7.8074539e-43)
(0.00057355916 0.00015741036 1.8999385e-23 0.00036901853 1.621034e-24 1.0815854e-42)
(0.00045060188 0.00012271398 -3.3612385e-23 0.00023819189 -2.1391401e-23 3.9574182e-42)
(0.00035750809 9.2003131e-05 -2.3366775e-25 0.00014596762 1.4612537e-24 3.6941433e-44)
(0.00028787749 6.5042067e-05 2.3174495e-23 8.4521836e-05 1.4442963e-23 3.9895361e-42)
(0.0002361181 4.1311248e-05 -9.722036e-24 4.0382401e-05 -5.278843e-24 1.0330296e-42)
(0.00019985639 2.2075075e-05 1.7022466e-23 1.5365836e-05 7.5809231e-24 4.8126037e-42)
(0.00017390307 5.9050917e-06 -2.2807261e-24 1.2103797e-06 -3.3130228e-25 1.3020848e-43)
(0.0019407599 0.00051934776 8.9237603e-24 0.0025156854 -4.1749767e-24 1.0974983e-43)
(0.0015518654 0.00028862358 2.7339918e-23 0.0017374743 -7.2114576e-23 4.7719131e-42)
(0.0011417295 0.00024646722 -1.885135e-23 0.001135134 -3.3278755e-23 1.1697552e-42)
(0.00088698319 0.00020062494 0 0.00076747496 0 0)
(0.00067451532 0.00016444505 1.4219567e-26 0.00050942504 1.1948576e-24 3.7094651e-45)
(0.00052292987 0.00013404309 3.0068695e-24 0.00033810453 -1.029132e-23 6.2657954e-43)
(0.00040825767 0.00010576211 -6.2115368e-24 0.00021952118 -4.2098954e-24 1.6715034e-43)
(0.00032265426 7.9143551e-05 -1.2320954e-23 0.00013647284 -8.7741106e-24 9.9815124e-43)
(0.00026014867 5.5752089e-05 5.3743027e-25 7.9532346e-05 -2.5107027e-24 2.6396628e-43)
(0.00021348676 3.4887614e-05 -1.0393865e-23 3.8323698e-05 -6.8032541e-24 1.6912043e-42)
(0.00018225528 1.8328435e-05 -5.7883142e-24 1.465477e-05 -2.9962786e-24 8.253278e-43)
(0.00015987954 4.8650132e-06 9.9782162e-25 1.1479452e-06 2.0076617e-25 4.2369987e-44)
(0.0022134136 0.00055074774 5.3198917e-24 0.0033062119 1.9141978e-24 1.6738336e-44)
(0.001889969 0.00023849117 -4.4825314e-23 0.0023170009 2.7699336e-23 1.9249618e-42)
(0.0013906739 0.00021186693 0 0.0015055568 0 0)
(0.0010881258 0.00019090118 0 0.0010269953 0 0)
(0.00081404828 0.00016408187 -1.241946e-23 0.00068767887 -2.569173e-25 2.6315747e-43)
(0.00062286115 0.00014117789 1.7890368e-23 0.00046515972 -1.3783054e-23 1.9277879e-42)
(0.00047779792 0.0001161623 -1.8283612e-23 0.00031072119 -2.8351236e-24 1.3080093e-42)
(0.00037183866 9.1636012e-05 1.4547448e-23 0.00020491528 1.2918368e-23 1.264461e-42)
(0.00029346309 6.8248733e-05 9.0935206e-25 0.00012826393 1.1791905e-24 1.1711534e-44)
(0.00023652743 4.7150879e-05 -7.4961585e-27 7.557805e-05 2.5057301e-26 3.1451294e-47)
(0.0001953183 2.914329e-05 1.0622635e-23 3.6500709e-05 7.7823428e-24 2.5921677e-42)
(0.00016796889 1.4786304e-05 -9.2462413e-24 1.405034e-05 -5.5247501e-24 3.4346572e-42)
(0.00014916845 3.9355303e-06 1.3181054e-23 1.0886242e-06 3.2052195e-24 1.276019e-41)
(0.0022788125 0.00042619248 -8.8180367e-23 0.004140614 -1.6607003e-23 4.8362889e-42)
(0.0023039543 0.00020521183 1.1248963e-23 0.0030899419 -3.0602794e-24 7.5100722e-44)
(0.0017021188 0.0001461871 -6.2313421e-23 0.00198536 1.0275917e-23 2.9185015e-42)
(0.0013594939 0.00016269848 4.1554546e-23 0.0013631252 -9.2917752e-24 1.7568571e-42)
(0.0010075123 0.00015563815 -2.4182508e-23 0.00091773626 5.1971042e-24 8.5883723e-43)
(0.00076020881 0.00014329026 8.1620613e-24 0.00062662178 -6.9302274e-24 2.8069257e-43)
(0.0005734804 0.00012352702 5.1760843e-24 0.00042659506 5.1873783e-24 9.685935e-44)
(0.00043886726 0.00010192307 -3.4563878e-25 0.00028956841 4.2196101e-25 2.2040446e-45)
(0.00034023528 7.9638492e-05 1.0638676e-23 0.00019249413 1.534407e-23 1.3541147e-42)
(0.00026827895 5.809333e-05 7.6862723e-24 0.00012188886 1.1619959e-23 1.1837375e-42)
(0.00021729374 3.9410495e-05 2.9422995e-24 7.2104731e-05 3.0075422e-24 1.8044524e-43)
(0.00018046748 2.3667375e-05 6.15301e-24 3.4967593e-05 6.2812992e-24 1.4551033e-42)
(0.00015703614 1.1562659e-05 3.0811959e-24 1.3476277e-05 2.7501475e-24 7.0171974e-43)
(0.00014105459 3.0744559e-06 -2.4963071e-24 1.0322155e-06 -8.8094628e-25 1.012667e-42)
(0.0020537431 3.0018086e-05 8.172689e-23 0.0049000737 -2.4121438e-22 1.9277707e-41)
(0.0026690649 0.00015005511 4.7599141e-22 0.0040720257 -1.1390207e-22 1.0998956e-40)
(0.0020896123 7.5614231e-05 1.0284357e-23 0.0026137265 -3.4431234e-23 5.7298991e-43)
(0.0017022933 0.00010387783 -8.0256475e-24 0.001801179 4.9597473e-24 6.3670457e-44)
(0.0012724346 0.0001354864 3.8749848e-24 0.0012185649 -3.2243078e-24 2.6779753e-44)
(0.00094960231 0.00014028319 -1.6709673e-23 0.00083583339 1.198309e-23 6.8482278e-43)
(0.00070413296 0.00012748798 5.9042533e-24 0.00057393969 6.1477518e-24 1.0432347e-43)
(0.00053021848 0.00011042073 -5.8413238e-24 0.00039707161 -6.6804114e-24 1.5903161e-43)
(0.00040346981 8.9616754e-05 2.1382793e-24 0.00027182429 -2.1691104e-24 7.8824454e-44)
(0.00031267641 6.8401856e-05 -6.179281e-25 0.00018297624 -1.7073768e-24 1.6888206e-44)
(0.00024732855 4.8859685e-05 -1.932744e-25 0.00011635914 -2.265084e-25 6.6096303e-46)
(0.00020141082 3.1902253e-05 1.2639678e-25 6.9234845e-05 -1.1483345e-24 5.0735278e-44)
(0.00016900783 1.8657821e-05 -6.6214348e-24 3.3523268e-05 -8.3470786e-24 2.9227039e-42)
(0.00014876225 8.5043198e-06 2.2661665e-24 1.2939592e-05 2.731055e-24 8.1152642e-43)
(0.00013538622 2.3115748e-06 -1.1277081e-24 9.7616506e-07 -6.7014718e-25 6.4315288e-43)
(0.0017518064 -0.00053781093 1.0288438e-22 0.0055300406 9.4256782e-23 1.7445684e-41)
(0.0026975464 -7.9667198e-05 -3.1529154e-22 0.0051154724 -3.4609184e-23 4.6755532e-41)
(0.002532395 4.6347836e-05 1.5759964e-22 0.0034654407 -3.2087593e-23 1.1876975e-41)
(0.0021113724 2.2847467e-05 -1.1136655e-22 0.0023767357 5.0835054e-24 6.881442e-42)
(0.0016134429 9.0203431e-05 6.4504628e-23 0.0016151866 -4.1788264e-24 3.0699227e-42)
(0.001209349 0.0001304372 -5.3808802e-23 0.0011117841 -2.1206685e-23 3.0676029e-42)
(0.0008830558 0.00012808724 5.0012543e-23 0.00076538604 -4.6401069e-24 3.9173431e-42)
(0.00065395577 0.00011697401 -1.9317151e-24 0.0005337284 1.2701212e-24 1.5554108e-44)
(0.00048928378 9.8687616e-05 -4.7722887e-24 0.00037243537 -3.9294478e-24 9.4867488e-44)
(0.00037227435 7.8073447e-05 5.5948872e-24 0.00025834074 -4.9990687e-24 5.6053684e-43)
(0.00028902565 5.7948877e-05 -2.4000084e-23 0.0001748305 -3.0052314e-23 8.1108563e-42)
(0.00022979666 3.9701262e-05 6.63776e-24 0.00011188572 6.05381e-24 1.0872599e-42)
(0.0001889868 2.4944682e-05 2.3703769e-24 6.6537141e-05 3.7668892e-24 3.1849931e-43)
(0.00016029786 1.3847957e-05 4.8896726e-25 3.2185801e-05 1.2587084e-24 5.3203813e-44)
(0.00014300128 5.7350427e-06 -7.8150179e-26 1.2392037e-05 1.3801451e-25 8.1478566e-45)
(0.0001316844 1.6250437e-06 3.1756322e-25 9.2024678e-07 7.3875159e-25 8.2509383e-43)
(0.0015882442 -0.0011496825 0 0.0060123201 0 0)
(0.0025278476 -0.00049028597 -4.4496726e-22 0.0061309215 6.0244184e-23 1.0442849e-40)
(0.0027266291 -5.3789082e-05 -5.6882982e-24 0.0044823248 1.0842954e-22 3.0809334e-42)
(0.0025747772 -2.1931024e-05 0 0.0031636073 0 0)
(0.0020160107 1.0223544e-05 0 0.0021420965 0 0)
(0.0015500912 0.00010231689 0 0.0014805471 0 0)
(0.0011286287 0.00012513318 -6.8810552e-24 0.0010192724 4.7192576e-24 8.2875701e-44)
(0.00082211658 0.00012161332 1.8383979e-23 0.00071130834 1.5740736e-23 7.5050791e-43)
(0.00060492831 0.00010685264 -2.2556169e-23 0.00050014825 1.2991066e-23 2.24027e-42)
(0.00045241086 8.7522012e-05 1.1380635e-23 0.00035379943 1.2377572e-23 7.5868735e-43)
(0.00034453523 6.6838966e-05 -1.7455438e-24 0.00024694935 1.4783412e-24 6.2093229e-44)
(0.00026895026 4.7288569e-05 4.0729861e-24 0.00016836422 6.7972296e-24 3.8142927e-43)
(0.0002158038 3.1056134e-05 -5.1610848e-25 0.00010771925 -1.7710374e-25 1.2473673e-44)
(0.00017948367 1.8129315e-05 -1.8096041e-24 6.4060464e-05 -4.4231359e-24 4.2008492e-43)
(0.00015419559 9.4690961e-06 -9.6471607e-26 3.0825896e-05 -8.4533221e-25 2.4626519e-44)
(0.00013930122 3.1744838e-06 -1.3707152e-25 1.1835687e-05 -1.3556241e-24 2.1042838e-43)
(0.00012973038 1.0346477e-06 0 8.6363789e-07 0 0)
(0.0017669115 -0.0016865725 7.0229809e-23 0.0063803085 -1.1349758e-22 2.7808753e-41)
(0.0022825919 -0.0010178742 5.5319035e-22 0.0070579465 7.103955e-23 2.2860242e-40)
(0.0026431632 -0.00033438454 -8.3495671e-22 0.0055305263 6.2083455e-23 3.3182745e-40)
(0.0028784444 -6.3925922e-05 -3.8759458e-22 0.0041866276 8.1305068e-23 6.1893884e-41)
(0.0024775608 -5.598963e-05 -2.5515265e-22 0.0028652546 2.3802581e-23 2.9704296e-41)
(0.0019543778 3.2174337e-05 0 0.0019733205 0 0)
(0.0014576663 0.00011127723 -1.0400221e-22 0.0013622118 2.4826274e-23 9.2656053e-42)
(0.001052036 0.00012440631 2.0458585e-23 0.00094682711 -1.1061219e-23 7.0266791e-43)
(0.00076114789 0.00011405169 5.7477855e-23 0.00066582154 8.297655e-24 6.0205595e-42)
(0.00055964659 9.6844173e-05 -2.5360408e-23 0.00047459296 1.3150895e-23 3.168841e-42)
(0.00041879997 7.6009292e-05 -5.692869e-24 0.00033813496 -7.6480507e-24 2.6919746e-43)
(0.00032068647 5.5066779e-05 -1.8491807e-24 0.00023803049 1.608627e-24 8.4997064e-44)
(0.00025251116 3.6965066e-05 8.3815834e-24 0.00016240159 1.2996854e-23 2.0797621e-42)
(0.00020497131 2.2376818e-05 -6.551381e-24 0.00010395186 -1.8718801e-23 4.5390378e-42)
(0.00017275953 1.1845171e-05 -1.9873559e-25 6.1523245e-05 -3.6994887e-24 2.3631847e-43)
(0.00015030818 5.3688921e-06 -1.1007024e-24 2.9450091e-05 -1.4893048e-23 1.0559885e-41)
(0.00013742918 9.1664615e-07 9.3525394e-25 1.1249846e-05 -3.6388481e-24 1.5286595e-42)
(0.00012913973 5.3250669e-07 1.7582711e-24 8.064793e-07 -8.879427e-25 1.4024138e-42)
(0.0024445874 -0.0020305156 1.4326233e-24 0.0066300418 -5.8444805e-25 1.7259573e-43)
(0.0021396694 -0.0016164802 2.5334912e-22 0.007838347 -8.4063092e-23 6.9835789e-41)
(0.002428161 -0.00073561922 8.6821945e-23 0.0065807598 9.5511569e-23 7.1591384e-42)
(0.002882429 -0.00026566201 -4.5074526e-22 0.0052917215 -7.9146762e-24 8.5640501e-41)
(0.0028446625 -8.461743e-05 4.6874924e-23 0.0038540794 -4.8332546e-24 8.8389542e-43)
(0.0024073088 -6.0167008e-05 -2.8163595e-23 0.0026450451 -8.2194995e-23 3.4926063e-42)
(0.0018593568 5.8315723e-05 2.0592433e-22 0.0018239747 -1.1161161e-22 3.3656136e-41)
(0.001365046 0.00012181007 1.874463e-22 0.0012664476 -4.0268284e-23 3.2156635e-41)
(0.00097381143 0.00012045358 3.9298178e-23 0.00088511295 -1.0130711e-23 2.3098381e-42)
(0.00070374942 0.00010606694 -1.3120597e-23 0.00063064377 -2.1379166e-23 9.4524796e-43)
(0.00051767086 8.563627e-05 5.1027821e-24 0.00045311834 -2.4927593e-24 1.5143989e-43)
(0.00038931674 6.3429969e-05 -1.3236528e-23 0.0003259935 -1.802224e-23 1.7845262e-42)
(0.00030056809 4.3200165e-05 6.7215796e-24 0.00022992099 4.6543786e-24 7.6376774e-43)
(0.00023959081 2.6297632e-05 -2.9845057e-25 0.00015709606 1.3557995e-24 2.2498105e-44)
(0.00019715644 1.4228961e-05 -2.3617002e-25 0.00010008332 1.8583509e-24 4.8228032e-44)
(0.0001685181 5.8440996e-06 2.2720698e-25 5.8948545e-05 3.3896524e-24 2.7752334e-43)
(0.00014836816 1.7403131e-06 7.6096289e-25 2.799958e-05 -4.9608542e-24 1.2371681e-42)
(0.00013700813 -1.0651615e-06 -2.0112202e-26 1.0637288e-05 1.0694592e-25 4.6941098e-45)
(0.00012968576 1.2648854e-07 2.5061995e-24 7.4903771e-07 -7.9691129e-25 1.2729191e-42)
(0.0036602905 -0.0021951128 8.7617319e-24 0.0068138163 1.09549e-23 5.9394372e-42)
(0.0023802914 -0.0021137121 -1.8143011e-22 0.0084964254 5.2043057e-23 7.1163205e-41)
(0.0022301579 -0.00123501 1.2082449e-21 0.0075485716 9.3272852e-23 1.3369964e-39)
(0.0027202015 -0.00059007617 2.3272458e-22 0.0064340519 -8.8907426e-23 2.6615725e-41)
(0.0029388054 -0.0002201169 -1.2903291e-22 0.0049983315 -9.2727696e-23 9.1108039e-42)
(0.0028126622 -0.00011182192 -1.3178325e-23 0.0035914864 -5.954707e-23 1.2698246e-42)
(0.0023040443 -4.9653259e-05 -5.0609542e-23 0.002448472 7.9469708e-24 1.2464622e-42)
(0.0017624387 8.9278159e-05 -7.5233864e-23 0.0017012183 -4.2401695e-23 4.5955148e-42)
(0.0012655302 0.00012501393 2.5377988e-23 0.0011824122 -5.1348164e-24 6.5004165e-43)
(0.00089905576 0.00011516429 9.1226726e-23 0.00083604151 2.1108217e-24 1.2459029e-41)
(0.00064997593 9.5796734e-05 -2.9700732e-23 0.00060093716 -3.2512455e-23 3.3490223e-42)
(0.00048005153 7.2631115e-05 -7.0736678e-25 0.00043648683 6.5088794e-24 1.2700185e-43)
(0.00036390571 5.0125081e-05 3.3414998e-24 0.00031510323 9.4472814e-24 3.3370307e-43)
(0.00028447373 3.0557215e-05 -1.051161e-25 0.00022283927 -7.0033695e-25 2.3487866e-45)
(0.00023003233 1.6055654e-05 -6.3602068e-25 0.00015164143 1.1773669e-24 3.8563308e-44)
(0.00019219618 6.2703707e-06 1.3052592e-24 9.616293e-05 1.4794201e-23 3.4124061e-42)
(0.00016642307 4.8362029e-07 -1.1389316e-25 5.6199491e-05 -2.5323725e-24 3.0048996e-43)
(0.00014804126 -1.4803816e-06 -3.2150378e-24 2.6483021e-05 8.176725e-24 3.4115858e-42)
(0.00013780071 -2.7224771e-06 -1.2019068e-24 9.9961064e-06 1.3007703e-24 2.2193934e-43)
(0.00013105755 -1.871579e-07 -3.4865651e-24 6.9154322e-07 7.9404748e-25 1.4013686e-42)
(0.00517953 -0.0022292138 4.0325321e-25 0.0069106028 6.5180544e-23 1.2125573e-42)
(0.0031853987 -0.0024421043 -2.4133699e-22 0.0090809449 2.1457392e-22 1.3940962e-40)
(0.0023240449 -0.0017338942 -1.5513931e-22 0.0084025875 4.1726436e-22 3.5193073e-41)
(0.0024827582 -0.0010317048 -3.5305941e-22 0.0075555474 -1.4359813e-23 8.4122316e-41)
(0.0028405224 -0.00048572332 7.9236602e-23 0.0062120489 -1.871649e-22 8.9320966e-42)
(0.0029828251 -0.00021889397 2.5860512e-22 0.0047597944 2.1247475e-23 2.6530442e-41)
(0.0027413135 -0.0001445607 -5.4990489e-22 0.003336633 5.0964357e-23 1.2348629e-40)
(0.0022088256 -1.7671261e-05 -6.6807756e-22 0.0022829922 9.5857457e-23 2.2595844e-40)
(0.0016504138 0.00011113393 3.3735369e-23 0.0015908241 7.6574856e-23 4.8966735e-42)
(0.0011674224 0.00012412913 0 0.0011129022 0 0)
(0.00082849013 0.00010638608 2.6128257e-23 0.00079425763 2.7976274e-23 1.9021774e-42)
(0.00060091218 8.2836971e-05 -2.0282421e-23 0.00057769271 7.5435746e-24 1.7386883e-42)
(0.00044710615 5.8092573e-05 -1.882712e-23 0.00042176012 -1.8985948e-23 2.6670067e-42)
(0.00034311495 3.5489317e-05 1.1126496e-23 0.00030576895 8.0943751e-24 1.8998922e-42)
(0.00027219584 1.8072411e-05 -1.4804967e-24 0.00021559234 -8.7754996e-24 4.3677159e-43)
(0.00022384465 5.8030824e-06 1.5043308e-24 0.00014612687 1.5065484e-23 2.2788272e-42)
(0.00018968546 -9.4177556e-07 -7.6102255e-25 9.1930862e-05 1.5866518e-24 6.9289777e-44)
(0.00016624489 -4.3663822e-06 9.2987689e-25 5.3297892e-05 -3.8790095e-24 4.7254168e-43)
(0.00014905299 -4.1798329e-06 -2.8192662e-24 2.4891915e-05 4.7553782e-24 1.3422249e-42)
(0.00013948109 -4.0605878e-06 -3.6562486e-25 9.3328089e-06 2.6328071e-25 8.4481637e-45)
(0.00013303335 -4.0838223e-07 -3.9647735e-24 6.3474995e-07 7.0475915e-25 1.2626089e-42)
(0.0068611157 -0.0021987901 1.5553352e-22 0.0069204477 1.7195142e-22 2.5039678e-41)
(0.004435539 -0.0026690849 -2.6576414e-22 0.0095948036 1.9181702e-22 7.2259086e-41)
(0.0029698752 -0.002152417 -2.7001744e-22 0.0091731852 -4.7361608e-23 1.8507154e-40)
(0.0024180592 -0.0014989644 4.5570908e-22 0.0085982545 2.5060081e-22 2.6686563e-40)
(0.002636287 -0.00087332036 4.9927108e-22 0.0074568734 -2.0290784e-23 1.4498988e-40)
(0.002953212 -0.00044856763 -3.8815489e-23 0.0060351153 -1.3042045e-22 4.2547767e-42)
(0.0029857925 -0.00024972515 0 0.0045009789 0 0)
(0.0026740619 -0.00016038834 -1.3485388e-23 0.0031032377 -1.7455645e-22 1.1994362e-41)
(0.0021005219 2.4823129e-05 1.5221975e-22 0.0021368291 -6.9178054e-23 1.5165402e-41)
(0.0015321275 0.00012449448 1.9223312e-22 0.0014945467 4.7198383e-23 2.7647706e-41)
(0.001073099 0.00011750711 -3.3700937e-24 0.0010528327 2.4367504e-23 7.3654025e-43)
(0.00076337305 9.3970437e-05 -1.7176565e-23 0.00076091653 2.2124226e-24 6.9250899e-43)
(0.00055732445 6.734212e-05 3.1245063e-24 0.00055733674 -1.2365138e-24 5.2645593e-44)
(0.00041946663 4.1460006e-05 3.8092061e-24 0.00040934253 9.7837095e-24 3.2316187e-43)
(0.00032678205 2.0528003e-05 -5.2584193e-24 0.00029632872 -9.3853057e-24 8.4352188e-43)
(0.00026397389 5.248589e-06 2.1772147e-24 0.00020831909 8.2191155e-24 7.2027548e-43)
(0.00022054802 -3.6590644e-06 1.0266148e-25 0.00014010791 -1.9856821e-24 3.8858292e-44)
(0.00018952496 -7.6094043e-06 -2.1694273e-24 8.7426841e-05 9.6846145e-24 1.5302591e-42)
(0.00016759309 -8.4594607e-06 -1.0080043e-24 5.0218013e-05 1.607953e-24 6.2116091e-44)
(0.00015107194 -6.375292e-06 -2.0482396e-25 2.3243038e-05 1.9391403e-25 2.12453e-45)
(0.00014181861 -5.0666534e-06 -2.3919154e-24 8.6551167e-06 1.5485293e-24 4.0751987e-43)
(0.00013537818 -5.4205886e-07 0 5.7936546e-07 0 0)
(0.0085878731 -0.0021278504 1.2442676e-22 0.0069426555 1.738547e-22 1.3992738e-41)
(0.0057958843 -0.0028946259 2.1040691e-22 0.010006731 -9.0534052e-23 2.5690095e-41)
(0.0041578668 -0.0024565929 1.9043131e-23 0.0098987224 -8.4834765e-23 9.1209193e-43)
(0.0028432969 -0.0019060999 3.9254329e-22 0.00957334 -7.5292187e-23 2.4157422e-40)
(0.0025274559 -0.0013322691 3.3488174e-22 0.0086655389 -2.3900106e-22 8.8758529e-41)
(0.0028026009 -0.00080164024 -2.5431801e-22 0.0073793474 -4.2848384e-23 3.4983726e-41)
(0.0030212603 -0.00045879661 1.3098123e-23 0.0058267051 3.7490889e-22 2.9039961e-41)
(0.0029875725 -0.0002984541 -6.4814575e-22 0.0042335593 -5.9196085e-23 1.649118e-40)
(0.0025783975 -0.0001522238 -1.1667704e-22 0.002885137 -5.0898935e-23 7.0545478e-42)
(0.0019839489 7.0401593e-05 -2.8220637e-23 0.0020114306 5.189368e-24 4.7130561e-43)
(0.0014111494 0.00012625986 4.072224e-24 0.0014075967 -1.5100381e-24 1.7566025e-44)
(0.00098507858 0.00010600385 5.8726995e-23 0.0010038067 -1.3305699e-23 5.6604488e-42)
(0.00070489977 7.7883968e-05 -2.7584549e-24 0.00073194799 -3.6498307e-24 3.355489e-44)
(0.00051996562 4.881581e-05 -1.2719403e-23 0.00054033859 2.5678174e-23 2.8991005e-42)
(0.00039722304 2.3846358e-05 5.6223829e-24 0.00039701927 2.4791826e-23 1.9456103e-42)
(0.00031536276 4.7746177e-06 3.3499376e-24 0.00028697434 1.9294011e-23 1.9478684e-42)
(0.0002592623 -6.8535655e-06 7.0455254e-25 0.00020031376 -2.1944607e-24 3.5051822e-44)
(0.00022019477 -1.2602674e-05 3.6047139e-24 0.00013365028 -2.0914884e-23 4.7294762e-42)
(0.0001911591 -1.3296756e-05 1.1465348e-25 8.258812e-05 -5.8525196e-25 1.2993424e-44)
(0.00017018635 -1.184745e-05 -2.5212705e-24 4.6993963e-05 4.048085e-24 5.0288714e-43)
(0.00015384642 -8.025815e-06 0 2.1554939e-05 0 0)
(0.00014455711 -5.7500984e-06 6.0770683e-24 7.9728838e-06 -3.2488503e-24 2.0229437e-42)
(0.00013790262 -5.9331321e-07 1.280335e-25 5.262119e-07 -1.2338328e-26 4.2565479e-46)
(0.010140206 -0.002024303 -6.8737879e-22 0.0069798848 -2.6090044e-22 1.5204318e-40)
(0.0072520419 -0.003152856 7.7456981e-22 0.010388217 2.143739e-22 2.9757766e-40)
(0.0054351578 -0.0027439916 -4.4626796e-22 0.01057121 -1.6242106e-22 1.5515515e-40)
(0.0038814415 -0.0022211025 -9.178329e-23 0.01052139 -2.7730546e-22 3.5854268e-41)
(0.0028310259 -0.0017612532 3.8032044e-22 0.0098332133 2.3129179e-22 2.3614343e-40)
(0.0026837093 -0.0012544957 0 0.0087322348 0 0)
(0.0029472927 -0.00078391601 -5.9830587e-24 0.0072517133 1.1575602e-22 2.1809604e-42)
(0.0030946175 -0.00050590509 -2.2268449e-22 0.005593171 -2.2102347e-22 3.2777852e-41)
(0.0029750165 -0.00034676113 -4.4893035e-22 0.0039498428 1.3722995e-23 7.7977613e-41)
(0.0024789015 -0.00010685512 -4.5092852e-22 0.0026946459 1.2785039e-22 9.799634e-41)
(0.0018537073 0.00010266534 1.0342359e-22 0.001896267 5.5232836e-23 7.7046033e-42)
(0.0012933019 0.00011868339 6.9012518e-23 0.0013338363 1.0203684e-23 4.5520915e-42)
(0.00090545266 8.9662374e-05 -4.698452e-23 0.00096140298 -1.4095133e-23 3.8031341e-42)
(0.00065385433 5.7723729e-05 1.9804798e-23 0.00070782505 2.6470031e-23 2.0733948e-42)
(0.00048923639 2.8438174e-05 -1.9124035e-23 0.00052390752 -3.3300328e-23 4.5538694e-42)
(0.00038093972 4.8288107e-06 -7.5254149e-24 0.00038504793 -4.7466112e-23 7.8051228e-42)
(0.00030830548 -1.0475167e-05 4.7971416e-24 0.00027665668 3.2685835e-24 1.1245291e-42)
(0.00025827547 -1.8551847e-05 1.2085928e-24 0.00019167716 -9.8405382e-24 7.4128102e-43)
(0.00022205504 -2.0349596e-05 -6.3483008e-24 0.00012662162 2.312032e-23 6.861664e-42)
(0.00019444262 -1.8113547e-05 1.737526e-24 7.746513e-05 -4.5264952e-24 6.8748096e-43)
(0.00017368992 -1.4414879e-05 6.4014445e-24 4.3661822e-05 -8.2177965e-24 2.3901384e-42)
(0.00015708815 -9.1465322e-06 -6.0851568e-24 1.9852564e-05 4.896399e-24 2.0144069e-42)
(0.00014749454 -6.1214291e-06 4.1362541e-24 7.2968204e-06 -1.928781e-24 8.891101e-43)
(0.00014044014 -5.6830867e-07 1.1402826e-25 4.7592512e-07 -9.0206163e-27 2.7469707e-46)
(0.011494019 -0.0019203691 -2.5329966e-22 0.0070243349 -3.2034445e-22 3.877929e-41)
(0.0087800581 -0.0033414884 9.1237142e-22 0.010753678 7.8231231e-23 2.9185998e-40)
(0.0067192027 -0.0030247726 1.6894441e-22 0.011193365 -4.675099e-22 2.8833886e-41)
(0.0051108255 -0.0025074839 1.0041146e-21 0.011456669 1.9882725e-22 7.9896912e-40)
(0.0037549853 -0.0021151769 -1.5719958e-22 0.011006509 -3.4292972e-22 7.3244316e-41)
(0.0028987867 -0.0017005383 4.9839623e-22 0.010067683 2.9950017e-22 3.2095988e-40)
(0.0028636445 -0.0012265778 -1.7148119e-23 0.0087345779 1.3974939e-22 2.6099839e-42)
(0.0031034251 -0.00081738864 8.568425e-22 0.0070890103 1.6864963e-22 3.4720003e-40)
(0.0031758359 -0.00057026752 -9.5475211e-23 0.0053157941 -2.0210853e-22 1.3855068e-41)
(0.0029598873 -0.00036384142 -2.2477772e-22 0.0036688214 -2.5433933e-23 2.0159709e-41)
(0.0023648878 -4.0283834e-05 5.6186772e-23 0.0025335318 1.0238606e-22 6.3211363e-42)
(0.0017137362 0.00011719081 -2.0188593e-22 0.0017920225 5.5501403e-24 2.8229764e-41)
(0.0011836568 0.00010280347 3.0352367e-23 0.0012697775 2.8548798e-23 1.5535029e-42)
(0.00083507721 6.8081733e-05 4.3555305e-24 0.0009259181 -1.0321742e-24 4.762362e-44)
(0.00061101798 3.4565937e-05 -4.7141763e-24 0.00068514755 -3.5453221e-23 2.1441004e-42)
(0.00046573331 5.8640608e-06 -2.6470053e-24 0.00050832942 -3.8385905e-24 1.0496603e-43)
(0.00037016112 -1.4095526e-05 1.2871752e-24 0.00037194923 8.8822123e-25 4.6697872e-44)
(0.00030597713 -2.5536401e-05 1.31216e-24 0.00026551229 -1.8747005e-23 1.9736399e-42)
(0.00026012932 -2.8889967e-05 0 0.00018215169 0 0)
(0.00022614095 -2.7064645e-05 1.1909716e-24 0.00011909055 -2.4021652e-24 5.9926534e-44)
(0.00019883334 -2.1803168e-05 3.7430078e-25 7.2119652e-05 -5.2535846e-25 4.9295165e-45)
(0.00017779132 -1.619081e-05 -7.3325389e-25 4.0271514e-05 7.2368822e-25 1.7594203e-44)
(0.00016057308 -9.7461626e-06 -1.1402697e-25 1.816365e-05 -2.1882954e-27 5.9054886e-45)
(0.00015044699 -6.2017803e-06 -6.7617449e-24 6.6374065e-06 2.6672149e-24 1.8269578e-42)
(0.00014285755 -4.7329135e-07 -3.2279103e-24 4.2966037e-07 2.9345078e-25 4.5100798e-43)
(0.012692965 -0.0018380287 7.1146116e-22 0.0070727709 2.9285093e-22 1.3152651e-40)
(0.010243283 -0.0034874014 -6.1742816e-22 0.011102864 1.1858719e-23 1.1085128e-40)
(0.0080483185 -0.0032953576 -2.6967971e-22 0.011842133 4.0401615e-23 2.7615189e-41)
(0.0063127583 -0.002820285 -1.4710346e-22 0.012343135 -2.774038e-23 1.2969185e-41)
(0.0049866075 -0.0024438398 -7.8863422e-22 0.012204446 -2.7112143e-22 5.8411864e-40)
(0.0037190489 -0.0020806844 -1.1981386e-22 0.011436869 3.0148551e-22 1.5236067e-41)
(0.0030391585 -0.0016880712 -3.0906336e-23 0.010232361 1.7934841e-22 3.6501075e-42)
(0.0030815519 -0.001252921 -4.7781476e-23 0.0086889384 -2.337153e-23 1.5005665e-42)
(0.0032650087 -0.00088549959 -6.5610825e-22 0.0068688456 -1.2106312e-22 1.9298685e-40)
(0.0032705192 -0.00063198686 -4.2156031e-23 0.0050005353 2.15579e-22 1.1075032e-41)
(0.0029143643 -0.0003323163 -2.4146467e-22 0.0034081456 -7.0583888e-23 2.5422225e-41)
(0.0022316973 2.7563676e-05 4.0351446e-23 0.0024007466 -5.3356721e-24 8.5925548e-43)
(0.001572218 0.00011264931 8.7234378e-23 0.0016959692 -3.2011159e-24 6.1387202e-42)
(0.0010852371 7.9830946e-05 -4.4626067e-24 0.0012158812 -1.511076e-23 2.375873e-43)
(0.00077499233 4.2282478e-05 1.409597e-23 0.00089343548 -4.0903761e-24 6.389657e-43)
(0.00057700004 8.2121039e-06 1.3991411e-24 0.00066420113 5.0233565e-23 4.4294197e-42)
(0.00044921122 -1.7251431e-05 -1.3580733e-23 0.00049161491 5.7331627e-23 8.8405154e-42)
(0.00036536428 -3.3191987e-05 -3.9817353e-25 0.00035788363 3.1994284e-23 4.3361455e-42)
(0.00030738901 -3.9163177e-05 -7.4032442e-24 0.00025308307 3.8264927e-23 8.538478e-42)
(0.00026497278 -3.8061916e-05 -2.9167674e-25 0.00017183147 4.5910968e-25 1.8516257e-45)
(0.00023162976 -3.2288878e-05 1.4410061e-23 0.0001111459 -2.4591982e-23 7.7067535e-42)
(0.00020408762 -2.4431477e-05 2.3861263e-24 6.6624224e-05 -3.376069e-24 3.8234176e-43)