/*--------------------------------*- C++ -*----------------------------------*\
| =========                 |                                                 |
| \\      /  F ield         | OpenFOAM: The Open Source CFD Toolbox           |
|  \\    /   O peration     | Version:  5.0                                   |
|   \\  /    A nd           | Web:      www.OpenFOAM.org                      |
|    \\/     M anipulation  |                                                 |
\*---------------------------------------------------------------------------*/
FoamFile
{
    version     2.0;
    format      ascii;
    class       volScalarField;
    location    "15";
    object      p;
}
// * * * * * * * * * * * * * * * * * * * * * * * * * * * * * * * * * * * * * //

dimensions      [0 2 -2 0 0 0 0];

internalField   nonuniform List<scalar> 
9200
(
-0.00044564359
-0.00043148021
-0.0010699406
-0.00040965234
-0.0010359277
-0.0017978531
-0.00037671904
-0.00097934039
-0.0017426387
-0.0024820071
-0.00033849199
-0.00089716741
-0.0016503538
-0.0024091154
-0.0031898095
-0.00029509415
-0.00080120041
-0.0015178576
-0.0022855301
-0.0031003009
-0.0038977936
-0.00024791846
-0.00069439979
-0.0013612078
-0.0021093045
-0.0029466505
-0.0037935352
-0.0046207294
-0.00019802266
-0.00058074535
-0.0011859683
-0.0018996192
-0.0027281516
-0.0036125387
-0.0045031015
-0.0053526227
-0.00014504916
-0.00046361029
-0.00099815053
-0.0016644698
-0.0024667145
-0.0033552874
-0.0042969693
-0.005223374
-0.0061008396
-9.0039466e-05
-0.00034364593
-0.00080323552
-0.0014117942
-0.0021726237
-0.0030456043
-0.0040039899
-0.0049943728
-0.0059616206
-0.0068622663
-3.3766275e-05
-0.00022388288
-0.00060333344
-0.0011491865
-0.0018555162
-0.0026960907
-0.0036492766
-0.0046686347
-0.0057122271
-0.0067148058
-0.007638303
2.2917469e-05
-0.00010691547
-0.00040343448
-0.00087994919
-0.001524979
-0.0023180048
-0.0032474806
-0.0042721922
-0.0053570026
-0.0064476282
-0.0074844821
-0.008427437
7.9083053e-05
4.9154504e-06
-0.00020775205
-0.0006106175
-0.0011854978
-0.0019229898
-0.0028110958
-0.0038214336
-0.0049221449
-0.0060664232
-0.0072022638
-0.008269192
-0.0092283254
0.00013383455
0.00010980715
-1.9693224e-05
-0.00034666619
-0.0008451811
-0.0015165714
-0.0023534956
-0.0033297685
-0.0044255839
-0.0055968571
-0.006798729
-0.0079748553
-0.0090676969
-0.010039042
0.00018625359
0.0002065782
0.000157832
-9.2675855e-05
-0.00051101421
-0.001108361
-0.0018809665
-0.0028121194
-0.0038812966
-0.0050581565
-0.0062983336
-0.0075529534
-0.0087643536
-0.009878149
-0.01085737
0.00023540857
0.0002945898
0.0003226786
0.00014752954
-0.00018882423
-0.00070642598
-0.0014044355
-0.002275308
-0.0033055998
-0.0044645092
-0.0057213313
-0.0070260167
-0.0083283026
-0.0095690731
-0.010698392
-0.01168085
0.00028049637
0.00037357066
0.00047365715
0.0003708588
0.00011690462
-0.00031755409
-0.00093316598
-0.0017315681
-0.0027056464
-0.0038333726
-0.005081757
-0.0064150481
-0.0077794771
-0.0091233768
-0.010387021
-0.01152601
-0.012506893
0.00032082878
0.00044373371
0.0006102208
0.00057529188
0.00040271964
5.28395e-05
-0.00047511679
-0.0011913624
-0.0020948586
-0.0031719915
-0.0043979693
-0.0057335437
-0.0071393314
-0.0085577083
-0.0099364167
-0.011215893
-0.012358425
-0.013332831
0.00035589763
0.00050553177
0.00073229684
0.00076009879
0.00066613357
0.00040061924
-3.689211e-05
-0.00066387914
-0.0014848325
-0.0024948669
-0.0036770556
-0.0050004875
-0.0064204328
-0.0078936819
-0.0093593262
-0.010765343
-0.012053205
-0.013192958
-0.014156034
0.00038542918
0.00055952428
0.00084026297
0.00092541561
0.00090573339
0.00072272767
0.00037633514
-0.00015690806
-0.00088598121
-0.0018146725
-0.0029344435
-0.0042225124
-0.0056420772
-0.0071425398
-0.00867722
-0.010182591
-0.011607805
-0.012896301
-0.014026922
-0.014973987
0.00040945016
0.0006062283
0.00093470618
0.0010719158
0.0011211651
0.0010171032
0.00076067966
0.00032330778
-0.00030736374
-0.0011430537
-0.0021837948
-0.0034157924
-0.0048101263
-0.0063235493
-0.0078996255
-0.0094886903
-0.01102544
-0.012461257
-0.013742486
-0.014857687
-0.015784494
0.00042817759
0.00064622647
0.0010163649
0.001200583
0.0013128351
0.0012826896
0.0011134238
0.0007720132
0.00024353261
-0.00049041434
-0.0014379598
-0.0025948466
-0.0039412828
-0.005441461
-0.0070454159
-0.0086910748
-0.010326469
-0.011885538
-0.01332299
-0.014589025
-0.015682804
-0.01658556
0.00044202978
0.00067996935
0.0010861124
0.0013124612
0.0014817332
0.0015195256
0.0014330425
0.0011857611
0.00076085439
0.00013439245
-0.00070871419
-0.0017736702
-0.0030507361
-0.0045132163
-0.006117843
-0.0078078334
-0.0095158821
-0.011188594
-0.012760304
-0.014190215
-0.015433276
-0.016500094
-0.017375079
0.00045147657
0.00070786804
0.0011448965
0.00140871
0.0016291391
0.0017286352
0.0017192377
0.0015623857
0.0012402405
0.00072424344
-6.3713475e-06
-0.00096542041
-0.0021535362
-0.0035544723
-0.0051337974
-0.0068403435
-0.0086105924
-0.010372655
-0.012072772
-0.013646975
-0.0150601
-0.016272689
-0.017307492
-0.018151143
0.00045702687
0.00073020646
0.0011935954
0.0014905605
0.0017564467
0.0019115491
0.0019727808
0.0019010459
0.0016787257
0.0012737123
0.00066050975
-0.00018194922
-0.0012641918
-0.0025811772
-0.0041091038
-0.0058050521
-0.0076096765
-0.0094530601
-0.011259598
-0.012976425
-0.014542639
-0.015929843
-0.017104963
-0.018102912
-0.018912346
0.00045909549
0.00074726411
0.0012330494
0.0015592155
0.0018651662
0.002069908
0.0021952519
0.0022021688
0.0020748024
0.001778912
0.0012852226
0.00056659265
-0.0003961404
-0.0016091261
-0.0030604159
-0.0047176399
-0.0065287607
-0.0084261897
-0.01033417
-0.012174533
-0.013896706
-0.015444305
-0.016796701
-0.017927964
-0.018884607
-0.019657511
0.00045802311
0.00075924346
0.001264
0.0016157928
0.0019568479
0.0022055847
0.0023885537
0.0024672613
0.0024284095
0.0022375213
0.001862791
0.001271997
0.00043874779
-0.00065335054
-0.0020046964
-0.003595202
-0.0053829762
-0.007306382
-0.0092897545
-0.011252382
-0.013114897
-0.014830568
-0.016348936
-0.017658071
-0.018739645
-0.019651195
-0.020385796
0.00045395948
0.00076637087
0.0012871265
0.0016613309
0.0020329622
0.0023205543
0.0025547823
0.0026984522
0.0027407931
0.0026488146
0.0023898958
0.00192799
0.0012305516
0.00027246668
-0.0009585329
-0.0024556822
-0.0041895286
-0.0061077923
-0.0081389632
-0.010199771
-0.012205691
-0.014077789
-0.015774786
-0.017253531
-0.01851152
-0.019538135
-0.020401602
-0.021096618
0.00044692432
0.00076879949
0.0013030181
0.0016967731
0.0020949024
0.0024167008
0.0026962206
0.0028980423
0.0030141742
0.0030135916
0.0028649632
0.0025300873
0.0019714483
0.0011565026
6.2527031e-05
-0.0013171345
-0.0029670937
-0.0048473317
-0.0068944555
-0.009027064
-0.011155063
-0.013191606
-0.015059987
-0.016726048
-0.018155164
-0.01935492
-0.020322008
-0.021135019
-0.021789685
0.0004374797
0.00076684083
0.0013122389
0.0017229777
0.0021439338
0.0024957653
0.0028151213
0.0030685743
0.0032510723
0.0033339474
0.0032881441
0.0030756683
0.0026556033
0.0019891202
0.0010446065
-0.00019697245
-0.0017350349
-0.0035440812
-0.0055723897
-0.007744922
-0.0099706845
-0.012153909
-0.014207178
-0.016058022
-0.017680988
-0.01905106
-0.020186273
-0.021090066
-0.021850929
-0.022464889
0.00042643934
0.00076147482
0.0013155751
0.0017407044
0.0021811973
0.0025593272
0.002913579
0.0032126587
0.00345424
0.0036126232
0.0036611762
0.0035640224
0.0032791341
0.0027628933
0.0019759995
0.00088876821
-0.00051257077
-0.0022184694
-0.0041918273
-0.0063681968
-0.0086606269
-0.010969186
-0.013193955
-0.015249027
-0.017068214
-0.018636276
-0.019938596
-0.021003735
-0.021841405
-0.022549009
-0.023122307
0.00041827827
0.00075419791
0.0013144295
0.0017509091
0.0022077523
0.0026087675
0.0029934988
0.0033327422
0.0036266208
0.0038525426
0.0039869045
0.0039962898
0.0038402452
0.0034724732
0.0028473892
0.0019260882
0.00068205402
-0.00089139278
-0.0027739375
-0.0049154259
-0.0072378429
-0.0096423763
-0.012021239
-0.014272289
-0.016313395
-0.018086771
-0.019588654
-0.02081542
-0.021805789
-0.022575305
-0.023229113
-0.023762051
0.00041222723
0.00074869944
0.0013072464
0.0017541908
0.0022251727
0.0026453591
0.003056536
0.0034310421
0.0037710337
0.0040569095
0.0042684416
0.0043751638
0.0043392315
0.0041147373
0.0036517514
0.0029034628
0.0018323731
0.00041671468
-0.0013410781
-0.0034080955
-0.0057197587
-0.0081838817
-0.010690255
-0.013124778
-0.015385384
-0.017396206
-0.019109835
-0.020535033
-0.021679477
-0.022591231
-0.023291244
-0.023891139
-0.024384247
0.00040752794
0.0007447753
0.0012994099
0.00174865
0.0022350411
0.0026710158
0.0031042376
0.0035094828
0.003890037
0.004228925
0.0045091836
0.0047039893
0.0047783277
0.0046888711
0.0043843699
0.0038119105
0.0029243491
0.001686806
8.4223756e-05
-0.0018696978
-0.0041276285
-0.0066093306
-0.0092081876
-0.011803529
-0.014276987
-0.016529218
-0.018493138
-0.020133584
-0.021472485
-0.02252884
-0.023358989
-0.02398873
-0.024534977
-0.02498889
0.00040401644
0.00074160534
0.0012932614
0.0017423027
0.0022328261
0.002687071
0.0031391003
0.0035698563
0.0039858423
0.0043715063
0.0047126957
0.0049863025
0.0051610062
0.0051963377
0.0050430514
0.0046448782
0.0039466879
0.0029020718
0.0014803049
-0.00032466832
-0.0024856488
-0.0049390967
-0.0075881154
-0.010311822
-0.012980582
-0.015474287
-0.017699256
-0.019599717
-0.021154248
-0.02239827
-0.023361675
-0.024108111
-0.024667286
-0.025160374
-0.025575868
0.00040152176
0.00073910003
0.0012882779
0.001738093
0.0022275365
0.0026868742
0.0031629556
0.0036151976
0.0040605156
0.0044871623
0.0048822722
0.0052259363
0.0054909524
0.0056404325
0.0056281641
0.0053984942
0.0048907574
0.0040485221
0.0028273868
0.0012027653
-0.00081986068
-0.0031975185
-0.0058487738
-0.008659386
-0.011494912
-0.014218842
-0.01671238
-0.018890604
-0.020711374
-0.022168196
-0.02330984
-0.024176392
-0.02483763
-0.025326279
-0.025766944
-0.026144948
0.00039984058
0.00073721376
0.0012843705
0.0017349564
0.0022241083
0.0026826105
0.0031657178
0.0036474
0.0041177294
0.0045782424
0.0050207427
0.0054265893
0.0057721664
0.0060250553
0.0061424288
0.0060717063
0.0057506829
0.0051151211
0.0041084257
0.0026897423
0.00084309343
-0.0014118016
-0.0040139244
-0.0068624415
-0.0098255294
-0.012756511
-0.015514773
-0.017986273
-0.020098008
-0.021823532
-0.023171906
-0.024204879
-0.024971438
-0.025546526
-0.025964949
-0.026354152
-0.026696006
0.00039878087
0.00073586838
0.0012814829
0.0017326277
0.0022217931
0.0026804342
0.0031623723
0.0036526118
0.0041596634
0.0046491052
0.0051307469
0.0055914335
0.0060087339
0.006354294
0.0065898764
0.0066662425
0.0065236566
0.0060936943
0.0053095527
0.0041158644
0.0024772596
0.00038926576
-0.0021113572
-0.0049433238
-0.0079851898
-0.011087862
-0.014094516
-0.016863848
-0.019290367
-0.02131602
-0.022931613
-0.024161978
-0.02508102
-0.025745231
-0.026233613
-0.026582373
-0.026921561
-0.027229277
0.00039818309
0.0007349767
0.0012794756
0.0017310415
0.0022203107
0.0026795308
0.003161211
0.0036500765
0.0041676743
0.0047022351
0.0052174081
0.0057234067
0.0062041806
0.0066325008
0.0069746727
0.0071859126
0.0072099988
0.0069793179
0.006420022
0.0054639714
0.0040586672
0.0021767347
-0.00017158695
-0.0029296558
-0.0059938142
-0.009221184
-0.012446454
-0.015505562
-0.018260581
-0.020618504
-0.022538963
-0.024031063
-0.025135021
-0.02593582
-0.026496035
-0.026897605
-0.027177719
-0.027469102
-0.027745835
0.00039793689
0.00073446472
0.001278193
0.0017300779
0.0022195772
0.0026794479
0.003161522
0.0036499274
0.0041657656
0.0047131805
0.0052836195
0.0058284789
0.0063617593
0.0068635803
0.0073012808
0.0076350269
0.007812777
0.007770484
0.0074323902
0.006720366
0.0055664425
0.0039229576
0.0017736716
-0.00085307033
-0.0038778857
-0.0071728366
-0.010573393
-0.013899932
-0.01698497
-0.019698542
-0.021964059
-0.023761052
-0.025117273
-0.026087668
-0.026766769
-0.027222007
-0.027537219
-0.027750503
-0.02799759
-0.028247852
0.00073427975
0.00039793463
0.001277492
0.0017295909
0.0022194239
0.0026800374
0.0031627086
0.0036515166
0.0041663942
0.0047117545
0.0052978683
0.005910052
0.0064883599
0.007051116
0.007573972
0.0080180456
0.0083363807
0.0084689764
0.0083429111
0.0078747326
0.00698342
0.005602999
0.0036931155
0.0012523287
-0.001669385
-0.0049670643
-0.0084869344
-0.012043334
-0.01544531
-0.018526688
-0.021170426
-0.023319956
-0.024976276
-0.026185551
-0.02701645
-0.027571269
-0.027921284
-0.028151538
-0.028301144
-0.02850905
-0.028738642
0.0012772666
0.00073427586
0.00039817967
0.0017294414
0.002219641
0.0026810685
0.0031645619
0.0036540708
0.0041690849
0.0047129507
0.005296791
0.005928068
0.006588042
0.0072029929
0.0077966644
0.008339452
0.0087852296
0.00907884
0.009151536
0.0089206429
0.0082961082
0.0071956778
0.0055575126
0.003351752
0.00059579636
-0.0026351278
-0.006207724
-0.0099413347
-0.013630737
-0.017077815
-0.020123281
-0.022668057
-0.024678699
-0.026178429
-0.027231031
-0.02791772
-0.02834669
-0.02859234
-0.028740449
-0.028831337
-0.029006821
-0.029221794
0.0017295252
0.00127726
0.00073445871
0.00039877269
0.0022200262
0.002682268
0.0031667749
0.0036573013
0.0041728934
0.004716589
0.0052983075
0.0059272738
0.0066105377
0.0073241316
0.0079783184
0.0086035186
0.0091637966
0.0096045163
0.009861316
0.0098556767
0.0094949006
0.0086838839
0.0073411633
0.0054115708
0.002879705
-0.00021389603
-0.0037650388
-0.0076095321
-0.01153958
-0.015333241
-0.018790733
-0.021765884
-0.024182431
-0.026032305
-0.027360937
-0.028248695
-0.028787732
-0.029090744
-0.029234442
-0.029305221
-0.029344295
-0.029494774
-0.029699721
0.00222043
0.0017295129
0.0012774701
0.00073496197
0.0003998307
0.002683372
0.0031689883
0.0036608151
0.0041774509
0.0047215555
0.0053026988
0.0059289391
0.0066101572
0.0073520918
0.0081249305
0.0088203511
0.0094766768
0.010050301
0.010476622
0.010681184
0.010574484
0.010054422
0.0090227247
0.007401166
0.0051443884
0.0022560638
-0.0011956112
-0.0050736536
-0.0091807913
-0.013282971
-0.017146016
-0.020575251
-0.02344421
-0.025703664
-0.027372265
-0.028516953
-0.029233411
-0.029623024
-0.029801839
-0.029848247
-0.029848725
-0.029844134
-0.029975917
-0.030172123
0.0026841879
0.0022204146
0.0017294049
0.0012781575
0.0007358504
0.00040150689
0.0031708524
0.0036641492
0.0041822629
0.0047274005
0.0053086945
0.0059339541
0.0066118849
0.0073524129
0.0081596942
0.0089973202
0.0097352038
0.010420904
0.011001507
0.011400948
0.011533786
0.011298534
0.010585083
0.0092942968
0.0073540309
0.004732718
0.0014582103
-0.0023688437
-0.0065747804
-0.010927784
-0.015170032
-0.019061428
-0.022420341
-0.025146485
-0.027220982
-0.028689491
-0.02963944
-0.030180242
-0.030420858
-0.030479731
-0.030436051
-0.030375069
-0.030334621
-0.030450794
-0.030636472
0.0031721155
0.0026841709
0.0022199809
0.0017295295
0.0012794241
0.00073718605
0.00040399934
0.0036668581
0.0041867456
0.0047335119
0.0053157515
0.0059408986
0.0066174276
0.0073541969
0.0081612666
0.0090407126
0.0099484852
0.010728993
0.011440487
0.012018823
0.012375218
0.012412014
0.012015438
0.011069433
0.0094768918
0.007174963
0.0041507808
0.00046193389
-0.0037532925
-0.0082807903
-0.012853949
-0.017195798
-0.021068671
-0.024312627
-0.026859453
-0.02872269
-0.029974527
-0.030721599
-0.031085053
-0.031180125
-0.031126288
-0.031001954
-0.030888496
-0.030817512
-0.030917657
-0.03109108
0.0036686186
0.0031720955
0.0026833206
0.0022195647
0.001729992
0.001281417
0.00073906726
0.00040750619
0.0041903373
0.0047391728
0.0053231365
0.0059491183
0.0066252747
0.0073602146
0.0081632057
0.0090444026
0.010002975
0.01098584
0.01180761
0.012538874
0.013102242
0.013394999
0.013305771
0.012709262
0.011486277
0.0095450548
0.00683582
0.0033702113
-0.00075830887
-0.0053681908
-0.01020161
-0.014958874
-0.019351183
-0.023153474
-0.02623635
-0.028568385
-0.030196384
-0.031218037
-0.031757479
-0.031945569
-0.031902223
-0.031745864
-0.031551004
-0.031391899
-0.0312923
-0.031374983
-0.031538177
0.0041926307
0.0036685967
0.0031707932
0.0026821822
0.002219317
0.0017309304
0.0012842875
0.00074156062
0.00041220378
0.0047436841
0.0053299835
0.0059577649
0.0066346518
0.0073689481
0.008169685
0.0090467471
0.010010121
0.011054765
0.01211682
0.012976353
0.013718323
0.014249941
0.014453026
0.014201273
0.013360029
0.011810326
0.0094692377
0.0063048783
0.00236009
-0.0022288778
-0.0072312217
-0.012343369
-0.01723714
-0.021622255
-0.025297904
-0.028173409
-0.030257354
-0.031629513
-0.032411751
-0.032743281
-0.03276248
-0.032591595
-0.032344303
-0.032087265
-0.031885685
-0.031757904
-0.031824192
-0.03198083
0.004746546
0.0041926072
0.0036667915
0.003168889
0.0026809477
0.0022194386
0.0017324918
0.0012881792
0.0007447233
0.00041825021
0.0053354416
0.0059658117
0.0066445686
0.0073795155
0.0081792828
0.0090537411
0.010013378
0.011067377
0.01220461
0.013348533
0.014239621
0.014979604
0.015457733
0.015538285
0.015080406
0.013943204
0.012011626
0.0092153719
0.005546644
0.0010871929
-0.0039759856
-0.0093569454
-0.014706713
-0.019677112
-0.023989798
-0.027480377
-0.030103727
-0.031909895
-0.033010666
-0.03354982
-0.033678746
-0.033540288
-0.03325497
-0.0329269
-0.032611962
-0.032368804
-0.032215147
-0.032267901
-0.032417839
0.0053389038
0.0047465199
0.0041902649
0.0036640387
0.0031666361
0.0026798812
0.0022201406
0.0017347951
0.0012931441
0.00074863316
0.00042641136
0.0059722478
0.0066538405
0.0073907509
0.0081910439
0.009064187
0.010021082
0.011072462
0.012225585
0.013460999
0.014687602
0.015600827
0.016321605
0.016717867
0.016635229
0.015920201
0.014429097
0.012054872
0.0087444556
0.0045217884
-0.00048332848
-0.0060240803
-0.011754617
-0.017284877
-0.022259857
-0.026429052
-0.029676104
-0.032006103
-0.033510537
-0.034331346
-0.034630705
-0.034568344
-0.034286661
-0.033898973
-0.033495729
-0.033123711
-0.032841257
-0.032666348
-0.032706198
-0.032852336
0.0059763457
0.0053388752
0.004743607
0.0041866262
0.0036606598
0.0031643824
0.0026792556
0.0022215905
0.0017379066
0.0012992752
0.00075412306
0.00043744637
0.0066612885
0.007401298
0.0082036544
0.0090771135
0.010032425
0.011081327
0.012233984
0.013494409
0.014832519
0.016140406
0.017062005
0.017739948
0.018017954
0.017723247
0.016692076
0.014782136
0.011898788
0.0080121687
0.0031874063
-0.0023865244
-0.0083933215
-0.014425424
-0.020061722
-0.024958502
-0.028910225
-0.031858222
-0.033860057
-0.035047257
-0.035588289
-0.035658733
-0.035420766
-0.035009667
-0.034526417
-0.034048829
-0.033621365
-0.033305596
-0.033112786
-0.033142755
-0.033284439
0.0066660627
0.0059763153
0.0053353578
0.0047390436
0.0041820948
0.0036571021
0.0031624891
0.002679302
0.0022238733
0.0017420908
0.001307092
0.00076138412
0.00044689191
0.0074098032
0.0082155507
0.0090910954
0.010046487
0.011093764
0.012244831
0.013508392
0.014884009
0.016328033
0.017712164
0.018622137
0.019225664
0.019340525
0.018775705
0.017360829
0.014959996
0.011495451
0.0069686805
0.0014979964
-0.0046551059
-0.01109608
-0.017359399
-0.02301024
-0.027738426
-0.031399845
-0.034000091
-0.035648897
-0.036514449
-0.036785455
-0.036643761
-0.036245678
-0.035712921
-0.035134512
-0.034583653
-0.034107973
-0.033765205
-0.033556846
-0.033572361
-0.033709978
0.0074153005
0.0066660295
0.0059721555
0.0053298428
0.004733332
0.0041772359
0.003653827
0.0031612616
0.0026801682
0.0022272688
0.0017484127
0.0013142573
0.00076674046
0.00045391971
0.0082251854
0.0091043777
0.010061787
0.011108994
0.01225879
0.013522554
0.014906859
0.016405055
0.017955141
0.01940462
0.020275641
0.020765004
0.020661784
0.019758716
0.017883818
0.014912595
0.010789636
0.0055590405
-0.00059232925
-0.007315463
-0.014132579
-0.020532584
-0.026092105
-0.030558896
-0.033863771
-0.036079121
-0.037363824
-0.037915497
-0.037934
-0.03759719
-0.037047497
-0.036392558
-0.035719042
-0.035104168
-0.034590018
-0.034221002
-0.033986819
-0.033997436
-0.034124681
0.008231466
0.0074152624
0.006661187
0.0059656588
0.0053229411
0.004727169
0.0041726299
0.003651229
0.0031609104
0.0026823075
0.0022325265
0.0017539288
0.0013153832
0.00076868297
0.00045798117
0.0091152027
0.010076436
0.011125573
0.012275344
0.013538763
0.014926334
0.016441273
0.018067554
0.019718601
0.021216167
0.022012721
0.022337767
0.021950105
0.020630235
0.018209962
0.014581037
0.0097185647
0.0037247241
-0.0031258176
-0.010382124
-0.017486278
-0.023905348
-0.029259203
-0.033376731
-0.036271962
-0.038082088
-0.039007326
-0.039262961
-0.039047419
-0.03852434
-0.03782093
-0.037042215
-0.036285098
-0.03562086
-0.035066057
-0.034647202
-0.034415552
-0.034412485
-0.03453318
0.0091223365
0.0082314235
0.0074096908
0.0066536727
0.0059575506
0.0053154999
0.0047212737
0.0041687745
0.0036495955
0.0031620311
0.0026865352
0.002234711
0.0017506247
0.0013120298
0.00076624409
0.0004590443
0.010088476
0.011141543
0.012293215
0.013556945
0.014945905
0.016468913
0.018123523
0.01988006
0.021621385
0.023141371
0.023817133
0.023915502
0.023164995
0.021338805
0.018278286
0.013896769
0.0082126355
0.0014071784
-0.0061347972
-0.013851179
-0.021120237
-0.0274232
-0.032457983
-0.036152551
-0.03860529
-0.040009963
-0.040593474
-0.040572818
-0.040131945
-0.039418004
-0.038556904
-0.037668194
-0.036848114
-0.036129089
-0.03549005
-0.035074755
-0.034835011
-0.034820494
-0.034936646
0.010096522
0.0091222875
0.0082250563
0.0074011092
0.0066443325
0.0059488442
0.0053083889
0.0047162561
0.0041660355
0.0036497016
0.0031653381
0.002686698
0.0022248149
0.001740398
0.0013027904
0.00075910156
0.00045697056
0.011154785
0.012310471
0.013576171
0.014966181
0.01649347
0.018163508
0.019964998
0.021849873
0.023662992
0.025168288
0.02566419
0.025460281
0.024255627
0.021822164
0.018016526
0.012781422
0.0061980666
-0.0014458035
-0.0096332911
-0.017693996
-0.024976303
-0.031021494
-0.035637396
-0.038859371
-0.040862187
-0.041878591
-0.042141302
-0.041852452
-0.041178049
-0.04026565
-0.039262952
-0.038291979
-0.037399867
-0.036554632
-0.035917546
-0.035493661
-0.03524603
-0.035222266
-0.03533594
0.011163784
0.010096466
0.0091150533
0.0082153355
0.007390487
0.0066343494
0.0059405637
0.0053023379
0.0047125678
0.0041653604
0.0036521941
0.0031625386
0.0026706113
0.0022073693
0.0017226516
0.0012868836
0.00074711144
0.0004514126
0.012324901
0.013594686
0.014986842
0.016516524
0.018195476
0.020023509
0.021976422
0.023981812
0.025837019
0.02727655
0.027519269
0.02692293
0.025159317
0.022005838
0.01734021
0.011148316
0.0036026379
-0.0048704618
-0.013607673
-0.021853631
-0.028979353
-0.034635145
-0.038760043
-0.041491539
-0.043060211
-0.043710619
-0.043659655
-0.043089355
-0.042168594
-0.041075889
-0.039967836
-0.038901193
-0.037830052
-0.036984868
-0.036336415
-0.035903316
-0.035648792
-0.035618317
-0.035731656
0.012334892
0.011163723
0.010088308
0.0091041291
0.0082033509
0.0073791739
0.0066249037
0.0059335597
0.0052978932
0.0047113208
0.0041672221
0.0036469427
0.0031386495
0.002644926
0.0021807921
0.0016964283
0.0012637409
0.00073004182
0.00044196117
0.013610282
0.015006546
0.016538729
0.018222345
0.02006652
0.022062222
0.024166969
0.026276166
0.028129319
0.029435466
0.029335682
0.028241346
0.025799939
0.021801622
0.016153017
0.0089070591
0.00036558361
-0.0088749767
-0.018009337
-0.026247323
-0.033048483
-0.03821308
-0.041814111
-0.044068071
-0.045226639
-0.045517025
-0.045132465
-0.044260528
-0.043112991
-0.041886278
-0.04065452
-0.039338732
-0.038265639
-0.037405606
-0.03674505
-0.036303619
-0.036043344
-0.03600876
-0.036124035
0.013621313
0.012334828
0.011154602
0.010076154
0.009090744
0.0081906517
0.0073685296
0.0066169897
0.0059284842
0.0052963218
0.0047126974
0.004159168
0.0036147026
0.0031037554
0.0026083093
0.0021435093
0.0016609711
0.001232779
0.00070769419
0.00042810642
0.015023237
0.016559471
0.018246253
0.0200988
0.022121576
0.024292214
0.026542655
0.028726859
0.03051573
0.031601543
0.031052859
0.02933883
0.026086621
0.021106926
0.014349907
0.0059727511
-0.0035483375
-0.013427631
-0.02275361
-0.030778139
-0.03711529
-0.041734385
-0.044819308
-0.046622139
-0.047375739
-0.047277835
-0.046529311
-0.045375793
-0.044059349
-0.042674569
-0.04110674
-0.039780982
-0.038690157
-0.037814536
-0.037143424
-0.036694521
-0.036429295
-0.036393378
-0.036513005
0.015035327
0.013621247
0.012324707
0.011141234
0.010061389
0.0090766594
0.0081787989
0.0073597156
0.006611377
0.0059267591
0.005297346
0.0047017039
0.004117193
0.0035693277
0.0030560267
0.0025588471
0.0020944622
0.0016154198
0.0011933141
0.00067978879
0.00040937712
0.016577088
0.018267785
0.020124679
0.022161691
0.024375492
0.026724119
0.029104581
0.031319099
0.032959378
0.033716569
0.032594473
0.030122719
0.025912989
0.01980658
0.011824888
0.002280693
-0.0081328219
-0.018450642
-0.027730168
-0.035357073
-0.041145677
-0.045217951
-0.047815892
-0.049172876
-0.049483321
-0.048953196
-0.047859762
-0.046495941
-0.044979843
-0.043150686
-0.041561076
-0.040209825
-0.039101004
-0.038211733
-0.037531642
-0.037075281
-0.036805965
-0.036771965
-0.036898227
0.016590204
0.015035259
0.013610081
0.012310147
0.011125138
0.010045971
0.0090636258
0.0081691082
0.0073536175
0.0066095798
0.0059274913
0.0052830443
0.0046485304
0.0040599424
0.003508923
0.002992965
0.0024952673
0.0020325099
0.0015588342
0.0011446098
0.00064604036
0.00038535922
0.018286039
0.020146633
0.02219002
0.024427058
0.026842098
0.029365076
0.031846651
0.03402669
0.035408141
0.03570562
0.033867162
0.030483875
0.025157949
0.017778858
0.0084851399
-0.0021945212
-0.013327693
-0.023826722
-0.032827775
-0.039931791
-0.04515508
-0.048712011
-0.050830082
-0.051691972
-0.051497963
-0.050551292
-0.049199598
-0.047586697
-0.04549276
-0.043624199
-0.041998297
-0.040622843
-0.039498385
-0.038597576
-0.037908936
-0.03744493
-0.037172973
-0.037144464
-0.037279517
0.018300075
0.016590136
0.015023033
0.013594351
0.012292756
0.011108428
0.010031788
0.0090530725
0.0081625322
0.0073517485
0.0066098868
0.0059094167
0.0052167845
0.004577625
0.0039852342
0.003430455
0.002913025
0.0024161882
0.0019563875
0.0014901738
0.0010858222
0.00060604288
0.00035582834
0.020165055
0.022211901
0.024458681
0.02691051
0.029532929
0.032216651
0.034752912
0.036809192
0.03779249
0.037475745
0.034760342
0.030297916
0.023690179
0.014907928
0.0042714022
-0.0074207042
-0.019019135
-0.029424249
-0.037970711
-0.044509924
-0.049199654
-0.05225214
-0.053829835
-0.054114076
-0.05342479
-0.052165787
-0.050507606
-0.048154261
-0.045995533
-0.044075384
-0.042416702
-0.041020511
-0.039883028
-0.038971342
-0.038274195
-0.037802919
-0.037530488
-0.03751103
-0.037657861
0.020179805
0.018300012
0.016576887
0.015006204
0.013575695
0.012274746
0.011093065
0.010020321
0.0090459662
0.0081604944
0.0073513414
0.0065873221
0.005827786
0.0051300739
0.0044865054
0.0038893977
0.00333213
0.0028145495
0.0023200313
0.0018647015
0.0014083231
0.0010160765
0.00055933851
0.00032076657
0.0222298
0.024479867
0.026946933
0.029626236
0.032455474
0.035272378
0.037794555
0.039609394
0.040023999
0.038916466
0.035147996
0.029429251
0.02137872
0.011103744
-0.00081931414
-0.013300445
-0.025061836
-0.035140415
-0.043152688
-0.049154366
-0.053327004
-0.055804237
-0.056733792
-0.056439079
-0.055378705
-0.05374862
-0.051154499
-0.048700506
-0.046468916
-0.044503544
-0.042817259
-0.041404089
-0.04025424
-0.039331837
-0.03862688
-0.038149542
-0.037879265
-0.037874258
-0.038035061
0.022244918
0.020179748
0.018285847
0.016559133
0.01498636
0.013556327
0.012258048
0.011080491
0.010012492
0.0090435088
0.0081588185
0.0073232968
0.0064875721
0.0057226574
0.005020023
0.0043708102
0.003770364
0.0032120246
0.0026956347
0.0022050542
0.0017559815
0.0013120774
0.00093442296
0.00050535466
0.00028043683
0.024496288
0.026966789
0.029670157
0.032585616
0.03561107
0.038514849
0.040927029
0.042351574
0.041995645
0.039902603
0.034893755
0.027740208
0.018111001
0.0063268004
-0.0067183686
-0.019686655
-0.031326133
-0.040947938
-0.048440338
-0.053927618
-0.057503748
-0.05926905
-0.059534056
-0.058807171
-0.057305807
-0.054508321
-0.051763859
-0.049207982
-0.046913471
-0.044910447
-0.043202097
-0.041772909
-0.040610655
-0.039678605
-0.038967373
-0.038485194
-0.038224376
-0.038237599
-0.038413914
0.024511241
0.022244867
0.020164881
0.018267466
0.016538256
0.014965555
0.013537997
0.012243944
0.011071488
0.010009106
0.0090397005
0.0081239579
0.0072020805
0.0063609044
0.0055906261
0.0048815039
0.0042281913
0.0036259228
0.0030679191
0.0025541835
0.002069373
0.0016286767
0.0012002065
0.0008399882
0.00044356199
0.00023535763
0.02698051
0.029688304
0.032641822
0.035795591
0.038992357
0.041912757
0.044087816
0.044941398
0.043584952
0.04030075
0.03386028
0.025106876
0.013816876
0.00060903341
-0.013292208
-0.026429245
-0.03775747
-0.046911525
-0.053913637
-0.058800984
-0.06161192
-0.062628446
-0.062401041
-0.061161048
-0.058223055
-0.055207717
-0.052322437
-0.049678593
-0.047331991
-0.045299518
-0.043570652
-0.04212531
-0.040951777
-0.040012138
-0.039295385
-0.038816721
-0.03857127
-0.038604609
-0.038797216
0.026994575
0.024511201
0.022229651
0.020146345
0.018245805
0.016515911
0.014945134
0.013521639
0.012232949
0.011066263
0.010001832
0.0089961989
0.0079772545
0.0070501225
0.0062032553
0.0054257237
0.0047118797
0.0040561367
0.0034535122
0.0028973673
0.0023879439
0.0019110108
0.0014812752
0.001071549
0.00073203343
0.00037341256
0.00018620605
0.029697947
0.03265869
0.03587234
0.039256731
0.042580706
0.045418478
0.04719574
0.047268732
0.044661257
0.039980474
0.031923487
0.02144067
0.0084915092
-0.0059444399
-0.020384044
-0.033444465
-0.044410624
-0.053130059
-0.059554564
-0.06363852
-0.065621418
-0.066088968
-0.065278141
-0.062294601
-0.059048737
-0.055841459
-0.052832953
-0.05011665
-0.047729736
-0.045670456
-0.043920895
-0.042460553
-0.041278052
-0.040331092
-0.039619679
-0.039150723
-0.03892421
-0.038977354
-0.039185356
0.029710239
0.026994549
0.024496167
0.022211649
0.020124272
0.01822177
0.016492721
0.014925416
0.013507326
0.012224403
0.011053512
0.009947218
0.0088191263
0.007795509
0.006862506
0.006007738
0.0052250092
0.0045083159
0.0038517296
0.0032503145
0.0026977558
0.0021946295
0.0017280943
0.0013123828
0.00092505899
0.00060996828
0.00029443873
0.00013379385
0.032663039
0.035890177
0.03936785
0.042961411
0.046344145
0.048967107
0.050153217
0.049214897
0.045098187
0.038829326
0.028990809
0.016709247
0.002202506
-0.013189284