/*--------------------------------*- C++ -*----------------------------------*\
| =========                 |                                                 |
| \\      /  F ield         | OpenFOAM: The Open Source CFD Toolbox           |
|  \\    /   O peration     | Version:  5.0                                   |
|   \\  /    A nd           | Web:      www.OpenFOAM.org                      |
|    \\/     M anipulation  |                                                 |
\*---------------------------------------------------------------------------*/
FoamFile
{
    version     2.0;
    format      ascii;
    class       surfaceScalarField;
    location    "15";
    object      phi;
}
// * * * * * * * * * * * * * * * * * * * * * * * * * * * * * * * * * * * * * //

dimensions      [0 3 -1 0 0 0 0];

internalField   nonuniform List<scalar> 
18180
(
0.00087084448
-1.3460095
0.0016794598
-1.2591946
0.00086236658
-1.3468719
0.0024082981
-1.1773254
0.0016615211
-1.2599938
0.0008410679
-1.3477129
0.003054128
-1.1004302
0.0023854129
-1.1780493
0.0016211944
-1.2607739
0.0008362119
-1.3485491
0.0036211201
-1.0283867
0.0030333332
-1.1010781
0.0023293807
-1.1787574
0.0016104518
-1.2615481
0.00082994083
-1.3493791
0.0041091616
-0.96093758
0.003609126
-1.0289625
0.0029673906
-1.1017161
0.0023163193
-1.1794633
0.0015976864
-1.2623159
0.00082962577
-1.3502087
0.0045183427
-0.89781681
0.0041131274
-0.96144156
0.0035385428
-1.0295336
0.0029567051
-1.1023565
0.0022999281
-1.1801655
0.0015968614
-1.2630831
0.00082889758
-1.3510376
0.0048478568
-0.83876245
0.004545503
-0.89824919
0.0040432762
-0.96194628
0.0035353088
-1.0301122
0.0029409265
-1.1029975
0.0023013423
-1.18087
0.0015955071
-1.2638497
0.00083030621
-1.3518679
0.0050967628
-0.78353062
0.0049057312
-0.83912266
0.0044816707
-0.89868757
0.0040526712
-0.96246363
0.0035244001
-1.0306956
0.0029481951
-1.1036443
0.0023016779
-1.1815762
0.0015983174
-1.2646177
0.00083075775
-1.3526987
0.0052652921
-0.73189036
0.0051927147
-0.78381761
0.0048529313
-0.83949392
0.0045088608
-0.89914374
0.0040509862
-0.9629902
0.003541682
-1.0312891
0.0029536107
-1.1042962
0.0023083094
-1.1822861
0.0015996849
-1.2653867
0.00083079592
-1.3535295
0.0053541302
-0.68363037
0.0054054033
-0.73210303
0.0051559685
-0.78412063
0.0049030593
-0.83988811
0.0045207453
-0.89961349
0.0040826351
-0.96353113
0.0035560529
-1.0318915
0.0029674706
-1.1049554
0.0023128991
-1.1829994
0.0016005086
-1.2661564
0.00082948887
-1.354359
0.0053644889
-0.63855062
0.0055426565
-0.68376763
0.005388952
-0.73233601
0.0052338899
-0.78445145
0.0049327843
-0.84030013
0.0045712736
-0.90010211
0.0041099182
-0.96408498
0.0035805286
-1.0325046
0.0029785346
-1.105621
0.0023168078
-1.1837157
0.0015989147
-1.2669258
0.00082656623
-1.3551855
0.0052988375
-0.59646622
0.0056036725
-0.63861161
0.0055499769
-0.68392863
0.0054994501
-0.73260156
0.0052856998
-0.78480436
0.0050067256
-0.84073557
0.0046154076
-0.90060759
0.0041485875
-0.96465303
0.0036014827
-1.0331275
0.0029886974
-1.1062929
0.0023172915
-1.184434
0.0015944094
-1.2676936
0.00082172791
-1.3560073
0.0051617657
-0.55720324
0.0055885113
-0.59645106
0.0056379124
-0.63869955
0.0056977986
-0.68412697
0.0055776242
-0.73289347
0.0053874327
-0.78518506
0.0050715579
-0.84119172
0.0046719147
-0.90113091
0.0041830191
-0.96523456
0.0036211746
-1.03376
0.0029944932
-1.1069701
0.0023136727
-1.1851533
0.0015863831
-1.2684583
0.00081478397
-1.356822
0.0049604262
-0.52059502
0.0054989295
-0.55711364
0.0056526862
-0.59646582
0.0058267704
-0.63882851
0.0058060291
-0.68435537
0.0057109933
-0.73321702
0.0054766416
-0.78559013
0.0051496379
-0.84166943
0.0047234689
-0.90167135
0.0042156603
-0.96582904
0.0036355703
-1.0344011
0.0029950365
-1.1076515
0.0023050298
-1.185872
0.0015744367
-1.2692179
0.00080560926
-1.3576277
0.004704638
-0.48648024
0.0053388455
-0.52043495
0.0055947379
-0.55705569
0.0058833051
-0.59652234
0.0059677284
-0.63899019
0.0059740561
-0.68461843
0.0058279589
-0.73356834
0.0055800678
-0.78602056
0.0052219579
-0.84216791
0.004772521
-0.9022282
0.0042421011
-0.96643556
0.0036435926
-1.0350496
0.0029891645
-1.1083356
0.0022908036
-1.1865883
0.0015583208
-1.2699707
0.00079414788
-1.3584218
0.0044064278
-0.45469967
0.0051152648
-0.48625663
0.0054662863
-0.52030648
0.0058652449
-0.55703762
0.0060595589
-0.59661417
0.0061726357
-0.63918877
0.0061219519
-0.68491242
0.0059605116
-0.73394878
0.0056767691
-0.78647536
0.0052909423
-0.84268633
0.0048144792
-0.90280057
0.004261067
-0.96705303
0.0036438716
-1.0357043
0.0029761358
-1.1090209
0.002270591
-1.1873006
0.0015378884
-1.2707144
0.00078039621
-1.3592022
0.0040794721
-0.4250965
0.0048381937
-0.45442261
0.0052723457
-0.4860627
0.0057730923
-0.52021432
0.0060788066
-0.55705685
0.0063027858
-0.59674432
0.0063544221
-0.63942124
0.0062873077
-0.68523921
0.0060851601
-0.73435716
0.0057692588
-0.78695368
0.0053519341
-0.84322377
0.0048478617
-0.90338736
0.0042710267
-0.96768018
0.003635515
-1.0363637
0.002955431
-1.1097058
0.0022441841
-1.1880069
0.0015131219
-1.2714471
0.00076440521
-1.3599666
0.0037378729
-0.39751569
0.0045205917
-0.42477886
0.0050213338
-0.45417158
0.0056105013
-0.48590009
0.0060236204
-0.52015913
0.0063608231
-0.55711488
0.0065207832
-0.59691067
0.0065558814
-0.63968981
0.0064433267
-0.68559737
0.0062047644
-0.73479266
0.005852843
-0.78745458
0.0054032409
-0.84377914
0.0048710145
-0.90398734
0.0042709566
-0.96831562
0.0036178875
-1.0370262
0.0029267402
-1.1103883
0.0022115082
-1.1887053
0.0014840803
-1.2721668
0.00074625983
-1.3607129
0.0033952686
-0.37180648
0.0041770514
-0.39717217
0.0047247504
-0.42448228
0.0053845021
-0.45394558
0.0058949915
-0.48577145
0.0063438505
-0.52014216
0.0066164855
-0.55721059
0.006760991
-0.59711578
0.0067464746
-0.63999295
0.0065936785
-0.68598628
0.0063145563
-0.73525437
0.0059256282
-0.78797696
0.0054431211
-0.84435124
0.0048828074
-0.90459918
0.0042601204
-0.96895785
0.0035905921
-1.03769
0.0028899501
-1.1110668
0.0021726449
-1.1893938
0.0014509154
-1.2728715
0.00072608788
-1.3614389
0.0030634772
-0.34782392
0.003822909
-0.3714523
0.0043965308
-0.39684393
0.005105578
-0.42420334
0.005697737
-0.45374832
0.0062509909
-0.48567859
0.0066376871
-0.52016335
0.0068971424
-0.55734674
0.006988991
-0.59735829
0.006931131
-0.6403304
0.0067333459
-0.68640507
0.0064124495
-0.73574119
0.0059858013
-0.78851962
0.0054703542
-0.84493878
0.0048824178
-0.90522147
0.004238039
-0.96960529
0.003553458
-1.0383535
0.0028451078
-1.1117392
0.00212776
-1.1900707
0.0014138468
-1.2735592
0.00070403394
-1.362143
0.0027518879
-0.32543208
0.0034724612
-0.34747348
0.004051524
-0.3711073
0.004787063
-0.39652541
0.0054406771
-0.42394627
0.0060850028
-0.45358233
0.0065820095
-0.48562291
0.0069591828
-0.52022539
0.0071648111
-0.55752255
0.0072112599
-0.59763842
0.0071043278
-0.64070138
0.0068600665
-0.68685268
0.0064965513
-0.73625193
0.0060320512
-0.78908132
0.0054840365
-0.84554039
0.0048692926
-0.90585273
0.0042044819
-0.97025631
0.0035064964
-1.0390149
0.002792397
-1.1124039
0.0020771621
-1.190734
0.0013731579
-1.2742283
0.00068031478
-1.3628233
0.002466802
-0.30450601
0.0031379392
-0.32509752
0.0037044329
-0.34712637
0.0044439544
-0.37076418
0.0051361805
-0.39622091
0.0058527601
-0.42371403
0.0064500069
-0.45345032
0.0069431142
-0.48560684
0.007267903
-0.52032848
0.0074274745
-0.55773876
0.007421507
-0.5979556
0.0072636669
-0.64110498
0.0069718491
-0.68732797
0.0065654699
-0.73678533
0.0060634276
-0.78966069
0.0054835731
-0.84615466
0.004843152
-0.90649139
0.004159415
-0.97090923
0.0034498742
-1.0396724
0.0027321478
-1.1130589
0.0020212107
-1.191382
0.0013291764
-1.2748772
0.00065517331
-1.3634785
0.002211687
-0.28493266
0.002828236
-0.30419631
0.0033681429
-0.32476123
0.0040916004
-0.34677402
0.0047992434
-0.37042723
0.005565108
-0.39593326
0.0062463522
-0.42351037
0.0068474795
-0.45335469
0.0072930422
-0.48563198
0.0075729
-0.52047391
0.0076779322
-0.55799519
0.0076172276
-0.59830915
0.007407012
-0.64154013
0.0070672061
-0.6878297
0.006618184
-0.73734008
0.0060792621
-0.79025638
0.0054686183
-0.84678013
0.0048039115
-0.90713589
0.0041029719
-0.97156232
0.0033839269
-1.0403242
0.0026647843
-1.1137024
0.0019603731
-1.1920132
0.0012822969
-1.2755043
0.00062881571
-1.3641073
0.0019872947
-0.26661166
0.002548885
-0.28465327
0.0030527722
-0.30388093
0.0037442036
-0.32441383
0.0044456414
-0.34642041
0.0052362262
-0.37009835
0.0059802342
-0.39566714
0.0066748645
-0.42333776
0.0072368558
-0.4532985
0.0076410825
-0.48570016
0.0078660887
-0.52066206
0.0079135919
-0.55829155
0.0077960788
-0.59869822
0.0075327353
-0.64200566
0.007145029
-0.68835653
0.0066539822
-0.73791479
0.0060791936
-0.79086694
0.0054390661
-0.84741528
0.0047516694
-0.90778458
0.0040354701
-0.97221387
0.0033090974
-1.0409685
0.0025908329
-1.1143329
0.0018951407
-1.1926261
0.0012329655
-1.2761085
0.0006014538
-1.3647087
0.0017924652
-0.24945437
0.0023018956
-0.26636467
0.0027649708
-0.28436548
0.0034133946
-0.30355012
0.0040906795
-0.32405886
0.0048820714
-0.34606625
0.0056646633
-0.36978278
0.0064325373
-0.39542481
0.0070996209
-0.42320052
0.0076269423
-0.45328436
0.00797849
-0.48581256
0.0081447548
-0.52089322
0.0081318299
-0.5586273
0.0079562572
-0.59912173
0.0076396237
-0.64250025
0.0072045471
-0.68890709
0.0066724616
-0.73850805
0.0060630662
-0.79149094
0.0053949632
-0.84805857
0.0046867113
-0.90843582
0.0039573423
-0.97286211
0.0032259467
-1.0416036
0.0025108905
-1.1149486
0.0018260732
-1.1932192
0.0011816074
-1.2766886
0.00057333036
-1.3652821
0.001624529
-0.2333816
0.0020866188
-0.24923906
0.0025080225
-0.26610772
0.0031074479
-0.28405952
0.0037474812
-0.30320692
0.0045188223
-0.32369561
0.0053153272
-0.34571692
0.0061322746
-0.36948251
0.0068863226
-0.39521151
0.0075284442
-0.42310202
0.0080086131
-0.45331448
0.0083023797
-0.48597019
0.0084059307
-0.52116732
0.0083305907
-0.55900163
0.0080963735
-0.59957848
0.0077268056
-0.6430225
0.0072453077
-0.68947992
0.0066734458
-0.73911842
0.0060309198
-0.79212688
0.0053365843
-0.84870844
0.0046094473
-0.90908792
0.0038691505
-0.97350531
0.0031351177
-1.0422278
0.0024256281
-1.1155482
0.0017537603
-1.1937913
0.0011286212
-1.2772439
0.00054468517
-1.3658268
0.0014800812
-0.21832325
0.0019001818
-0.23319516
0.0022821604
-0.24901321
0.0028309962
-0.26583126
0.0034259689
-0.283738
0.0041611534
-0.30284925
0.0049488326
-0.32332911
0.0057893241
-0.34537396
0.0066069421
-0.36920313
0.0073481922
-0.39503126
0.0079522198
-0.42304563
0.0083786473
-0.45339075
0.0086093867
-0.48617364
0.0086472592
-0.52148399
0.0085082619
-0.55941352
0.0082154136
-0.60006708
0.007793755
-0.64357094
0.0072671062
-0.69007358
0.0066569492
-0.73974445
0.0059829879
-0.7927733
0.0052642923
-0.84936329
0.0045204154
-0.90973919
0.003771546
-0.97414174
0.0030373407
-1.0428395
0.0023357486
-1.1161302
0.0016788307
-1.1943415
0.0010744473
-1.2777737
0.00051574994
-1.3663425
0.0013552489
-0.20421509
0.0017384913
-0.21816153
0.0020853483
-0.23299834
0.0025853582
-0.24876756
0.0031323102
-0.2655376
0.0038207802
-0.28339763
0.0045810741
-0.30248148
0.0054205993
-0.32296039
0.0062757349
-0.34504276
0.0070940819
-0.36894902
0.0078093821
-0.39488842
0.0083673873
-0.42303437
0.0087332454
-0.45351461
0.0088967737
-0.48642315
0.0088668071
-0.52184253
0.008663609
-0.55986171
0.0083127353
-0.60058606
0.0078402227
-0.64414404
0.0072699452
-0.69068656
0.0066232131
-0.74038467
0.0059196364
-0.79342863
0.005178612
-0.85002148
0.0044202501
-0.91038789
0.0036652799
-0.97476968
0.0029333919
-1.0434372
0.0022419663
-1.1166933
0.0016018835
-1.194869
0.0010195045
-1.2782774
0.00048674596
-1.3668293
0.0012455155
-0.19099882
0.0015965292
-0.20407313
0.0019139527
-0.21799014
0.0023691259
-0.23278211
0.0028690814
-0.24850433
0.003505697
-0.26522252
0.0042254216
-0.28304198
0.0050430527
-0.30210394
0.0059095979
-0.32259425
0.0067789955
-0.34472767
0.0075855731
-0.36872521
0.0082660662
-0.3947871
0.0087697025
-0.42307082
0.0090692745
-0.45368711
0.0091622375
-0.48671858
0.0090630469
-0.52224197
0.0087957965
-0.56034476
0.0083879903
-0.60113382
0.0078661756
-0.64474027
0.0072540644
-0.69131741
0.0065725858
-0.74103761
0.0058413471
-0.79409138
0.0050801323
-0.85068136
0.004309688
-0.9110323
0.0035511573
-0.97538744
0.0028240807
-1.0440193
0.0021450244
-1.1172364
0.0015235004
-1.195373
0.0009642007
-1.2787549
0.00045787948
-1.3672871
-0.00064579549
-0.21003476
0.0014692464
-0.19087151
0.0017635163
-0.20392269
0.0021789749
-0.21779998
0.002635759
-0.23254879
0.0032200045
-0.24821864
0.003891646
-0.26488874
0.0046716927
-0.28267061
0.0055261726
-0.30172051
0.0064194497
-0.3222347
0.0072918388
-0.34443394
0.008077498
-0.36853665
0.0087137006
-0.3947311
0.0091555141
-0.42315706
0.0093839842
-0.45390885
0.0094038649
-0.4870594
0.0092348702
-0.52268104
0.0089043217
-0.56086109
0.0084410847
-0.60170872
0.0078718557
-0.64535805
0.007219825
-0.69196465
0.006505558
-0.74170182
0.0057487025
-0.79475993
0.0049695717
-0.85134125
0.0041895278
-0.91167067
0.003430025
-0.97599339
0.0027102582
-1.0445845
0.0020456651
-1.1177586
0.0014442234
-1.195853
0.00090891042
-1.2792059
0.00042933446
-1.3677165
-0.0019885517
-0.21059467
-0.00037453051
-0.20819097
0.0016290192
-0.19073702
0.0020104162
-0.20375413
0.0024294939
-0.21759371
0.0029643653
-0.23229314
0.0035854751
-0.24791247
0.0043181294
-0.26453517
0.0051419519
-0.28228639
0.0060334769
-0.30133454
0.0069437995
-0.32188667
0.0078104657
-0.3441669
0.0085652192
-0.36838816
0.009148218
-0.3947238
0.0095215602
-0.42329464
0.0096750043
-0.45417999
0.0096201718
-0.4874447
0.0093815193
-0.52315823
0.0089889647
-0.56140897
0.0084722388
-0.6023091
0.0078576488
-0.64599587
0.0071677453
-0.69262683
0.0064226967
-0.74237582
0.0056423695
-0.79543275
0.0048476808
-0.8519994
0.0040606087
-0.91230126
0.0033027847
-0.97658591
0.0025927491
-1.0451316
0.0019446067
-1.118259
0.0013645971
-1.1963087
0.00085397673
-1.2796306
0.00040127139
-1.3681177
-0.0028362473
-0.211093
-0.0016893571
-0.20927982
-0.00016508276
-0.20639687
0.0018585999
-0.1905852
0.0022458129
-0.20357045
0.0027366853
-0.21736603
0.0033088534
-0.23201652
0.003989868
-0.2475842
0.0047704003
-0.26416362
0.0056388285
-0.28189174
0.006559625
-0.30095036
0.0074791957
-0.32155539
0.0083303949
-0.34393208
0.0090444136
-0.36828436
0.0095658181
-0.39476805
0.0098649699
-0.4234846
0.0099403951
-0.45450021
0.009810055
-0.48787323
0.0095025625
-0.52367183
0.0090498634
-0.56198659
0.0084818374
-0.60293328
0.0078241085
-0.64665223
0.0070984141
-0.69330255
0.0063246694
-0.74305812
0.0055230769
-0.79610813
0.0047152704
-0.85265407
0.0039238397
-0.9129223
0.0031703212
-0.97716348
0.0024723696
-1.0456594
0.0018425228
-1.1187369
0.0012851042
-1.1967398
0.00079969847
-1.280029
0.00037382238
-1.3684916
-0.003246248
-0.21152855
-0.0025284505
-0.21025389
-0.0014508288
-0.20799408
0.00010460099
-0.20464287
0.0020791494
-0.19041854
0.0025329993
-0.20336676
0.0030605436
-0.21711772
0.003690295
-0.23171695
0.0044209148
-0.24723471
0.0052507759
-0.26377557
0.0061579691
-0.28149009
0.0071016084
-0.30057278
0.00802154
-0.32124654
0.0088472923
-0.34373496
0.0095109084
-0.36822945
0.0099630066
-0.39486609
0.010183281
-0.42372749
0.010178593
-0.45486875
0.0099727564
-0.48834342
0.0095979754
-0.52421994
0.0090873721
-0.56259212
0.0084704843
-0.60357966
0.0077718837
-0.6473257
0.007012526
-0.69399041
0.0062121692
-0.74374722
0.0053915636
-0.79678444
0.0045732062
-0.85330343
0.0037801148
-0.9135321
0.0030335349
-0.97772464
0.0023499111
-1.0461668
0.0017400318
-1.1191918
0.0012061883
-1.1971463
0.00074633286
-1.2804015
0.00034708954
-1.3688386
-0.0032782778
-0.21190092
-0.0029474098
-0.21110956
-0.0022790618
-0.20942566
-0.0011596873
-0.20672979
0.00036358519
-0.2029273
0.002348183
-0.19023372
0.0028369842
-0.2031432
0.0034192452
-0.21684667
0.0040985243
-0.23139456
0.0048806716
-0.24686461
0.005755789
-0.26337339
0.0066968996
-0.28108538
0.007655785
-0.30020702
0.00856674
-0.32096599
0.0093568307
-0.34358088
0.0099606958
-0.36822713
0.010336686
-0.39501949
0.010474384
-0.42402328
0.010388401
-0.4552844
0.010107973
-0.48885342
0.0096679997
-0.52480056
0.0091021146
-0.56322374
0.0084389084
-0.60424667
0.007701743
-0.64801492
0.0069107901
-0.69468903
0.0060859027
-0.74444155
0.0052486533
-0.79745988
0.004422352
-0.85394567
0.0036303574
-0.91412892
0.0028933042
-0.97826804
0.0022261238
-1.0466528
0.0016376932
-1.1196234
0.0011282195
-1.1975282
0.00069408483
-1.2807485
0.00032114251
-1.3691598
-0.002994527
-0.21220931
-0.0030041598
-0.21184416
-0.0027031776
-0.21068545
-0.0019834904
-0.20860186
-0.00087993858
-0.20548626
0.00066540216
-0.20124452
0.0026329764
-0.19002971
0.0031738024
-0.20289775
0.0038043004
-0.21655245
0.0045353609
-0.23104924
0.0053664363
-0.24647526
0.0062835138
-0.26296
0.0072526137
-0.28068221
0.0082185238
-0.2998588
0.0091106042
-0.32071976
0.0098547075
-0.34347489
0.010390048
-0.36828049
0.010684149
-0.39522926
0.010736529
-0.42437141
0.010569109
-0.45574553
0.010215725
-0.48940115
0.0097132137
-0.52541166
0.0090948852
-0.56387972
0.008387983
-0.60493291
0.0076144644
-0.64871859
0.0067939106
-0.69539704
0.005946626
-0.74513953
0.0050951183
-0.79813266
0.0042635923
-0.85457891
0.003475476
-0.9147111
0.0027504663
-0.97879238
0.0021017052
-1.0471169
0.001536002
-1.1200311
0.0010515166
-1.1978856
0.00064311149
-1.2810705
0.00029602002
-1.3694558
-0.0024589581
-0.21245337
-0.0027587476
-0.2124547
-0.0027792239
-0.21176811
-0.0024190271
-0.21024992
-0.0016998834
-0.20778191
-0.00056313267
-0.20425773
0.00097948817
-0.19959103
0.0029491621
-0.18980507
0.0035360853
-0.20262954
0.0042173454
-0.21623443
0.0049987127
-0.23068152
0.0058767892
-0.24606853
0.0068316099
-0.262539
0.0078220482
-0.28028573
0.0087860165
-0.29953421
0.0096487964
-0.32051384
0.010336743
-0.34342158
0.010795517
-0.36839186
0.01100304
-0.39549577
0.010968472
-0.42477077
0.010720371
-0.45625017
0.010296439
-0.48998437
0.0097344396
-0.52605121
0.0090666903
-0.56455842
0.0083186206
-0.60563707
0.0075108143
-0.64943549
0.006662619
-0.69611303
0.005795035
-0.74583945
0.0049317802
-0.79880083
0.0040978177
-0.85520125
0.0033163567
-0.91527698
0.0026058042
-0.97929648
0.0019772824
-1.0475581
0.0014353876
-1.120415
0.00097632127
-1.1982188
0.00059351834
-1.2813679
0.00027173006
-1.3697276
-0.0017369643
-0.21263287
-0.0022725191
-0.21293957
-0.0025646292
-0.2126693
-0.002520327
-0.21166681
-0.0021464594
-0.20980334
-0.0013843316
-0.20696071
-0.00023685288
-0.20304139
0.0013205628
-0.19796243
0.0032893687
-0.18955835
0.0039254547
-0.20233765
0.0046567507
-0.21589247
0.005487582
-0.23029231
0.0064100018
-0.24564692
0.0073976432
-0.26211459
0.0084018467
-0.27990156
0.0093541958
-0.29923961
0.010176954
-0.32035405
0.010798885
-0.34342495
0.011173975
-0.3685628
0.011291459
-0.39581876
0.011169353
-0.42521975
0.010842319
-0.45679605
0.010350872
-0.49060079
0.0097327965
-0.5267173
0.0090186233
-0.56525841
0.0082317287
-0.60635798
0.0073915674
-0.65016445
0.0065175478
-0.69683555
0.0056318344
-0.74653951
0.0047594319
-0.79946247
0.0039258947
-0.85581079
0.0031538483
-0.91582503
0.0024600507
-0.97977924
0.0018533961
-1.0479762
0.0013362037
-1.1207749
0.00090282168
-1.1985281
0.00054536368
-1.2816416
0.00024825396
-1.3699758
-0.00089495014
-0.21274772
-0.0016081854
-0.21329718
-0.0021187927
-0.21338541
-0.0023430888
-0.21284653
-0.002272149
-0.21154112
-0.0018470791
-0.20934059
-0.0010614135
-0.20613615
0.00011263274
-0.20183346
0.0016818713
-0.19635493
0.0036556968
-0.18928859
0.0043405658
-0.20202146
0.0051218535
-0.21552674
0.0060007757
-0.22988309
0.0069642579
-0.24521354
0.007978885
-0.26169163
0.0089883918
-0.27953575
0.0099188257
-0.29898148
0.010690684
-0.32024585
0.011237284
-0.34348826
0.01152283
-0.36879417
0.011547896
-0.3961973
0.011338841
-0.42571627
0.010935502
-0.45738068
0.010380174
-0.49124817
0.0097095503
-0.52740824
0.0089517904
-0.56597848
0.0081282137
-0.60709463
0.0072573564
-0.65090425
0.0063593006
-0.69756302
0.005457697
-0.74723777
0.0045788712
-0.80011543
0.0037486763
-0.85640563
0.0029887579
-0.91635373
0.0023138625
-0.98023972
0.0017305129
-1.0483705
0.0012387274
-1.1211108
0.000831132
-1.1988139
0.00049865895
-1.281892
0.00022555032
-1.3702014
-0.2127979
-1.3705701e-08
-0.00082931729
-0.21352657
-0.0015019411
-0.21391403
-0.0019442228
-0.21378428
-0.0021307382
-0.21298794
-0.0020019637
-0.21138623
-0.0015420623
-0.20885994
-0.00071903856
-0.20530447
0.00047910695
-0.20063069
0.0020656283
-0.19476486
0.0040468534
-0.18899488
0.0047810122
-0.20168062
0.0056118874
-0.21513785
0.0065370347
-0.22945586
0.0075374922
-0.24477214
0.008572317
-0.26127556
0.00957786
-0.27919479
0.010475465
-0.29876627
0.011185606
-0.32019418
0.011648466
-0.3436139
0.011839858
-0.36908614
0.011771397
-0.39662986
0.011477095
-0.42625786
0.011000978
-0.45800148
0.010385768
-0.49192438
0.0096660922
-0.52812253
0.0088673579
-0.56671762
0.0080088165
-0.60784609
0.0071087363
-0.65165369
0.0061884056
-0.69829372
0.0052732642
-0.74793217
0.0043908606
-0.80075763
0.0035669797
-0.85698384
0.0028218228
-0.91686171
0.0021678267
-0.98067703
0.0016090178
-1.0487408
0.0011431626
-1.1214228
0.0007613173
-1.1990765
0.00045337656
-1.2821198
0.00020356127
-1.3704049
-0.21362719
-1.4010775e-08
-0.2127979
0.00089492795
-0.00077516153
-0.21425335
-0.0013816526
-0.21447661
-0.0017769269
-0.21413809
-0.0019008983
-0.21308901
-0.0017275689
-0.21120072
-0.0012206119
-0.20835837
-0.00036228126
-0.20446309
0.00086479953
-0.19942986
0.0024707924
-0.1931888
0.0044626552
-0.18867652
0.0052463577
-0.20131509
0.0061260505
-0.21472687
0.007094889
-0.22901326
0.0081273168
-0.24432714
0.0091745666
-0.26087226
0.01016609
-0.27888541
0.011019534
-0.2986002
0.011657566
-0.32020328
0.012029294
-0.34380334
0.012123325
-0.36943806
0.011961534
-0.39711429
0.011584896
-0.42684178
0.011040206
-0.45865591
0.010369294
-0.49262758
0.0096038955
-0.52885907
0.0087662806
-0.56747509
0.0078741417
-0.60861149
0.0069461214
-0.6524114
0.0060053142
-0.69902578
0.0050791487
-0.74862045
0.0041961653
-0.8013868
0.0033815821
-0.85754361
0.0026537179
-0.91734759
0.0020224537
-0.98109048
0.0014892158
-1.0490868
0.0010496439
-1.1217112
0.00069338162
-1.1993166
0.000409454
-1.2823257
0.00018221813
-1.3705871
-0.21440234
-9.9675179e-09
-0.21362719
0.00082929752
-0.21274772
0.0017369368
-0.00071393727
-0.21492106
-0.0012663907
-0.21498714
-0.0015966101
-0.21444237
-0.0016678936
-0.21314868
-0.0014395436
-0.21098179
-0.000887313
-0.20783333
1.0741027e-05
-0.20360903
0.0012688173
-0.19822789
0.0028973285
-0.19162347
0.0049028783
-0.18833304
0.0057361594
-0.2009252
0.0066634006
-0.21429537
0.0076725801
-0.22855852
0.0087309908
-0.24388356
0.0097819146
-0.26048808
0.010748632
-0.27861451
0.011546486
-0.29848912
0.012102585
-0.32027657
0.012377221
-0.34405723
0.01237205
-0.36984857
0.012118597
-0.39764799
0.011663566
-0.42746514
0.011055016
-0.45934163
0.010332613
-0.4933563
0.0095242995
-0.52961708
0.0086493792
-0.56825032
0.0077245838
-0.60938995
0.0067697747
-0.65317587
0.0058104098
-0.69975703
0.0048759463
-0.74930024
0.0039955028
-0.80200074
0.0031932095
-0.8580831
0.0024850556
-0.9178102
0.0018781641
-0.98147942
0.0013713447
-1.0494085
0.00095824741
-1.121976
0.00062729365
-1.1995344
0.00036680332
-1.2825103
0.00016144795
-1.3707486
-0.21511627
-8.43394e-09
-0.21440234
0.00077513903
-0.21352657
0.0016081563
-0.21263287
0.0024589358
-0.00065526404
-0.21553219
-0.0011424756
-0.21544127
-0.0014140287
-0.21469624
-0.0014242809
-0.21316394
-0.0011420642
-0.21072704
-0.00054028301
-0.20728231
0.00039946636
-0.20273967
0.0016911909
-0.19702175
0.0033450673
-0.19006567
0.0053673517
-0.18796424
0.0062498808
-0.20051168
0.0072227247
-0.21384552
0.0082680056
-0.22809553
0.0093453909
-0.24344704
0.010390349
-0.2601298
0.011320894
-0.27838892
0.012051744
-0.29843828
0.012517074
-0.32041642
0.012690224
-0.3443754
0.012585611
-0.37031559
0.012243532
-0.39822796
0.011714969
-0.42812509
0.011047632
-0.46005665
0.010277533
-0.49410953
0.0094284824
-0.53039619
0.0085171637
-0.5690429
0.0075602789
-0.61018046
0.0065798141
-0.65394527
0.0056040284
-0.70048512
0.0046642276
-0.74996896
0.0037895856
-0.80259711
0.0030025453
-0.8586006
0.0023163844
-0.91824842
0.0017353073
-0.98184339
0.0012555921
-1.0497059
0.0008690081
-1.1222178
0.00056298444
-1.1997306
0.00032531729
-1.2826741
0.0001411781
-1.3708898
-0.21577153
-5.5830938e-09
-0.21511627
0.00071392109
-0.21425335
0.0015019213
-0.21329718
0.0022724986
-0.21245337
0.0029945001
-0.00059227869
-0.21608238
-0.0010171036
-0.2158382
-0.0012235593
-0.21489696
-0.001173106
-0.2131329
-0.00083316699
-0.21043416
-0.00018018794
-0.20670266
0.00080389596
-0.20185238
0.0021321045
-0.19580878
0.0038140997
-0.18851241
0.0058558795
-0.18757023
0.0067867742
-0.20007573
0.0078024985
-0.21338001
0.0088786541
-0.2276288
0.0099669519
-0.24302364
0.01099557
-0.25980448
0.011878073
-0.27821525
0.01253093
-0.29845213
0.012897938
-0.32062413
0.012966986
-0.34475677
0.012764332
-0.37083638
0.01233801
-0.398851
0.011741575
-0.42881903
0.011020371
-0.46079949
0.010205773
-0.49488682
0.0093172999
-0.53119632
0.0083697989
-0.56985242
0.0073811068
-0.61098175
0.006376238
-0.65471748
0.0053864622
-0.70120735
0.0044445586
-0.75062394
0.0035790877
-0.80317367
0.0028102225
-0.85909443
0.002148195
-0.91866131
0.0015942038
-0.98218199
0.001142083
-1.0499789
0.00078193554
-1.1224367
0.00050038528
-1.1999056
0.00028487687
-1.2828178
0.00012134036
-1.3710111
-0.2163638
-5.8507103e-09
-0.21577153
0.00065525365
-0.21492106
0.0013816356
-0.21391403
0.0021187706
-0.21293957
0.0027587186
-0.21220931
0.0032782551
-0.00052857335
-0.21657091
-0.00088650533
-0.21617525
-0.0010274993
-0.21504257
-0.00091295255
-0.21305311
-0.00051347201
-0.21010087
0.00019350845
-0.20609227
0.001224253
-0.20094453
0.0025914517
-0.19458614
0.0043044123
-0.18696094
0.0063680688
-0.18715152
0.0073458096
-0.19961904
0.0084007963
-0.21290215
0.0095015933
-0.22716344
0.010591853
-0.24261993
0.011592909
-0.25951932
0.012415327
-0.27809965
0.012979967
-0.29853416
0.013242913
-0.32090006
0.013206969
-0.34519941
0.012909395
-0.37140777
0.012404533
-0.39951395
0.011746168
-0.42954483
0.010975617
-0.46156933
0.010118739
-0.49568826
0.0091911316
-0.53201766
0.0082070202
-0.57067833
0.0071866983
-0.61179221
0.0061589394
-0.65548995
0.0051579968
-0.70192079
0.0042175113
-0.75126236
0.0033646818
-0.80372811
0.0026168428
-0.85956309
0.0019809291
-0.91904803
0.0014551085
-0.98249503
0.0010309123
-1.0502279
0.00069697893
-1.1226333
0.00043933975
-1.2000601
0.0002453729
-1.2829419
0.00010186998
-1.371113
-0.21689237
-5.3554659e-09
-0.2163638
0.00059226696
-0.21553219
0.0012663792
-0.2144766
0.0019442065
-0.21338541
0.0025646099
-0.2124547
0.0030041378
-0.21190092
0.0032462204
-0.00046226295
-0.21699515
-0.0007521742
-0.21645057
-0.00082467661
-0.21513084
-0.00064403283
-0.21292255
-0.00018235211
-0.20972501
0.00058056016
-0.20544857
0.0016604759
-0.20001355
0.0030696153
-0.19335133
0.0048161088
-0.18540898
0.006903287
-0.186709
0.0079255637
-0.1991438
0.0090152955
-0.21241585
0.010133594
-0.22670518
0.011215849
-0.24224287
0.012177449
-0.25928144
0.0129279
-0.27804758
0.013395395
-0.29868664
0.0135505
-0.32124359
0.013410588
-0.3457006
0.013023038
-0.37202627
0.012446185
-0.40021397
0.011731831
-0.43030104
0.010915536
-0.46236612
0.010017319
-0.49651444
0.0090497991
-0.53286043
0.0080281578
-0.57151979
0.0069764605
-0.61260973
0.0059277639
-0.65625972
0.0049189407
-0.70262222
0.0039836796
-0.75188137
0.0031470201
-0.80425831
0.0024229758
-0.86000513
0.0018149755
-0.91940791
0.0013181981
-0.98278229
0.00092208571
-1.050453
0.00061403604
-1.122808
0.00037974494
-1.2001944
0.00020669086
-1.2830467
8.2706557e-05
-1.3711957
-0.21735463
-3.4635057e-09
-0.21689237
0.00052856425
-0.21608238
0.0011424638
-0.21498714
0.001776916
-0.21378428
0.0023430718
-0.2126693
0.0027792027
-0.21184416
0.0029473787
-0.21152855
0.0028362226
-0.00039408872
-0.21735324
-0.00061337154
-0.21666188
-0.00061529327
-0.21515958
-0.00036608053
-0.21273882
0.00015977536
-0.20930423
0.00098140982
-0.20476951
0.0021133723
-0.19905731
0.003566785
-0.19210201
0.0053485128
-0.18385421
0.0074605287
-0.18624396
0.0085242492
-0.19865276
0.0096433883
-0.21192565
0.010770866
-0.2262602
0.011834287
-0.24189971
0.012744146
-0.25909768
0.013411447
-0.27806363
0.013774466
-0.2989106
0.013820074
-0.32165307
0.013579468
-0.34625703
0.013108368
-0.37268846
0.012466656
-0.40094879
0.011701622
-0.43108712
0.010841803
-0.46319061
0.0099016883
-0.49736633
0.0088924692
-0.53372475
0.0078321037
-0.57237544
0.0067496474
-0.61343161
0.0056825676
-0.65702335
0.0046696611
-0.70330821
0.0037436961
-0.75247804
0.0029267827
-0.8047621
0.0022291713
-0.86041934
0.0016506715
-0.91974036
0.0011836063
-0.98304382
0.00081557686
-1.0506545
0.00053301872
-1.1229613
0.00032149645
-1.2003093
0.00016875227
-1.2831327
6.3840429e-05
-1.3712595
-0.21774871
-2.4429844e-09
-0.21735463
0.00046225421
-0.21657091
0.0010170928
-0.21544127
0.0015965982
-0.21413809
0.0021307264
-0.21284653
0.0025203105
-0.21176811
0.0027031592
-0.21110956
0.0025284267
-0.211093
0.0019885202
-0.00032365571
-0.21764296
-0.00047013613
-0.21680704
-0.00039905733
-0.2151266
-7.8925631e-05
-0.21250012
0.00051374373
-0.20883656
0.0013965068
-0.20405264
0.0025831133
-0.19807364
0.0040830323
-0.19083653
0.0059013993
-0.18229508
0.0080384349
-0.18575815
0.0091398178
-0.19814919
0.010281919
-0.21143671
0.011409203
-0.22583511
0.012442212
-0.24159777
0.013288175
-0.25897441
0.013862114
-0.27815127
0.014115444
-0.29920597
0.014052331
-0.32212594
0.013716369
-0.34686503
0.013169449
-0.37339125
0.012469922
-0.40171709
0.011658257
-0.43190357
0.01075531
-0.46404423
0.0097711549
-0.49824502
0.0087176318
-0.53461027
0.0076174258
-0.57324321
0.0065054556
-0.6142545
0.005423284
-0.65777697
0.0044106217
-0.70397513
0.0034982649
-0.75304953
0.0027046562
-0.8052376
0.0020359469
-0.86080461
0.0014883058
-0.92004507
0.0010514198
-0.98327964
0.00071135246
-1.0508329
0.00045384803
-1.1230936
0.00026453433
-1.200405
0.0001314834
-1.2832004
4.522152e-05
-1.3713047
-0.21807236
-2.8967892e-09
-0.21774871
0.00039408104
-0.21699515
0.00088649836