/*--------------------------------*- C++ -*----------------------------------*\
| =========                 |                                                 |
| \\      /  F ield         | OpenFOAM: The Open Source CFD Toolbox           |
|  \\    /   O peration     | Version:  5.0                                   |
|   \\  /    A nd           | Web:      www.OpenFOAM.org                      |
|    \\/     M anipulation  |                                                 |
\*---------------------------------------------------------------------------*/
FoamFile
{
    version     2.0;
    format      ascii;
    class       volVectorField;
    location    "15";
    object      U;
}
// * * * * * * * * * * * * * * * * * * * * * * * * * * * * * * * * * * * * * //

dimensions      [0 1 -1 0 0 0 0];

internalField   nonuniform List<vector> 
9200
(
(1.0045591 -0.00037236633 -3.2958894e-23)
(1.0049845 -0.0010776067 -6.8324755e-21)
(1.0055686 -0.00038960165 0)
(1.004857 -0.0017344568 3.3686007e-21)
(1.0059884 -0.0011162469 -5.5517509e-21)
(1.0060836 -0.00039961616 0)
(1.0044194 -0.0023086106 3.455111e-22)
(1.0058318 -0.0017970948 -6.6828151e-22)
(1.0065017 -0.0011382183 0)
(1.0067994 -0.00041603081 0)
(1.0038174 -0.0028180072 -5.614968e-21)
(1.0053505 -0.0023935601 -2.170822e-21)
(1.0063301 -0.0018330868 -2.8638728e-21)
(1.007211 -0.0011808529 -1.9052351e-22)
(1.0074125 -0.00043128772 4.4642372e-24)
(1.0030991 -0.0032605538 -5.0275457e-21)
(1.0046973 -0.002926718 9.7784049e-22)
(1.0058303 -0.0024434295 -8.606603e-21)
(1.0070193 -0.0019020056 -2.6790255e-21)
(1.0078181 -0.0012231369 4.6347071e-22)
(1.0080806 -0.0004489948 8.6099036e-21)
(1.0022875 -0.0036352006 -3.1858064e-21)
(1.0039146 -0.0033952848 -5.9634359e-21)
(1.0051561 -0.0029907724 5.3083095e-21)
(1.0064944 -0.002539127 1.5263768e-22)
(1.0076112 -0.0019700663 -3.8986648e-21)
(1.0084792 -0.0012754279 -3.5196268e-21)
(1.0087159 -0.0004663294 -3.4394931e-22)
(1.0013943 -0.0039454573 3.0676681e-22)
(1.0030239 -0.0037977373 -2.8327822e-21)
(1.0043471 -0.0034749101 -4.70864e-21)
(1.0057916 -0.0031130526 1.1811252e-21)
(1.0070688 -0.0026339632 7.4875133e-21)
(1.0082585 -0.0020544592 3.0887694e-21)
(1.0091078 -0.0013291753 6.1198675e-21)
(1.0093755 -0.00048462902 -9.0085839e-21)
(1.0004377 -0.0041854865 2.7815781e-21)
(1.0020352 -0.0041394754 -4.6232409e-21)
(1.0034245 -0.003893996 1.0437693e-21)
(1.0049473 -0.0036256574 -2.8491912e-21)
(1.0063467 -0.0032342228 2.6719027e-21)
(1.0077015 -0.0027522555 1.2651212e-20)
(1.008875 -0.0021409787 -7.0294127e-21)
(1.0097607 -0.0013881487 1.0462206e-20)
(1.0100239 -0.00050242363 1.9629129e-20)
(0.99943801 -0.004357457 -1.0514325e-21)
(1.0009635 -0.0044133199 3.7197518e-21)
(1.0023964 -0.0042546355 -1.5911683e-22)
(1.0039813 -0.0040741466 -3.6724393e-21)
(1.0054779 -0.0037746982 5.0803113e-22)
(1.0069622 -0.00338562 4.5419309e-21)
(1.0083057 -0.0028735703 -4.3451578e-21)
(1.0095182 -0.0022358757 -8.9970385e-21)
(1.0104023 -0.001447769 -4.4315913e-21)
(1.0106799 -0.00051994003 -1.0880626e-21)
(0.99842115 -0.0044625758 5.7120811e-22)
(0.99982756 -0.0046217085 1.7882349e-21)
(1.0012766 -0.0045487265 -3.7450593e-21)
(1.0029005 -0.0044667265 2.5198478e-21)
(1.0044815 -0.0042515545 -8.758998e-21)
(1.0060716 -0.0039611859 1.4663395e-20)
(1.0075546 -0.0035410733 1.5261145e-21)
(1.0089405 -0.0030074309 -1.6611022e-20)
(1.0101525 -0.0023318586 8.7766623e-21)
(1.0110525 -0.0015086791 -1.6878178e-20)
(1.011334 -0.00053666387 3.4086321e-21)
(0.99741901 -0.0045019763 -3.7258769e-22)
(0.99865242 -0.0047649868 -2.4772817e-21)
(1.0000828 -0.0047787718 1.1691353e-21)
(1.001717 -0.0047940273 0)
(1.0033628 -0.0046742939 1.4512848e-22)
(1.0050475 -0.0044738861 -4.1846167e-21)
(1.0066485 -0.0041526926 3.0879423e-21)
(1.0081806 -0.0037128977 8.0016266e-21)
(1.0095699 -0.0031433875 -5.2874287e-21)
(1.0107974 -0.0024299571 1.067601e-20)
(1.0117014 -0.0015690232 7.7564212e-21)
(1.0119878 -0.00055237274 -1.4885947e-21)
(0.99646998 -0.0044771541 -8.6714161e-23)
(0.99746975 -0.0048430364 1.3511513e-21)
(0.99883848 -0.0049442769 0)
(1.0004457 -0.0050581557 0)
(1.0021324 -0.0050322247 2.6676592e-21)
(1.0038935 -0.0049348328 -8.1888474e-21)
(1.0056045 -0.0047020172 9.9329973e-21)
(1.0072623 -0.004364469 -7.1336267e-21)
(1.008806 -0.0038879864 -2.5339051e-22)
(1.010213 -0.00328299 6.3270606e-23)
(1.0114432 -0.0025272143 -1.5306296e-20)
(1.0123508 -0.0016279949 1.9460374e-20)
(1.0126388 -0.00056680926 -3.2374119e-20)
(0.99561733 -0.0043910608 1.1932158e-21)
(0.99631957 -0.004855964 -1.7253375e-22)
(0.9975746 -0.0050442995 2.1978021e-21)
(0.99910871 -0.0052587044 -2.9082255e-21)
(1.0008045 -0.0053282803 3.3445238e-21)
(1.002619 -0.0053319043 -2.3533704e-21)
(1.0044243 -0.0052016189 -1.3517222e-21)
(1.0062016 -0.0049541117 3.4945461e-22)
(1.0078811 -0.0045810814 -3.2837301e-21)
(1.0094483 -0.0040683113 -2.2009329e-21)
(1.0108605 -0.0034222388 -3.3766985e-21)
(1.0120919 -0.0026224027 -9.0399035e-21)
(1.0129987 -0.001684597 -6.5044607e-21)
(1.0132856 -0.00057975545 9.1296576e-21)
(0.99490471 -0.0042483712 -2.167372e-21)
(0.99524969 -0.0048052979 -4.4578168e-21)
(0.99633154 -0.0050792433 -3.0838568e-22)
(0.99773622 -0.005396192 3.2573903e-22)
(0.99939921 -0.0055618907 -3.3383333e-22)
(1.0012357 -0.0056681115 2.8429445e-21)
(1.0031151 -0.0056378211 -1.1089276e-21)
(1.0049985 -0.0054961225 1.5686766e-21)
(1.0068104 -0.005212994 -2.3463885e-21)
(1.0085208 -0.004804777 -2.0577252e-22)
(1.0100993 -0.0042490681 1.8989556e-22)
(1.0115143 -0.0035594722 -2.6940787e-21)
(1.0127414 -0.0027139513 1.5147973e-20)
(1.0136435 -0.001737954 -8.8024333e-21)
(1.0139261 -0.00059102119 7.7482794e-21)
(0.99437073 -0.0040561576 -1.1744145e-21)
(0.9943112 -0.0046933838 1.7788663e-21)
(0.99515707 -0.0050518315 -1.9446286e-21)
(0.99636597 -0.0054705251 2.5060263e-21)
(0.99794403 -0.005732399 -2.9729258e-21)
(0.99976117 -0.0059424908 4.4923994e-21)
(1.0016869 -0.0060137404 -8.748889e-21)
(1.0036591 -0.0059754098 7.1444726e-22)
(1.0055918 -0.0057996231 1.7649441e-21)
(1.0074442 -0.0054809293 -6.9567832e-21)
(1.0091739 -0.0050301533 1.9103564e-20)
(1.0107604 -0.0044282197 -1.2095043e-20)
(1.0121723 -0.0036925446 -4.9353533e-21)
(1.0133901 -0.0028005019 -6.2811121e-22)
(1.0142835 -0.0017872657 1.5552411e-21)
(1.0145585 -0.0006004463 -8.6960263e-21)
(0.99404345 -0.0038236092 0)
(0.99355265 -0.0045250983 2.5127171e-21)
(0.99410294 -0.0049629703 4.7672166e-22)
(0.99504497 -0.0054776619 0)
(0.99647463 -0.0058385348 0)
(0.99821998 -0.0061529625 0)
(1.0001545 -0.0063279314 8.6448697e-22)
(1.0021908 -0.0063953588 -2.6655258e-21)
(1.0042298 -0.0063242983 9.7387026e-21)
(1.006215 -0.0061143266 -4.3163837e-21)
(1.0080968 -0.00575221 2.5536342e-21)
(1.0098416 -0.0052548165 -3.579358e-21)
(1.0114297 -0.0046031635 1.6669584e-21)
(1.0128331 -0.0038195868 5.1489664e-21)
(1.0140363 -0.0028808029 -1.9920601e-22)
(1.0149167 -0.0018318095 4.3698144e-21)
(1.0151807 -0.00060789915 0)
(0.99393562 -0.0035613438 -2.082449e-21)
(0.99301377 -0.0043077831 -2.6489662e-21)
(0.99322141 -0.0048156119 6.0883566e-21)
(0.99382949 -0.005418318 4.1244839e-21)
(0.99503657 -0.0058787432 4.5362429e-21)
(0.99664577 -0.0062977268 0)
(0.99854004 -0.0065782975 7.2485358e-21)
(1.0006057 -0.0067543695 -3.0668471e-21)
(1.0027295 -0.0067906129 -1.2872907e-20)
(1.0048358 -0.0066867341 1.2977917e-20)
(1.0068628 -0.0064344033 2.3043716e-21)
(1.0087689 -0.0060241263 3.2622844e-21)
(1.0105219 -0.0054757765 -1.2599177e-20)
(1.0121056 -0.0047715994 1.4173038e-20)
(1.0134948 -0.0039388533 -8.6689477e-22)
(1.0146782 -0.0029537301 3.0391471e-20)
(1.0155413 -0.0018709501 1.0847688e-20)
(1.0157909 -0.00061327861 1.1657655e-20)
(0.99404235 -0.0032807916 1.4136608e-22)
(0.9927197 -0.004051222 -1.6303853e-21)
(0.99255865 -0.0046154285 -3.4721082e-22)
(0.99277772 -0.0052948245 3.6152108e-21)
(0.99368529 -0.0058513045 -5.8962754e-22)
(0.99508255 -0.0063750881 7.045197e-23)
(0.99687458 -0.00676248 -9.719737e-21)
(0.99892307 -0.0070499915 -1.5973252e-20)
(1.0011005 -0.0071966061 -6.6088415e-21)
(1.0033098 -0.0072019633 1.3440158e-21)
(1.0054731 -0.0070568918 -3.1460607e-21)
(1.0075356 -0.0067568613 7.1831728e-21)
(1.0094588 -0.0062934083 -9.6443258e-21)
(1.0112136 -0.0056903466 1.6609754e-21)
(1.0127866 -0.0049313621 2.1066796e-21)
(1.0141558 -0.0040487568 -4.6410768e-21)
(1.0153139 -0.0030182876 1.0594798e-20)
(1.0161555 -0.0019041387 -1.2644229e-21)
(1.0163871 -0.00061651197 1.1729495e-20)
(0.99434083 -0.0029936833 9.5662995e-22)
(0.99267634 -0.0037666999 1.4963226e-21)
(0.99214779 -0.0043709729 -9.1460935e-21)
(0.99194326 -0.0051121426 -1.9688479e-21)
(0.99248273 -0.0057558109 9.2399787e-22)
(0.99358506 -0.0063827135 -1.0623401e-22)
(0.99519989 -0.0068779483 1.3783447e-21)
(0.99717055 -0.0072791999 2.8939891e-21)
(0.99935862 -0.0075394611 -2.6602264e-21)
(1.0016438 -0.0076577628 -1.6784286e-20)
(1.0039285 -0.007623665 5.8453956e-21)
(1.0061414 -0.007431559 1.8832928e-21)
(1.0082319 -0.0070782311 -1.0270614e-21)
(1.0101651 -0.0065570669 -3.1049116e-23)
(1.0119151 -0.0058959729 2.8441293e-21)
(1.0134708 -0.0050804498 -1.5670067e-20)
(1.014814 -0.0041478662 8.1092255e-21)
(1.0159415 -0.0030736207 -1.6240451e-20)
(1.0167574 -0.0019309225 -4.1689152e-21)
(1.0169678 -0.00061755706 -1.2394085e-20)
(0.99479304 -0.002710725 3.7814611e-22)
(0.99286922 -0.0034668676 2.3714385e-21)
(0.9920029 -0.0040931468 1.8833693e-21)
(0.99136846 -0.0048778041 2.7872015e-21)
(0.9914896 -0.0055951457 -1.1945483e-21)
(0.99221753 -0.0063185836 -2.8789931e-21)
(0.99356935 -0.0069218628 1.0010154e-20)
(0.99538689 -0.0074386161 2.1911714e-20)
(0.9975283 -0.0078156711 -2.313878e-24)
(0.99985039 -0.0080510652 0)
(1.0022332 -0.0081321236 -3.1784643e-21)
(1.0045849 -0.0080523468 9.963225e-21)
(1.0068393 -0.0078071534 1.0697256e-20)
(1.0089502 -0.0073952832 -1.4288495e-20)
(1.0108864 -0.0068122333 2.1139409e-21)
(1.0126245 -0.0060902596 -1.0730748e-20)
(1.0141563 -0.0052170337 3.9731267e-21)
(1.0154675 -0.0042349299 7.8297865e-21)
(1.0165591 -0.0031190166 -1.2058857e-20)
(1.0173453 -0.0019509437 -1.9802294e-22)
(1.0175313 -0.00061640632 -1.2197251e-20)
(0.9953512 -0.0024408639 -1.8175862e-22)
(0.99326414 -0.0031643364 1.7866892e-21)
(0.99211644 -0.0037941028 3.466155e-21)
(0.99107757 -0.0046024014 -4.2775613e-21)
(0.99075774 -0.005375231 -4.5371115e-21)
(0.99104726 -0.0061830555 4.4380135e-23)
(0.99204743 -0.0068913855 0)
(0.99362324 -0.0075245263 -8.6034296e-22)
(0.99564487 -0.0080212345 -6.8016525e-21)
(0.99795024 -0.008377989 -1.257228e-20)
(1.0003966 -0.0085789238 2.1851251e-21)
(1.0028679 -0.0086162341 5.1124323e-21)
(1.0052779 -0.0084843809 -1.8986147e-21)
(1.0075655 -0.0081802815 -1.6204314e-21)
(1.0096892 -0.0077048871 7.9218102e-21)
(1.0116208 -0.0070561768 -7.9665203e-21)
(1.0133399 -0.0062709805 1.2746198e-21)
(1.0148411 -0.0053394726 -1.0104096e-20)
(1.0161144 -0.0043088747 1.4345568e-21)
(1.017165 -0.0031539159 3.2470302e-22)
(1.0179176 -0.0019639587 -6.8648385e-21)
(1.0180763 -0.00061310235 0)
(0.9959643 -0.0021907291 4.0940536e-22)
(0.99381218 -0.0028703537 -9.0360883e-22)
(0.99245928 -0.0034869767 -2.322794e-22)
(0.99107196 -0.0042980794 -5.0345446e-21)
(0.99032184 -0.0051058929 -3.7052129e-21)
(0.99013488 -0.005981172 2.4185279e-21)
(0.99070522 -0.0067854067 8.4636859e-22)
(0.99194342 -0.0075329101 9.7671044e-21)
(0.99375658 -0.0081518049 2.484082e-21)
(0.99597478 -0.0086339238 1.4111826e-21)
(0.9984355 -0.0089598539 -4.4387666e-22)
(1.0009965 -0.0091195965 -1.1778401e-20)
(1.0035468 -0.0091064695 4.8076089e-22)
(1.006006 -0.0089162791 1.3171351e-20)
(1.0083186 -0.0085476366 -2.5398963e-21)
(1.0104471 -0.0080040342 -7.1956943e-21)
(1.0123666 -0.0072863203 -1.7548549e-21)
(1.0140594 -0.0064360959 1.6012062e-20)
(1.0155232 -0.0054463289 1.7409436e-21)
(1.0167527 -0.0043688263 -6.6426658e-21)
(1.0177574 -0.0031779117 0)
(1.018473 -0.0019698637 1.5807925e-20)
(1.0186015 -0.0006077113 -3.2842408e-23)
(0.99658429 -0.0019644062 8.9857717e-22)
(0.9944566 -0.0025939195 -1.2689892e-21)
(0.99298417 -0.0031838124 2.5286357e-21)
(0.99132986 -0.0039785718 1.248067e-21)
(0.99019283 -0.0047997614 -5.1036308e-21)
(0.98952606 -0.0057213963 0)
(0.98961139 -0.0066063485 2.5088784e-22)
(0.99042161 -0.0074608079 2.2490593e-21)
(0.99192551 -0.0082026537 8.1183979e-21)
(0.99396858 -0.0088137537 1.4893342e-20)
(0.9963771 -0.0092697867 -4.3349975e-21)
(0.99898366 -0.0095579312 -7.3253273e-21)
(1.0016492 -0.0096694897 9.2487635e-21)
(1.0042686 -0.0095993102 -4.9674476e-21)
(1.0067679 -0.0093446255 1.0645052e-20)
(1.009097 -0.0089059971 7.8190179e-21)
(1.0112222 -0.0082898298 -1.4213291e-20)
(1.0131218 -0.0075002494 5.6130901e-21)
(1.014781 -0.0065837706 -2.4039342e-20)
(1.0162006 -0.0055363788 1.2038499e-20)
(1.0173806 -0.004414105 1.6165654e-20)
(1.0183347 -0.0031907689 -1.6763314e-20)
(1.0190101 -0.001968683 1.1842455e-20)
(1.0191059 -0.00060028678 -1.7125607e-23)
(0.99717078 -0.0017636102 -1.0512043e-21)
(0.99514036 -0.0023411699 -1.2115685e-21)
(0.99363272 -0.00289475 -1.4951883e-21)
(0.99180746 -0.0036572145 -8.6142214e-21)
(0.99035681 -0.0044705215 2.4584722e-21)
(0.98924437 -0.0054153193 -6.4934055e-21)
(0.98882257 -0.0063608674 2.7945687e-22)
(0.98913378 -0.0073085627 -9.6310458e-21)
(0.99022661 -0.0081693588 7.9793633e-22)
(0.99199104 -0.0089119352 4.5166224e-21)
(0.99426167 -0.0095028939 -4.4294165e-22)
(0.9968519 -0.0099256885 1.4544025e-20)
(0.99959392 -0.010168657 -2.4023353e-21)
(1.0023533 -0.010225088 -1.3373894e-21)
(1.0050319 -0.010091286 -2.173363e-21)
(1.0075621 -0.0097660572 2.334167e-21)
(1.009899 -0.0092522286 -2.5101183e-21)
(1.0120127 -0.0085595209 7.9679723e-21)
(1.0138844 -0.0076957389 0)
(1.0155025 -0.0067123882 9.9733405e-22)
(1.0168712 -0.0056086273 4.0871452e-22)
(1.0179963 -0.0044442423 -1.0031464e-21)
(1.0188957 -0.0031924291 1.5132123e-21)
(1.0195277 -0.0019604857 -1.6087126e-20)
(1.0195886 -0.00059091318 -8.4082549e-21)
(0.99769354 -0.0015880963 -3.2533172e-23)
(0.99581229 -0.0021152763 7.7708655e-22)
(0.99434329 -0.002627188 8.6515364e-22)
(0.99244547 -0.0033457631 8.9596975e-22)
(0.9907749 -0.0041329887 8.4825734e-21)
(0.98928534 -0.0050768884 1.3664277e-21)
(0.98837407 -0.0060600855 3.2815149e-22)
(0.98814742 -0.0070810299 5.3734944e-22)
(0.98874143 -0.00805001 8.0283204e-21)
(0.9901163 -0.0089227577 1.3232064e-21)
(0.99214499 -0.0096528465 5.3156965e-21)
(0.99463677 -0.01021639 -1.8859957e-21)
(0.99739895 -0.010598076 -7.9060362e-21)
(1.0002653 -0.010788542 -3.585194e-22)
(1.0031075 -0.010782919 -5.3850334e-21)
(1.005835 -0.010578965 4.3324661e-21)
(1.0083867 -0.010177273 1.7273641e-20)
(1.0107227 -0.0095832983 -1.0073512e-20)
(1.0128164 -0.0088105041 -1.7025508e-20)
(1.0146522 -0.0078707624 3.9147333e-22)
(1.0162218 -0.0068205707 2.0461444e-20)
(1.0175331 -0.0056623138 8.4424039e-21)
(1.0185981 -0.0044589704 -1.6080388e-20)
(1.019439 -0.0031829921 1.5893369e-20)
(1.020025 -0.0019453823 -1.2153179e-20)
(1.0200491 -0.00057971261 5.974766e-22)
(0.99813298 -0.0014361823 -2.6140135e-23)
(0.99643123 -0.0019167603 1.4403548e-22)
(0.99505823 -0.0023854849 -1.8549317e-21)
(0.9931774 -0.0030533289 3.3339185e-21)
(0.99138836 -0.0038004869 -4.8757346e-21)
(0.98961747 -0.004722024 5.3959204e-21)
(0.98827303 -0.005717771 5.5502581e-21)
(0.98751079 -0.0067880223 4.6097384e-21)
(0.98754728 -0.0078471599 -1.1028362e-20)
(0.98842979 -0.0088421038 -5.2435699e-21)
(0.99009917 -0.0097129229 -8.0093703e-22)
(0.99238956 -0.010422895 -1.4103469e-20)
(0.99509457 -0.010950712 1.2887594e-20)
(0.99801765 -0.011283478 -8.4311725e-21)
(1.0009964 -0.011414129 3.216242e-22)
(1.0039103 -0.011339525 4.143839e-21)
(1.0066763 -0.011058939 -8.9841516e-21)
(1.0092401 -0.010575025 1.1149445e-20)
(1.0115662 -0.0098962858 -8.7811205e-21)
(1.0136314 -0.009040353 3.4323729e-21)
(1.0154231 -0.0080235223 0)
(1.0169368 -0.006907189 9.1983143e-21)
(1.0181844 -0.0056969157 -8.1776088e-22)
(1.0191844 -0.0044582349 0)
(1.0199632 -0.0031626765 -1.8977825e-20)
(1.0205012 -0.0019235923 6.0163094e-23)
(1.020487 -0.00056682076 7.9526247e-21)
(0.9984789 -0.0013052196 -1.4063628e-22)
(0.99696758 -0.0017440426 1.0685926e-22)
(0.99572909 -0.0021711353 -1.2240002e-21)
(0.99393786 -0.0027858111 -3.5140248e-23)
(0.99212721 -0.0034839368 -1.5142896e-21)
(0.99018468 -0.0043656917 -5.3629765e-21)
(0.98849719 -0.0053498825 -3.3722454e-22)
(0.98724408 -0.0064435068 -5.0888665e-21)
(0.98670556 -0.0075686429 1.7380705e-21)
(0.9870176 -0.008670001 6.9059677e-21)
(0.98821107 -0.0096770636 -1.1380877e-20)
(0.99017919 -0.010537565 -6.9375126e-21)
(0.99272687 -0.011218633 -8.6723332e-21)
(0.99563525 -0.011702413 4.2252276e-22)
(0.99870702 -0.011978446 -1.0265889e-20)
(1.0017859 -0.012041965 7.1156903e-22)
(1.0047599 -0.011891454 -2.0566033e-20)
(1.0075541 -0.01152783 1.5295679e-20)
(1.0101204 -0.010956148 3.934666e-21)
(1.0124274 -0.010188401 -1.2288725e-20)
(1.0144554 -0.0092468314 9.8849773e-21)
(1.0161948 -0.0081524581 1.9245406e-21)
(1.0176453 -0.0069713719 -5.2919014e-22)
(1.0188232 -0.0057121435 0)
(1.0197539 -0.0044421715 0)
(1.0204676 -0.0031317811 1.3247825e-21)
(1.0209559 -0.0018954277 -1.5292805e-20)
(1.0209021 -0.00055238894 -1.4885403e-20)
(0.99872889 -0.0011918409 0)
(0.99740268 -0.0015939865 2.30839e-24)
(0.99631908 -0.0019832656 8.8139023e-22)
(0.99466919 -0.0025458892 1.4714448e-21)
(0.99291933 -0.0031909657 3.6613228e-21)
(0.99091483 -0.0040208234 1.1370103e-21)
(0.98899569 -0.0049730746 -3.1955678e-21)
(0.98733554 -0.0060632496 -7.672477e-21)
(0.9862509 -0.007227709 7.858823e-21)
(0.98595405 -0.0084120165 -8.4796277e-22)
(0.98657399 -0.0095425709 7.8646466e-22)
(0.98809178 -0.010552744 4.968589e-22)
(0.99036039 -0.011393288 -2.1744505e-20)
(0.99315829 -0.012036696 3.7460654e-22)
(0.99625846 -0.01246804 1.3311721e-21)
(0.9994658 -0.012679535 -1.0865913e-20)
(1.002632 -0.012668592 1.3759762e-21)
(1.0056545 -0.01243526 -9.6667107e-21)
(1.0084665 -0.011982296 1.8434951e-20)
(1.0110255 -0.011317552 -1.2986269e-20)
(1.0133043 -0.010457009 7.2090651e-21)
(1.0152862 -0.0094279232 5.0891475e-21)
(1.016965 -0.0082562669 4.9805807e-22)
(1.0183452 -0.0070125045 -2.4850392e-20)
(1.0194478 -0.005707934 -4.5310513e-21)
(1.0203053 -0.0044110745 -2.7859981e-22)
(1.0209515 -0.003090693 1.8094775e-20)
(1.0213886 -0.0018612597 -9.8424224e-21)
(1.0212943 -0.00053657837 2.1561194e-20)
(0.99888832 -0.0010928727 8.808825e-22)
(0.9977272 -0.0014626761 0)
(0.99680297 -0.0018191877 0)
(0.99532531 -0.0023334654 0)
(0.99369843 -0.0029256798 -7.2435096e-22)
(0.99172945 -0.0036970978 3.1987929e-21)
(0.98969627 -0.0046021386 3.2300531e-22)
(0.9877419 -0.0056654661 7.5634532e-22)
(0.98618407 -0.0068402232 1.0809532e-20)
(0.98528905 -0.0080798587 -1.3372973e-20)
(0.98527444 -0.0093123373 3.9680135e-21)
(0.98622573 -0.010463017 -1.8210976e-21)
(0.98807888 -0.011465742 8.1523563e-21)
(0.99064592 -0.012276841 9.3241897e-24)
(0.99368459 -0.01287365 1.764763e-20)
(0.99696339 -0.013244121 1.7078699e-21)
(1.0002924 -0.013383284 -1.2856487e-20)
(1.0035329 -0.013290541 -3.975025e-21)
(1.0065922 -0.012967505 1.2143023e-20)
(1.0094114 -0.01241904 3.2528769e-21)
(1.0119534 -0.01165626 -7.3224887e-21)
(1.0141946 -0.010699644 -2.9313906e-21)
(1.0161213 -0.0095818395 1.3855373e-20)
(1.0177314 -0.0083339032 -1.1927079e-20)
(1.0190345 -0.0070302265 1.9357198e-21)
(1.0200566 -0.0056844382 -5.3822898e-21)
(1.0208376 -0.0043653724 1.6846436e-20)
(1.0214142 -0.0030399006 -1.5036263e-22)
(1.0217992 -0.0018215068 3.7027997e-20)
(1.0216639 -0.00051955666 1.2509298e-20)
(0.99898893 -0.00099982632 5.1968669e-22)
(0.99794047 -0.0013451577 -2.0882564e-22)
(0.99716507 -0.0016755997 0)
(0.99587289 -0.0021461748 0)
(0.99440903 -0.0026889529 0)
(0.99255303 -0.0034004066 0)
(0.99051558 -0.0042488504 0)
(0.98839269 -0.0052668395 -1.8511267e-22)
(0.98647166 -0.0064249569 -3.0613823e-21)
(0.98503808 -0.0076897841 1.3142276e-20)
(0.98437798 -0.0089958401 2.7748033e-22)
(0.98467842 -0.010268225 4.0989311e-21)
(0.98598302 -0.011428121 -1.5316999e-20)
(0.98817813 -0.012412799 1.3641135e-20)
(0.99103821 -0.013184885 -1.5643374e-21)
(0.99430583 -0.013726 6.9302543e-21)
(0.99774878 -0.014027169 -7.6441696e-21)
(1.001185 -0.014086215 6.8797787e-21)
(1.0044866 -0.013904331 -8.7148823e-22)
(1.007571 -0.013484759 8.373037e-22)
(1.0103869 -0.01283482 8.3147612e-22)
(1.0129019 -0.011969408 -4.3944997e-22)
(1.0150957 -0.010914034 -4.2511039e-22)
(1.0169583 -0.0097070402 -5.2446782e-21)
(1.0184917 -0.00838459 -1.0112459e-21)
(1.0197113 -0.0070244199 2.1225407e-20)
(1.0206482 -0.005642006 5.4574255e-21)
(1.0213496 -0.0043056474 -7.1681843e-21)
(1.0218554 -0.0029799664 -5.2922765e-24)
(1.0221876 -0.0017766172 -2.5870624e-20)
(1.022011 -0.00050149196 -7.9319745e-21)
(0.99904067 -0.00089944612 -6.0596824e-22)
(0.99806604 -0.0012346499 3.8567694e-22)
(0.99739706 -0.0015484037 -1.4835934e-22)
(0.99629041 -0.0019810756 4.3997728e-22)
(0.9950085 -0.0024789102 0)
(0.9933198 -0.0031329218 0)
(0.9913696 -0.0039210518 3.2567165e-22)
(0.98920093 -0.0048813914 4.1818937e-21)
(0.98704768 -0.0060006419 -7.0553637e-21)
(0.98517918 -0.0072602091 9.8424865e-21)
(0.98391673 -0.0086089399 -8.0479548e-22)
(0.98353104 -0.0099751092 -1.0292738e-20)
(0.98417931 -0.011276942 3.7498069e-21)
(0.98585498 -0.012434676 -1.7265041e-21)
(0.98839416 -0.013390601 -1.1268671e-20)
(0.9915388 -0.014113961 5.1755812e-23)
(0.99502147 -0.014590194 2.3751155e-20)
(0.99861296 -0.014813681 -1.0844467e-21)
(1.0021414 -0.014784841 -2.1508807e-20)
(1.0054909 -0.014506479 1.5094162e-20)
(1.0085889 -0.013983622 -1.4709009e-20)
(1.0113908 -0.013226468 -4.7095492e-21)
(1.0138686 -0.012254278 1.8425261e-20)
(1.0160054 -0.01109811 2.1530264e-21)
(1.0177948 -0.0098022353 -8.2142713e-21)
(1.0192437 -0.0084078078 1.1184684e-20)
(1.0203736 -0.0069951887 5.8035758e-21)
(1.0212213 -0.0055811451 5.3024631e-21)
(1.0218408 -0.0042325146 -9.6759647e-21)
(1.0222748 -0.0029115014 4.2760227e-22)
(1.0225539 -0.0017270547 -1.1865948e-20)
(1.0223361 -0.00048254806 -8.102208e-22)
(0.99905461 -0.00079878335 1.4982694e-22)
(0.99813161 -0.001116772 -1.1395657e-22)
(0.99753728 -0.0014242988 4.7773755e-22)
(0.99656707 -0.0018305897 6.1875074e-22)
(0.9954663 -0.0022931371 0)
(0.99397695 -0.0028935539 0)
(0.992182 -0.0036224235 0)
(0.99007449 -0.0045191443 -1.0862836e-22)
(0.98782346 -0.0055835603 8.0826133e-21)
(0.98565384 -0.0068119734 8.1729539e-21)
(0.98388223 -0.0081699713 -9.7273461e-22)
(0.98283357 -0.0095979169 -1.5663106e-21)
(0.98276386 -0.011015732 2.1163427e-20)
(0.98378974 -0.012335619 -1.01817e-20)
(0.98584976 -0.013479302 -4.9994481e-22)
(0.98873059 -0.014395753 0)
(0.99214838 -0.015060483 6.1848262e-21)
(0.99583032 -0.015462649 -7.1010436e-21)
(0.99955388 -0.015600145 -4.3562737e-21)
(1.0031595 -0.015475663 3.5925459e-21)
(1.0065437 -0.015093509 -4.6064279e-21)
(1.0096436 -0.01446072 7.010479e-21)
(1.0124208 -0.013590896 -6.297207e-21)
(1.0148511 -0.012508293 -1.1579094e-20)
(1.016921 -0.011250024 8.2306802e-21)
(1.0186281 -0.0098663967 -1.0240265e-21)
(1.019985 -0.0084032823 4.1561122e-22)
(1.0210197 -0.0069428348 4.6775757e-22)
(1.0217747 -0.0055024723 -1.3130478e-20)
(1.0223105 -0.0041466751 -7.3537917e-21)
(1.0226722 -0.0028351217 3.1885796e-23)
(1.0228983 -0.001673278 3.1801101e-20)
(1.0226395 -0.00046287749 -1.0580899e-20)
(0.99904295 -0.00069756629 2.3287933e-22)
(0.99814929 -0.00099747129 -2.6129421e-22)
(0.99760901 -0.001290814 7.47845e-22)
(0.99671739 -0.0016864203 5.9611619e-22)
(0.99576232 -0.0021253993 -1.6951141e-22)
(0.99448505 -0.0026808451 4.0323073e-22)
(0.9928888 -0.003352853 3.479146e-21)
(0.99092617 -0.0041855527 -2.6025627e-21)
(0.98869984 -0.0051861309 -1.3536098e-21)
(0.9863739 -0.0063635603 -1.4194252e-20)
(0.98422622 -0.0077009654 6.4983375e-21)
(0.98259385 -0.0091556496 1.2606916e-20)
(0.98180529 -0.010656187 4.9756302e-22)
(0.98209203 -0.01211547 -1.0961391e-20)
(0.98352164 -0.01344105 -1.1430414e-20)
(0.98597419 -0.014558503 3.7019628e-22)
(0.98919012 -0.015424721 2.6749414e-21)
(0.99286679 -0.016020776 1.2971827e-21)
(0.99673063 -0.016339775 -2.3448771e-21)
(1.0005692 -0.016383049 3.6365091e-22)
(1.0042368 -0.016155187 1.0064785e-20)
(1.0076427 -0.015661948 -1.1149277e-20)
(1.0107329 -0.014912716 -3.7521372e-21)
(1.0134745 -0.013925102 1.3067874e-20)
(1.0158468 -0.012729044 -1.5138986e-20)
(1.0178398 -0.01136815 -6.5279561e-21)
(1.0194559 -0.0098987401 -7.3480361e-21)
(1.0207136 -0.0083709658 7.8073843e-22)
(1.021648 -0.0068678309 -6.7555841e-21)
(1.0223073 -0.0054067204 1.3704152e-21)
(1.0227583 -0.0040488699 -4.6043972e-21)
(1.0230476 -0.0027514387 -4.4673329e-22)
(1.0232209 -0.0016157241 -1.2304391e-20)
(1.0229218 -0.00044261543 1.8738973e-20)
(0.99901499 -0.00059491292 3.0221707e-23)
(0.99813246 -0.00087577058 3.40275e-22)
(0.99762186 -0.0011550507 -8.3983144e-22)
(0.9967858 -0.0015315234 -5.3220776e-22)
(0.99593068 -0.0019580942 6.8951391e-22)
(0.99481661 -0.0024872063 -3.8275293e-22)
(0.99343982 -0.0031119719 -3.5266592e-22)
(0.99168007 -0.0038816856 0)
(0.98957879 -0.0048158802 -3.3505146e-21)
(0.98723451 -0.0059299487 -1.5106697e-20)
(0.9848638 -0.0072227288 -2.6722977e-21)
(0.9827758 -0.0086699244 -4.1603257e-21)
(0.98133032 -0.010217286 0)
(0.98084927 -0.011782679 2.446762e-21)
(0.98153101 -0.01327162 1.8886679e-20)
(0.98338588 -0.014589728 -9.1509153e-22)
(0.98623358 -0.015668695 -2.093307e-20)
(0.98977432 -0.016473808 0)
(0.99369306 -0.016991108 1.0581043e-20)
(0.99772016 -0.017218002 1.7088884e-20)
(1.0016563 -0.017158906 -5.4574242e-21)
(1.0053709 -0.016819934 1.1565488e-20)
(1.0087857 -0.01620834 0)
(1.0118546 -0.015336303 -1.1825647e-20)
(1.0145496 -0.014226176 1.0328146e-20)
(1.0168531 -0.012914288 -8.6635906e-22)
(1.0187591 -0.011451093 -5.9396343e-21)
(1.0202754 -0.0098987276 8.3577872e-21)
(1.0214272 -0.008311011 -7.8805155e-23)
(1.022257 -0.006770792 -2.1562362e-20)
(1.0228183 -0.0052946737 2.7025827e-20)
(1.0231838 -0.0039398582 1.1969485e-20)
(1.0234008 -0.0026610232 0)
(1.0235218 -0.0015547882 4.6960645e-22)
(1.0231831 -0.00042187199 5.1910945e-21)
(0.99897864 -0.00049039523 -1.8946143e-22)
(0.99809303 -0.00075056327 4.0095694e-22)
(0.99759339 -0.0010155894 -1.0447471e-21)
(0.99678861 -0.00137288 1.0278712e-22)
(0.99600486 -0.001779508 6.4604646e-22)
(0.99499375 -0.0022946256 -8.3514899e-22)
(0.99379755 -0.0028926456 -1.5078039e-21)
(0.9922745 -0.0036086155 -4.0741871e-22)
(0.99037183 -0.0044753264 0)
(0.98812724 -0.0055210118 4.0552239e-21)
(0.98568636 -0.0067528884 -4.5228599e-21)
(0.98330126 -0.0081642754 -4.4894769e-22)
(0.98131726 -0.0097203669 -4.7532607e-21)
(0.98010898 -0.011354689 8.1264183e-21)
(0.97998354 -0.012975615 8.8264036e-21)
(0.98109577 -0.014481029 1.1517535e-20)
(0.98339201 -0.015777911 -4.2867413e-20)
(0.98663196 -0.016806187 -2.0890595e-20)
(0.99048367 -0.017539168 9.2416839e-21)
(0.99462545 -0.017967753 -2.7361561e-20)
(0.99879621 -0.018093805 1.3066451e-20)
(1.0028124 -0.017924263 -2.309269e-20)
(1.0065593 -0.017466437 0)
(1.0099702 -0.016729223 -2.7113977e-21)
(1.0130064 -0.0157282 2.2913902e-21)
(1.0156433 -0.014491304 7.6963175e-21)
(1.0178671 -0.013061952 -1.6747004e-21)
(1.019676 -0.011497676 -8.5652431e-22)
(1.0210842 -0.0098660352 6.833141e-21)
(1.022124 -0.0082237336 0)
(1.0228453 -0.0066524084 1.7010386e-20)
(1.0233067 -0.005167133 2.9164717e-20)
(1.0235865 -0.0038203578 -2.8707668e-20)
(1.0237319 -0.0025643944 6.9186493e-21)
(1.0238011 -0.0014908066 -9.8764201e-22)
(1.023424 -0.00040072558 -1.7865302e-20)
(0.99894076 -0.00038393066 3.6873997e-23)
(0.99804178 -0.00062134189 1.0234009e-22)
(0.99753837 -0.00087144708 1.4383413e-22)
(0.99674327 -0.0012090509 -9.9552895e-23)
(0.99599799 -0.0015971362 -4.5679575e-22)
(0.99506481 -0.0020875244 -7.7227988e-24)
(0.99398875 -0.0026696149 2.0584983e-22)
(0.99266159 -0.0033587714 -6.5225609e-22)
(0.99100429 -0.0041672926 -3.8107744e-22)
(0.98895049 -0.0051409891 -2.8388139e-21)
(0.98657583 -0.0063039294 2.4552649e-22)
(0.98406013 -0.0076588905 2.9115928e-21)
(0.98169809 -0.0091908278 1.3189902e-21)
(0.97986712 -0.010853667 4.0804437e-21)
(0.97894874 -0.012567635 -3.2094419e-20)
(0.97922636 -0.014232559 -3.3588449e-21)
(0.98080033 -0.015740108 1.4897026e-20)
(0.98354795 -0.017001698 1.7853225e-20)
(0.9871722 -0.017967123 -2.1408661e-20)
(0.99131759 -0.018616882 -7.1260576e-21)
(0.99566148 -0.018947057 2.0091039e-21)
(0.99995578 -0.018963744 -2.0605176e-20)
(1.0040347 -0.01867572 1.9835837e-20)
(1.0077995 -0.018091229 0)
(1.0111942 -0.017221115 -2.088333e-21)
(1.0141857 -0.016085136 1.2061752e-20)
(1.0167531 -0.014717752 -9.2639718e-21)
(1.018886 -0.013170133 1.5908554e-20)
(1.0205878 -0.011506935 -1.6925252e-22)
(1.0218798 -0.0098005313 -7.8270031e-21)
(1.0228019 -0.0081095726 -1.7703194e-20)
(1.0234116 -0.0065134001 1.2945293e-20)
(1.0237719 -0.0050248446 -5.1607145e-22)
(1.0239661 -0.0036910301 -2.7731346e-20)
(1.0240407 -0.0024619883 -8.0180248e-22)
(1.0240591 -0.0014240394 4.5958752e-22)
(1.0236447 -0.00037921558 -6.0535342e-21)
(0.99890704 -0.0002756888 1.221983e-22)
(0.99798824 -0.0004881541 -3.8275304e-23)
(0.99746998 -0.00072212922 -2.8594255e-23)
(0.99666659 -0.0010389724 -3.2286802e-22)
(0.99593253 -0.001408119 1.6285695e-22)
(0.99504161 -0.0018756438 -2.6476572e-22)
(0.99405732 -0.002430478 2.1085568e-22)
(0.99286084 -0.0031025672 -6.7425439e-22)
(0.99141635 -0.0038844375 0)
(0.98961552 -0.0047948275 4.8863824e-22)
(0.98741729 -0.0058820998 0)
(0.98492604 -0.0071690877 0)
(0.98236416 -0.0086515322 3.3673976e-21)
(0.98006823 -0.010304829 -7.4301487e-22)
(0.97844372 -0.012070267 -4.2879708e-21)
(0.97786973 -0.013855138 -1.0921332e-20)
(0.9785958 -0.015550473 2.1048809e-20)
(0.98065742 -0.017044881 1.8739666e-20)
(0.98385971 -0.018257091 1.7858283e-20)
(0.98785575 -0.019147477 7.9662975e-21)
(0.99227443 -0.019703054 -9.4208497e-21)
(0.99679813 -0.019925496 2.1625703e-20)
(1.0011956 -0.019824489 -8.5271757e-22)
(1.0053205 -0.019409923 -1.940401e-20)
(1.0090892 -0.018690825 -2.7785206e-21)
(1.0124552 -0.017680485 3.5129621e-21)
(1.0153901 -0.016403827 2.7618272e-21)
(1.0178761 -0.014902872 -8.6008654e-21)
(1.0199066 -0.013237095 -4.7028217e-22)
(1.0214915 -0.011478096 -1.9640435e-20)
(1.0226597 -0.0097022342 6.3744237e-22)