# Field minima and maxima
# Time         	field          	min            	location(min)  	max            	location(max)  
1              	p              	-1.14971978e+01	(1.03340804e+00 4.06193375e-02 1.36428330e-17)	1.27652131e+01	(-1.03340804e+00 -4.06193375e-02 -1.52065714e-17)
1              	U              	(9.14069322e-01 -1.20321654e-01 -5.92056421e-18)	(1.24707024e+00 8.33104659e-01 7.10492499e-18)	(1.11911085e+00 1.69401901e-02 1.73652247e-18)	(-4.92598134e-02 1.25259701e+00 1.02867451e-17)
2              	p              	-7.65718338e+00	(1.01443080e+00 -2.01798763e-01 -1.43873828e-17)	9.16548151e+00	(-1.03340804e+00 4.06193375e-02 1.52084025e-17)
2              	U              	(6.63135104e-01 -5.32639808e-01 -4.57831111e-18)	(1.24707024e+00 8.33104659e-01 7.10492499e-18)	(1.24633746e+00 1.25810110e-01 1.69295900e-18)	(-2.20093201e-01 1.85765077e+00 6.22353026e-17)
3              	p              	-2.45699318e+00	(-4.06193375e-02 -1.03340804e+00 0.00000000e+00)	2.04583879e+00	(1.17685237e+00 4.62739424e-02 3.30479863e-17)
3              	U              	(2.16893372e-01 -6.49020638e-01 -1.03974331e-18)	(1.28544554e+00 5.92566610e-01 -7.80069997e-18)	(1.52883029e+00 3.08207799e-01 1.19963442e-18)	(-1.38518882e-01 1.16988517e+00 -1.04771484e-17)
4              	p              	-5.73191970e+00	(-1.01443080e+00 -2.01798763e-01 2.64278296e-17)	6.28539295e+00	(1.03340804e+00 4.06193375e-02 1.36428330e-17)
4              	U              	(3.43033977e-01 -7.18829240e-01 -3.51767899e-18)	(-9.79733345e-01 -6.54574149e-01 0.00000000e+00)	(1.30919734e+00 4.23665519e-01 1.65678284e-18)	(4.61593829e-01 -1.25113667e+00 0.00000000e+00)
5              	p              	-3.16379961e+00	(-9.39341133e-01 4.33038181e-01 -7.82447817e-19)	3.26496517e+00	(1.03340804e+00 -4.06193375e-02 -1.36422226e-17)
5              	U              	(5.53457726e-01 -4.54403538e-01 -2.21047307e-18)	(-9.79733345e-01 -6.54574149e-01 0.00000000e+00)	(1.20461573e+00 3.26695909e-01 1.07266944e-18)	(-5.92566610e-01 1.28544554e+00 -2.49642909e-17)
6              	p              	-1.87889336e+00	(1.03340804e+00 4.06193375e-02 1.36428330e-17)	1.97604782e+00	(-1.03340804e+00 -4.06193375e-02 -1.52065714e-17)
6              	U              	(6.68662832e-01 -2.99562647e-01 -1.49549461e-18)	(-1.21108335e+00 -5.58291140e-01 0.00000000e+00)	(1.19695467e+00 2.23980212e-01 3.19645353e-19)	(-5.19338361e-01 1.40762809e+00 0.00000000e+00)
7              	p              	-3.68351915e+00	(1.03340804e+00 -4.06193375e-02 -1.36422226e-17)	3.99917016e+00	(-1.03340804e+00 -4.06193375e-02 -1.52065714e-17)
7              	U              	(6.55626279e-01 -3.72437421e-01 -2.71896670e-18)	(-1.30893657e+00 -7.32929611e-01 3.70563920e-17)	(1.22760574e+00 8.42668368e-02 5.03237451e-19)	(-7.35095719e-02 1.86775840e+00 -5.09057544e-17)
8              	p              	-1.86113519e+00	(7.59452236e-01 -7.02007805e-01 0.00000000e+00)	2.14797683e+00	(-1.03340804e+00 4.06193375e-02 1.52084025e-17)
8              	U              	(2.96003307e-01 -4.01813083e-01 -7.21328345e-19)	(1.21108335e+00 5.58291140e-01 -2.73230315e-17)	(1.26627093e+00 2.03699996e-01 8.12078122e-19)	(5.81454165e-01 -1.57596592e+00 1.25655094e-17)
9              	p              	-1.94261457e+00	(-1.21582612e-01 -1.02709282e+00 0.00000000e+00)	1.22855621e+00	(1.25259701e+00 4.92598134e-02 0.00000000e+00)
9              	U              	(7.11123724e-01 -5.08714897e-01 -7.65181497e-19)	(9.04248133e-01 9.78291593e-01 -3.60539132e-17)	(1.35446349e+00 2.27449734e-01 8.98193749e-19)	(-1.86683358e-01 1.57596711e+00 2.82577808e-17)
10             	p              	-1.99042649e+00	(-4.33038181e-01 -9.39341133e-01 -7.82515465e-19)	1.85898198e+00	(1.03340804e+00 -4.06193375e-02 -1.36422226e-17)
10             	U              	(3.61561594e-01 -3.83143282e-01 -1.21562511e-18)	(-1.25113667e+00 -4.61593829e-01 0.00000000e+00)	(1.34110499e+00 1.81600057e-01 7.03490025e-19)	(-1.86683358e-01 1.57596711e+00 2.82577808e-17)
11             	p              	-8.15183183e-01	(-3.58010297e-01 9.70418664e-01 -5.51390094e-17)	5.27859537e-01	(1.03340804e+00 -4.06193375e-02 -1.36422226e-17)
11             	U              	(4.48696191e-01 -3.47542827e-01 -3.68364226e-19)	(-1.25113667e+00 -4.61593829e-01 0.00000000e+00)	(1.16217009e+00 1.78175308e-01 4.21894251e-19)	(3.84241246e-01 -1.36212021e+00 -1.56080166e-17)
12             	p              	-9.44990409e-01	(1.10382176e+00 4.33950814e-02 0.00000000e+00)	1.28874240e+00	(-1.03340804e+00 -4.06193375e-02 -1.52065714e-17)
12             	U              	(5.04539491e-01 -3.26965728e-01 -7.85551922e-19)	(-1.32795509e+00 -4.89939434e-01 -1.71635020e-17)	(1.24841538e+00 1.49907577e-01 1.71762840e-19)	(-2.20093201e-01 1.85765077e+00 6.22353026e-17)
13             	p              	-1.18793294e+00	(1.03340804e+00 -4.06193375e-02 -1.36422226e-17)	1.50309425e+00	(-1.03340804e+00 4.06193375e-02 1.52084025e-17)
13             	U              	(5.23276155e-01 -3.36940695e-01 -8.81239665e-19)	(1.24707024e+00 8.33104659e-01 7.10492499e-18)	(1.25093130e+00 1.28014191e-01 3.87505997e-19)	(-7.75075104e-02 1.96917663e+00 0.00000000e+00)
14             	p              	-1.07117794e+00	(2.80771032e-01 -9.95500327e-01 1.43772216e-17)	7.71946393e-01	(-1.03340804e+00 4.06193375e-02 1.52084025e-17)
14             	U              	(5.80297154e-01 -3.76179196e-01 -3.28021987e-19)	(1.17737085e+00 9.27995477e-01 0.00000000e+00)	(1.26591875e+00 1.44252431e-01 6.59884808e-19)	(-7.75075104e-02 1.96917663e+00 0.00000000e+00)
15             	p              	-1.29184878e+00	(-4.06193375e-02 -1.03340804e+00 0.00000000e+00)	4.01821919e-01	(1.41263523e+00 -5.55685462e-02 0.00000000e+00)
15             	U              	(2.35725983e-01 -3.09182487e-01 -5.35478470e-19)	(-1.20740244e+00 -3.40575620e-01 0.00000000e+00)	(1.27490048e+00 1.40908456e-01 6.79560735e-19)	(-7.75075104e-02 1.96917663e+00 0.00000000e+00)
16             	p              	-1.07384380e+00	(-1.21582612e-01 1.02709282e+00 0.00000000e+00)	4.29565218e-01	(1.03340804e+00 -4.06193375e-02 -1.36422226e-17)
16             	U              	(2.67597135e-01 -3.03204276e-01 -4.91540744e-19)	(-1.20740244e+00 -3.40575620e-01 0.00000000e+00)	(1.27386461e+00 1.33124758e-01 4.78882846e-19)	(-7.75075104e-02 1.96917663e+00 0.00000000e+00)
17             	p              	-6.34274393e-01	(-4.06193375e-02 1.03340804e+00 0.00000000e+00)	5.17816401e-01	(-1.03340804e+00 -4.06193375e-02 -1.52065714e-17)
17             	U              	(4.68057084e-01 -3.50205195e-01 -4.08799398e-19)	(-1.32795509e+00 -4.89939434e-01 -1.71635020e-17)	(1.25854211e+00 8.65450739e-02 3.82173355e-19)	(8.16539606e-02 2.07436327e+00 2.63392950e-17)
18             	p              	-4.93256634e-01	(2.01798763e-01 1.01443080e+00 4.23815268e-17)	8.48869985e-01	(-1.03340804e+00 -4.06193375e-02 -1.52065714e-17)
18             	U              	(4.59276727e-01 -3.52542951e-01 -5.52602454e-19)	(-1.32795509e+00 -4.89939434e-01 -1.71635020e-17)	(1.26443624e+00 1.51643090e-01 3.08175031e-19)	(-7.75075104e-02 1.96917663e+00 0.00000000e+00)
19             	p              	-6.88016785e-01	(2.80771032e-01 -9.95500327e-01 1.43772216e-17)	8.11067513e-01	(-1.03340804e+00 4.06193375e-02 1.52084025e-17)
19             	U              	(4.40519745e-01 -3.58738184e-01 -5.22881378e-19)	(-1.32795509e+00 -4.89939434e-01 -1.71635020e-17)	(1.26677501e+00 1.67138415e-01 4.53445749e-19)	(-7.75075104e-02 1.96917663e+00 0.00000000e+00)
20             	p              	-8.91007602e-01	(1.21582612e-01 -1.02709282e+00 -2.72429965e-17)	5.68808317e-01	(-1.03340804e+00 4.06193375e-02 1.52084025e-17)
20             	U              	(4.33032275e-01 -3.62326809e-01 -4.08925697e-19)	(-1.32795509e+00 -4.89939434e-01 -1.71635020e-17)	(1.27255719e+00 1.74265225e-01 5.62212488e-19)	(-7.75075104e-02 1.96917663e+00 0.00000000e+00)
21             	p              	-9.33335159e-01	(-4.06193375e-02 -1.03340804e+00 0.00000000e+00)	4.17161879e-01	(-1.03340804e+00 4.06193375e-02 1.52084025e-17)
21             	U              	(4.40495520e-01 -3.61545979e-01 -3.46875150e-19)	(-1.32795509e+00 -4.89939434e-01 -1.71635020e-17)	(1.27713750e+00 1.74609499e-01 5.37580346e-19)	(-7.75075104e-02 1.96917663e+00 0.00000000e+00)
22             	p              	-8.04664543e-01	(-4.06193375e-02 1.03340804e+00 0.00000000e+00)	4.66203383e-01	(-1.03340804e+00 4.06193375e-02 1.52084025e-17)
22             	U              	(4.51362317e-01 -3.59220052e-01 -3.76853214e-19)	(-1.32795509e+00 -4.89939434e-01 -1.71635020e-17)	(1.27317433e+00 1.24602033e-01 5.15830419e-19)	(8.16539606e-02 2.07436327e+00 2.63392950e-17)
23             	p              	-6.55230750e-01	(-4.06193375e-02 1.03340804e+00 0.00000000e+00)	6.04202752e-01	(-1.03340804e+00 -4.06193375e-02 -1.52065714e-17)
23             	U              	(4.54668101e-01 -3.58471024e-01 -4.39139118e-19)	(-1.32795509e+00 -4.89939434e-01 -1.71635020e-17)	(1.27202908e+00 1.31609675e-01 4.29791717e-19)	(8.16539606e-02 2.07436327e+00 2.63392950e-17)
24             	p              	-6.31414738e-01	(4.06193375e-02 1.03340804e+00 0.00000000e+00)	6.76529020e-01	(-1.03340804e+00 -4.06193375e-02 -1.52065714e-17)
24             	U              	(4.50075397e-01 -3.59729771e-01 -4.64477764e-19)	(-1.32795509e+00 -4.89939434e-01 -1.71635020e-17)	(1.27172245e+00 1.41124168e-01 4.40631411e-19)	(8.16539606e-02 2.07436327e+00 2.63392950e-17)
25             	p              	-7.09146072e-01	(1.21582612e-01 -1.02709282e+00 -2.72429965e-17)	6.41765354e-01	(-1.03340804e+00 -4.06193375e-02 -1.52065714e-17)
25             	U              	(4.44679910e-01 -3.61327291e-01 -4.41894273e-19)	(-1.32795509e+00 -4.89939434e-01 -1.71635020e-17)	(1.27349674e+00 1.48803167e-01 5.07564709e-19)	(8.16539606e-02 2.07436327e+00 2.63392950e-17)
26             	p              	-7.77138206e-01	(4.06193375e-02 -1.03340804e+00 0.00000000e+00)	5.70320174e-01	(-1.03340804e+00 4.06193375e-02 1.52084025e-17)
26             	U              	(4.43944342e-01 -3.61813401e-01 -4.08820717e-19)	(-1.32795509e+00 -4.89939434e-01 -1.71635020e-17)	(1.27632599e+00 1.52994712e-01 5.47148563e-19)	(8.16539606e-02 2.07436327e+00 2.63392950e-17)
27             	p              	-7.70704160e-01	(4.06193375e-02 -1.03340804e+00 0.00000000e+00)	5.41534067e-01	(-1.03340804e+00 4.06193375e-02 1.52084025e-17)
27             	U              	(4.47146776e-01 -3.61231936e-01 -3.99623177e-19)	(-1.32795509e+00 -4.89939434e-01 -1.71635020e-17)	(1.27834498e+00 1.55597566e-01 5.24626181e-19)	(8.16539606e-02 2.07436327e+00 2.63392950e-17)
28             	p              	-7.12017244e-01	(-4.06193375e-02 -1.03340804e+00 0.00000000e+00)	5.68351580e-01	(-1.03340804e+00 4.06193375e-02 1.52084025e-17)
28             	U              	(2.39331562e-01 -3.54442299e-01 -3.64626056e-19)	(-9.64179915e-01 -5.39939829e-01 1.23452373e-17)	(1.27866254e+00 1.59266747e-01 4.73580829e-19)	(8.16539606e-02 2.07436327e+00 2.63392950e-17)
29             	p              	-6.65380876e-01	(4.06193375e-02 1.03340804e+00 0.00000000e+00)	6.08559847e-01	(-1.03340804e+00 -4.06193375e-02 -1.52065714e-17)
29             	U              	(2.39102508e-01 -3.54258063e-01 -3.58740439e-19)	(-9.64179915e-01 -5.39939829e-01 1.23452373e-17)	(1.27789284e+00 1.64672317e-01 4.45158068e-19)	(8.16539606e-02 2.07436327e+00 2.63392950e-17)
30             	p              	-6.64525684e-01	(4.06193375e-02 1.03340804e+00 0.00000000e+00)	6.22265265e-01	(-1.03340804e+00 -4.06193375e-02 -1.52065714e-17)
30             	U              	(2.38099375e-01 -3.54291666e-01 -3.59347611e-19)	(-9.64179915e-01 -5.39939829e-01 1.23452373e-17)	(1.27724916e+00 1.70419234e-01 4.54912941e-19)	(8.16539606e-02 2.07436327e+00 2.63392950e-17)
31             	p              	-6.90292003e-01	(4.06193375e-02 1.03340804e+00 0.00000000e+00)	6.07291913e-01	(-1.03340804e+00 -4.06193375e-02 -1.52065714e-17)
31             	U              	(2.37428031e-01 -3.54367937e-01 -3.63406897e-19)	(-9.64179915e-01 -5.39939829e-01 1.23452373e-17)	(1.27734025e+00 1.74954942e-01 4.78253176e-19)	(8.16539606e-02 2.07436327e+00 2.63392950e-17)
32             	p              	-7.05144606e-01	(4.06193375e-02 -1.03340804e+00 0.00000000e+00)	5.88071950e-01	(-1.03340804e+00 4.06193375e-02 1.52084025e-17)
32             	U              	(2.37505281e-01 -3.54292061e-01 -3.65528986e-19)	(-9.64179915e-01 -5.39939829e-01 1.23452373e-17)	(1.29101032e+00 1.00163952e-01 2.98697111e-19)	(4.05887251e-01 2.03909204e+00 -2.62657909e-17)
33             	p              	-6.93517278e-01	(4.06193375e-02 -1.03340804e+00 0.00000000e+00)	5.84302055e-01	(-1.03340804e+00 4.06193375e-02 1.52084025e-17)
33             	U              	(2.37880905e-01 -3.54037948e-01 -3.63723230e-19)	(-9.64179915e-01 -5.39939829e-01 1.23452373e-17)	(1.29164165e+00 1.04074094e-01 2.86041570e-19)	(4.05887251e-01 2.03909204e+00 -2.62657909e-17)
34             	p              	-6.69218231e-01	(4.06193375e-02 -1.03340804e+00 0.00000000e+00)	5.94799430e-01	(-1.03340804e+00 4.06193375e-02 1.52084025e-17)
34             	U              	(2.37935515e-01 -3.53709120e-01 -3.60219409e-19)	(-9.64179915e-01 -5.39939829e-01 1.23452373e-17)	(1.29147986e+00 1.08673712e-01 2.71580397e-19)	(4.05887251e-01 2.03909204e+00 -2.62657909e-17)
35             	p              	-6.53396932e-01	(4.06193375e-02 1.03340804e+00 0.00000000e+00)	6.05844377e-01	(-1.03340804e+00 -4.06193375e-02 -1.52065714e-17)
35             	U              	(2.37518882e-01 -3.53396676e-01 -3.58110550e-19)	(-9.64179915e-01 -5.39939829e-01 1.23452373e-17)	(1.29095619e+00 1.13761914e-01 2.66104932e-19)	(4.05887251e-01 2.03909204e+00 -2.62657909e-17)
36             	p              	-6.52755118e-01	(4.06193375e-02 1.03340804e+00 0.00000000e+00)	6.07927533e-01	(-1.03340804e+00 -4.06193375e-02 -1.52065714e-17)
36             	U              	(2.36946626e-01 -3.53104074e-01 -3.58227778e-19)	(-9.64179915e-01 -5.39939829e-01 1.23452373e-17)	(1.29052469e+00 1.18553855e-01 2.69041180e-19)	(4.05887251e-01 2.03909204e+00 -2.62657909e-17)
37             	p              	-6.58024657e-01	(4.06193375e-02 1.03340804e+00 0.00000000e+00)	6.02854180e-01	(-1.03340804e+00 -4.06193375e-02 -1.52065714e-17)
37             	U              	(2.36561116e-01 -3.52781833e-01 -3.59076410e-19)	(-9.64179915e-01 -5.39939829e-01 1.23452373e-17)	(1.29025128e+00 1.22614318e-01 2.72325743e-19)	(4.05887251e-01 2.03909204e+00 -2.62657909e-17)
38             	p              	-6.57608944e-01	(4.06193375e-02 -1.03340804e+00 0.00000000e+00)	5.98178145e-01	(-1.03340804e+00 4.06193375e-02 1.52084025e-17)
38             	U              	(2.36405596e-01 -3.52397952e-01 -3.58940472e-19)	(-9.64179915e-01 -5.39939829e-01 1.23452373e-17)	(1.28989073e+00 1.26103233e-01 2.69922139e-19)	(4.05887251e-01 2.03909204e+00 -2.62657909e-17)
39             	p              	-6.48955450e-01	(4.06193375e-02 -1.03340804e+00 0.00000000e+00)	5.98414933e-01	(-1.03340804e+00 4.06193375e-02 1.52084025e-17)
39             	U              	(2.36279958e-01 -3.51965234e-01 -3.57533979e-19)	(-9.64179915e-01 -5.39939829e-01 1.23452373e-17)	(1.28920710e+00 1.29501455e-01 2.62817373e-19)	(4.05887251e-01 2.03909204e+00 -2.62657909e-17)
40             	p              	-6.37957089e-01	(4.06193375e-02 1.03340804e+00 0.00000000e+00)	6.02058878e-01	(-1.03340804e+00 -4.06193375e-02 -1.52065714e-17)
40             	U              	(2.36005127e-01 -3.51516268e-01 -3.55819401e-19)	(-9.64179915e-01 -5.39939829e-01 1.23452373e-17)	(1.28816255e+00 1.33089880e-01 2.56042679e-19)	(4.05887251e-01 2.03909204e+00 -2.62657909e-17)
41             	p              	-6.30816243e-01	(4.06193375e-02 1.03340804e+00 0.00000000e+00)	6.05047651e-01	(-1.03340804e+00 -4.06193375e-02 -1.52065714e-17)
41             	U              	(2.35584226e-01 -3.51068829e-01 -3.54737515e-19)	(-9.64179915e-01 -5.39939829e-01 1.23452373e-17)	(1.28693260e+00 1.36731302e-01 2.52871775e-19)	(4.05887251e-01 2.03909204e+00 -2.62657909e-17)
42             	p              	-6.28286613e-01	(4.06193375e-02 1.03340804e+00 0.00000000e+00)	6.05300229e-01	(-1.03340804e+00 -4.06193375e-02 -1.52065714e-17)
42             	U              	(2.35144109e-01 -3.50617568e-01 -3.54358578e-19)	(-9.64179915e-01 -5.39939829e-01 1.23452373e-17)	(1.28570189e+00 1.40138154e-01 2.52381414e-19)	(4.05887251e-01 2.03909204e+00 -2.62657909e-17)
43             	p              	-6.26771717e-01	(4.06193375e-02 1.03340804e+00 0.00000000e+00)	6.03887341e-01	(-1.03340804e+00 -4.06193375e-02 -1.52065714e-17)
43             	U              	(2.34781355e-01 -3.50150244e-01 -3.54096614e-19)	(-9.64179915e-01 -5.39939829e-01 1.23452373e-17)	(1.28451786e+00 1.43184809e-01 2.51563733e-19)	(4.05887251e-01 2.03909204e+00 -2.62657909e-17)
44             	p              	-6.23037188e-01	(4.06193375e-02 1.03340804e+00 0.00000000e+00)	6.02967491e-01	(-1.03340804e+00 -4.06193375e-02 -1.52065714e-17)
44             	U              	(2.34485071e-01 -3.49664444e-01 -3.53452609e-19)	(-9.64179915e-01 -5.39939829e-01 1.23452373e-17)	(1.28328686e+00 1.45987975e-01 2.48697069e-19)	(4.05887251e-01 2.03909204e+00 -2.62657909e-17)
45             	p              	-6.17030508e-01	(4.06193375e-02 1.03340804e+00 0.00000000e+00)	6.03481137e-01	(-1.03340804e+00 -4.06193375e-02 -1.52065714e-17)
45             	U              	(2.34182703e-01 -3.49168894e-01 -3.52439635e-19)	(-9.64179915e-01 -5.39939829e-01 1.23452373e-17)	(1.28191505e+00 1.48728624e-01 2.44500823e-19)	(4.05887251e-01 2.03909204e+00 -2.62657909e-17)
46             	p              	-6.10881194e-01	(4.06193375e-02 1.03340804e+00 0.00000000e+00)	6.04740608e-01	(-1.03340804e+00 -4.06193375e-02 -1.52065714e-17)
46             	U              	(2.33827268e-01 -3.48673527e-01 -3.51407495e-19)	(-9.64179915e-01 -5.39939829e-01 1.23452373e-17)	(1.28039764e+00 1.51477755e-01 2.40721719e-19)	(4.05887251e-01 2.03909204e+00 -2.62657909e-17)
47             	p              	-6.06242148e-01	(4.06193375e-02 1.03340804e+00 0.00000000e+00)	6.05620256e-01	(-1.03340804e+00 -4.06193375e-02 -1.52065714e-17)
47             	U              	(2.33433008e-01 -3.48181572e-01 -3.50619474e-19)	(-9.64179915e-01 -5.39939829e-01 1.23452373e-17)	(1.27880517e+00 1.54173144e-01 2.38245769e-19)	(4.05887251e-01 2.03909204e+00 -2.62657909e-17)
48             	p              	-6.02951194e-01	(4.06193375e-02 1.03340804e+00 0.00000000e+00)	6.05714689e-01	(-1.03340804e+00 -4.06193375e-02 -1.52065714e-17)
48             	U              	(2.33043774e-01 -3.47690418e-01 -3.50044927e-19)	(-9.64179915e-01 -5.39939829e-01 1.23452373e-17)	(1.27720742e+00 1.56721927e-01 2.36586595e-19)	(4.05887251e-01 2.03909204e+00 -2.62657909e-17)
49             	p              	-5.99786925e-01	(4.06193375e-02 1.03340804e+00 0.00000000e+00)	6.05444077e-01	(-1.03340804e+00 -4.06193375e-02 -1.52065714e-17)
49             	U              	(2.32684784e-01 -3.47197494e-01 -3.49483785e-19)	(-9.64179915e-01 -5.39939829e-01 1.23452373e-17)	(1.27562002e+00 1.59098355e-01 2.34761430e-19)	(4.05887251e-01 2.03909204e+00 -2.62657909e-17)
50             	p              	-5.95924903e-01	(4.06193375e-02 1.03340804e+00 0.00000000e+00)	6.05389403e-01	(-1.03340804e+00 -4.06193375e-02 -1.52065714e-17)
50             	U              	(4.39574048e-01 -3.55727778e-01 -4.10411953e-19)	(-1.32795509e+00 -4.89939434e-01 -1.71635020e-17)	(1.27401439e+00 1.61350005e-01 2.32327331e-19)	(4.05887251e-01 2.03909204e+00 -2.62657909e-17)
51             	p              	-5.91581976e-01	(-4.06193375e-02 1.03340804e+00 0.00000000e+00)	6.05718985e-01	(-1.03340804e+00 -4.06193375e-02 -1.52065714e-17)
51             	U              	(4.39105984e-01 -3.55447222e-01 -4.09964296e-19)	(-1.32795509e+00 -4.89939434e-01 -1.71635020e-17)	(1.27236247e+00 1.63536151e-01 2.29600091e-19)	(4.05887251e-01 2.03909204e+00 -2.62657909e-17)
52             	p              	-5.87449368e-01	(-4.06193375e-02 1.03340804e+00 0.00000000e+00)	6.06185433e-01	(-1.03340804e+00 -4.06193375e-02 -1.52065714e-17)
52             	U              	(4.38620493e-01 -3.55175423e-01 -4.09552255e-19)	(-1.32795509e+00 -4.89939434e-01 -1.71635020e-17)	(1.27066683e+00 1.65675231e-01 2.27126579e-19)	(4.05887251e-01 2.03909204e+00 -2.62657909e-17)
53             	p              	-5.83856233e-01	(-4.06193375e-02 1.03340804e+00 0.00000000e+00)	6.06494052e-01	(-1.03340804e+00 -4.06193375e-02 -1.52065714e-17)
53             	U              	(4.38120725e-01 -3.54910610e-01 -4.09032935e-19)	(-1.32795509e+00 -4.89939434e-01 -1.71635020e-17)	(1.26895413e+00 1.67745375e-01 2.25124362e-19)	(4.05887251e-01 2.03909204e+00 -2.62657909e-17)
54             	p              	-5.80685862e-01	(-4.06193375e-02 1.03340804e+00 0.00000000e+00)	6.06579262e-01	(-1.03340804e+00 -4.06193375e-02 -1.52065714e-17)
54             	U              	(2.30941942e-01 -3.44778949e-01 -3.46019796e-19)	(-9.64179915e-01 -5.39939829e-01 1.23452373e-17)	(1.26724906e+00 1.69720109e-01 2.23397108e-19)	(4.05887251e-01 2.03909204e+00 -2.62657909e-17)
55             	p              	-5.77581862e-01	(-4.06193375e-02 1.03340804e+00 0.00000000e+00)	6.06579480e-01	(-1.03340804e+00 -4.06193375e-02 -1.52065714e-17)
55             	U              	(2.30603914e-01 -3.44311886e-01 -3.45432307e-19)	(-9.64179915e-01 -5.39939829e-01 1.23452373e-17)	(1.26555759e+00 1.71596583e-01 2.21643031e-19)	(4.05887251e-01 2.03909204e+00 -2.62657909e-17)
56             	p              	-5.74345568e-01	(-4.06193375e-02 1.03340804e+00 0.00000000e+00)	6.06643153e-01	(-1.03340804e+00 -4.06193375e-02 -1.52065714e-17)
56             	U              	(2.30275696e-01 -3.43850849e-01 -3.44817089e-19)	(-9.64179915e-01 -5.39939829e-01 1.23452373e-17)	(1.26387138e+00 1.73393332e-01 2.19751531e-19)	(4.05887251e-01 2.03909204e+00 -2.62657909e-17)
57             	p              	-5.71059066e-01	(-4.06193375e-02 1.03340804e+00 0.00000000e+00)	6.06793732e-01	(-1.03340804e+00 -4.06193375e-02 -1.52065714e-17)
57             	U              	(2.29950432e-01 -3.43397128e-01 -3.44188579e-19)	(-9.64179915e-01 -5.39939829e-01 1.23452373e-17)	(1.26218260e+00 1.75130343e-01 2.17836095e-19)	(4.05887251e-01 2.03909204e+00 -2.62657909e-17)
58             	p              	-5.67915491e-01	(-4.06193375e-02 1.03340804e+00 0.00000000e+00)	6.06953497e-01	(-1.03340804e+00 -4.06193375e-02 -1.52065714e-17)
58             	U              	(2.29625682e-01 -3.42951508e-01 -3.43580413e-19)	(-9.64179915e-01 -5.39939829e-01 1.23452373e-17)	(1.26049345e+00 1.76813055e-01 2.16036659e-19)	(4.05887251e-01 2.03909204e+00 -2.62657909e-17)
59             	p              	-5.65004709e-01	(-4.06193375e-02 1.03340804e+00 0.00000000e+00)	6.07050060e-01	(-1.03340804e+00 -4.06193375e-02 -1.52065714e-17)
59             	U              	(2.29304272e-01 -3.42514004e-01 -3.43009048e-19)	(-9.64179915e-01 -5.39939829e-01 1.23452373e-17)	(1.25882053e+00 1.78422624e-01 2.14371141e-19)	(4.05887251e-01 2.03909204e+00 -2.62657909e-17)
60             	p              	-5.62266885e-01	(-4.06193375e-02 1.03340804e+00 0.00000000e+00)	6.07078781e-01	(-1.03340804e+00 -4.06193375e-02 -1.52065714e-17)
60             	U              	(2.28990154e-01 -3.42084326e-01 -3.42465116e-19)	(-9.64179915e-01 -5.39939829e-01 1.23452373e-17)	(1.25717185e+00 1.79962217e-01 2.12783967e-19)	(4.05887251e-01 2.03909204e+00 -2.62657909e-17)
61             	p              	-5.59597725e-01	(-4.06193375e-02 1.03340804e+00 0.00000000e+00)	6.07081365e-01	(-1.03340804e+00 -4.06193375e-02 -1.52065714e-17)
61             	U              	(2.28684658e-01 -3.41662419e-01 -3.41930558e-19)	(-9.64179915e-01 -5.39939829e-01 1.23452373e-17)	(1.25554857e+00 1.81437033e-01 2.11212933e-19)	(4.05887251e-01 2.03909204e+00 -2.62657909e-17)
62             	p              	-5.56953125e-01	(-4.06193375e-02 1.03340804e+00 0.00000000e+00)	6.07093529e-01	(-1.03340804e+00 -4.06193375e-02 -1.52065714e-17)
62             	U              	(2.28386329e-01 -3.41248574e-01 -3.41397237e-19)	(-9.64179915e-01 -5.39939829e-01 1.23452373e-17)	(1.25394712e+00 1.82855109e-01 2.09650535e-19)	(4.05887251e-01 2.03909204e+00 -2.62657909e-17)
63             	p              	-5.54363553e-01	(-4.06193375e-02 1.03340804e+00 0.00000000e+00)	6.07117365e-01	(-1.03340804e+00 -4.06193375e-02 -1.52065714e-17)
63             	U              	(2.28093236e-01 -3.40843138e-01 -3.40870346e-19)	(-9.64179915e-01 -5.39939829e-01 1.23452373e-17)	(1.25236444e+00 1.84222857e-01 2.08138501e-19)	(4.05887251e-01 2.03909204e+00 -2.62657909e-17)
64             	p              	-5.51878886e-01	(-4.06193375e-02 1.03340804e+00 0.00000000e+00)	6.07132476e-01	(-1.03340804e+00 -4.06193375e-02 -1.52065714e-17)
64             	U              	(2.27804869e-01 -3.40446241e-01 -3.40359039e-19)	(-9.64179915e-01 -5.39939829e-01 1.23452373e-17)	(1.25080097e+00 1.85542289e-01 2.06718405e-19)	(4.05887251e-01 2.03909204e+00 -2.62657909e-17)
65             	p              	-5.49517174e-01	(-4.06193375e-02 1.03340804e+00 0.00000000e+00)	6.07121748e-01	(-1.03340804e+00 -4.06193375e-02 -1.52065714e-17)
65             	U              	(2.27522115e-01 -3.40057784e-01 -3.39866990e-19)	(-9.64179915e-01 -5.39939829e-01 1.23452373e-17)	(1.24925960e+00 1.86812481e-01 2.05397912e-19)	(4.05887251e-01 2.03909204e+00 -2.62657909e-17)
66             	p              	-5.47256377e-01	(-4.06193375e-02 1.03340804e+00 0.00000000e+00)	6.07086095e-01	(-1.03340804e+00 -4.06193375e-02 -1.52065714e-17)
66             	U              	(2.27246004e-01 -3.39677625e-01 -3.39390798e-19)	(-9.64179915e-01 -5.39939829e-01 1.23452373e-17)	(1.24774292e+00 1.88032859e-01 2.04154676e-19)	(4.05887251e-01 2.03909204e+00 -2.62657909e-17)
67             	p              	-5.45065190e-01	(-4.06193375e-02 1.03340804e+00 0.00000000e+00)	6.07037664e-01	(-1.03340804e+00 -4.06193375e-02 -1.52065714e-17)
67             	U              	(2.26976745e-01 -3.39305703e-01 -3.38925229e-19)	(-9.64179915e-01 -5.39939829e-01 1.23452373e-17)	(1.24625159e+00 1.89205034e-01 2.02963885e-19)	(4.05887251e-01 2.03909204e+00 -2.62657909e-17)
68             	p              	-5.42930837e-01	(-4.06193375e-02 -1.03340804e+00 0.00000000e+00)	6.06986461e-01	(-1.03340804e+00 -4.06193375e-02 -1.52065714e-17)
68             	U              	(2.26713805e-01 -3.38942037e-01 -3.38468222e-19)	(-9.64179915e-01 -5.39939829e-01 1.23452373e-17)	(1.24478486e+00 1.90332075e-01 2.01818314e-19)	(4.05887251e-01 2.03909204e+00 -2.62657909e-17)
69             	p              	-5.40860976e-01	(-4.06193375e-02 -1.03340804e+00 0.00000000e+00)	6.06933965e-01	(-1.03340804e+00 -4.06193375e-02 -1.52065714e-17)
69             	U              	(2.26456606e-01 -3.38586631e-01 -3.38021386e-19)	(-9.64179915e-01 -5.39939829e-01 1.23452373e-17)	(1.24334217e+00 1.91416777e-01 2.00725067e-19)	(4.05887251e-01 2.03909204e+00 -2.62657909e-17)
70             	p              	-5.38866371e-01	(-4.06193375e-02 -1.03340804e+00 0.00000000e+00)	6.06876661e-01	(-1.03340804e+00 -4.06193375e-02 -1.52065714e-17)
70             	U              	(2.26205002e-01 -3.38239421e-01 -3.37587091e-19)	(-9.64179915e-01 -5.39939829e-01 1.23452373e-17)	(1.24192371e+00 1.92461955e-01 1.99694710e-19)	(4.05887251e-01 2.03909204e+00 -2.62657909e-17)
71             	p              	-5.36948243e-01	(-4.06193375e-02 1.03340804e+00 0.00000000e+00)	6.06811299e-01	(-1.03340804e+00 -4.06193375e-02 -1.52065714e-17)
71             	U              	(2.25959204e-01 -3.37900283e-01 -3.37165927e-19)	(-9.64179915e-01 -5.39939829e-01 1.23452373e-17)	(1.24053102e+00 1.93466957e-01 1.98725303e-19)	(4.05887251e-01 2.03909204e+00 -2.62657909e-17)
72             	p              	-5.35100143e-01	(-4.06193375e-02 1.03340804e+00 0.00000000e+00)	6.06736492e-01	(-1.03340804e+00 -4.06193375e-02 -1.52065714e-17)
72             	U              	(2.25719405e-01 -3.37569081e-01 -3.36756693e-19)	(-9.64179915e-01 -5.39939829e-01 1.23452373e-17)	(1.23916510e+00 1.94432345e-01 1.97807395e-19)	(4.05887251e-01 2.03909204e+00 -2.62657909e-17)
73             	p              	-5.33315379e-01	(-4.06193375e-02 1.03340804e+00 0.00000000e+00)	6.06652712e-01	(-1.03340804e+00 -4.06193375e-02 -1.52065714e-17)
73             	U              	(2.25485559e-01 -3.37245718e-01 -3.36357796e-19)	(-9.64179915e-01 -5.39939829e-01 1.23452373e-17)	(1.23782616e+00 1.95359586e-01 1.96932236e-19)	(4.05887251e-01 2.03909204e+00 -2.62657909e-17)
74             	p              	-5.31590965e-01	(-4.06193375e-02 -1.03340804e+00 0.00000000e+00)	6.06561852e-01	(-1.03340804e+00 -4.06193375e-02 -1.52065714e-17)
74             	U              	(2.25257439e-01 -3.36930111e-01 -3.35968652e-19)	(-9.64179915e-01 -5.39939829e-01 1.23452373e-17)	(1.23651393e+00 1.96250519e-01 1.96096587e-19)	(4.05887251e-01 2.03909204e+00 -2.62657909e-17)
75             	p              	-5.29924493e-01	(-4.06193375e-02 -1.03340804e+00 0.00000000e+00)	6.06467866e-01	(-1.03340804e+00 -4.06193375e-02 -1.52065714e-17)
75             	U              	(2.25034827e-01 -3.36622167e-01 -3.35589590e-19)	(-9.64179915e-01 -5.39939829e-01 1.23452373e-17)	(1.23522821e+00 1.97106782e-01 1.95300770e-19)	(4.05887251e-01 2.03909204e+00 -2.62657909e-17)
76             	p              	-5.28312195e-01	(-4.06193375e-02 1.03340804e+00 0.00000000e+00)	6.06374924e-01	(-1.03340804e+00 -4.06193375e-02 -1.52065714e-17)
76             	U              	(2.24817627e-01 -3.36321767e-01 -3.35221002e-19)	(-9.64179915e-01 -5.39939829e-01 1.23452373e-17)	(1.23396911e+00 1.97929645e-01 1.94544011e-19)	(4.05887251e-01 2.03909204e+00 -2.62657909e-17)
77             	p              	-5.26750931e-01	(-4.06193375e-02 1.03340804e+00 0.00000000e+00)	6.06284082e-01	(-1.03340804e+00 -4.06193375e-02 -1.52065714e-17)
77             	U              	(2.24605828e-01 -3.36028774e-01 -3.34862785e-19)	(-9.64179915e-01 -5.39939829e-01 1.23452373e-17)	(1.23273684e+00 1.98720214e-01 1.93823208e-19)	(4.05887251e-01 2.03909204e+00 -2.62657909e-17)
78             	p              	-5.25240626e-01	(-4.06193375e-02 1.03340804e+00 0.00000000e+00)	6.06192274e-01	(-1.03340804e+00 -4.06193375e-02 -1.52065714e-17)