/*--------------------------------*- C++ -*----------------------------------*\
| =========                 |                                                 |
| \\      /  F ield         | OpenFOAM: The Open Source CFD Toolbox           |
|  \\    /   O peration     | Version:  5.0                                   |
|   \\  /    A nd           | Web:      www.OpenFOAM.org                      |
|    \\/     M anipulation  |                                                 |
\*---------------------------------------------------------------------------*/
FoamFile
{
    version     2.0;
    format      ascii;
    class       volScalarField;
    location    "400";
    object      p;
}
// * * * * * * * * * * * * * * * * * * * * * * * * * * * * * * * * * * * * * //

dimensions      [0 2 -2 0 0 0 0];

internalField   nonuniform List<scalar> 
9200
(
0.00092968163
0.00094259445
0.002389581
0.00095007312
0.002419794
0.0039815863
0.0009695734
0.0024476106
0.0040276694
0.0054191979
0.00098398317
0.0025021994
0.0040776687
0.0054788068
0.006837051
0.00099676889
0.002560439
0.004164492
0.0055497625
0.0069095462
0.0081565448
0.00099744483
0.0026287505
0.0042609722
0.0056669582
0.007000448
0.0082397643
0.009397365
0.00098170521
0.0026939477
0.0043709376
0.005803371
0.0071470822
0.0083474005
0.00948964
0.010552521
0.00095210523
0.0027436234
0.0044818383
0.0059637121
0.00732272
0.0085179035
0.0096112924
0.01065212
0.011627128
0.00088443069
0.0027475202
0.0045893879
0.006141383
0.0075334174
0.0087242983
0.0098004646
0.010785214
0.011732918
0.012623575
0.00069940657
0.0026936042
0.0046772049
0.0063361025
0.0077773513
0.0089726281
0.010029032
0.010988545
0.011876075
0.012734587
0.013545623
0.00035821798
0.002648026
0.0047253023
0.0065361101
0.0080554232
0.0092630775
0.010300381
0.011232462
0.01209163
0.012886764
0.013660922
0.014396963
-0.00012744035
0.0025507543
0.0047419866
0.0067628318
0.0083774384
0.0096003189
0.010612017
0.01151651
0.012350135
0.013113676
0.013821096
0.014515563
0.015181512
-0.00074632926
0.0022856614
0.0046941158
0.0070089854
0.0087581243
0.009995173
0.010965268
0.011834565
0.012647962
0.013386579
0.014057853
0.014682834
0.015302324
0.015903241
-0.0015145806
0.0017859848
0.0045260689
0.0072460182
0.0091985717
0.010462047
0.011368707
0.012183405
0.012976711
0.01369706
0.014343366
0.014928462
0.01547589
0.016024998
0.016566253
-0.0024341661
0.0010101906
0.0041879054
0.0074540522
0.0097131013
0.011013423
0.011844816
0.012570327
0.013328886
0.014033131
0.014664675
0.015226001
0.015729889
0.016203632
0.016687482
0.017174795
-0.0037902381
-0.00012542153
0.0036286741
0.0076050827
0.010314399
0.01167719
0.012398186
0.012965832
0.013688855
0.014376279
0.015009269
0.015562221
0.016040026
0.016464376
0.016869407
0.017293842
0.017733215
-0.0055051269
-0.001642891
0.0028078181
0.0076609288
0.011014155
0.01248225
0.013044144
0.013408653
0.013996061
0.014703421
0.015356447
0.015925562
0.016394825
0.016787206
0.01713441
0.017476853
0.01784832
0.018245849
-0.0077779173
-0.0035447993
0.0016678202
0.0075720902
0.011823505
0.013460862
0.013815082
0.013913698
0.014272909
0.015002564
0.015680147
0.016295197
0.016784552
0.01716058
0.017467249
0.017742747
0.018029964
0.018355255
0.018717011
-0.0098251189
-0.0061018126
0.0001857896
0.0072940541
0.012749236
0.014648466
0.014747408
0.014475046
0.014538749
0.015229692
0.015983047
0.016650765
0.017190638
0.017580085
0.017857235
0.01808109
0.018292834
0.018532953
0.018818998
0.019150993
-0.01314228
-0.0099274634
-0.0016485301
0.006716013
0.013802011
0.016073058
0.015871284
0.015110165
0.014776307
0.015336323
0.016219534
0.016992219
0.017608732
0.018032612
0.018303516
0.018482248
0.018631502
0.018788682
0.018990123
0.019243883
0.019551872
-0.016453795
-0.013952603
-0.0038712339
0.0057349653
0.014944239
0.017717269
0.017197779
0.015831401
0.014955749
0.015299848
0.016329264
0.017280085
0.018030442
0.018520867
0.018798406
0.018947273
0.01903659
0.019122179
0.01923464
0.019405934
0.01963418
0.019923332
-0.018486763
-0.017754841
-0.0067693452
0.004156645
0.016081677
0.01956276
0.018725615
0.016649051
0.015049473
0.015072779
0.01626099
0.01747647
0.018426271
0.019032039
0.019343531
0.019472484
0.019511591
0.019523827
0.01955756
0.019635428
0.019784902
0.019993873
0.02026897
-0.019574927
-0.022091285
-0.011356632
0.0013363253
0.017181434
0.02168671
0.020458554
0.017559791
0.01504346
0.014574634
0.015952684
0.017532409
0.018775383
0.01955808
0.019934801
0.020059873
0.020053631
0.019998887
0.019948827
0.019942648
0.019995882
0.020130997
0.020326561
0.020592545
-0.020390269
-0.026922197
-0.016979709
-0.0022414478
0.01833026
0.024135586
0.022351444
0.018560218
0.014868317
0.013915629
0.015321673
0.017387704
0.019048694
0.020090073
0.020575607
0.020711317
0.02066586
0.020544715
0.020414882
0.020316985
0.020282662
0.02031996
0.020447732
0.020636038
0.020897282
-0.021204387
-0.031982911
-0.022506516
-0.0056528549
0.01957255
0.026900991
0.024317424
0.019629009
0.014487979
0.012624021
0.014263918
0.016977972
0.0192164
0.020620238
0.021267805
0.021432572
0.021351163
0.021163917
0.020952762
0.020766222
0.020633993
0.020581966
0.020611285
0.020739615
0.020926484
0.021185506
-0.022041414
-0.036773001
-0.02759743
-0.0087435784
0.020029399
0.02993692
0.02623339
0.020713998
0.013834454
0.010733658
0.012573473
0.016228028
0.019233495
0.021146319
0.022019754
0.022232861
0.022115486
0.021857897
0.021563608
0.02128676
0.021059546
0.020905647
0.020844936
0.020875772
0.021011556
0.021200434
0.021459718
-0.022839115
-0.041144658
-0.032204029
-0.011787813
0.019482107
0.03276946
0.027862534
0.021700794
0.01278242
0.0080235872
0.01005656
0.015036795
0.019031188
0.021652022
0.022835883
0.023123215
0.022967157
0.022630272
0.022246665
0.021878405
0.021555615
0.021301899
0.021136237
0.021078585
0.021119361
0.021265426
0.021459358
0.021722466
-0.023515972
-0.045320191
-0.036481239
-0.014619068
0.018451341
0.034913359
0.028941673
0.022451625
0.011185022
0.0042842352
0.0066286571
0.013268443
0.018519023
0.022105506
0.023718016
0.024111059
0.023914749
0.023484755
0.02300162
0.022538034
0.022121305
0.021767795
0.021498783
0.021332356
0.021287087
0.021341477
0.021502223
0.02170577
0.021975524
-0.024015999
-0.049165344
-0.040448775
-0.017198502
0.016871954
0.035962902
0.029242854
0.022892723
0.0090021174
-0.00060701444
0.0021122143
0.010635243
0.017541596
0.022449151
0.024663572
0.025204426
0.02496553
0.024424826
0.023824681
0.023259576
0.022750835
0.022302975
0.02193002
0.021653116
0.021498873
0.021468628
0.021542374
0.021725593
0.021942432
0.022220404
-0.024166396
-0.05236525
-0.044025376
-0.019562598
0.014922649
0.035596484
0.028702039
0.022932755
0.0062951395
-0.0066207731
-0.003636399
0.0069655392
0.015905095
0.022610339
0.025655137
0.026404688
0.026122613
0.025451682
0.024710945
0.024032188
0.023432705
0.02289989
0.022431161
0.022045827
0.021773579
0.021636308
0.021625682
0.021729875
0.021939537
0.022171492
0.022458686
-0.023959762
-0.054568199
-0.047056331
-0.02174553
0.012812566
0.033929178
0.027696106
0.022470572
0.00279386
-0.014178
-0.011104675
0.0020960689
0.013348038
0.022490651
0.0266619
0.027697685
0.027380699
0.026560622
0.025654269
0.024842331
0.024150992
0.023543986
0.022995431
0.022510507
0.022120728
0.021864946
0.021747667
0.021770884
0.021909575
0.022146002
0.022394588
0.022691803
-0.023324115
-0.056039965
-0.049604989
-0.023803914
0.010576886
0.031366907
0.026477598
0.021066006
-0.0014509001
-0.023637652
-0.021079562
-0.004321471
0.0096069686
0.02180379
0.027631215
0.029050448
0.028714194
0.027741087
0.026640202
0.025672062
0.024882824
0.024215787
0.02360825
0.023042787
0.022544613
0.022161664
0.021925957
0.021840023
0.02190718
0.022080309
0.022346102
0.022612995
0.022920714
-0.022222596
-0.056146934
-0.051773269
-0.026168444
0.0080974161
0.028154887
0.024901586
0.018461174
-0.0063770219
-0.033761862
-0.033200805
-0.012732768
0.0044537208
0.020324764
0.028449969
0.030399249
0.030069672
0.028965396
0.027647696
0.026495728
0.025598576
0.024884952
0.024248393
0.023631189
0.023043615
0.022537615
0.022168623
0.021960725
0.021920169
0.022031204
0.022243693
0.022541815
0.022827929
0.023146208
-0.020742957
-0.054575395
-0.05254395
-0.028593114
0.0044990241
0.024703205
0.022689976
0.014957083
-0.011936119
-0.044082305
-0.047063887
-0.023143937
-0.003446958
0.017882071
0.028871309
0.03167225
0.031346761
0.030186721
0.02864357
0.027279381
0.026259118
0.025511658
0.024882197
0.024256149
0.0236112
0.022997688
0.022489448
0.0221415
0.021975866
0.02198847
0.022148194
0.022404971
0.022735156
0.023040259
0.023369042
-0.018998745
-0.051461545
-0.051972964
-0.030612508
0.00048010044
0.019728647
0.020049198
0.010978686
-0.017825011
-0.054345533
-0.061679227
-0.036051653
-0.014633622
0.014072891
0.029130413
0.032719047
0.032392647
0.031339916
0.029579032
0.027977909
0.026814881
0.02604365
0.025463497
0.024886122
0.024233426
0.023542024
0.02290197
0.022399555
0.022087278
0.021976379
0.022047556
0.022262992
0.022564378
0.022926484
0.023250636
0.023589484
-0.017048204
-0.047455814
-0.050371698
-0.032135689
-0.0039642534
0.01421806
0.016231999
0.0066096877
-0.023766267
-0.064396875
-0.076148316
-0.051239327
-0.026183432
0.00924216
0.029201899
0.033737379
0.03291241
0.032341887
0.030391751
0.028535086
0.027206004
0.026414947
0.025930535
0.025474109
0.024886144
0.024165795
0.023415476
0.022755409
0.022273613
0.022011776
0.021965545
0.02210256
0.022375959
0.0227223
0.023116799
0.023459659
0.023807956
-0.014942839
-0.042742265
-0.047969402
-0.033143818
-0.0086858728
0.0075504998
0.011824598
0.0022521466
-0.029826319
-0.073877633
-0.090159469
-0.067013319
-0.036328859
0.0036701041
0.027848385
0.0339295
0.035469333
0.033125766
0.030992222
0.028873793
0.027354836
0.026542307
0.026202883
0.025954663
0.025528289
0.024854887
0.024035023
0.02322529
0.022559703
0.02211638
0.021919635
0.021947961
0.022156325
0.022489089
0.02288148
0.023307197
0.023667694
0.02402473
-0.012745245
-0.037384813
-0.044615619
-0.033558596
-0.013737738
-4.3085175e-05
0.0059595317
-0.0014772478
-0.034193186
-0.082948366
-0.10304565
-0.081786587
-0.046001069
-0.0024279369
0.024460323
0.033140014
0.034701725
0.033671427
0.031285117
0.028894925
0.027157112
0.026313064
0.026169097
0.026242805
0.026100105
0.025582182
0.024758903
0.023825393
0.022968714
0.022318517
0.021933247
0.021816336
0.021927822
0.022211307
0.022604979
0.023042506
0.023497786
0.023874949
0.024239691
-0.010489009
-0.031556243
-0.040326841
-0.033287777
-0.018983761
-0.0084399773
-0.0014928774
-0.0055297985
-0.037679971
-0.088945023
-0.11563269
-0.096110561
-0.055693073
-0.0089435652
0.020125114
0.031630497
0.033409208
0.033328204
0.031146779
0.028489757
0.02650372
0.025602054
0.025695948
0.026216588
0.026526979
0.026305101
0.025577648
0.024567548
0.023526712
0.0226469
0.022037386
0.021731308
0.021707275
0.021909031
0.022270201
0.022724686
0.023205515
0.023688987
0.024081554
0.024453098
-0.025381342
-0.0081880907
-0.035294766
-0.032343259
-0.024216399
-0.017489511
-0.010263975
-0.010408515
-0.040955278
-0.094547966
-0.125436
-0.10974127
-0.065151366
-0.015879864
0.01544576
0.029330132
0.031663773
0.032080526
0.030432305
0.027538257
0.025282201
0.024279212
0.02462271
0.025724077
0.026684495
0.026964569
0.026471125
0.025459745
0.024258072
0.023135536
0.022264654
0.021724526
0.021517672
0.021597962
0.021895158
0.022335124
0.022849004
0.023371627
0.023881061
0.02428752
0.024664744
-0.029680091
-0.018913924
-0.0058868849
-0.030637035
-0.029402552
-0.027071415
-0.019956759
-0.016339341
-0.044118576
-0.099011909
-0.13626313
-0.12163259
-0.073253397
-0.022727185
0.010128278
0.025841815
0.02905193
0.029933297
0.028996384
0.02594085
0.023363786
0.022192437
0.02275291
0.024572464
0.026416074
0.027453231
0.027400063
0.026502783
0.025186166
0.023819024
0.022655
0.021831441
0.021390368
0.02129724
0.021492546
0.021888882
0.022407875
0.022979176
0.023540861
0.024073938
0.024492774
0.024874551
-0.028265606
-0.02355277
-0.012334715
-0.0036020552
-0.034508023
-0.037022148
-0.030186821
-0.023071739
-0.047418589
-0.10196231
-0.14398104
-0.13524824
-0.081315679
-0.029314443
0.0046033225
0.020923385
0.025600786
0.026839402
0.026680998
0.023628155
0.020627986
0.019177421
0.019851265
0.02248963
0.025539244
0.027634187
0.028299977
0.027683838
0.026329817
0.024733247
0.023250314
0.022095594
0.021360251
0.021041496
0.021077869
0.021395598
0.021893489
0.02248967
0.023115533
0.023713302
0.024267621
0.024697201
0.025082474
-0.03925243
-0.02539627
-0.016992006
-0.005909593
-0.0013708519
-0.047117974
-0.040852461
-0.030010247
-0.05075504
-0.10335838
-0.14903706
-0.14651282
-0.091754805
-0.038498573
-0.0011254233
0.015174957
0.021148773
0.022727418
0.023403866
0.020538931
0.016965329
0.015084553
0.015649656
0.019137999
0.023745275
0.027336316
0.029082934
0.02897472
0.027699418
0.025911231
0.02409559
0.02256282
0.021471741
0.020860048
0.020685312
0.020870333
0.021313236
0.02191079
0.022581244
0.023258039
0.02388901
0.024461959
0.024900611
0.025288201
-0.057107395
-0.043380102
-0.022050141
-0.010373753
0.00020790865
0.00079022688
-0.05172059
-0.036931008
-0.05384618
-0.10307259
-0.1511776
-0.15543511
-0.1015572
-0.048841891
-0.010988744
0.0090874199
0.015685493
0.017705071
0.019079689
0.016624062
0.012336503
0.0097683053
0.0098752276
0.014089493
0.020637053
0.02629238
0.029594767
0.030324956
0.029292923
0.027380242
0.025234058
0.02328374
0.021772954
0.02079688
0.020341779
0.020337699
0.020678709
0.021247838
0.021942195
0.022683092
0.023407079
0.024067778
0.024656718
0.02510279
0.025491694
-0.06246804
-0.066775888
-0.046778308
-0.018287868
-0.0041556302
0.0060126949
0.0028720858
-0.043869175
-0.05647853
-0.10113047
-0.14920574
-0.16016611
-0.1098168
-0.059522546
-0.020771135
-0.0015470096
0.010962727
0.011614809
0.013748648
0.011843408
0.0067495702
0.0031829237
0.0022660387
0.0068503111
0.01567324
0.024120704
0.029619275
0.031636149
0.031085723
0.02915533
0.026704422
0.024308051
0.022317512
0.020900022
0.02008749
0.019823951
0.020007972
0.020506582
0.021201224
0.021988865
0.0227956
0.023562442
0.024249339
0.024851637
0.025303513
0.025692682
-0.050696025
-0.072715092
-0.075713483
-0.049459874
-0.01439033
0.0015100031
0.01140609
0.0049185909
-0.058491655
-0.097729059
-0.1435265
-0.15973393
-0.11529629
-0.06967486
-0.031879989
-0.011438062
0.0018208053
0.0051372708
0.0073748979
0.0062501337
0.00034932723
-0.0047070095
-0.007399539
-0.0032814153
0.0081404136
0.0203001
0.028819343
0.032753904
0.03301922
0.031229843
0.028532836
0.025682239
0.023158443
0.021223091
0.01996696
0.019365366
0.01932194
0.019700533
0.0203584
0.021175361
0.022051496
0.022918727
0.023723671
0.024433311
0.025046427
0.025502579
0.025891025
-0.059635823
-0.056908632
-0.081889766
-0.083714181
-0.051421308
-0.010627748
0.00666326
0.016280825
0.0068702937
-0.092846145
-0.13565308
-0.15558543
-0.11800886
-0.078882005
-0.043261303
-0.023493392
-0.0067309856
-0.0036888311
0.00043223206
-0.00017853296
-0.0067370515
-0.013778451
-0.019522491
-0.01731321
-0.0032001321
0.014122055
0.026801751
0.033436682
0.034981918
0.033563693
0.030723722
0.027439263
0.024345535
0.02181875
0.020032051
0.019001394
0.018652329
0.018844744
0.019421867
0.020237135
0.02117163
0.02213019
0.023052047
0.023890449
0.024619357
0.025240874
0.02569975
0.026086462
-0.086594903
-0.059506386
-0.061895186
-0.08961582
-0.090471009
-0.052614469
-0.0071056339
0.01137885
0.020618494
0.0086580455
-0.12556079
-0.14802426
-0.11858402
-0.086187282
-0.054783658
-0.036381705
-0.018725964
-0.011748335
-0.0079756727
-0.0069864534
-0.014372959
-0.024211982
-0.033735405
-0.035844009
-0.019001732
0.0047080946
0.022692068
0.033352874
0.036792549
0.036064872
0.033247027
0.029591168
0.025915793
0.022739103
0.020329794
0.018781068
0.018032027
0.017963678
0.018400432
0.019177511
0.020145294
0.021190606
0.022224507
0.023194995
0.024062312
0.02480726
0.025434659
0.025894573
0.026278748
-0.1136537
-0.079045909
-0.057876713
-0.065742066
-0.095603718
-0.095748773
-0.053014651
-0.0038057343
0.015650104
0.024462728
0.010248075
-0.13745808
-0.11671982
-0.090514519
-0.065804621
-0.050197513
-0.033035824
-0.022486158
-0.015457638
-0.014440255
-0.022230817
-0.035352213
-0.050305354
-0.056618538
-0.037417539
-0.0070423881
0.015287064
0.031490697
0.038120404
0.038570851
0.036021685
0.032115082
0.027887192
0.024021991
0.020916582
0.018737008
0.017502084
0.017083137
0.017311318
0.017997493
0.018970867
0.020084312
0.021232064
0.022333881
0.023347322
0.024239148
0.024996573
0.025626994
0.026086578
0.026467974
-0.12453651
-0.10020464
-0.07050483
-0.054985781
-0.068214177
-0.099677905
-0.099368446
-0.052587173
-0.00076849031
0.019355065
0.027817365
0.011597655
-0.11200085
-0.091342663
-0.075669768
-0.064569923
-0.049385668
-0.036468953
-0.024937518
-0.020885375
-0.029588236
-0.047661705
-0.067525928
-0.079064372
-0.058929834
-0.021985431
0.004791822
0.027561925
0.038283663
0.040785302
0.038899632
0.034939203
0.030243113
0.025686512
0.021827385
0.01893685
0.017097964
0.016235613
0.016171868
0.016707313
0.017642539
0.018804746
0.020054482
0.021295522
0.022458283
0.023509071
0.024420308
0.025185846
0.025817098
0.026276219
0.026663552
-0.10475545
-0.10974522
-0.086075283
-0.06106631
-0.051169005
-0.069070351
-0.10182686
-0.10050149
-0.051394903
0.0019164729
0.022431425
0.030670838
0.012663808
-0.089418346
-0.08422328
-0.079192054
-0.067448166
-0.053051705
-0.037462366
-0.028774411
-0.035166444
-0.056777175
-0.086728842
-0.10146245
-0.083269305
-0.042613018
-0.0095434522
0.021629077
0.037292279
0.042231629
0.041629852
0.037929824
0.032921805
0.027723919
0.023077099
0.019405937
0.016866217
0.015451605
0.015005937
0.015315421
0.016162225
0.017339101
0.01868034
0.020055419
0.021381259
0.022597952
0.023678977
0.024603137
0.025373652
0.026006161
0.026474255
0.026868818
-0.085578478
-0.095168388
-0.094057272
-0.071676334
-0.051312015
-0.046582113
-0.068445236
-0.10183065
-0.099093732
-0.049465322
0.0042398757
0.025006675
0.032757965
0.013551077
-0.091478524
-0.093609557
-0.086610853
-0.071993703
-0.052735448
-0.038714041
-0.041807177
-0.06329088
-0.098889086
-0.12594873
-0.10895345
-0.066416159
-0.026686721
0.012406729
0.034554635
0.042745797
0.043851855
0.040873849
0.035806045
0.030082124
0.024665074
0.020155354
0.016836338
0.014764862
0.013834741
0.013836249
0.01452943
0.015683978
0.017090155
0.018597679
0.02008771
0.021489917
0.022750769
0.023852754
0.024785402
0.025562576
0.026207892
0.026681368
0.027078366
-0.096812311
-0.080030936
-0.084017549
-0.07815325
-0.057388218
-0.041592387
-0.041342214
-0.066449619
-0.09880011
-0.095783686
-0.046940596
0.006558872
0.026946794
0.034250892
0.014217349
-0.10733691
-0.10657445
-0.093088934
-0.070468499
-0.050514186
-0.049981837
-0.0695221
-0.11000768
-0.14248479
-0.13808903
-0.094140305
-0.046414977
-0.00011140143
0.028351863
0.041821644
0.045203629
0.043462754
0.038711859
0.032660066
0.026547798
0.021186365
0.017019104
0.014198538
0.012682201
0.012281045
0.012748938
0.013825337
0.015276385
0.016896165
0.018557718
0.020152808
0.021618583
0.02291014
0.024027221
0.024971967
0.02577306
0.026417617
0.026894396
0.027291962
-0.11965597
-0.10023077
-0.073709721
-0.071948866
-0.062614816
-0.04349032
-0.03194347
-0.035637761
-0.063229589
-0.093436987
-0.090337207
-0.043923455
0.0091382195
0.028476623
0.034900087
0.014616383
-0.12703716
-0.1159806
-0.09044676
-0.063954615
-0.059485848
-0.076297366
-0.1184242
-0.16435733
-0.16288933
-0.12578462
-0.069581071
-0.01542476
0.019203645
0.037628183
0.045353734
0.045335387
0.04138203
0.035301334
0.028636339
0.022463947
0.017409392
0.013763871
0.011561834
0.010662702
0.010821699
0.011761364
0.013210614
0.014941666
0.016760892
0.018563005
0.020247382
0.021757632
0.023071763
0.024210655
0.025193696
0.025991429
0.026635457
0.027112453
0.027509651
-0.14696699
-0.13025272
-0.10128632
-0.067093369
-0.059810421
-0.047822998
-0.030268616
-0.022501841
-0.029696342
-0.059148768
-0.086466272
-0.08462164
-0.039831231
0.011551434
0.029543503
0.034579385
0.014744676
-0.13997954
-0.11217543
-0.078838578
-0.069787015
-0.084109625
-0.12546707
-0.1794975
-0.19993355
-0.15580207
-0.094702625
-0.033504045
0.0082211094
0.030787023
0.043274395
0.046096904
0.043533024
0.037789731
0.030793906
0.02391204
0.017977682
0.013451293
0.010479366
0.0089852662
0.0087489817
0.0094813032
0.010884526
0.012688504
0.014678935
0.016686549
0.018610418
0.020357867
0.021900784
0.023248822
0.024448808
0.025423891
0.02622058
0.026858915
0.027335717
0.02773122
-0.16436875
-0.16546712
-0.13852973
-0.10002937
-0.06022929
-0.048172306
-0.034178602
-0.01803634
-0.013441298
-0.023556079
-0.054660368
-0.079853607
-0.077072101
-0.035678578
0.013463374
0.029925275
0.033078289
0.014682665
-0.13504915
-0.095033982
-0.080391301
-0.092299487
-0.13247768
-0.19106456
-0.22654971
-0.2006455
-0.11826343
-0.052913985
-0.0041100086
0.022625349
0.038552914
0.045343155
0.044740139
0.039875859
0.032844518
0.02541126
0.018658978
0.01323164
0.0094229459
0.0072461206
0.0065251706
0.0069757468
0.008276819
0.010124519
0.012262011
0.0144963
0.0166704
0.018681691
0.0204745
0.022067774
0.023508152
0.024696887
0.025667818
0.026455875
0.027088725
0.027563628
0.027956647
-0.15799741
-0.18757602
-0.18108299
-0.14436456
-0.097128827
-0.052909612
-0.036923882
-0.02193121
-0.0070273475
-0.0048277274
-0.017551854
-0.050991522
-0.072569353
-0.0694184
-0.031237279
0.014742442
0.029450103
0.030652267
0.014509933
-0.11149897
-0.090631082
-0.10015467
-0.13894323
-0.19997484
-0.25014823
-0.24173691
-0.15467221
-0.077699933
-0.017582498
0.013220968
0.03216171
0.042706165
0.044422168
0.041200186
0.034576872
0.026804408
0.019346936
0.013047854
0.0083617912
0.0054277675
0.0041373881
0.0042283481
0.00536696
0.007218335
0.0094875973
0.011940863
0.014392984
0.016688348
0.018761503
0.020625447
0.022354323
0.023780354
0.024962099
0.025918339
0.026698819
0.027323956
0.027796255
0.028185708
-0.12625961
-0.17954658
-0.20670948
-0.19349598
-0.14758756
-0.093044914
-0.045252881
-0.026417629
-0.01132979
0.0025402044
0.0027819864
-0.011904488
-0.047206566
-0.064586812
-0.061186051
-0.026492828
0.015466281
0.028157252
0.027603812
0.014329173
-0.099949688
-0.10731027
-0.14421026
-0.20527406
-0.26781683
-0.28128976
-0.19794543
-0.10844036
-0.039163727
0.0023994965
0.024579867
0.037814191
0.042665275
0.041540065
0.035632443
0.027886344
0.019905366
0.012805681
0.0072424486
0.0034964761
0.0015600807
0.0012136829
0.0021254712
0.003936293
0.0063157663
0.0089870997
0.011725909
0.01433695
0.016717163
0.018888379
0.020946186
0.022658524
0.024073348
0.025234299
0.026177794
0.026948109
0.027564631
0.028033097
0.028418291
-0.10824753
-0.1384125
-0.19679064
-0.22077156
-0.20313582
-0.14823606
-0.088382401
-0.038134224
-0.017549579
-0.002955444
0.010075344
0.010112086
-0.0079098687
-0.042257371
-0.055977871
-0.05247003
-0.021470077
0.015521097
0.026178576
0.024121262
0.014027282
-0.11359335
-0.1473421
-0.20626974
-0.27825124
-0.31230822
-0.2423307
-0.14158021
-0.062433401
-0.016987897
0.015216421
0.031212987
0.039192178
0.040126469
0.03584885
0.028390185
0.020148531
0.012387192
0.0059806294
0.0013989829
-0.0012457553
-0.0021017425
-0.0014828807
0.00023765674
0.00270111
0.0055883403
0.0086236271
0.011575235
0.014294682
0.016808645
0.019251745
0.021292089
0.022987871
0.024373647
0.025516822
0.026444476
0.027203753
0.027810065
0.028274038
0.0286542
-0.11825888
-0.11493806
-0.14748957
-0.20875633
-0.24617037
-0.20712306
-0.14649534
-0.083682993
-0.032579964
-0.010760527
0.0034949111
0.017016851
0.014697683
-0.0041312783
-0.036690152
-0.046604035
-0.04350653
-0.016319677
0.014965195
0.023827212
0.020459458
0.013286298
-0.14727143
-0.20272808
-0.27997831
-0.3332972
-0.28366889
-0.17436713
-0.090894247
-0.034327268
-0.0036045031
0.024332246
0.033632797
0.036946705
0.034701779
0.028087882
0.019857363
0.011628014
0.004473748
-0.00094263093
-0.0043360985
-0.0057647602
-0.0055017854
-0.0039213722
-0.0014053885
0.0016912906
0.0050378559
0.0083415953
0.011440294
0.014336377
0.017225586
0.019650936
0.021668247
0.02332465
0.024685619
0.025807598
0.026718375
0.027464884
0.028060053
0.028518657
0.02889331
-0.143814
-0.11947018
-0.11959422
-0.15211457
-0.21502849
-0.2475144
-0.20539359
-0.1426396
-0.079156454
-0.028502415
-0.0053494668
0.010211173
0.021280689
0.018840492
-0.00054445416
-0.030791146
-0.036761306
-0.034502804
-0.011246843
0.014180773
0.021297756
0.01704068
0.011878098
-0.1945804
-0.27121801
-0.34101947
-0.31644054
-0.20661673
-0.1202925
-0.058088711
-0.018610117
0.0067743274
0.027677866
0.031442112
0.032123226
0.026550443
0.018812128
0.010348241
0.0025766195
-0.0036200549
-0.0077867647
-0.0098368402
-0.009987374
-0.0085966601
-0.0060589773
-0.0027631969
0.00090622167
0.0045902251
0.0080842727
0.01141488
0.01482133
0.017692221
0.020086714
0.022051581
0.023674516
0.02500683
0.026106592
0.026998415
0.027731261
0.02831404
0.028766928
0.029135321
-0.18267599
-0.13692128
-0.1163967
-0.12149362
-0.15218465
-0.21298926
-0.23860763
-0.19912958
-0.1370798
-0.074164481
-0.024896679
0.00069295441
0.015148813
0.025168671
0.022647064
0.0027992669
-0.024514201
-0.02711241
-0.025543627
-0.0065161173
0.013067438
0.018656143
0.014201613
0.0099862653
-0.25449758
-0.33006523
-0.33112479
-0.23372464
-0.14954786
-0.08254911
-0.040281384
-0.0074159289
0.012295109
0.027297949
0.026881452
0.023782456
0.016664244
0.0083514788
0.00014720438
-0.0067637661
-0.011684584
-0.014395857
-0.015009007
-0.013854489
-0.011326107
-0.0078400206
-0.0038394198
0.00024786381
0.0041702478
0.0079804406
0.011985329
0.015372309
0.018203391
0.020528795
0.022449426
0.024034671
0.02533726
0.026412583
0.027284253
0.028002228
0.028572208
0.029018319
0.029380029
-0.23272993
-0.16679792
-0.1270281
-0.11003627
-0.11793226
-0.14769939
-0.20135617
-0.22405611
-0.18900429
-0.12945174
-0.068571534
-0.019839476
0.0060784016
0.019627604
0.028057856
0.025863901
0.005910443
-0.01788046
-0.018296001
-0.017440342
-0.0025879414
0.012024376
0.016076441
0.011826221
0.0080963185
-0.30583086
-0.32643479
-0.25337736
-0.17397043
-0.10724244
-0.062817062
-0.027913359
-0.0008307133
0.01192723
0.020868221
0.018782355
0.013351534
0.0053765645
-0.0029908379
-0.010482742
-0.016151239
-0.019530064
-0.020650254
-0.019773672
-0.017283233
-0.013614506
-0.0092713657
-0.0047618135
-0.00037958106
0.0039505598
0.0086605202
0.012640413
0.015977948
0.01871894
0.020986962
0.02285857
0.02440515
0.025675589
0.026725116
0.027575163
0.028278341
0.028833607
0.02927253
0.029627182
-0.27514244
-0.20606345
-0.14849105
-0.11429626
-0.10072601
-0.10926859
-0.13869138
-0.18150874
-0.20486531
-0.17596123
-0.1195755
-0.061680216
-0.013304302
0.010956892
0.023156696
0.029883229
0.028301666
0.0089340541
-0.010612782
-0.010768251
-0.010469045
0.00019775997
0.011045489
0.013733107
0.0097950315
0.0064070073
-0.30886564
-0.26238671
-0.18907793
-0.12912658
-0.086042056
-0.049840506
-0.021102605
0.00039124017
0.0097716446
0.013061538
0.0080895836
0.0013615427
-0.0070246463
-0.014943268
-0.021271975
-0.025357956
-0.027006123
-0.026446273
-0.024018975
-0.020171857
-0.015472633
-0.010519303
-0.0056517229
-0.00074595621
0.0047716295
0.0094430924
0.013363142
0.016585205
0.019252115
0.021457359
0.023279224
0.024784568
0.026021137
0.027043522
0.027872305
0.028558051
0.029097896
0.029529099
0.029876554
-0.28021963
-0.23879701
-0.17725659
-0.12867682
-0.09983007
-0.088577198
-0.097589732
-0.12668092
-0.15915452
-0.18309363
-0.15751772
-0.110499
-0.0509067
-0.0070695205
0.015113603
0.025813201
0.030973618
0.029731476
0.011579918
-0.0034480297
-0.005151534
-0.005326288
0.002502609
0.010125967
0.011733515
0.0080584459
0.0049956365
-0.25678645
-0.19439532
-0.14580126
-0.10786958
-0.073279002
-0.043296049
-0.018742469
-0.0014925793
0.0036476214
0.0024338483
-0.0043358503
-0.012017491
-0.02025726
-0.02721904
-0.031953981
-0.034196744
-0.033977839
-0.03163515
-0.027609142
-0.022535288
-0.017115337
-0.011736335
-0.0062031796
0.00025292048
0.0057109734
0.010310377
0.014083845
0.017211129
0.019798634
0.021940614
0.023709878
0.025171971
0.026373421
0.027369673
0.028173502
0.02884094
0.02936447
0.029787678
0.030127905
-0.2381987
-0.24339672
-0.20092238
-0.14787539
-0.10806301
-0.084167607
-0.07468352
-0.083444557
-0.11156578
-0.13731395
-0.15768061
-0.14175952
-0.096047079
-0.040541009
-0.001211485
0.018525018
0.027624191
0.031381182
0.029552737
0.013688783
0.0018807622
-0.00093713165
-0.0013305316
0.0042820905
0.0092886912
0.0099804485
0.0066125199
0.0038727966
-0.19176793
-0.15556301
-0.12629822
-0.096110818
-0.067481166
-0.043546591
-0.019414456
-0.0050941007
-0.0056323356
-0.01041815
-0.018422735
-0.026524225
-0.034028829
-0.039510162
-0.042300545
-0.042494205
-0.040249379
-0.036036841
-0.030562653
-0.024648978
-0.018733435
-0.012518193
-0.0049777275
0.0013804733
0.0067587451
0.011169724
0.014824286
0.01785139
0.020359476
0.022434923
0.024149341
0.025567225
0.026735298
0.027700383
0.028478282
0.029126184
0.029632927
0.030047893
0.030381007
-0.18078767
-0.21036815
-0.20422713
-0.16376911
-0.11947239
-0.087444097
-0.067913769
-0.059996956
-0.067873252
-0.093148308
-0.11653001
-0.13692609
-0.12154776
-0.081805136
-0.030349833
0.0039755945
0.021120605
0.028686135
0.031032108
0.027860649
0.015293066
0.0052566405
0.0022615497
0.0017271164
0.0055405206
0.0085399274
0.0085227154
0.0054443261
0.0030092758
-0.15789202
-0.13851264
-0.11618211
-0.092595642
-0.070736521
-0.044063831
-0.022368738
-0.011052833
-0.017612029
-0.025266321
-0.033999999
-0.04187861
-0.047993748
-0.05153372
-0.052092704
-0.049995028
-0.045582427
-0.039670961
-0.033229334
-0.026750944
-0.019797346
-0.01100619
-0.0036241124
0.002649726
0.0077884778
0.012050507
0.015579964
0.018507471
0.020932442
0.022939007
0.024597978
0.025974351
0.027102472
0.028035136
0.028785614
0.029413292
0.02990289
0.030309414
0.030635465
-0.15288188
-0.16286241
-0.17811678
-0.16567216
-0.12949705
-0.093131355
-0.067673324
-0.051850676
-0.045427991
-0.051506576
-0.074063347
-0.10146166
-0.11399576
-0.10167558
-0.066900966
-0.020750177
0.0083817977
0.02290255
0.029050244
0.029856752
0.025847937
0.0160662