/*--------------------------------*- C++ -*----------------------------------*\
| =========                 |                                                 |
| \\      /  F ield         | OpenFOAM: The Open Source CFD Toolbox           |
|  \\    /   O peration     | Version:  5.0                                   |
|   \\  /    A nd           | Web:      www.OpenFOAM.org                      |
|    \\/     M anipulation  |                                                 |
\*---------------------------------------------------------------------------*/
FoamFile
{
    version     2.0;
    format      ascii;
    class       surfaceScalarField;
    location    "400";
    object      phi;
}
// * * * * * * * * * * * * * * * * * * * * * * * * * * * * * * * * * * * * * //

dimensions      [0 3 -1 0 0 0 0];

internalField   nonuniform List<scalar> 
18180
(
-0.001886215
-1.3894681
-0.0036701898
-1.2995002
-0.0018383539
-1.3876297
-0.0053433597
-1.2154852
-0.0035765189
-1.297762
-0.0017630968
-1.3858666
-0.0069270056
-1.1370012
-0.0052186334
-1.2138431
-0.0034333531
-1.2960917
-0.0016518083
-1.3842148
-0.0084024298
-1.0636585
-0.0067779121
-1.1354419
-0.0050195687
-1.2122569
-0.003220019
-1.2945235
-0.0015212331
-1.3826936
-0.0097506165
-0.99511217
-0.008252391
-1.0621841
-0.0065386513
-1.1339228
-0.0047130501
-1.2107638
-0.0029639974
-1.2930808
-0.0013827696
-1.3813108
-0.010932942
-0.93103888
-0.0096322626
-0.9937323
-0.0080023758
-1.0607203
-0.0061528419
-1.132483
-0.0043362312
-1.2093916
-0.0026895461
-1.291774
-0.001256232
-1.3800546
-0.011905648
-0.87116367
-0.01089651
-0.92977464
-0.0094222703
-0.99231241
-0.0075606872
-1.0593125
-0.0056557742
-1.1311635
-0.0039261245
-1.208155
-0.0024364743
-1.2905937
-0.0011501156
-1.3789045
-0.012625603
-0.81521849
-0.012018346
-0.87004183
-0.010816053
-0.92838085
-0.0089683353
-0.99090476
-0.0069414391
-1.0580268
-0.0051018858
-1.1299877
-0.0035465555
-1.2070449
-0.002223795
-1.2895201
-0.0010661298
-1.3778383
-0.012963388
-0.76300861
-0.012935823
-0.81430101
-0.012220115
-0.86863777
-0.010428864
-0.92692032
-0.0082230911
-0.98962311
-0.006224941
-1.0569038
-0.0045876493
-1.1289466
-0.0032298349
-1.2060389
-0.0020578587
-1.2885283
-0.00099861189
-1.3768397
-0.012795054
-0.71431456
-0.013658495
-0.76228594
-0.0137024
-0.81281872
-0.012009234
-0.8670574
-0.0095466774
-0.92559674
-0.0073083396
-0.98853971
-0.0055583825
-1.055933
-0.0041647436
-1.1280117
-0.0029886985
-1.2051081
-0.0019291476
-1.2875978
-0.00094012937
-1.3758996
-0.011985189
-0.6690091
-0.014337115
-0.71363594
-0.015407353
-0.76058099
-0.013826816
-0.81100114
-0.010964357
-0.86563972
-0.0083677597
-0.92453732
-0.006450848
-0.98764724
-0.0050239542
-1.0550738
-0.0038554246
-1.127145
-0.002807891
-1.2042293
-0.0018216955
-1.2867162
-0.00088446158
-1.3750151
-0.010380955
-0.62686457
-0.015019414
-0.6683268
-0.017352653
-0.71169064
-0.015956943
-0.75845086
-0.012552938
-0.80941256
-0.0094195965
-0.86458788
-0.0072501147
-0.92373805
-0.0057887331
-0.98688246
-0.0046564562
-1.0542728
-0.0036353233
-1.1263176
-0.0026599101
-1.2033911
-0.0017197888
-1.2858809
-0.00082711598
-1.374188
-0.0078850461
-0.58764699
-0.015592547
-0.62629144
-0.019637224
-0.66604223
-0.018470456
-0.70917713
-0.014367678
-0.75663612
-0.010461867
-0.80837029
-0.0079335854
-0.86390441
-0.0064293168
-0.92309746
-0.0053733255
-0.98616559
-0.0044144103
-1.0534937
-0.0034602598
-1.1255172
-0.0025180498
-1.2025928
-0.001611635
-1.2850964
-0.00076494765
-1.3734231
-0.0044115965
-0.5511696
-0.0159514
-0.58728814
-0.022487738
-0.62344092
-0.021574614
-0.66293807
-0.016496206
-0.7070486
-0.011487797
-0.75561019
-0.0084564128
-0.80784746
-0.006903178
-0.86343055
-0.0059757986
-0.92249499
-0.005134275
-0.98544573
-0.0042299848
-1.052724
-0.0032896184
-1.1247456
-0.0023632993
-1.2018412
-0.0014905337
-1.2843708
-0.00069670317
-1.3727264
5.4719555e-05
-0.51715433
-0.016049186
-0.55107181
-0.026102608
-0.58367327
-0.02551486
-0.61950068
-0.01907414
-0.66036014
-0.012531374
-0.70600502
-0.008730004
-0.7553366
-0.007132482
-0.80761816
-0.0064169576
-0.86298939
-0.0057723298
-0.92185694
-0.0049705143
-0.9847052
-0.0040476137
-1.051966
-0.0030954399
-1.1240135
-0.0021853503
-1.2011464
-0.001355347
-1.2837121
-0.00062381065
-1.3721025
0.0056611097
-0.48539575
-0.015844191
-0.51735932
-0.030670323
-0.5465041
-0.030535027
-0.5786531
-0.022252787
-0.61632203
-0.013599468
-0.65929205
-0.0086937903
-0.70604124
-0.0069863523
-0.75548273
-0.0066008841
-0.80743423
-0.0062813991
-0.86248032
-0.0056757277
-0.92115172
-0.0048070247
-0.98394579
-0.0038274137
-1.051234
-0.0028628662
-1.123336
-0.0019829723
-1.2005187
-0.0012101105
-1.2831258
-0.00054994076
-1.3715526
0.012590643
-0.45581979
-0.015435033
-0.48580491
-0.036420452
-0.51160919
-0.036881894
-0.54015723
-0.026195601
-0.57471029
-0.014703756
-0.61521774
-0.008254816
-0.65973102
-0.0063346598
-0.70669293
-0.0064541607
-0.75562945
-0.0066040708
-0.80711156
-0.0063268551
-0.8618292
-0.0055881375
-0.92037061
-0.0045832396
-0.98318996
-0.0035445268
-1.0505524
-0.0025909751
-1.122728
-0.0017633507
-1.1999655
-0.001062413
-1.2826134
-0.00047937835
-1.3710732
0.021295356
-0.42875939
-0.014568285
-0.45668654
-0.043484462
-0.4787409
-0.044752346
-0.50373874
-0.031054751
-0.53529808
-0.015868612
-0.57354543
-0.0072981558
-0.6161744
-0.0050368499
-0.66102883
-0.0058128231
-0.70733427
-0.0067706395
-0.75546288
-0.0069538139
-0.8064846
-0.0064227774
-0.86099456
-0.0054043831
-0.91954947
-0.004257805
-0.98247668
-0.0031968801
-1.0499465
-0.0022908204
-1.1222005
-0.0015390586
-1.1994889
-0.00092092395
-1.2821718
-0.00041560294
-1.3706576
0.031791972
-0.40410837
-0.012419661
-0.43090802
-0.051806985
-0.44836402
-0.054249505
-0.46924374
-0.036919483
-0.49787401
-0.017115774
-0.53405092
-0.0056930767
-0.57515051
-0.0029077548
-0.6183035
-0.0045143871
-0.66232727
-0.0066727558
-0.70743215
-0.0075825482
-0.75483415
-0.007384985
-0.80552239
-0.0063542525
-0.86004469
-0.00504632
-0.91876095
-0.0038257825
-0.98184778
-0.0028033161
-1.049434
-0.0019815827
-1.121758
-0.0013239696
-1.1990858
-0.00079308876
-1.2817943
-0.00036088423
-1.3702967
0.042407226
-0.37990266
-0.0079392355
-0.40858879
-0.061118497
-0.4215965
-0.065533457
-0.43708006
-0.043895111
-0.46226811
-0.018435688
-0.4965541
-0.0032972863
-0.53644671
0.00026385633
-0.57832213
-0.0023669131
-0.62045097
-0.0061493554
-0.66285067
-0.0082145999
-0.7068001
-0.0085013667
-0.75371777
-0.0075058329
-0.80437081
-0.0059751356
-0.85911587
-0.0045115552
-0.91807518
-0.0033171821
-0.98133392
-0.0023935529
-1.049022
-0.0016841069
-1.1213979
-0.0011298165
-1.1987491
-0.00068383049
-1.2814714
-0.00031649347
-1.3699802
0.053236402
-0.35474072
-0.0015249557
-0.38631694
-0.071169396
-0.39853789
-0.079014962
-0.408115
-0.052418407
-0.42855677
-0.019811125
-0.46089267
3.9689201e-05
-0.49989107
0.004724175
-0.54090703
0.0008590459
-0.58154808
-0.005051782
-0.62154855
-0.0088303627
-0.66223491
-0.009856665
-0.7054448
-0.0089257405
-0.75229786
-0.007109019
-0.80323693
-0.0053031497
-0.85832428
-0.0038550606
-0.9175373
-0.0027804308
-0.98094704
-0.0019986594
-1.0487074
-0.0014158985
-1.1211118
-0.00096430122
-1.1984686
-0.00059535695
-1.2811925
-0.00028288595
-1.3696974
0.063921266
-0.329967
0.0056719561
-0.36193763
-0.080478353
-0.37700798
-0.095379673
-0.38217318
-0.063474515
-0.39705889
-0.021455503
-0.42691239
0.0044647862
-0.46531777
0.010697072
-0.50586397
0.0054146276
-0.54546261
-0.0032077689
-0.5833921
-0.0093905017
-0.62098841
-0.01156481
-0.66052676
-0.010757017
-0.70361352
-0.0085416484
-0.75086523
-0.0062551216
-0.80228496
-0.0044433135
-0.85773603
-0.00315189
-0.91716584
-0.0022638018
-0.9806819
-0.001644546
-1.0484788
-0.0011887467
-1.1208873
-0.00083074374
-1.1982332
-0.00052764188
-1.2809478
-0.00025950659
-1.3694379
0.074183359
-0.30534649
0.011878277
-0.33617332
-0.089549814
-0.35286617
-0.11480698
-0.35758068
-0.078029946
-0.36761775
-0.02405337
-0.39446102
0.010112937
-0.43256054
0.018400337
-0.47302103
0.011575544
-0.51202488
-0.00041769304
-0.54825268
-0.0098531324
-0.58292947
-0.01374529
-0.61880793
-0.013173964
-0.65810981
-0.010413588
-0.70174159
-0.0074453006
-0.74967505
-0.0051143147
-0.80161396
-0.003512724
-0.85737519
-0.0024754901
-0.91695416
-0.0018054145
-0.98052103
-0.0013486666
-1.0483189
-0.0010081998
-1.1207099
-0.00072893383
-1.1980319
-0.00047901397
-1.2807283
-0.00024452741
-1.3691933
0.083787803
-0.28087782
0.016652833
-0.31012105
-0.099954258
-0.32576888
-0.13528513
-0.33238802
-0.096022427
-0.3395882
-0.028238361
-0.36343276
0.017071524
-0.40141961
0.028055269
-0.44221547
0.019604584
-0.48105007
0.0035492585
-0.51599184
-0.010169282
-0.54793653
-0.016542681
-0.58013208
-0.016393157
-0.61558873
-0.012897879
-0.65562552
-0.0089715718
-0.70021531
-0.0059082293
-0.74888114
-0.0038669047
-0.80125978
-0.002620422
-0.85723026
-0.0018831609
-0.91687641
-0.0014298638
-0.98043983
-0.0011189543
-1.0482081
-0.00087396373
-1.1205648
-0.00065640071
-1.1978545
-0.00044658729
-1.2805262
-0.00023510281
-1.3689582
0.092472137
-0.25730261
0.021088569
-0.28531356
-0.11113524
-0.29894006
-0.15449121
-0.30656279
-0.11524223
-0.31316822
-0.033848341
-0.33397822
0.025416487
-0.37177772
0.039921641
-0.41328598
0.029745016
-0.45235591
0.0089582686
-0.48645908
-0.01026794
-0.51589318
-0.020134809
-0.54434441
-0.020677714
-0.57584752
-0.016208405
-0.61227821
-0.010956828
-0.65364027
-0.006870401
-0.69925314
-0.0042161457
-0.7485319
-0.002677964
-0.80120224
-0.001851466
-0.85726195
-0.0014105244
-0.91689575
-0.0011468599
-0.98041192
-0.00095439114
-1.0481277
-0.00078100861
-1.1204402
-0.0006091756
-1.197692
-0.0004267208
-1.2803346
-0.00022867093
-1.3687296
0.1002433
-0.23505165
0.025051499
-0.26126554
-0.12229776
-0.27415104
-0.17154908
-0.2818822
-0.13309865
-0.28870637
-0.04046498
-0.30655159
0.035117665
-0.3436794
0.054164877
-0.38602096
0.042145519
-0.42568649
0.016026794
-0.45942443
-0.01006787
-0.48665915
-0.024737921
-0.51129007
-0.026333935
-0.53868819
-0.020587383
-0.57146854
-0.013543595
-0.60969144
-0.0080540677
-0.6524566
-0.0045573955
-0.69891189
-0.0026182108
-0.74859165
-0.0016729762
-0.80138073
-0.0012575654
-0.85741491
-0.001069233
-0.91697338
-0.00095306774
-0.98041325
-0.00084660075
-1.0480621
-0.00072199678
-1.1203274
-0.00058191684
-1.1975368
-0.00041591205
-1.2801474
-0.00022414518
-1.3685054
0.10718477
-0.2143137
0.028572353
-0.2385725
-0.13324362
-0.25031968
-0.18766845
-0.25803167
-0.14940741
-0.26557344
-0.047922591
-0.28124875
0.04565789
-0.31709181
0.070621301
-0.36013582
0.056758695
-0.40063413
0.024765377
-0.43442507
-0.009559779
-0.45993252
-0.030609711
-0.48078736
-0.033715411
-0.50390859
-0.02630375
-0.53297182
-0.01688332
-0.56812882
-0.0095138041
-0.6082317
-0.0048805768
-0.65213342
-0.0023992431
-0.69913086
-0.0012963629
-0.74896826
-0.00092536094
-0.80171293
-0.00085263303
-0.85763151
-0.00085140199
-0.91707504
-0.00083627931
-0.98042357
-0.0007830162
-1.0480011
-0.0006893711
-1.12022
-0.00056879052
-1.1973839
-0.00041173275
-1.2799598
-0.00022178431
-1.3682836
0.1133862
-0.19516511
0.031724889
-0.21746623
-0.14372426
-0.22809186
-0.20273236
-0.23525577
-0.1644445
-0.24299458
-0.055683774
-0.25781226
0.05632029
-0.29191115
0.088933171
-0.33540368
0.073403792
-0.37678092
0.035034003
-0.41090276
-0.008946221
-0.43503863
-0.038141233
-0.452401
-0.043222151
-0.47128062
-0.033654776
-0.49655757
-0.021136014
-0.52871912
-0.011302998
-0.56633962
-0.0051666792
-0.6079456
-0.0019647994
-0.65256786
-0.00065343476
-0.69977379
-0.00035202738
-0.7495416
-0.00045139398
-0.80211417
-0.00062099267
-0.85786192
-0.00073720518
-0.91717412
-0.00077907457
-0.98042751
-0.00074972214
-1.0479407
-0.00067543477
-1.1201133
-0.00056550439
-1.1972301
-0.00041249009
-1.2797691
-0.00022172345
-1.3680619
0.11892298
-0.17761851
0.034551654
-0.19799188
-0.15361016
-0.20758034
-0.21673922
-0.21408501
-0.1779242
-0.22177606
-0.062612131
-0.23606623
0.06679919
-0.26829116
0.10879881
-0.31177679
0.092047723
-0.35404761
0.047022151
-0.38876907
-0.0083438234
-0.41150516
-0.047871862
-0.425308
-0.055278705
-0.44034445
-0.042951911
-0.46198349
-0.026461302
-0.49123228
-0.013464627
-0.5265575
-0.0053877111
-0.56611859
-0.0012442604
-0.60866614
0.00034057269
-0.65356187
0.00054259997
-0.70066842
0.00019637607
-0.75018937
-0.00022251806
-0.80251264
-0.00053018522
-0.85806894
-0.00070100816
-0.91725218
-0.00076031815
-0.98041691
-0.00073786045
-1.0478783
-0.00067651074
-1.1200023
-0.00056991517
-1.1970727
-0.00041609219
-1.2795747
-0.00022319744
-1.3678387
0.12267731
-0.1890695
0.037089935
-0.18015679
-0.16278481
-0.18881723
-0.22967763
-0.19464193
-0.18994603
-0.20206318
-0.068346626
-0.21604157
0.077108493
-0.24637553
0.12965187
-0.28914422
0.11279968
-0.33252875
0.061412927
-0.36843839
-0.0068284612
-0.39028443
-0.059711748
-0.39966527
-0.070183695
-0.41040301
-0.054400102
-0.42889626
-0.032998069
-0.45544672
-0.016018057
-0.48867885
-0.0055006589
-0.52644455
-0.00015376673
-0.56720908
0.0017895273
-0.6101151
0.0018590817
-0.65487835
0.0011724043
-0.70164444
0.00039756043
-0.75080944
-0.00018744747
-0.80285538
-0.00054087152
-0.85822908
-0.00071485304
-0.91729765
-0.00076352496
-0.98039125
-0.00074824396
-1.0478066
-0.0006902961
-1.1198819
-0.00057762201
-1.1969112
-0.00042036357
-1.2793775
-0.00022506796
-1.3676136
0.12658649
-0.18335193
0.039607099
-0.19158666
-0.17115669
-0.1717849
-0.24151148
-0.17698338
-0.20061627
-0.18397169
-0.07286161
-0.1975482
0.087195115
-0.22612819
0.15067828
-0.26740194
0.13463298
-0.31097752
0.078203633
-0.34931945
-0.0028967014
-0.37237015
-0.072191658
-0.37780452
-0.087676467
-0.3821725
-0.067958801
-0.39684431
-0.040758621
-0.4211357
-0.01894535
-0.45251943
-0.005438362
-0.48874114
0.0014025524
-0.52800087
0.0038107043
-0.56923026
0.0037149946
-0.61197101
0.002574542
-0.65628049
0.001307133
-0.70255402
0.00032882244
-0.75132571
-0.00028564003
-0.80311061
-0.00061332239
-0.85833061
-0.00075320259
-0.91730797
-0.00078740041
-0.98035209
-0.00077273514
-1.0477241
-0.00070263329
-1.1197569
-0.00058407973
-1.1967474
-0.00042417713
-1.2791784
-0.00022648439
-1.3673872
0.13048594
-0.17742876
0.042559054
-0.18630389
-0.17803329
-0.18471007
-0.25224356
-0.16105282
-0.21001185
-0.1675878
-0.076301592
-0.18053171
0.09704183
-0.20739491
0.1712109
-0.24666081
0.15660529
-0.28937424
0.095479602
-0.32825349
0.0037976187
-0.35601377
-0.083856277
-0.36070553
-0.10695311
-0.35852787
-0.083762377
-0.36636892
-0.049558575
-0.38804436
-0.022150991
-0.41793006
-0.0051032427
-0.45285455
0.0035325172
-0.49087111
0.0065303297
-0.53072049
0.0062443695
-0.57175964
0.0045221894
-0.61391866
0.0025934031
-0.65756676
0.0010663193
-0.70329151
8.201408e-05
-0.75169337
-0.00045875322
-0.80326518
-0.00071228051
-0.85837153
-0.00080462507
-0.91729074
-0.00082394488
-0.98030088
-0.00079299174
-1.0476338
-0.00071204181
-1.119629
-0.00059041265
-1.1965812
-0.00042701065
-1.2789779
-0.00022706977
-1.3671601
0.13422257
-0.17139018
0.045727964
-0.18059767
-0.18385519
-0.18048199
-0.26261186
-0.17434177
-0.2182501
-0.15281457
-0.078913785
-0.16497561
0.10656099
-0.19005087
0.19085293
-0.22703694
0.17810104
-0.26815657
0.1125465
-0.30644114
0.01199378
-0.33644965
-0.094256682
-0.34561337
-0.1275921
-0.34006655
-0.1026248
-0.33966544
-0.059686203
-0.3562413
-0.025408569
-0.38478678
-0.0043659025
-0.4186674
0.0063536619
-0.45567569
0.010077681
-0.49441846
0.0095916712
-0.53406779
0.0071520312
-0.57438948
0.0043613581
-0.61568661
0.0020883955
-0.65858883
0.00058563086
-0.70379513
-0.00025465257
-0.75189747
-0.00065617299
-0.80332129
-0.00081512889
-0.85836103
-0.00086216462
-0.91725252
-0.00085745182
-0.98023642
-0.00080793944
-1.0475379
-0.00072247012
-1.1194969
-0.00059548521
-1.1964127
-0.00042830973
-1.2787767
-0.0002267205
-1.3669334
0.13773363
-0.16549208
0.04898847
-0.17465068
-0.18865734
-0.17579552
-0.27194878
-0.17114507
-0.22889252
-0.16369935
-0.080813091
-0.15091526
0.11558688
-0.17400149
0.20939566
-0.2085936
0.19849104
-0.24742693
0.12920514
-0.28481522
0.01979784
-0.3142452
-0.1030694
-0.32763693
-0.14982406
-0.3233814
-0.12500165
-0.3176897
-0.072742129
-0.32660952
-0.028664103
-0.35298576
-0.0030481559
-0.38610453
0.0099840846
-0.42229783
0.014576053
-0.46017406
0.013901925
-0.49872871
0.0106139
-0.53752966
0.0067351957
-0.57676332
0.0034731009
-0.61707132
0.0012569691
-0.65926017
-3.1367528e-06
-0.70404665
-0.00060578587
-0.75194786
-0.00084147902
-0.80329494
-0.00090839595
-0.8583148
-0.00091118195
-0.91719879
-0.00087997436
-0.98016439
-0.00082119631
-1.0474391
-0.00072984301
-1.1193625
-0.00059757196
-1.1962435
-0.00042781107
-1.2785756
-0.00022553617
-1.3667078
0.1410223
-0.15995185
0.052268891
-0.1687725
-0.19234831
-0.17095971
-0.28003544
-0.16770886
-0.2384573
-0.16158029
-0.089538004
-0.15497444
0.12407317
-0.15940155
0.22673126
-0.1913371
0.21745486
-0.22755742
0.14513094
-0.26335273
0.026251427
-0.2912688
-0.11200802
-0.30530658
-0.17253791
-0.30492308
-0.15032016
-0.2980629
-0.0901761
-0.30025572
-0.032716772
-0.32255685
-0.0009313562
-0.35510256
0.014537216
-0.39065766
0.020135412
-0.42785719
0.019311013
-0.46558315
0.015063264
-0.50317808
0.0098563945
-0.54065086
0.0053160363
-0.57860625
0.0021368611
-0.61795121
0.00029318642
-0.6595565
-0.00058764265
-0.70406479
-0.00091640287
-0.75187293
-0.00099096303
-0.80321237
-0.00097790798
-0.85824807
-0.00094185358
-0.91713691
-0.00089475533
-0.98009083
-0.00082990225
-1.0473391
-0.00073250644
-1.1192276
-0.00059720822
-1.1960741
-0.00042588482
-1.2783752
-0.00022363542
-1.3664842
0.14408261
-0.15490114
0.055516296
-0.16319925
-0.19488685
-0.16623396
-0.28672623
-0.16426891
-0.24683429
-0.15933188
-0.09744638
-0.15367191
0.12364893
-0.1545502
0.24278492
-0.1754552
0.23491367
-0.20879591
0.15997252
-0.24239901
0.031704547
-0.26880585
-0.12172761
-0.28154922
-0.19407791
-0.28376658
-0.17617224
-0.279071
-0.11098877
-0.27725023
-0.039041415
-0.29393108
0.0021307293
-0.32561893
0.020130624
-0.36069597
0.02683654
-0.39735878
0.025935785
-0.43448196
0.020652758
-0.47117265
0.013880079
-0.50720176
0.0077325254
-0.54306735
0.0032781914
-0.57974758
0.0006327127
-0.61829074
-0.0006360462
-0.65950809
-0.0010854404
-0.70389575
-0.0011512503
-0.75171264
-0.0010907476
-0.80309953
-0.0010167411
-0.85817318
-0.00095689671
-0.91707477
-0.000902474
-0.98001826
-0.00083271709
-1.0472389
-0.00073246071
-1.1190924
-0.00059505259
-1.1959049
-0.00042257374
-1.2781763
-0.000221139
-1.3662631
0.14693693
-0.15049654
0.058700213
-0.15808506
-0.19628713
-0.16179898
-0.29201317
-0.16094702
-0.25397833
-0.15712488
-0.10447577
-0.15230248
0.12341546
-0.15343843
0.25300593
-0.16477122
0.25067829
-0.19121983
0.17345645
-0.22227983
0.036401185
-0.24709564
-0.13166224
-0.25887121
-0.2139679
-0.26165923
-0.19990222
-0.2600366
-0.13290432
-0.25715545
-0.04827236
-0.26801929
0.0056315666
-0.29743192
0.02693501
-0.33242332
0.034733886
-0.36859332
0.033864134
-0.40528713
0.027522783
-0.44135198
0.018969888
-0.47626246
0.010857877
-0.51032711
0.0047503286
-0.54453949
0.001016792
-0.58013166
-0.00079266101
-0.61813412
-0.0014088454
-0.65918469
-0.0014474144
-0.70359959
-0.0012961508
-0.75150724
-0.0011381593
-0.80297811
-0.0010282014
-0.85810188
-0.00095903377
-0.91701821
-0.00090265355
-0.97994832
-0.00083166008
-1.0471397
-0.00072987052
-1.1189575
-0.00059064024
-1.1957368
-0.00041809002
-1.2779793
-0.00021817979
-1.3660449
0.14963445
-0.14689952
0.061813402
-0.15360973
-0.19657594
-0.15779625
-0.29588019
-0.15793196
-0.25982261
-0.15510274
-0.11052849
-0.15107216
0.12332096
-0.15220798
0.26317267
-0.16360517
0.26483096
-0.17892388
0.1854341
-0.20319749
0.040204828
-0.22608348
-0.14147851
-0.23727937
-0.23262241
-0.24021671
-0.22098402
-0.24057743
-0.15408352
-0.2388574
-0.060331432
-0.24509638
0.008652352
-0.27104007
0.035177614
-0.30567452
0.043802752
-0.34149218
0.043133504
-0.37786269
0.035780905
-0.41354526
0.025289505
-0.4476716
0.014848159
-0.48025274
0.0066430567
-0.51221984
0.001454776
-0.54497747
-0.001107253
-0.57981707
-0.001961603
-0.61758136
-0.0019541045
-0.658678
-0.0016560406
-0.7032397
-0.0013520201
-0.75129338
-0.0011391947
-0.80286712
-0.0010176986
-0.85804321
-0.00095051991
-0.91697035
-0.00089717095
-0.97988281
-0.00082721121
-1.0470423
-0.00072434501
-1.1188238
-0.00058470496
-1.1955702
-0.00041278578
-1.2777847
-0.00021491688
-1.36583
-0.14426793
0.15222249
0.064876938
-0.14996306
-0.19574434
-0.15444133
-0.29830993
-0.15536651
-0.26433435
-0.15342021
-0.11554379
-0.15008744
0.12350565
-0.15125686
0.27294624
-0.16198155
0.27853203
-0.17730624
0.20187482
-0.1953646
0.043336237
-0.20632889
-0.15087972
-0.21668226
-0.25023503
-0.21966674
-0.24015951
-0.22104122
-0.17358436
-0.22107659
-0.074288637
-0.2249002
0.010264006
-0.24670803
0.044607654
-0.28047011
0.054112281
-0.31598405
0.053706692
-0.35206537
0.04549084
-0.38757262
0.032986365
-0.42124212
0.019878702
-0.45270214
0.0090715068
-0.48268119
0.0019640362
-0.5127291
-0.0016419413
-0.54444279
-0.0028366498
-0.57894202
-0.0027666324
-0.61676884
-0.0022507825
-0.65808326
-0.0017187155
-0.702873
-0.0013313143
-0.75110126
-0.0011036678
-0.80278115
-0.00099072004
-0.85800301
-0.00093438917
-0.91693313
-0.00088767401
-0.97982235
-0.00081978406
-1.0469469
-0.000717125
-1.1186914
-0.00057770974
-1.1954053
-0.00040689829
-1.2775927
-0.00021147305
-1.3656185
-0.14728225
0.067891264
-0.14260407
0.15467215
-0.19384656
-0.15186083
-0.29937541
-0.15337585
-0.26756793
-0.15213294
-0.11957352
-0.14939048
0.1241033
-0.15068509
0.28211968
-0.1604303
0.29153138
-0.1749809
0.21766956
-0.19310097
0.058466373
-0.21049473
-0.15946183
-0.19774679
-0.26660415
-0.20031315
-0.25763319
-0.20219306
-0.19117097
-0.20345461
-0.088680082
-0.20668514
0.009862792
-0.22449898
0.054671134
-0.25677151
0.065667453
-0.29202529
0.065508105
-0.32778546
0.056676563
-0.3632511
0.042191707
-0.39677796
0.026138854
-0.42750227
0.012184474
-0.45581511
0.0025815284
-0.48329868
-0.0024545366
-0.51191651
-0.0041450171
-0.54313442
-0.0040031046
-0.57770555
-0.0031819856
-0.61583763
-0.0023157994
-0.65748617
-0.0016585669
-0.70254575
-0.0012514743
-0.75095345
-0.0010420718
-0.8027298
-0.0009527816
-0.85798462
-0.00091384724
-0.91690695
-0.00087554732
-0.97976658
-0.00081061292
-1.0468534
-0.00070876135
-1.1185604
-0.00056991965
-1.1952423
-0.00040068516
-1.2774035
-0.00020796126
-1.3654105
-0.15008707
-0.19104175
-0.14560634
0.070893534
-0.1423168
0.1569642
-0.2992279
-0.15200835
-0.26965921
-0.15128456
-0.12265979
-0.14904666
0.12508421
-0.15037139
0.29064151
-0.15920692
0.30334051
-0.17223943
0.23251081
-0.18982216
0.07319222
-0.20782682
-0.15377336
-0.2161832
-0.28185234
-0.1824986
-0.27333562
-0.18461072
-0.20681834
-0.18654568
-0.10228475
-0.18984995
0.0076557972
-0.20447815
0.0647702
-0.23459805
0.078417865
-0.26952192
0.078406676
-0.30492386
0.069299618
-0.34040852
0.053011826
-0.37407121
0.033837314
-0.40447642
0.016168649
-0.43148644
0.0033762602
-0.45660984
-0.003601718
-0.4821515
-0.0060218141
-0.51003971
-0.005807899
-0.54132962
-0.0045749804
-0.57631256
-0.0032399104
-0.61491352
-0.0021894359
-0.6569553
-0.0015056679
-0.70229156
-0.0011311668
-0.75086436
-0.00096536849
-0.80271721
-0.00091056054
-0.85798791
-0.00089112925
-0.91689137
-0.00086218761
-0.97971501
-0.00080048349
-1.0467617
-0.00069957212
-1.1184307
-0.0005617867
-1.1950812
-0.00039437273
-1.2772171
-0.00020447707
-1.365206
-0.15124894
-0.29806603
-0.14935367
-0.18729442
-0.14505097
0.073627702
-0.1428709
0.15920654
-0.27079296
-0.1508746
-0.12477207
-0.14917229
0.12642218
-0.15038464
0.29848634
-0.15821622
0.31354596
-0.16941237
0.24586752
-0.18559613
0.087021789
-0.20365173
-0.14686165
-0.21473854
-0.28985968
-0.20817586
-0.28742538
-0.16840884
-0.22063241
-0.17079665
-0.11451902
-0.17431141
0.0043107014
-0.18650485
0.074372151
-0.2140801
0.092216467
-0.24839665
0.092276999
-0.28339224
0.083245128
-0.31886937
0.065507414
-0.35290411
0.043182631
-0.38341653
0.021257544
-0.40956532
0.0044476776
-0.43255786
-0.0051637234
-0.45504783
-0.0086283315
-0.47954498
-0.0083560564
-0.50749155
-0.0065809708
-0.53932363
-0.0046080295
-0.57494444
-0.0030074771
-0.61409548
-0.0019216832
-0.65653929
-0.0012917636
-0.70213096
-0.00099020463
-0.75083952
-0.00088523391
-0.80274254
-0.00086747981
-0.85801156
-0.0008683868
-0.91688517
-0.00084854077
-0.97966695
-0.00078987881
-1.0466714
-0.00069018708
-1.1183023
-0.00055359797
-1.1949219
-0.00038811743
-1.2770335
-0.0002010725
-1.365005
-0.15120684
-0.27083506
-0.15184052
-0.29557918
-0.1493134
-0.18303198
-0.14544642
0.076203224
-0.14433529
0.16109727
-0.12577054
-0.14987612
0.12825813
-0.15100824
0.30560264
-0.15750094
0.32207462
-0.16674488
0.25737591
-0.18092076
0.09943362
-0.19800796
-0.13951566
-0.21099772
-0.29642291
-0.20817531
-0.30166002
-0.19394121
-0.23280256
-0.1562387
-0.12530108
-0.16001459
0.0003736802
-0.17037439
0.083184378
-0.19531708
0.10674099
-0.22860462
0.10700614
-0.26312579
0.0983381
-0.29848522
0.07969193
-0.33305388
0.054376178
-0.36409766
0.027728131
-0.38988712
0.0059431604
-0.4110608
-0.0071743589
-0.43054722
-0.012143531
-0.45153263
-0.011860501
-0.47604054
-0.009380868
-0.50469165
-0.0065581679
-0.53737349
-0.004211154
-0.57374076
-0.0025653371
-0.61345183
-0.001564161
-0.65626689
-0.0010490806
-0.70207208
-0.00084638196
-0.75087838
-0.0008066736
-0.80280335
-0.00082661145
-0.85805333
-0.00084721363
-0.9168865
-0.00083542565
-0.97962141
-0.00077959154
-1.046582
-0.00068102977
-1.1181749
-0.00054558287
-1.1947645
-0.00038204404
-1.2768525
-0.00019779743
-1.3648072
-0.15155476
-0.12542262
-0.15317718
-0.2694984
-0.15290953
-0.29198305
-0.15003467
-0.17844373
-0.14652882
0.078396758
-0.14658763
0.16242666
0.13079596
-0.15241396
0.31185825
-0.15726384
0.32902447
-0.1644508
0.266658
-0.17602697
0.11022217
-0.19170931
-0.13168116
-0.20584246
-0.3015073
-0.20591333
-0.31438165
-0.19545368
-0.25173044
-0.17501333
-0.13476981
-0.14676997
-0.003687111
-0.1559538
0.091047677
-0.17823769
0.12158882
-0.21016492
0.1224443
-0.24404277
0.11436666
-0.27915435
0.095515158
-0.31430844
0.067604498
-0.3462822
0.035904856
-0.37227438
0.0080730789
-0.39201704
-0.0096785085
-0.40855665
-0.016779038
-0.42591172
-0.016567313
-0.44682582
-0.013187242
-0.47223416
-0.0092499309
-0.50199989
-0.0059129995
-0.53567165
-0.0035116047
-0.57279449
-0.0019944361
-0.61302155
-0.0011667572
-0.65614922
-0.00080443852
-0.70211403
-0.00070936564
-0.75097568
-0.00073372934
-0.80289623
-0.00079077774
-0.85810977
-0.00082877004
-0.91689316
-0.00082373825
-0.97957726
-0.00077010101
-1.0464929
-0.00067229499
-1.1180482
-0.00053790217
-1.1946086
-0.00037622655
-1.2766741
-0.00019466523
-1.3646125
-0.15468818
0.13392937
-0.1545164
-0.12408339
-0.15563666
-0.26677127
-0.15466247
-0.28735525
-0.15132675
-0.1736458
-0.14808388
0.079893012
-0.14935623
0.16315865
0.31706328
-0.15761899
0.33434857
-0.16258794
0.2735212
-0.171314
0.11890691
-0.18471172
-0.12374488
-0.1996456
-0.30494579
-0.20240396
-0.32538282
-0.19491217
-0.2690177
-0.17816642
-0.15714492
-0.15263821
-0.0075396761
-0.14291741
0.097927217
-0.16283334
0.1364069
-0.19305576
0.13837807
-0.22609869
0.13108796
-0.26076408
0.11282153
-0.29646073
0.08297868
-0.32968263
0.046122772
-0.35650012
0.01112362
-0.37532492
-0.012692819
-0.38900273
-0.022786165
-0.40254952
-0.022787855
-0.41969118
-0.018246221
-0.44176684
-0.012862415
-0.46862168
-0.0082372701
-0.49967562
-0.0048422606
-0.53434099
-0.0026328882
-0.57215604
-0.0013698875
-0.61281842
-0.00076993472
-0.65618372
-0.00057502448
-0.70224837
-0.00058439721
-0.75112502
-0.00067131277
-0.80301569
-0.00076164367
-0.85817689
-0.00081400305
-0.91690289
-0.00081404493
-0.97953331
-0.00076161746
-1.0464036
-0.00066420449
-1.1179219
-0.00053065475
-1.1944542
-0.00037069978
-1.276498
-0.00019168135
-1.3644208
-0.15863947
0.32101457
-0.15742277
0.13683575
-0.1584072
-0.12131285
-0.15885518
-0.26257856
-0.15700084
-0.28168116
-0.15311736
-0.16861232
-0.15016158
0.08069837
-0.15256926
0.16324694
0.3379716
-0.16124202
0.27796824
-0.16703497
0.12534687
-0.17775395
-0.11635631
-0.19210028
-0.30709114
-0.19750025
-0.3347273
-0.19305948
-0.2846438
-0.17928606
-0.17801626
-0.15729508
-0.028595795
-0.13158209
0.10426741
-0.1492576
0.15077234
-0.17719878
0.15457134
-0.20924903
0.14823333
-0.24324406
0.13127873
-0.27922127
0.10025627
-0.31373832
0.058443505
-0.34200336
0.015344361
-0.36072086
-0.016183223
-0.37183452
-0.03043527
-0.38135362
-0.03087743
-0.39445995
-0.024845802
-0.4130916
-0.017591138
-0.43703812
-0.011314939
-0.46554401
-0.0066419945
-0.49787589
-0.0035307755
-0.5334431
-0.001685064
-0.57184086
-0.00075191278
-0.61283644
-0.00040144271
-0.6563573
-0.00036960626
-0.70246316
-0.00047825638
-0.75131807
-0.00062253435
-0.8031548
-0.00074022162
-0.85825067
-0.00080348059
-0.91691346
-0.00080660658
-0.97948833
-0.00075438404
-1.0463134
-0.0006568748
-1.1177956
-0.00052387543
-1.194301
-0.00036546872
-1.2763243
-0.0001888368
-1.364232
-0.16053616
0.33986829
-0.15953983
0.32313163
-0.16153285
0.1399614
-0.16306571
-0.11710232
-0.1627967
-0.25678271
-0.16001408
-0.27478444
-0.15558135
-0.16319256
-0.15275743
0.080886541
-0.1562265
0.16256934
0.28012185
-0.16339563
0.12932138
-0.17100949
-0.10995644
-0.18415383
-0.30751721
-0.19167421
-0.34225482
-0.18997274
-0.29848981
-0.17921347
-0.19724173
-0.16006059
-0.049662542
-0.13622833
0.095164855
-0.12247954
0.1647247
-0.16320996
0.1707265
-0.19335394
0.16544226
-0.22645796
0.15032308
-0.26228841
0.11858262
-0.29754762
0.072175096
-0.32746991
0.0202986
-0.3469576
-0.020380144
-0.35652394
-0.040024
-0.36224579
-0.041255
-0.37097605
-0.033311679
-0.38599407
-0.0236413
-0.40704143
-0.015276115
-0.43307694
-0.0089932265
-0.46319278
-0.0047351324
-0.49667153
-0.0021360155
-0.53299215
-0.00075594731
-0.57183683
-0.00018267116
-0.61305521
-7.626611e-05
-0.65665064
-0.00019638465
-0.70274503
-0.00039632378
-0.75154428
-0.00058814559
-0.80330688
-0.00072687662
-0.85832728
-0.00079731916
-0.91692274
-0.00080146767
-0.97944124
-0.00074842352
-1.0462218
-0.00065025798
-1.1176693
-0.00051755401
-1.1941489
-0.00036051002
-1.2761526
-0.00018610542