/*--------------------------------*- C++ -*----------------------------------*\
| =========                 |                                                 |
| \\      /  F ield         | OpenFOAM: The Open Source CFD Toolbox           |
|  \\    /   O peration     | Version:  5.0                                   |
|   \\  /    A nd           | Web:      www.OpenFOAM.org                      |
|    \\/     M anipulation  |                                                 |
\*---------------------------------------------------------------------------*/
FoamFile
{
    version     2.0;
    format      ascii;
    class       surfaceScalarField;
    location    "400";
    object      phi_0;
}
// * * * * * * * * * * * * * * * * * * * * * * * * * * * * * * * * * * * * * //

dimensions      [0 3 -1 0 0 0 0];

internalField   nonuniform List<scalar> 
18180
(
-0.0018849265
-1.3894556
-0.0036675904
-1.2994882
-0.0018371154
-1.3876185
-0.0053395227
-1.2154736
-0.0035737708
-1.2977516
-0.001762982
-1.3858555
-0.0069219781
-1.1369894
-0.0052141445
-1.2138332
-0.0034328882
-1.2960817
-0.0016530769
-1.3842025
-0.0083963116
-1.0636458
-0.0067710516
-1.1354325
-0.0050184969
-1.2122476
-0.0032224253
-1.2945123
-0.001523298
-1.3826792
-0.0097435135
-0.99509738
-0.0082419996
-1.0621749
-0.0065363739
-1.1339146
-0.0047164584
-1.2107536
-0.0029681453
-1.2930675
-0.0013847738
-1.3812944
-0.010924994
-0.93102039
-0.0096162425
-0.99372314
-0.0079977554
-1.0607135
-0.0061570699
-1.132474
-0.0043425294
-1.2093792
-0.0026937454
-1.2917585
-0.0012574384
-1.3800369
-0.011896428
-0.87113984
-0.010871489
-0.92976515
-0.0094131471
-0.99230774
-0.007565377
-1.0593052
-0.0056645542
-1.131152
-0.003932709
-1.2081402
-0.002439204
-1.2905767
-0.0011501648
-1.3788868
-0.012613427
-0.81518734
-0.011979237
-0.8700321
-0.010798504
-0.92837979
-0.0089726759
-0.99090044
-0.0069533399
-1.0580164
-0.0051114222
-1.1299733
-0.0035509717
-1.2070284
-0.0022241711
-1.2895027
-0.001065137
-1.3778216
-0.01294624
-0.76296776
-0.012875747
-0.81429083
-0.012188055
-0.86864254
-0.010431229
-0.92692124
-0.008239188
-0.9896146
-0.0062384867
-1.0568894
-0.004594217
-1.12893
-0.0032304997
-1.2060221
-0.0020559119
-1.288512
-0.0009969715
-1.3768247
-0.012770179
-0.71426448
-0.013565143
-0.76227836
-0.013645035
-0.81283385
-0.012007198
-0.86706657
-0.0095689955
-0.92559143
-0.0073279469
-0.98852514
-0.0055678593
-1.0559157
-0.0041657299
-1.1279948
-0.0029855476
-1.2050925
-0.0019256089
-1.2875833
-0.0009382773
-1.3758864
-0.011945931
-0.66894815
-0.014194256
-0.71363537
-0.015311737
-0.76061166
-0.013817514
-0.81102353
-0.010996386
-0.86563918
-0.0083970976
-0.92452228
-0.0064647942
-0.9876282
-0.005025219
-1.0550562
-0.003850632
-1.1271297
-0.0028021379
-1.2042159
-0.0018175893
-1.286704
-0.00088277522
-1.3750036
-0.010318489
-0.6267865
-0.014803332
-0.66833908
-0.017207549
-0.71173956
-0.015939878
-0.75848929
-0.01260146
-0.80941846
-0.0094643224
-0.86457196
-0.0072712133
-0.92371586
-0.0057904622
-0.98686296
-0.004649335
-1.0542575
-0.0036267301
-1.1263051
-0.0026533148
-1.2033802
-0.0017161004
-1.2858707
-0.00082592745
-1.3741777
-0.0077897285
-0.58754779
-0.015268637
-0.62632119
-0.019428688
-0.66611794
-0.018443636
-0.7092358
-0.014441524
-0.75664923
-0.010530581
-0.8083522
-0.0079658908
-0.86387728
-0.0064321288
-0.92307419
-0.0053629441
-0.98614935
-0.0044021364
-1.0534821
-0.0034505877
-1.1255078
-0.0025122376
-1.2025841
-0.0016091434
-1.2850875
-0.00076451915
-1.3734132
-0.0042702643
-0.55104745
-0.015478426
-0.587338
-0.0221948
-0.62355508
-0.02153627
-0.6630253
-0.016604957
-0.70707237
-0.01159284
-0.75558697
-0.0085063116
-0.80781178
-0.0069084378
-0.86340097
-0.0059609763
-0.92247616
-0.0051169653
-0.98543452
-0.0042164101
-1.0527163
-0.0032812263
-1.1247388
-0.0023594765
-1.2018337
-0.0014897121
-1.2843623
-0.00069712849
-1.372716
0.00025894504
-0.51700946
-0.015379588
-0.55114629
-0.025695664
-0.58383713
-0.025465536
-0.61962582
-0.019232923
-0.66039734
-0.012689477
-0.70597573
-0.0088074744
-0.75528581
-0.0071427864
-0.80757743
-0.0063966576
-0.86296529
-0.0057481591
-0.92184496
-0.0049514347
-0.98469949
-0.0040358052
-1.0519617
-0.0030900771
-1.1240082
-0.0021842255
-1.2011392
-0.0013562836
-1.2837031
-0.00062496061
-1.3720911
0.0059455525
-0.48522786
-0.014924481
-0.51746457
-0.030111722
-0.54673023
-0.030476939
-0.57882573
-0.022482697
-0.61637604
-0.013832907
-0.65925391
-0.0088132961
-0.70596991
-0.0070042922
-0.7554243
-0.0065739731
-0.80740011
-0.0062483083
-0.86246514
-0.0056483137
-0.92114809
-0.004790271
-0.98394503
-0.0038199621
-1.0512318
-0.0028615114
-1.1233309
-0.0019846305
-1.2005109
-0.001212512
-1.2831156
-0.00055153192
-1.3715395
0.012970383
-0.45561586
-0.014206214
-0.48594613
-0.035666307
-0.51190998
-0.036820497
-0.54038667
-0.026523083
-0.57478534
-0.015041555
-0.61516739
-0.0084344325
-0.65963277
-0.0063668161
-0.70660739
-0.0064147691
-0.75558351
-0.0065562051
-0.80709222
-0.0062857017
-0.86182775
-0.0055632803
-0.92037508
-0.0045727617
-0.98319223
-0.0035430256
-1.0505503
-0.0025936982
-1.1227219
-0.0017672806
-1.1999561
-0.001065718
-1.2826014
-0.00048109805
-1.3710584
0.02177577
-0.42848464
-0.012972821
-0.45684925
-0.042491149
-0.47912129
-0.044699366
-0.50403112
-0.031511578
-0.53539818
-0.016347672
-0.57347923
-0.007560983
-0.61604084
-0.0050908346
-0.66090875
-0.0057543375
-0.70726782
-0.0066979289
-0.75544178
-0.0068893495
-0.80648857
-0.0063837929
-0.86100724
-0.0053890817
-0.91955876
-0.0042561502
-0.9824791
-0.0032013717
-1.0499426
-0.0022968342
-1.1221923
-0.001544354
-1.1994775
-0.00092448224
-1.282158
-0.00041718648
-1.3706413
0.032373881
-0.40375067
-0.010395326
-0.43106214
-0.050525029
-0.44881537
-0.054221119
-0.46959954
-0.03754242
-0.49800027
-0.01778112
-0.53396473
-0.006068384
-0.57497183
-0.002993255
-0.61813842
-0.0044322859
-0.66223081
-0.0065586644
-0.70740708
-0.0074856924
-0.75484544
-0.0073245513
-0.80554781
-0.0063312157
-0.86006511
-0.0050448022
-0.91877011
-0.0038330416
-0.98184743
-0.0028124687
-1.049427
-0.0019895322
-1.1217471
-0.0013296085
-1.1990724
-0.00079632478
-1.2817789
-0.00036212545
-1.3702791
0.043161607
-0.37955641
-0.005449154
-0.40869684
-0.059471134
-0.42211603
-0.065528535
-0.43750795
-0.044720788
-0.46242117
-0.019338007
-0.49644339
-0.0038200264
-0.53621309
0.00013482468
-0.57809991
-0.0022555646
-0.62031514
-0.0059748351
-0.66281464
-0.0080711124
-0.70682166
-0.0084107603
-0.75375923
-0.0074722911
-0.80440674
-0.0059744732
-0.85913544
-0.0045232686
-0.91807988
-0.0033312567
-0.98132865
-0.0024053292
-1.0490112
-0.0016924867
-1.1213843
-0.0011349005
-1.1987338
-0.00068633069
-1.2814547
-0.00031723358
-1.3699619
0.054139053
-0.35438263
0.0014285089
-0.38643407
-0.06901845
-0.39914952
-0.078996383
-0.40864818
-0.053476835
-0.42875191
-0.021007007
-0.46075217
-0.00067276611
-0.49959065
0.004534544
-0.54061281
0.0010061473
-0.58136162
-0.0047948592
-0.62149512
-0.0086159261
-0.66226982
-0.0097226113
-0.70550981
-0.0088764971
-0.75235503
-0.0071102542
-0.80327096
-0.0053223697
-0.85833634
-0.0038766183
-0.91753452
-0.0027979726
-0.980936
-0.0020108383
-1.0486929
-0.0014233687
-1.1210958
-0.00096819599
-1.1984519
-0.00059688346
-1.281175
-0.00028303031
-1.3696789
0.064916896
-0.32960403
0.0091127642
-0.36206689
-0.077749954
-0.37770257
-0.095278665
-0.38286724
-0.064783204
-0.39734182
-0.023018014
-0.4267409
0.0035156247
-0.46494056
0.010428878
-0.50548498
0.0056061451
-0.54521281
-0.0028420394
-0.58331444
-0.009071885
-0.62103916
-0.011367602
-0.66062483
-0.01068464
-0.70370167
-0.0085455204
-0.75091976
-0.0062859784
-0.80230735
-0.0044765031
-0.85773645
-0.003178187
-0.9171543
-0.0022814666
-0.98066538
-0.0016551461
-1.0484611
-0.0011943134
-1.1208697
-0.00083310462
-1.1982157
-0.00052811645
-1.2809299
-0.00025908471
-1.3694198
0.075255682
-0.30502735
0.015898503
-0.33638977
-0.086170866
-0.35364598
-0.11452121
-0.35846002
-0.079611317
-0.36803913
-0.026090048
-0.39426978
0.0088710502
-0.43209633
0.018032569
-0.47254425
0.011814843
-0.51169368
8.771584e-05
-0.54814256
-0.0093870314
-0.58299929
-0.01345636
-0.6189504
-0.013068584
-0.65824089
-0.010422252
-0.70182494
-0.0074939013
-0.74971184
-0.0051652591
-0.80161859
-0.0035523164
-0.85736232
-0.0025014103
-0.91693436
-0.0018203251
-0.9805002
-0.0013562309
-1.0482992
-0.0010113067
-1.1206915
-0.0007296507
-1.1980142
-0.00047850248
-1.2807105
-0.0002437254
-1.3691761
0.084961584
-0.28060706
0.021269376
-0.31039822
-0.095959277
-0.32660136
-0.13481199
-0.33335519
-0.097926653
-0.34014469
-0.03089629
-0.36323289
0.015457085
-0.40085582
0.027564647
-0.4416284
0.019896315
-0.48062572
0.004237498
-0.51584346
-0.0095001269
-0.54802947
-0.016122168
-0.58033348
-0.01624123
-0.61577776
-0.012914962
-0.65574818
-0.0090472634
-0.70027158
-0.0059858896
-0.74889121
-0.0039264632
-0.80124444
-0.0026587128
-0.85720502
-0.0019044012
-0.91685028
-0.0014400143
-0.98041641
-0.0011227129
-1.0481878
-0.00087453201
-1.1205466
-0.00065553882
-1.1978371
-0.00044527761
-1.2805089
-0.00023417177
-1.3689419
0.09376696
-0.25708457
0.026267454
-0.28560514
-0.10661877
-0.29973874
-0.15394661
-0.30746674
-0.11749189
-0.31378995
-0.037270755
-0.33377022
0.023329035
-0.37110484
0.039286901
-0.41257807
0.030093149
-0.45182524
0.0098707606
-0.48625898
-0.0093295658
-0.51601402
-0.019529494
-0.54462214
-0.020462519
-0.57611219
-0.016239889
-0.61245283
-0.011073145
-0.6537223
-0.0069874644
-0.69927
-0.0043050847
-0.74851259
-0.0027345125
-0.80116864
-0.0018820186
-0.8572274
-0.0014242579
-0.91686604
-0.0011513223
-0.9803878
-0.0009543071
-1.048108
-0.00077934029
-1.1204228
-0.00060697823
-1.1976754
-0.00042486354
-1.2803183
-0.00022777292
-1.3687141
0.10166427
-0.23487571
0.030754374
-0.26157149
-0.11730249
-0.27492142
-0.17098813
-0.28269721
-0.13561126
-0.28934737
-0.0446999
-0.3063608
0.03246185
-0.34290304
0.053373323
-0.38519126
0.042562691
-0.42504761
0.017214048
-0.45916853
-0.0087744518
-0.4868141
-0.023878211
-0.51166531
-0.026035968
-0.53904869
-0.020643399
-0.57170869
-0.013719714
-0.60980626
-0.0082280512
-0.65248171
-0.0046885472
-0.69888654
-0.0027011947
-0.7485459
-0.001717058
-0.8013336
-0.001276339
-0.85737532
-0.0010743533
-0.91694301
-0.00095188323
-0.98039023
-0.00084325618
-1.0480441
-0.00071853899
-1.1203112
-0.000578779
-1.1975215
-0.00041373048
-1.2801323
-0.00022327412
-1.3684908
0.10873135
-0.21417114
0.034757406
-0.23887874
-0.12781468
-0.2510593
-0.18709765
-0.2588119
-0.15209904
-0.26620943
-0.052935764
-0.28111151
0.042335641
-0.31623459
0.069669279
-0.359199
0.057270384
-0.39989895
0.026292408
-0.43412597
-0.007804561
-0.46013842
-0.029405807
-0.4812865
-0.033313338
-0.50438794
-0.026399507
-0.53329259
-0.017144706
-0.56828369
-0.009768043
-0.60826627
-0.0050710363
-0.65209922
-0.0025196499
-0.69906808
-0.0013597768
-0.74890318
-0.00095124254
-0.8016587
-0.00085830972
-0.85759137
-0.00084823272
-0.91704666
-0.00083021505
-0.98040327
-0.00077727083
-1.0479853
-0.00068461703
-1.1202054
-0.00056512141
-1.1973701
-0.00040937561
-1.2799462
-0.00022086162
-1.36827
0.11505411
-0.1950516
0.038349351
-0.21776309
-0.13789827
-0.22879515
-0.20217573
-0.23598122
-0.16732421
-0.24358673
-0.061416908
-0.25772829
0.052216708
-0.29099258
0.087807754
-0.33437307
0.074026289
-0.3759549
0.036954433
-0.41056098
-0.0065966975
-0.43533384
-0.036480952
-0.45306327
-0.042695308
-0.47190453
-0.033812441
-0.496975
-0.021515942
-0.52892135
-0.011667222
-0.56638451
-0.0054383514
-0.60789895
-0.0021368097
-0.65248206
-0.00074391699
-0.69968394
-0.00038787186
-0.74946655
-0.00045750195
-0.80205951
-0.00061438811
-0.85782521
-0.00072705857
-0.91714982
-0.00076953941
-0.980411
-0.00074279153
-1.0479272
-0.00066986003
-1.1201007
-0.00056156863
-1.1972179
-0.00041011369
-1.2797569
-0.00022074886
-1.3680492
0.12070333
-0.17752927
0.041569156
-0.1982714
-0.14742005
-0.20824131
-0.21621897
-0.21475191
-0.18101166
-0.22229377
-0.069003778
-0.23599986
0.061819889
-0.26733147
0.10746736
-0.31065218
0.092763979
-0.35311076
0.049343908
-0.38834437
-0.0052742775
-0.4118834
-0.045651026
-0.42616376
-0.054617778
-0.4411408
-0.043203273
-0.4625137
-0.027002854
-0.49148809
-0.013975838
-0.52661273
-0.0057677452
-0.56605512
-0.0014855411
-0.60855022
0.00021309012
-0.65343907
0.00049290539
-0.70056472
0.00018994144
-0.750114
-0.00021039709
-0.8024635
-0.00051350741
-0.85803876
-0.00068585753
-0.9172335
-0.00074934671
-0.98040445
-0.00072987141
-1.0478671
-0.00067035988
-1.1199919
-0.00056603093
-1.197062
-0.00041389309
-1.2795638
-0.0002222678
-1.367827
0.12454554
-0.18895884
0.044453084
-0.1804132
-0.15625883
-0.18943262
-0.22921106
-0.19524922
-0.19326108
-0.20250249
-0.075330375
-0.21596718
0.071225907
-0.24540588
0.12810679
-0.28797091
0.11357315
-0.33146135
0.0640825
-0.36784935
-0.00298878
-0.39062987
-0.056863407
-0.40067102
-0.069405495
-0.41137605
-0.054794994
-0.42954908
-0.033756399
-0.45576016
-0.016721303
-0.48874262
-0.0060214251
-0.52635905
-0.00048578127
-0.56705488
0.0016126813
-0.60994981
0.0017906502
-0.65473681
0.001166024
-0.7015408
0.00041811464
-0.75074251
-0.00016066742
-0.80281634
-0.00051713302
-0.85820749
-0.00069720467
-0.91728564
-0.00075177701
-0.98038254
-0.0007393434
-1.0477982
-0.00068449431
-1.1198734
-0.00057422064
-1.1969017
-0.00041849556
-1.2793676
-0.00022429509
-1.3676027
0.12853559
-0.18325978
0.047257716
-0.19176348
-0.16431656
-0.17235547
-0.24111682
-0.17752686
-0.20416753
-0.18434277
-0.080385609
-0.19744726
0.080447688
-0.22518896
0.14893
-0.26622909
0.13549493
-0.30989269
0.081193172
-0.34857202
0.0017261281
-0.37256426
-0.068666362
-0.37882692
-0.086806994
-0.38326952
-0.068563243
-0.3976078
-0.041801123
-0.42150436
-0.019894047
-0.45258741
-0.0061369616
-0.48862709
0.00095486244
-0.5277997
0.0035698159
-0.56901201
0.0036216092
-0.61178077
0.0025683637
-0.65613915
0.0013400435
-0.70246273
0.0003708307
-0.75127401
-0.00024879303
-0.80308468
-0.00058594638
-0.85831874
-0.00073510863
-0.91730231
-0.00077502967
-0.98034685
-0.00076441329
-1.0477182
-0.00069789175
-1.1197497
-0.00058127403
-1.1967389
-0.00042271535
-1.2791692
-0.00022593504
-1.3673767
0.13250717
-0.17735651
0.050469283
-0.18647135
-0.170831
-0.18524903
-0.25193694
-0.16153535
-0.21379793
-0.16789646
-0.084325169
-0.18040321
0.089509881
-0.20650945
0.16926446
-0.24552342
0.15757536
-0.28830951
0.09887243
-0.32757195
0.0092290819
-0.35607498
-0.079528796
-0.36170183
-0.10593009
-0.35970383
-0.08460418
-0.36722858
-0.050956239
-0.38845268
-0.023403737
-0.41799467
-0.0060205698
-0.4527038
0.0029417352
-0.49061396
0.0062082438
-0.53043812
0.0061182709
-0.57150868
0.004516277
-0.61372869
0.0026437255
-0.65744284
0.0011304167
-0.70322232
0.00013844703
-0.75166125
-0.00041685493
-0.80325377
-0.00068442749
-0.85836942
-0.00078685944
-0.91729048
-0.0008122226
-0.98029904
-0.0007863217
-1.0476298
-0.00070811469
-1.1196229
-0.00058821542
-1.1965734
-0.00042600943
-1.2789691
-0.00022676554
-1.36715
0.13629979
-0.17133527
0.053866382
-0.18075361
-0.17629385
-0.1810085
-0.26230818
-0.1748778
-0.22225101
-0.15308227
-0.087390367
-0.16483126
0.098333563
-0.18922689
0.18871852
-0.22596351
0.17916843
-0.26711649
0.1163638
-0.30580088
0.01808746
-0.33643032
-0.088916076
-0.3466877
-0.1262768
-0.34135511
-0.1036305
-0.34067751
-0.061498932
-0.35668589
-0.027021586
-0.38483483
-0.005544631
-0.41847061
0.0055915185
-0.45535359
0.0096553343
-0.49406105
0.0094235047
-0.53374336
0.0071460428
-0.57413844
0.0044352762
-0.61552024
0.0021836372
-0.65849606
0.00067043334
-0.7037543
-0.00019136267
-0.75188674
-0.0006139065
-0.80332429
-0.00078875782
-0.85836753
-0.00084576333
-0.91725694
-0.00084798043
-0.98023738
-0.00080268686
-1.0475352
-0.00071944558
-1.1194917
-0.00059406431
-1.1964053
-0.00042780189
-1.278768
-0.00022665088
-1.3669233
0.13984665
-0.16545001
0.057312811
-0.1747817
-0.18075396
-0.1762935
-0.2716665
-0.17165018
-0.23294817
-0.16418064
-0.089711613
-0.15076102
0.10674511
-0.17324281
0.20708764
-0.20759601
0.19968134
-0.24647642
0.13344704
-0.28419973
0.026570722
-0.31428414
-0.096563407
-0.32878299
-0.14809973
-0.32486477
-0.12604794
-0.31893767
-0.075016512
-0.32715993
-0.030701574
-0.3530059
-0.0045290328
-0.38585043
0.009023199
-0.42190229
0.01403342
-0.45973167
0.013680605
-0.49831815
0.010606707
-0.53720402
0.0068398671
-0.57654303
0.0036109626
-0.61694756
0.0013818997
-0.65920752
9.1015975e-05
-0.70403668
-0.00054269571
-0.75195795
-0.00080247522
-0.80331057
-0.00088527917
-0.85832801
-0.00089811735
-0.9172068
-0.00087302041
-0.98016705
-0.00081736395
-1.0474373
-0.00072808673
-1.1193576
-0.0005969441
-1.1962362
-0.00042776347
-1.2785669
-0.00022567661
-1.3666976
0.14315529
-0.15992085
0.060739112
-0.16887631
-0.18412804
-0.17140761
-0.27979012
-0.16816989
-0.24256204
-0.16203631
-0.098713274
-0.15517898
0.11467608
-0.15869199
0.2242582
-0.19041337
0.21876662
-0.2266813
0.14976373
-0.26279311
0.033843509
-0.29147252
-0.10432752
-0.30652003
-0.17033277
-0.30654995
-0.15136075
-0.29955196
-0.092917919
-0.30103626
-0.03529889
-0.32256261
-0.0027577799
-0.35477715
0.013354783
-0.39018201
0.019452716
-0.42732158
0.019023656
-0.46507472
0.015052307
-0.50276375
0.0099994449
-0.5403636
0.0055105721
-0.57844264
0.0023171851
-0.61788285
0.00043104249
-0.65954755
-0.00049479034
-0.70408459
-0.00085936762
-0.75190106
-0.00095814346
-0.80323771
-0.00096000684
-0.85826612
-0.00093266842
-0.91714715
-0.00089013907
-0.98009428
-0.0008278615
-1.0473375
-0.00073188491
-1.1192227
-0.0005972715
-1.1960667
-0.00042625579
-1.2783664
-0.0002239589
-1.3664737
0.14622515
-0.15488204
0.064098238
-0.16327998
-0.18638304
-0.16662131
-0.28651674
-0.164681
-0.25097907
-0.15975286
-0.10687153
-0.15387805
0.11361092
-0.15411382
0.24018509
-0.17461887
0.23635735
-0.20800409
0.16498454
-0.24190211
0.040112018
-0.26906162
-0.11301603
-0.28278401
-0.19153042
-0.28532238
-0.17729884
-0.28061186
-0.114213
-0.27825689
-0.042384139
-0.29395101
-0.00012090305
-0.32519949
0.018712199
-0.36013457
0.025994742
-0.39672404
0.025567473
-0.4338654
0.020633241
-0.47065566
0.014068783
-0.50683309
0.0080001327
-0.54285316
0.0035332557
-0.57965871
0.00083129451
-0.6182831
-0.00050112652
-0.65954121
-0.0010026732
-0.70394128
-0.0011044066
-0.7517548
-0.0010660587
-0.80313166
-0.001004671
-0.85819412
-0.00095144715
-0.91708584
-0.00090033823
-0.9800218
-0.00083229759
-1.0472371
-0.00073282027
-1.1190872
-0.00059578174
-1.1958972
-0.0004233204
-1.278167
-0.00022161543
-1.3662521
0.14908082
-0.15048825
0.067359863
-0.15814367
-0.18754271
-0.16212031
-0.29183444
-0.16130361
-0.25815618
-0.15750388
-0.11412046
-0.15250393
0.11276429
-0.15303142
0.2500388
-0.16396753
0.25225587
-0.1905174
0.17884314
-0.22186269
0.045609352
-0.24739945
-0.12202639
-0.26005125
-0.21124525
-0.26306918
-0.20112437
-0.26149685
-0.13651883
-0.25830602
-0.052510299
-0.26813073
0.0028847348
-0.29695665
0.025286777
-0.33177406
0.03371693
-0.36785676
0.033398628
-0.40455519
0.027487011
-0.44071917
0.019210001
-0.47579688
0.011216731
-0.51004969
0.0051040371
-0.54442394
0.00129816
-0.58012558
-0.00059912224
-0.6181851
-0.0012900162
-0.65925387
-0.0013808455
-0.70366484
-0.0012619721
-0.75155888
-0.0011222868
-0.80301404
-0.0010218231
-0.85812374
-0.00095718185
-0.917029
-0.00090284872
-0.97995125
-0.00083267378
-1.0471373
-0.00073121972
-1.1189517
-0.00059195747
-1.1957285
-0.00041914359
-1.2779695
-0.00021877385
-1.3660333
0.15177325
-0.1469004
0.070513652
-0.15364204
-0.18764467
-0.15804171
-0.29572679
-0.15822797
-0.2640261
-0.15543369
-0.12036435
-0.15126
0.1120963
-0.15183594
0.2598438
-0.16283642
0.26627935
-0.17799101
0.19117163
-0.20284588
0.050167019
-0.22642036
-0.13100991
-0.23841593
-0.22975661
-0.2415399
-0.22224971
-0.24194384
-0.15795759
-0.24005809
-0.065434919
-0.2453814
0.005254703
-0.27050069
0.033257441
-0.30492732
0.042601684
-0.34065882
0.042554837
-0.37701297
0.035718548
-0.41278673
0.025584079
-0.44709325
0.015317179
-0.47989732
0.007123838
-0.51206949
0.0018474287
-0.54497321
-0.00083317563
-0.57989153
-0.0017928864
-0.61768223
-0.001860272
-0.65877444
-0.0016089194
-0.7033179
-0.001331233
-0.75134994
-0.0011319204
-0.80290394
-0.0010166348
-0.85806429
-0.00095197133
-0.91697988
-0.00089941395
-0.97988451
-0.00082956878
-1.0470389
-0.00072651977
-1.1188172
-0.00058648468
-1.1955612
-0.00041407545
-1.2777742
-0.0002155929
-1.3658177
-0.14427518
0.15435163
0.073581487
-0.14996824
-0.18667844
-0.15460827
-0.29817168
-0.15559682
-0.26855172
-0.15370235
-0.12554337
-0.15025467
0.11175416
-0.15091786
0.26927427
-0.1612664
0.27986385
-0.17642091
0.20759957
-0.19441895
0.053976779
-0.20665564
-0.13968602
-0.21774425
-0.24725405
-0.22091848
-0.24147136
-0.22231825
-0.17765709
-0.22224434
-0.080120962
-0.22537204
0.0060457992
-0.2461725
0.042379146
-0.2796224
0.052732543
-0.31505818
0.052996645
-0.35110063
0.045387426
-0.38668185
0.033333358
-0.42053601
0.020475452
-0.45225152
0.00971235
-0.48248584
0.0025036939
-0.51272576
-0.0012589575
-0.54454743
-0.0025997835
-0.57908463
-0.0026357483
-0.61690676
-0.0021863966
-0.65819697
-0.0016917832
-0.70295735
-0.0013234246
-0.75115843
-0.001104311
-0.80281627
-0.0009944466
-0.85802181
-0.0009386884
-0.9169406
-0.00089168774
-0.97982239
-0.00082324647
-1.0469422
-0.00071994098
-1.1186837
-0.00057985187
-1.1953954
-0.00040835408
-1.2775814
-0.00021219728
-1.3656055
-0.14726296
0.076569269
-0.14261449
0.15678276
-0.18469581
-0.15195086
-0.29922904
-0.15355091
-0.27178252
-0.15236602
-0.12970691
-0.14953881
0.11186125
-0.15036176
0.27815516
-0.15979876
0.29276069
-0.17416325
0.22338045
-0.1922018
0.069459538
-0.20990171
-0.14761567
-0.19872599
-0.26352655
-0.20147175
-0.25902047
-0.20336937
-0.19543673
-0.20453861
-0.09509413
-0.20727117
0.0046992427
-0.22402549
0.052041261
-0.25583462
0.064123837
-0.29101369
0.064651633
-0.32671316
0.056511354
-0.36222455
0.042580899
-0.39592939
0.026876573
-0.42693713
0.013022276
-0.45556145
0.0033118078
-0.48329395
-0.0019250863
-0.51205963
-0.0038159295
-0.54333128
-0.003822574
-0.5778978
-0.003095079
-0.61599808
-0.0022814869
-0.65760726
-0.0016507662
-0.70263
-0.0012552849
-0.75100746
-0.0010496997
-0.80276102
-0.00096058749
-0.85799991
-0.0009204735
-0.91691182
-0.00088100636
-0.97976463
-0.00081493654
-1.0468472
-0.00071208218
-1.1185515
-0.0005723123
-1.1952315
-0.00040223646
-1.2773914
-0.00020870155
-1.3653968
-0.1501011
-0.18185767
-0.14555718
0.079511955
-0.14233446
0.15905784
-0.29904894
-0.15213096
-0.27385913
-0.1514743
-0.13290174
-0.14917118
0.11239391
-0.15007147
0.28645629
-0.15866289
0.30448768
-0.17152575
0.23821232
-0.18899512
0.0844666
-0.20720886
-0.1410461
-0.21647129
-0.27868228
-0.18357026
-0.27481803
-0.18567419
-0.21128166
-0.18752444
-0.10915604
-0.1904767
0.0015227918
-0.20409472
0.061611301
-0.23359553
0.076718876
-0.26842965
0.077395072
-0.30375713
0.069046049
-0.33924786
0.05342385
-0.3730675
0.034721535
-0.40377435
0.0172415
-0.43115635
0.0043524441
-0.45660208
-0.0028767945
-0.48234224
-0.0055693785
-0.51030618
-0.0055618305
-0.54159203
-0.0044593976
-0.57653349
-0.0031972556
-0.61508231
-0.0021831378
-0.65707489
-0.0015149004
-0.70237039
-0.0011449547
-0.7509122
-0.00097848717
-0.80274312
-0.00092134002
-0.85799905
-0.00089973136
-0.91689309
-0.0008687476
-0.97971082
-0.00080546371
-1.0467538
-0.0007032345
-1.1184205
-0.00056431871
-1.1950694
-0.00039595617
-1.2772041
-0.00020520639
-1.3651916
-0.15131416
-0.29783588
-0.14929012
-0.17812474
-0.14498231
0.082159801
-0.14289574
0.16128406
-0.27496192
-0.15102818
-0.13511915
-0.14925689
0.11333185
-0.15010912
0.29414655
-0.15776173
0.31464993
-0.16882513
0.25158294
-0.18489637
0.098528813
-0.20305733
-0.13331428
-0.21494068
-0.28601022
-0.20914334
-0.28902419
-0.1693641
-0.2252851
-0.17167074
-0.12175061
-0.17492987
-0.0027408116
-0.1862131
0.070565444
-0.21304886
0.090352518
-0.24722917
0.091112798
-0.28214738
0.082870738
-0.31758182
0.065911948
-0.35173596
0.044207739
-0.38255371
0.022603381
-0.40913623
0.0057346495
-0.43253856
-0.0041834274
-0.45529545
-0.0080116013
-0.47990002
-0.0080245254
-0.50784348
-0.0064298028
-0.53962162
-0.0045567857
-0.57517395
-0.0030052801
-0.61426016
-0.0019397955
-0.65665
-0.0013149919
-0.70220035
-0.0010113927
-0.7508793
-0.00090227348
-0.80276218
-0.00088074602
-0.85801803
-0.00087837929
-0.91688346
-0.00085592821
-0.97966035
-0.00079529072
-1.0466618
-0.0006940252
-1.1182908
-0.00055617247
-1.1949092
-0.00038967729
-1.2770196
-0.00020176768
-1.3649898
-0.15130923
-0.27496685
-0.15184468
-0.29528131
-0.14917519
-0.17393185
-0.14536807
0.084632131
-0.14436913
0.16315114
-0.13623111
-0.14991622
0.11482982
-0.15075487
0.30116493
-0.1571275
0.32318024
-0.16629204
0.26310923
-0.18035142
0.11108973
-0.19745728
-0.12526398
-0.21110763
-0.29187092
-0.20907998
-0.30294684
-0.1952207
-0.2376244
-0.15702479
-0.13282679
-0.16059457
-0.0075051679
-0.17016551
0.078645082
-0.19429274
0.10467858
-0.22737492
0.10570301
-0.26181938
0.097807117
-0.29708376
0.080045639
-0.33171551
0.055521045
-0.36304926
0.029380706
-0.38933103
0.0076185265
-0.41102011
-0.005858844
-0.43086314
-0.0113086
-0.45199845
-0.011418967
-0.47650558
-0.0091868331
-0.50508645
-0.0064994371
-0.53767897
-0.0042174918
-0.57396174
-0.0025975352
-0.61360243
-0.0016017397
-0.65636325
-0.001082499
-0.70212925
-0.00087282799
-0.75090874
-0.00082691102
-0.80281602
-0.00084163026
-0.85805478
-0.00085815977
-0.91688123
-0.00084333186
-0.97961231
-0.00078520816
-1.0465706
-0.00068490904
-1.1181621
-0.00054811342
-1.1947507
-0.00038353304
-1.2768379
-0.00019844012
-1.3647914
-0.15154514
-0.13599519
-0.15322374
-0.27358779
-0.15284536
-0.29161114
-0.14984625
-0.16945367
-0.14644943
0.086712435
-0.14663628
0.16444853
0.11708898
-0.15217537
0.3073894
-0.15697934
0.33017859
-0.16412585
0.27240634
-0.17558915
0.12195831
-0.19122001
-0.11689654
-0.20582472
-0.29624626
-0.20673228
-0.3153609
-0.19666592
-0.25631631
-0.17652879
-0.14256244
-0.14728914
-0.012287355
-0.15581238
0.08572742
-0.17724785
0.11928014
-0.2088943
0.12101983
-0.24269175
0.11364498
-0.27765725
0.095760246
-0.31279837
0.068828766
-0.34502323
0.03788843
-0.37155699
0.010227266
-0.39193977
-0.0079242595
-0.40895469
-0.015654228
-0.42651751
-0.015985011
-0.44743241
-0.012943509
-0.4727489
-0.0091871915
-0.5023987
-0.005935029
-0.53596143
-0.003565558
-0.57299372
-0.0020534056
-0.61315076
-0.0012182428
-0.65622751
-0.00084483256
-0.70215724
-0.00073983076
-0.75099582
-0.00075615531
-0.80290149
-0.00080686632
-0.85810608
-0.00084024192
-0.91688432
-0.00083185107
-0.97956567
-0.00077573754
-1.0464798
-0.00067609485
-1.1180341
-0.00054031594
-1.1945939
-0.00037760722
-1.2766587
-0.00019524199
-1.3645961
-0.15448118
0.12002501
-0.15449032
-0.13472862
-0.15561066
-0.2708225
-0.15453738
-0.28692
-0.15109718
-0.16480593
-0.14800197
0.08807812
-0.14941615
0.16514651
0.31264354
-0.15742952
0.33558213
-0.16238288
0.27929398
-0.17101349
0.13066372
-0.18429456
-0.10854576
-0.19957079
-0.29893495
-0.20313603
-0.32606904
-0.19602414
-0.27335835
-0.17962389
-0.16483526
-0.15425596
-0.016761343
-0.14281516
0.091820273
-0.16190523
0.13379729
-0.19176501
0.13684707
-0.22472154
0.13014999
-0.25919676
0.11289828
-0.29479528
0.084235576
-0.32820518
0.04845535
-0.35559015
0.013858531
-0.37518825
-0.010368373
-0.38949566
-0.02127977
-0.40332915
-0.022027934
-0.42047459
-0.017947616
-0.4424283
-0.012803088
-0.469133
-0.0082860655
-0.50004766
-0.0049290279
-0.53459796
-0.0027229866
-0.57232414
-0.0014474416
-0.61292156
-0.00083048926
-0.65624185
-0.00062018918
-0.70227688
-0.00061750121
-0.75113448
-0.00069482697
-0.80301353
-0.00077818724
-0.85816813
-0.00082559446
-0.91689057
-0.00082209832
-0.97951931
-0.00076710662
-1.0463887
-0.00066781768
-1.1179066
-0.00053289348
-1.1944386
-0.00037194359
-1.276482
-0.0001921825
-1.364404
-0.15855354
0.31671591
-0.1573027
0.1228374
-0.15833788
-0.13200139
-0.15874872
-0.26661115
-0.15680717
-0.28121001
-0.152828
-0.1599799
-0.15006853
0.0887305
-0.15264267
0.16519698
0.33930271
-0.1611501
0.28379444
-0.16688334
0.13709914
-0.17744891
-0.10089046
-0.19194986
-0.30037088
-0.19813485
-0.33514669
-0.19405838
-0.28873124
-0.18065125
-0.18557165
-0.1588875
-0.038323035
-0.13269427
0.097377741
-0.14837262
0.14780822
-0.17591616
0.15294856
-0.2078665
0.1470704
-0.24164195
0.13115126
-0.27744973
0.10154408
-0.31210378
0.061187846
-0.34093767
0.018799242
-0.36053086
-0.013122533
-0.37243409
-0.02843094
-0.38234449
-0.029895006
-0.39546208
-0.024491806
-0.4139304
-0.017548925
-0.43768246
-0.011407004
-0.46601206
-0.0067771732
-0.49819951
-0.0036650982
-0.53365585
-0.0017994342
-0.57197215
-0.00084089869
-0.61291115
-0.00046743464
-0.6563946
-0.00041767073
-0.70247671
-0.00051234443
-0.75131696
-0.00064627175
-0.80314545
-0.00075668447
-0.85823704
-0.00081484708
-0.91689782
-0.00081438358
-0.97947203
-0.00075958412
-1.046297
-0.00066022318
-1.1177793
-0.00052589564
-1.1942847
-0.00036655575
-1.2763076
-0.00018925672
-1.3642147
-0.16055912
0.3413083
-0.15957304
0.31898624
-0.16148847
0.12598798
-0.16295616
-0.12779395
-0.16260527
-0.26081305
-0.15973468
-0.27430333
-0.15522601
-0.15482242
-0.15264788
0.088735707
-0.15631428
0.16447308
0.28603191
-0.16338757
0.14102651
-0.1708107
-0.094405934
-0.18393344
-0.30013595
-0.1921848
-0.34245908
-0.19082246
-0.30231567
-0.18047395
-0.20464814
-0.16157477
-0.059733595
-0.13747694
0.087136839
-0.12245337
0.1613892
-0.16195361
0.16902193
-0.19198953
0.16407336
-0.22486946
0.15001568
-0.26050638
0.12003552
-0.29594117
0.075497609
-0.32641355
0.024728479
-0.34686691
-0.016321975
-0.35733142
-0.037365214
-0.36349982
-0.039994898
-0.3722446
-0.032909446
-0.38704444
-0.023639724
-0.4078396
-0.015435426
-0.43365404
-0.0091979864
-0.46359125
-0.0049311656
-0.49693345
-0.0023011291
-0.53315416
-0.00088422589
-0.57192882
-0.00027746362
-0.61310112
-0.00014499457
-0.65666728
-0.00024514985
-0.70274391
-0.0004301109
-0.75153312
-0.0006114047
-0.80329073
-0.00074282092
-0.85830907
-0.00080818975
-0.91690402
-0.00080879398
-0.97942282
-0.00075323076
-1.046204
-0.00065328054
-1.1176519
-0.00051932468
-1.1941319
-0.00036142803
-1.2761355