/*--------------------------------*- C++ -*----------------------------------*\
| =========                 |                                                 |
| \\      /  F ield         | OpenFOAM: The Open Source CFD Toolbox           |
|  \\    /   O peration     | Version:  5.0                                   |
|   \\  /    A nd           | Web:      www.OpenFOAM.org                      |
|    \\/     M anipulation  |                                                 |
\*---------------------------------------------------------------------------*/
FoamFile
{
    version     2.0;
    format      ascii;
    class       volScalarField;
    location    "400";
    object      pMean;
}
// * * * * * * * * * * * * * * * * * * * * * * * * * * * * * * * * * * * * * //

dimensions      [0 2 -2 0 0 0 0];

internalField   nonuniform List<scalar> 
9200
(
0.00060448184
0.00062328086
0.0015212631
0.00064208245
0.0015619161
0.0025152024
0.00067791011
0.0016071451
0.0025764287
0.0033836857
0.00072119817
0.0016842069
0.0026532918
0.0034615968
0.0042132731
0.00077563773
0.0017768582
0.0027751266
0.0035649897
0.004305651
0.0049528785
0.00084266249
0.0018860236
0.0029225858
0.0037224861
0.0044326218
0.0050564608
0.0056181532
0.00092156733
0.002010585
0.0030924295
0.0039148433
0.004621273
0.0052033968
0.0057310686
0.0062045404
0.0010103028
0.002145508
0.0032813475
0.0041361092
0.0048519392
0.0054180229
0.0058952258
0.0063243233
0.0067163406
0.0011007809
0.002287242
0.0034826818
0.0043831766
0.0051148449
0.0056815147
0.0061317367
0.0065026479
0.0068409848
0.0071578066
0.0011792825
0.0024272758
0.003694939
0.0046453352
0.0054057629
0.0059806056
0.0064234316
0.0067570036
0.0070308468
0.0072850406
0.0075334045
0.0012240453
0.0025590997
0.0039061699
0.0049134347
0.0057109567
0.0063106344
0.0067540213
0.0070726853
0.0072993987
0.0074835473
0.0076610328
0.0078487549
0.0012071206
0.0026672694
0.0040973367
0.0051718513
0.0060195216
0.0066561889
0.0071188921
0.0074307315
0.0076352362
0.0077622174
0.007865189
0.0079743754
0.0081089867
0.0011318477
0.002729023
0.0042449784
0.0054046614
0.0063151518
0.0070061308
0.0075007325
0.0078273803
0.0080169089
0.0081139454
0.0081498169
0.0081809176
0.008230208
0.0083204389
0.0010303551
0.0027283147
0.0043344367
0.0055912795
0.0065847711
0.0073428421
0.0078880549
0.0082440997
0.0084419822
0.0085152157
0.0085128126
0.0084669097
0.0084357428
0.0084347204
0.0084883373
0.00094635751
0.0026489929
0.0043400896
0.0057072394
0.0068052908
0.0076535667
0.0082646345
0.008669503
0.0088913908
0.0089652534
0.008928912
0.0088359296
0.0087182941
0.0086355617
0.0085932455
0.008619254
0.00085127116
0.0024962111
0.0042275305
0.0057261902
0.0069488735
0.0079138823
0.0086174158
0.0090891619
0.0093546271
0.0094448835
0.0093995575
0.0092615135
0.0090876743
0.0089094221
0.008785745
0.0087123528
0.0087183424
0.00075550796
0.0022960555
0.0040124505
0.0056187015
0.006987483
0.0080944997
0.0089210112
0.009488264
0.00981789
0.0099448995
0.009906197
0.0097475075
0.0095165423
0.0092729123
0.0090455972
0.0088927095
0.0087972455
0.0087918817
0.00064036829
0.0020803105
0.003740884
0.0053849211
0.0068931436
0.0081652533
0.0091464298
0.0098412504
0.010264767
0.010451325
0.01044022
0.010275829
0.01001149
0.0096980979
0.0093966874
0.0091329883
0.0089617814
0.0088544126
0.0088448459
0.00048587085
0.0018606054
0.0034222991
0.0050598705
0.0066533993
0.0080997071
0.0092616274
0.010119831
0.010671405
0.010947511
0.010987773
0.010839282
0.010555352
0.010194554
0.0098106493
0.0094647326
0.0091771664
0.0089995591
0.0088889927
0.0088826965
0.00016422183
0.0015718955
0.0030619416
0.0046498972
0.0062858088
0.0078736865
0.0092369191
0.010292107
0.011009738
0.011410927
0.011532836
0.011424683
0.011142336
0.010746204
0.010300297
0.0098593975
0.0094826397
0.0091847591
0.0090112987
0.008906739
0.0089099833
-0.00026202265
0.0012070175
0.0026247187
0.0041589055
0.0058003246
0.0074905714
0.0090438258
0.010318266
0.011247024
0.011814496
0.012054008
0.012016407
0.011760434
0.01134924
0.010850986
0.010333095
0.0098497454
0.0094569469
0.0091612635
0.0090031527
0.0089124022
0.0089311407
-0.00064664712
0.00075686329
0.002037788
0.0035635552
0.0051982034
0.0069623617
0.0086721515
0.010173169
0.011339048
0.012123228
0.012525214
0.012594353
0.012394463
0.011992699
0.011461178
0.01087305
0.010297985
0.0097880151
0.0093935717
0.0091133334
0.0089801288
0.008910761
0.0089499753
-0.00095584189
0.0002781235
0.001243237
0.0027636588
0.0044646211
0.0062820468
0.0081261657
0.0098379282
0.011255791
0.012295192
0.012910026
0.01313316
0.013025491
0.012662571
0.012121201
0.011479886
0.01081661
0.010200775
0.0096803803
0.0092994742
0.009046331
0.0089475277
0.0089059185
0.0089699457
-0.0012730301
-0.00025618624
0.00027158037
0.0016596279
0.0034908433
0.0054355211
0.0073902377
0.009297849
0.010968857
0.012284875
0.013168003
0.013597432
0.013629849
0.013341333
0.012818254
0.012145657
0.011408553
0.010686755
0.010047689
0.0095340042
0.0091804954
0.0089663171
0.0089098442
0.0089015804
0.0089939398
-0.0016176747
-0.00093015063
-0.00083421593
0.00029729096
0.002150297
0.0043241254
0.0064505625
0.0085323766
0.010452147
0.012055368
0.013242254
0.013943616
0.014173328
0.01400616
0.013536606
0.012859279
0.012068001
0.011251432
0.010489508
0.00984603
0.0093554209
0.0090435164
0.0088783001
0.0088713415
0.0089009036
0.0090243491
-0.0020040358
-0.0017137943
-0.0020371041
-0.0012125507
0.00045567555
0.0027989073
0.0052154936
0.0075227969
0.0096770874
0.011578328
0.013086533
0.01411669
0.014609825
0.014625354
0.01425422
0.013606477
0.012785719
0.011891045
0.011014091
0.010232132
0.0096029582
0.0091520964
0.0088941535
0.008787381
0.0088356442
0.0089065821
0.0090631738
-0.0024493833
-0.0026340704
-0.003397118
-0.0028247784
-0.0014404994
0.0008205384
0.0035268835
0.0061952087
0.0086157576
0.010811453
0.01266566
0.014053982
0.0148879
0.015152613
0.014942018
0.014367231
0.013549298
0.012598733
0.011619561
0.01070329
0.0099221837
0.0093263416
0.0089304476
0.0087385429
0.0086978431
0.0088059241
0.0089208598
0.0091120873
-0.0029290288
-0.0036650538
-0.0049101266
-0.0046357985
-0.0034694912
-0.0014212467
0.0013094352
0.0043739027
0.0072075263
0.0097122904
0.011925978
0.013701644
0.014930632
0.015532722
0.015556578
0.015113734
0.014340468
0.013364165
0.012301942
0.011259776
0.010326618
0.0095681055
0.0090235306
0.0086975767
0.0085815408
0.0086135907
0.0087848952
0.008945577
0.009172127
-0.00340924
-0.0047580801
-0.0065107092
-0.0065805169
-0.0057158642
-0.0038573167
-0.0012691401
0.0019475084
0.0052711867
0.0082224879
0.01081094
0.01300875
0.014666358
0.015693698
0.016037551
0.015806038
0.015133298
0.014171061
0.013053136
0.011900488
0.010819193
0.0098929573
0.0091781857
0.0087028687
0.0084591395
0.00842797
0.0085378457
0.0087747701
0.0089820825
0.0092435316
-0.0039227938
-0.005852691
-0.0081092826
-0.008567686
-0.0080994629
-0.0065322287
-0.0041083963
-0.00096173689
0.0026595418
0.0061844277
0.0092560322
0.011903457
0.014041132
0.015542592
0.016318701
0.016384451
0.015890705
0.014995511
0.013858877
0.012619749
0.01140131
0.010306682
0.0094114934
0.0087615493
0.0083714645
0.0082217068
0.0082818666
0.0084735359
0.0087772413
0.009031239
0.0093264234
-0.0044269982
-0.0069735028
-0.0096879913
-0.010547193
-0.010511527
-0.0093561034
-0.0072023413
-0.0042058776
-0.00055795713
0.0034213921
0.007144028
0.010307052
0.012965075
0.015003357
0.01629646
0.016775727
0.016556654
0.015802402
0.014697466
0.013405713
0.012070196
0.010813247
0.0097318521
0.0088921067
0.0083266462
0.0080367291
0.0079904801
0.0081475175
0.0084231414
0.008793556
0.0090936254
0.0094218435
-0.0048148373
-0.0081032556
-0.011299041
-0.012497866
-0.012912697
-0.012214339
-0.010456528
-0.0077138952
-0.0041875661
-7.094368e-05
0.0042684733
0.0081495048
0.011353007
0.013980576
0.015865467
0.016889807
0.017052566
0.016540533
0.015536336
0.014239103
0.012816359
0.011412762
0.010146265
0.0091056656
0.0083443554
0.0078820667
0.0077049698
0.0077704144
0.008028216
0.0083884494
0.0088246489
0.0091696792
0.0095307459
-0.0050389699
-0.0090795117
-0.012948611
-0.014467979
-0.015282625
-0.015051776
-0.013758449
-0.011389801
-0.00810243
-0.0040678246
0.00053667554
0.0051911179
0.0091646829
0.012382071
0.01492915
0.016592804
0.017292871
0.017132616
0.016327584
0.015089782
0.013623653
0.012098448
0.010657604
0.0094118268
0.0084387778
0.0077784677
0.0074356077
0.0073826435
0.0075655321
0.0079263433
0.0083708263
0.0088711196
0.0092595266
0.009652901
-0.005160378
-0.009857672
-0.01442784
-0.016500222
-0.017659747
-0.017849585
-0.017028682
-0.015126641
-0.012184493
-0.0083721064
-0.0038141062
0.0012639222
0.0061297238
0.010173957
0.013374043
0.015768273
0.017144882
0.017483124
0.016999856
0.015912846
0.014463888
0.012856978
0.011261901
0.0098163617
0.0086216794
0.0077426991
0.0072038981
0.0069951294
0.0070749003
0.007379626
0.007843836
0.0083712786
0.0089332733
0.0093631054
0.0097865408
-0.005206402
-0.010501954
-0.015645313
-0.018425328
-0.02011691
-0.020647787
-0.020251401
-0.018831821
-0.01634985
-0.012860715
-0.0084949925
-0.0033909205
0.002062209
0.0070911733
0.011158466
0.014279653
0.016454603
0.017481746
0.017452361
0.016643379
0.015295749
0.013663001
0.011948517
0.01031839
0.0089018459
0.0077886935
0.007028545
0.0066300781
0.0065674004
0.006786814
0.0072154519
0.007782301
0.0083902883
0.0090109929
0.0094803938
0.0099299044
-0.0052074889
-0.011065812
-0.016646462
-0.020123594
-0.02249362
-0.023537411
-0.023471312
-0.022483136
-0.020494428
-0.017456429
-0.013396023
-0.0084395156
-0.0028270047
0.0029452095
0.0080687626
0.012075336
0.015065369
0.016947928
0.017572622
0.017183635
0.016058619
0.014478411
0.012695424
0.010910162
0.0092813635
0.00792807
0.0069255113
0.0063075159
0.0060654294
0.0061589906
0.0065222967
0.00707545
0.007742882
0.008428
0.0091036919
0.0096103804
0.010082078
-0.0052004477
-0.011527523
-0.017541377
-0.021546444
-0.02464997
-0.026354628
-0.02680337
-0.026132371
-0.024582715
-0.022050557
-0.018432561
-0.013748912
-0.0082036573
-0.0021094245
0.0039007796
0.0090036994
0.012902166
0.015693386
0.01720327
0.017406871
0.016661002
0.015245553
0.013467295
0.011572692
0.0097554236
0.0081657631
0.0069091257
0.0060451083
0.0055899323
0.0055181217
0.0057752696
0.006285013
0.0069612797
0.007726157
0.0084843093
0.0092108088
0.009751885
0.01024198
-0.0052005205
-0.01188847
-0.018299698
-0.022803932
-0.026497466
-0.02898933
-0.030068403
-0.029919679
-0.02867648
-0.026592731
-0.023488327
-0.019222776
-0.013890355
-0.007769469
-0.0012684535
0.0048509882
0.0098516346
0.013611039
0.016116618
0.017179244
0.016975502
0.015880694
0.014210454
0.012273625
0.010308732
0.0085003984
0.0069872215
0.0058597271
0.0051597549
0.004885741
0.0049952713
0.0054212865
0.0060774365
0.0068741941
0.0077319888
0.0085586985
0.0093316338
0.0099039576
0.010409099
-0.0052135173
-0.012159508
-0.018906674
-0.023887753
-0.028081704
-0.03128663
-0.033196121
-0.033649915
-0.032935431
-0.031146892
-0.02849465
-0.024739076
-0.019784331
-0.013806361
-0.0071680523
-0.00039520928
0.0057319268
0.010591573
0.014162423
0.016272371
0.016855336
0.016263582
0.014846826
0.012963521
0.010912101
0.0089200442
0.0071618564
0.0057620802
0.0047940933
0.0042815094
0.0042039289
0.0045035255
0.0051007202
0.0059017163
0.0068147613
0.0077601436
0.0086504649
0.0094652997
0.010065531
0.010583259
-0.012342801
-0.0052469398
-0.019350722
-0.024765709
-0.029468629
-0.033227754
-0.035969924
-0.03727167
-0.037141531
-0.035885777
-0.033519851
-0.030216093
-0.025752616
-0.020099245
-0.013525489
-0.0064863988
0.00045580847
0.0065131321
0.011195221
0.014487981
0.016109494
0.016231018
0.015263804
0.013568778
0.011519121
0.0093991928
0.0074246143
0.0057576688
0.0045064232
0.0037263361
0.0034213813
0.003553004
0.0040481543
0.0048167643
0.0057590763
0.0067832399
0.0078101629
0.0087587292
0.0096108722
0.010235601
0.010763998
-0.019615384
-0.012407092
-0.0053039998
-0.025406416
-0.030590903
-0.034922214
-0.038313803
-0.040535557
-0.041252099
-0.040576668
-0.038750507
-0.035719122
-0.03168922
-0.026500091
-0.020187714
-0.013117525
-0.0057709199
0.0012472283
0.0071664068
0.011616453
0.014523572
0.015608806
0.015300121
0.013983598
0.01206146
0.0098954422
0.0077542181
0.0058417622
0.0043056386
0.0032363911
0.0026696785
0.0025897675
0.0029402262
0.0036337328
0.0045716416
0.0056503694
0.0067791864
0.0078812429
0.0088824821
0.0097673578
0.010413244
0.010950454
-0.025767392
-0.019672992
-0.012347398
-0.0053747393
-0.031396391
-0.036287654
-0.04031805
-0.04331777
-0.045016485
-0.045188609
-0.043941195
-0.041450863
-0.037659022
-0.032882786
-0.026999312
-0.02011826
-0.012638714
-0.0050694368
0.0019386311
0.0076520451
0.011790641
0.014205
0.014768609
0.014057258
0.012439244
0.010343977
0.0081123465
0.0059977395
0.004191055
0.0028238937
0.0019673915
0.0016368562
0.0017960991
0.0023718654
0.0032638377
0.0043670345
0.0055756347
0.0068019533
0.0079723852
0.0090206074
0.0099337061
0.010597632
0.011141746
-0.031840642
-0.025818877
-0.019517908
-0.012189844
-0.0054540209
-0.037278078
-0.041941596
-0.045643368
-0.048240196
-0.049465039
-0.049066789
-0.047153526
-0.043889941
-0.039313626
-0.033811117
-0.027315286
-0.019946859
-0.012139705
-0.0044401855
0.0024853342
0.0078992146
0.01164341
0.013492959
0.013594439
0.012512891
0.010651134
0.0084380517
0.0061914744
0.0041506355
0.0024922603
0.0013298755
0.00071440976
0.00063941103
0.0010488685
0.0018530446
0.0029412175
0.0042036302
0.0055345732
0.0068505381
0.0080824429
0.0091719356
0.010108793
0.010787765
0.011337015
-0.037837109
-0.031900935
-0.025556062
-0.019172163
-0.011933329
-0.0055206356
-0.043137593
-0.047535057
-0.050890645
-0.053129302
-0.053866224
-0.052810734
-0.050109219
-0.046044415
-0.040698913
-0.034540559
-0.027501659
-0.019725641
-0.011675289
-0.0039304522
0.0028034512
0.0078477382
0.011123839
0.012397363
0.012092575
0.010686872
0.0086436467
0.0063670059
0.0041552775
0.0022342595
0.00076472734
-0.00015923675
-0.00050861006
-0.00031189834
0.00035512694
0.0013879357
0.0026676513
0.0040816496
0.0055263325
0.0069238147
0.0082101446
0.0093352339
0.01029154
0.010982668
0.011535348
-0.043827014
-0.037928252
-0.0315746
-0.025002814
-0.018648954
-0.011557623
-0.0055369814
-0.048941997
-0.053057631
-0.05611105
-0.057970963
-0.058148455
-0.056299358
-0.052771272
-0.047929128
-0.041882169
-0.03512318
-0.027614764
-0.019506705
-0.011297154
-0.0036116319
0.0028205016
0.0074565479
0.010188756
0.010943997
0.010270458
0.0086062193
0.0064420197
0.0041545842
0.0020265395
0.00026973478
-0.00097244043
-0.0016271701
-0.0016885536
-0.0012076494
-0.00027915763
0.00097975664
0.0024439678
0.0040006128
0.0055498587
0.0070203989
0.0083540737
0.0095091944
0.010480859
0.01118145
0.01173594
-0.049763491
-0.043957327
-0.037545366
-0.030875598
-0.024189905
-0.017957809
-0.011063503
-0.005461396
-0.054669491
-0.058549932
-0.06128919
-0.062713251
-0.06217585
-0.059482361
-0.055163764
-0.049605017
-0.042904255
-0.03561024
-0.027701309
-0.019342074
-0.011077303
-0.0035710541
0.0024852642
0.0066693828
0.0088344534
0.0091589164
0.0081549426
0.0063005999
0.0040724569
0.0018247572
-0.00017252365
-0.0017222504
-0.0027008783
-0.0030583728
-0.002813496
-0.0020395954
-0.00084920155
0.00063062185
0.0022703163
0.0039596728
0.0056037315
0.0071387158
0.0085126311
0.009692475
0.01067579
0.011383346
0.011938027
-0.055613698
-0.049928611
-0.043520879
-0.036713486
-0.02983367
-0.023150569
-0.017103729
-0.010462965
-0.0052692428
-0.060356056
-0.063993827
-0.06637454
-0.067219843
-0.065888503
-0.062398512
-0.057345808
-0.051110931
-0.043819644
-0.036060212
-0.027826037
-0.01931526
-0.011117366
-0.0038764369
0.0017558338
0.0054613183
0.0071139116
0.0070594608
0.0057830178
0.00379928
0.0015601115
-0.0005992108
-0.0024197314
-0.0037215933
-0.0044026806
-0.0044383563
-0.0038725986
-0.0028008613
-0.0013512853
0.00034153448
0.0021462822
0.0039575473
0.0056861765
0.0072768341
0.0086842478
0.0098840265
0.01087557
0.011587563
0.012140842
-0.061406767
-0.055802
-0.049427688
-0.042555759
-0.035474971
-0.028498811
-0.021904066
-0.01610932
-0.0097021764
-0.0048860885
-0.065982799
-0.069344886
-0.071264338
-0.071424482
-0.069329104
-0.065103399
-0.059354183
-0.05250005
-0.044681459
-0.036539929
-0.028075986
-0.019533819
-0.011498608
-0.0045817347
0.00062564924
0.0038532471
0.0050628145
0.0046754924
0.0031868047
0.0011294254
-0.0010716686
-0.0030944432
-0.0046937741
-0.0057084906
-0.0060608898
-0.0057536343
-0.0048563499
-0.0034858944
-0.0017827787
0.00011284223
0.0020709888
0.0039923658
0.0057949191
0.0074329301
0.0088678214
0.010083127
0.011079228
0.011792951
0.012343637
-0.067122765
-0.061598385
-0.055221469
-0.048312528
-0.041122238
-0.033870898
-0.026927395
-0.020456788
-0.014867477
-0.0086994615
-0.004339168
-0.071506773
-0.074506287
-0.075884854
-0.07537411
-0.072555256
-0.067638381
-0.061229747
-0.05381021
-0.045561531
-0.037129174
-0.02855494
-0.020097548
-0.012273208
-0.0056823284
-0.00088366562
0.0018733487
0.0027054765
0.0020332633
0.00039380553
-0.0016842941
-0.0037994625
-0.0056389589
-0.0069734912
-0.0076637589
-0.0076593008
-0.0069918322
-0.0057568351
-0.0040903217
-0.0021422333
-5.5926869e-05
0.0020426446
0.0040615686
0.0059278748
0.0076058977
0.0090627037
0.010288471
0.011284921
0.011998348
0.012546157
-0.072721554
-0.067297842
-0.060915494
-0.053937582
-0.046664058
-0.039256931
-0.031968723
-0.025061697
-0.01869996
-0.01331602
-0.0074802095
-0.0037416783
-0.076849075
-0.07941167
-0.080270162
-0.07912405
-0.075613618
-0.070030685
-0.063018073
-0.05512125
-0.046550682
-0.037951008
-0.029379762
-0.021065686
-0.01342997
-0.0071717094
-0.0027702918
-0.00043200079
6.5620908e-05
-0.00083624608
-0.0025675143
-0.0046191185
-0.006601139
-0.0082110305
-0.0092382194
-0.0095687424
-0.0091827891
-0.0081421142
-0.0065675129
-0.0046107855
-0.002429245
-0.00016630172
0.0020584451
0.0041627678
0.0060840376
0.0077952024
0.0092670419
0.010497007
0.011490925
0.012204204
0.01275857
-0.078140596
-0.07286937
-0.066495458
-0.059437873
-0.052045862
-0.044519338
-0.036997915
-0.029669294
-0.022836943
-0.016661035
-0.011531746
-0.0062214287
-0.0031456844
-0.081944584
-0.084099632
-0.08446429
-0.082719582
-0.078543556
-0.072336291
-0.064789781
-0.056528056
-0.047760068
-0.039122508
-0.030620974
-0.022417304
-0.014955751
-0.0090343051
-0.0049969726
-0.0030152734
-0.0028140318
-0.0038975069
-0.0056734157
-0.0076535491
-0.0094550537
-0.010789132
-0.011467313
-0.011405543
-0.0106174
-0.0091951165
-0.0072829415
-0.0050453013
-0.002644696
-0.00022110067
0.0021157399
0.0042951541
0.0062630466
0.0079981849
0.0094760508
0.010706146
0.011699097
0.012424352
0.01298411
-0.08332147
-0.078257316
-0.071933912
-0.06480363
-0.057271194
-0.049597104
-0.041849684
-0.034238023
-0.026970642
-0.020324316
-0.014449731
-0.0097362338
-0.0049589901
-0.0025183978
-0.086841606
-0.088605519
-0.088506995
-0.086205276
-0.081384289
-0.074621469
-0.066643791
-0.0581341
-0.049318035
-0.040732536
-0.032265556
-0.024115803
-0.016839563
-0.011207775
-0.0074930329
-0.005846923
-0.0059039608
-0.0071264915
-0.0089040267
-0.010767197
-0.012340165
-0.013351659
-0.013640583
-0.013157142
-0.011950383
-0.010142694
-0.0078989913
-0.0053938378
-0.0027912188
-0.00022291771
0.0022140529
0.0044586085
0.0064611176
0.0082077699
0.0096860808
0.010920248
0.01192953
0.012657562
0.013217016
-0.088316725
-0.083418379
-0.077188378
-0.070011672
-0.062334784
-0.054485239
-0.046493523
-0.038603045
-0.031036136
-0.024008231
-0.017667213
-0.012265717
-0.0079444891
-0.0036561962
-0.0018946724
-0.091573891
-0.09296421
-0.092439599
-0.089619035
-0.0842126
-0.076984237
-0.068711589
-0.060087517
-0.051318206
-0.042780325
-0.034262139
-0.026134971
-0.019023471
-0.013634612
-0.01024508
-0.0089077049
-0.0091926383
-0.010505347
-0.012242174
-0.013940328
-0.015234782
-0.015876711
-0.015737995
-0.01480729
-0.013170152
-0.010978143
-0.0084137323
-0.0056584994
-0.0028715291
-0.00017183273
0.0023536726
0.0046480214
0.0066682154
0.0084192084
0.0099051206
0.011171006
0.012172092
0.012899732
0.013457027
-0.093164588
-0.088401303
-0.082221509
-0.075035424
-0.067228519
-0.05917753
-0.050916449
-0.04273182
-0.03488863
-0.027604657
-0.020902192
-0.015053297
-0.010073323
-0.0060929508
-0.0023720912
-0.0013078577
-0.096174939
-0.097210446
-0.096313236
-0.093020548
-0.087124521
-0.079563416
-0.071120565
-0.062480077
-0.05378636
-0.045213913
-0.036551449
-0.028435439
-0.021472526
-0.016290766
-0.013225702
-0.012174974
-0.012655933
-0.014017694
-0.015670091
-0.017152834
-0.018116738
-0.018342165
-0.017739892
-0.016340435
-0.014266696
-0.011697386
-0.0088281915
-0.0058414784
-0.0028849891
-6.689479e-05
0.0025280344
0.0048497056
0.0068782813
0.0086451403
0.010181218
0.01143407
0.012425896
0.013149734
0.013704187
-0.097895379
-0.093246843
-0.087083608
-0.079840143
-0.071931224
-0.063675462
-0.055126357
-0.046611762
-0.038502756
-0.030966992
-0.024030058
-0.017848576
-0.012412993
-0.0078085695
-0.0041971335
-0.0011596247
-0.00074882159
-0.10067491
-0.10139747
-0.10018715
-0.096510146
-0.090263508
-0.082501952
-0.073994114
-0.065370122
-0.056669276
-0.047921755
-0.039075115
-0.030990302
-0.024129885
-0.019138678
-0.016404557
-0.015629595
-0.016277947
-0.017651266
-0.019170791
-0.020383582
-0.020962831
-0.020725386
-0.019626785
-0.017742489
-0.01523287
-0.012299329
-0.0091437646
-0.00594099
-0.0028294812
8.3791003e-05
0.0027189652
0.0050559968
0.0071101427
0.008955266
0.010470522
0.011711205
0.01268777
0.01340786
0.013958226
-0.10253641
-0.097988149
-0.091816444
-0.084475595
-0.076423889
-0.067958307
-0.059121379
-0.050259979
-0.041843626
-0.034075387
-0.026909326
-0.020527575
-0.014749712
-0.0096932592
-0.0054983564
-0.0023489009
-6.3674063e-05
-0.00021667528
-0.10510681
-0.1055926
-0.10416708
-0.10021716
-0.093783689
-0.085937665
-0.077397192
-0.068729433
-0.059838499
-0.050826488
-0.041805069
-0.033711031
-0.026896115
-0.022169881
-0.019767825
-0.019271744
-0.020049532
-0.021393265
-0.022726359
-0.023609821
-0.023748246
-0.023002599
-0.021379755
-0.019002544
-0.016065519
-0.01278359
-0.0093569937
-0.0059535199
-0.002714454
0.00025671719
0.0029166111
0.0052934532
0.0074623395
0.0092802502
0.010777312
0.011996252
0.012958737
0.013673482
0.014219035
-0.10710788
-0.10264805
-0.096449558
-0.088986245
-0.080742944
-0.072008961
-0.062889575
-0.053677088
-0.044933913
-0.036895764
-0.029515355
-0.022954276
-0.016966801
-0.011561678
-0.0069235877
-0.0031969419
-0.00063145524
0.00092204658
0.00030097309
-0.10953649
-0.10991314
-0.10837978
-0.10429475
-0.097837061
-0.089957659
-0.081319958
-0.072419981
-0.063170855
-0.053883035
-0.044666145
-0.036502796
-0.029750734
-0.025379559
-0.023316629
-0.023092393
-0.023965615
-0.025231099
-0.026316481
-0.026806237
-0.026445799
-0.025150179
-0.022983394
-0.020114142
-0.016761529
-0.013144339
-0.0094620724
-0.0058902553
-0.0025698949
0.00043914051
0.0031573245
0.0056971979
0.007832568
0.0096271051
0.01109153
0.012291406
0.013237742
0.013946584
0.014486306
-0.11166813
-0.10724594
-0.10101141
-0.093399669
-0.084941227
-0.075881656
-0.066418996
-0.056868851
-0.047790069
-0.039455842
-0.03183016
-0.025092043
-0.018935781
-0.013308036
-0.0083072757
-0.0041528232
-0.0010140695
0.00093184322
0.0017565477
0.00086017061
-0.11408165
-0.11450152
-0.11298911
-0.10894187
-0.10253592
-0.094559303
-0.085638269
-0.076276543
-0.066571927
-0.057031747
-0.047583147
-0.039348669
-0.032725188
-0.02877904
-0.027070756
-0.027095602
-0.028021792
-0.029149343
-0.029917051
-0.02994325
-0.029027067
-0.027147722
-0.024427213
-0.021071286
-0.017310963
-0.013372717
-0.0094713223
-0.0057884273
-0.0024123105
0.00067946597
0.0036231653
0.006123509
0.0082297664
0.0099805568
0.011416743
0.012595022
0.01352476
0.0142266
0.014759858
-0.11633215
-0.11181583
-0.10551532
-0.09775189
-0.089058514
-0.079633293
-0.069764198
-0.059840178
-0.05042977
-0.041778024
-0.033877814
-0.026917577
-0.020612677
-0.014810828
-0.0095723008
-0.0050573617
-0.0015073565
0.00096208777
0.0023725099
0.0024757499
0.0014000161
-0.11891453
-0.11954567
-0.11820909
-0.11428765
-0.10789383
-0.099622394
-0.090177946
-0.080171804
-0.069985079
-0.060187944
-0.050486743
-0.042197935
-0.035871463
-0.032377828
-0.031046521
-0.031282084
-0.032209685
-0.0331275
-0.033498066
-0.032988451
-0.031466416
-0.02898006
-0.025700578
-0.02185837
-0.017700549
-0.013482261
-0.0094309929
-0.0056691061
-0.0021784625
0.0012187491
0.0041183547
0.0065832056
0.0086322057
0.010345818
0.011750669
0.012907177
0.013819048
0.014513336
0.015039396
-0.12130013
-0.11647742
-0.10997736
-0.10204734
-0.093130267
-0.083311362
-0.072986664
-0.062648376
-0.052864363
-0.043896205
-0.035696816
-0.028478136
-0.021978612
-0.016027064
-0.010607641
-0.0058541005
-0.0019469234
0.00090935332
0.002792711
0.0036045616
0.0030767562
0.0017672327
-0.12423302
-0.12523225
-0.12417591
-0.12037851
-0.11379237
-0.10495783
-0.094773182
-0.083997157
-0.073356667
-0.063257181
-0.053280941
-0.04504583
-0.039238681
-0.036185056
-0.035247258
-0.03565722
-0.036515942
-0.037137661
-0.037024647
-0.035911667
-0.03374373
-0.030630297
-0.026780899
-0.022455234
-0.017944836
-0.013529359
-0.0093683352
-0.0054508467
-0.0015530441
0.0017966963
0.0046545684
0.0070462139
0.0090470125
0.010720015
0.01209338
0.013226983
0.014120283
0.014806268
0.015324748
-0.12677067
-0.12143648
-0.11451423
-0.10629458
-0.097138016
-0.086943092
-0.076130718
-0.065348416
-0.05514694
-0.045824249
-0.03732217
-0.029818883
-0.023076985
-0.016936338
-0.011379689
-0.0064406111
-0.0022884417
0.00090871378
0.0031313741
0.0043925707
0.0045465858
0.0034861089
0.0019026265
-0.13020212
-0.13169571
-0.13096001
-0.12710871
-0.12002618
-0.1103855
-0.099269181
-0.087675361
-0.076634476
-0.066151072
-0.055978168
-0.04803609
-0.042820605
-0.040256224
-0.039696551
-0.040216776
-0.040917333
-0.041144591
-0.040462798
-0.038687574
-0.035835098
-0.032066644
-0.027640014
-0.022877056
-0.018112118
-0.013547048
-0.0091793078
-0.0047258166
-0.00087633664
0.0024251716
0.0051913589
0.0075221047
0.0094707304
0.011103288
0.012443874
0.013554001
0.014427883
0.015105344
0.015615437
-0.13287475
-0.12688573
-0.11932416
-0.11059885
-0.10106486
-0.090491583
-0.079197779
-0.067963463
-0.057326704
-0.047603575
-0.03875466
-0.030972744
-0.023960062
-0.017579232
-0.011853176
-0.0067885032
-0.0024310475
0.0010004441
0.0034993628
0.0050565328
0.0056162725
0.0051554167
0.0037077303
0.0019183576
-0.13696018
-0.13900955
-0.13848326
-0.13426465
-0.12641255
-0.11572736
-0.10357469
-0.0911944
-0.079738805
-0.06888466
-0.058667898
-0.051232341
-0.04663969
-0.04462983
-0.044402625
-0.044944665
-0.045381473
-0.045112663
-0.04378329
-0.041284907
-0.037696637
-0.033250618
-0.028292034
-0.023206074
-0.018242619
-0.013403435
-0.0083403113
-0.0039329135
-0.00013749117
0.0030505995
0.0057413379
0.008006763
0.0099036367
0.011494509
0.012801565
0.0138877
0.014742029
0.015409895
0.0159112
-0.13976574
-0.13295528
-0.12457734
-0.11513013
-0.10500251
-0.09391991
-0.08215593
-0.070490891
-0.059415357
-0.04928385
-0.040043134
-0.031948907
-0.024665835
-0.018017036
-0.012067549
-0.0068569281
-0.0023649173
0.001274801
0.0039480515
0.0057200345
0.0065110198
0.0064134936
0.005473667
0.0037400937
0.001846914
-0.14458117
-0.14711439
-0.14653486
-0.14163815
-0.13275693
-0.12085296
-0.10764508
-0.094520146
-0.082632115
-0.071483006
-0.061376109
-0.054706717
-0.05077537
-0.049340664
-0.04935734
-0.04981469
-0.049873841
-0.049010454
-0.046947484
-0.043645055
-0.03927606
-0.034195563
-0.028834652
-0.023490777
-0.01817033
-0.012436343
-0.0074118673
-0.0030635467
0.00059355641
0.0036894646
0.006299688
0.0085006793
0.01034447
0.011892985
0.01316603
0.014228642
0.015061588
0.015719489
0.01621166
-0.14753985
-0.13978521
-0.1304243
-0.1200513
-0.10909919
-0.097331927
-0.084974573
-0.07287869
-0.061404214
-0.05086369
-0.041222903
-0.032784432
-0.025199264
-0.018284983
-0.012089845
-0.006679603
-0.002063467
0.0017206619
0.0045559412
0.0064220989
0.0073713865
0.0074653054
0.0068573856
0.0055725507
0.0036624448
0.0017283563
-0.15302981
-0.15583814
-0.15488915
-0.14903617
-0.13888838
-0.12569225
-0.11145793
-0.097624975
-0.085308331
-0.073986049
-0.064302962
-0.058550175
-0.055323725
-0.054393549
-0.054545764
-0.054797096
-0.054363655
-0.052793769
-0.04988096
-0.045697846
-0.040585685
-0.035015266
-0.029326423
-0.023523603
-0.017060698
-0.011352099
-0.0063893427
-0.0022079848
0.0013382045
0.0043361072
0.0068672171
0.0090024644
0.01079245
0.012298492
0.013538491
0.014575103
0.015386043
0.016033489
0.016516507
-0.15617067
-0.14749225
-0.1370162
-0.12553785
-0.11352599
-0.10087408
-0.087768598
-0.075119152
-0.063242398
-0.052346594
-0.04230559
-0.033515769
-0.025602759
-0.018396813
-0.011960468
-0.0063341101
-0.00154833
0.0023580648
0.0052950989
0.0072429306
0.0082355784
0.0084559938
0.0080195721
0.0070450762
0.0055186987
0.00351292
0.0015621104
-0.1621513
-0.16495005
-0.16335769
-0.15627763
-0.14471919
-0.13022984
-0.11500729
-0.10049114
-0.087768464
-0.076437902
-0.067690235
-0.062819653
-0.06030919
-0.059783295
-0.059949446
-0.059866221
-0.058803855
-0.056371188
-0.052490567
-0.047452559
-0.041758728
-0.035780001
-0.029508638
-0.022258788
-0.015798597
-0.010151885
-0.0053880913
-0.0013385503
0.0020897996
0.0049917798
0.0074424437
0.0095112825
0.011247579
0.012713089
0.013916533
0.014926379
0.015714632
0.016351458
0.016825381
-0.16551718
-0.15606561
-0.14444441
-0.13172465
-0.11846346
-0.1047005
-0.090694044
-0.07732711
-0.064939974
-0.053685261
-0.043286415
-0.034160767
-0.025923157
-0.01840502
-0.011703402
-0.0058690312
-0.00089310451
0.0031666043
0.0061720217
0.0081457938
0.0091746551
0.0094306953
0.0091028302
0.0082881224
0.0070359154
0.0053556242
0.0033185442
0.0014027636
-0.17173361
-0.17426372
-0.17174714
-0.16325104
-0.15024046
-0.1344709
-0.11826382
-0.10312553
-0.089992285
-0.07897927
-0.071626741
-0.067572874
-0.065736843
-0.065508273
-0.065553624
-0.064976721
-0.063086373
-0.05962248
-0.054779191
-0.049066939
-0.042877292
-0.036169092
-0.028078305
-0.020796525
-0.014393452
-0.0089819503
-0.0043724604
-0.00046319569
0.0028502174
0.0056549276
0.008024524
0.010027447