/*--------------------------------*- C++ -*----------------------------------*\
| =========                 |                                                 |
| \\      /  F ield         | OpenFOAM: The Open Source CFD Toolbox           |
|  \\    /   O peration     | Version:  5.0                                   |
|   \\  /    A nd           | Web:      www.OpenFOAM.org                      |
|    \\/     M anipulation  |                                                 |
\*---------------------------------------------------------------------------*/
FoamFile
{
    version     2.0;
    format      ascii;
    class       volScalarField;
    location    "400";
    object      pPrime2Mean;
}
// * * * * * * * * * * * * * * * * * * * * * * * * * * * * * * * * * * * * * //

dimensions      [0 4 -4 0 0 0 0];

internalField   nonuniform List<scalar> 
9200
(
7.814094e-07
8.2804626e-07
4.9754173e-06
8.9057474e-07
5.1742607e-06
1.3690797e-05
1.0301419e-06
5.414505e-06
1.4160512e-05
2.5106868e-05
1.243539e-06
5.8946778e-06
1.4812213e-05
2.5834336e-05
3.9343547e-05
1.6140688e-06
6.5616316e-06
1.6042833e-05
2.6862304e-05
4.0322088e-05
5.5394603e-05
2.2228706e-06
7.5640171e-06
1.7750767e-05
2.8758763e-05
4.1647969e-05
5.6519844e-05
7.2944115e-05
3.231238e-06
8.9672971e-06
2.0227136e-05
3.1356309e-05
4.4077188e-05
5.7989957e-05
7.4147622e-05
9.1692031e-05
4.819169e-06
1.0923954e-05
2.3584885e-05
3.506982e-05
4.7334468e-05
6.0707288e-05
7.5611602e-05
9.2895172e-05
0.00011146304
7.2583185e-06
1.3542001e-05
2.813168e-05
4.0017777e-05
5.1907954e-05
6.4268364e-05
7.8382346e-05
9.4214389e-05
0.00011262229
0.00013217041
1.069059e-05
1.6986403e-05
3.4174075e-05
4.6567269e-05
5.7883165e-05
6.9213832e-05
8.1919043e-05
9.6847382e-05
0.0001137015
0.00013325948
0.00015377903
1.4165072e-05
2.1329972e-05
4.2121675e-05
5.5051591e-05
6.5661119e-05
7.5552092e-05
8.680448e-05
0.00010010389
0.00011606575
0.00013403904
0.00015479211
0.00017626035
1.6384289e-05
2.6992268e-05
5.2549789e-05
6.6023591e-05
7.5605356e-05
8.3671317e-05
9.2962479e-05
0.00010460876
0.00011887414
0.00013606309
0.00015524625
0.00017721094
0.00019962337
1.9236799e-05
3.617444e-05
6.6981321e-05
8.0409645e-05
8.8328313e-05
9.3874437e-05
0.00010075583
0.00011020008
0.00012280143
0.00013833549
0.00015691053
0.00017734515
0.00020053375
0.00022382968
2.6263319e-05
5.2947446e-05
8.9064203e-05
0.0001002871
0.00010486671
0.00010672271
0.00011040545
0.00011721072
0.00012760716
0.0001415945
0.0001586329
0.0001786779
0.00020037209
0.00022473477
0.00024889875
3.8915456e-05
8.3567883e-05
0.00012456167
0.00012998937
0.00012746701
0.00012324397
0.00012241272
0.00012578881
0.00013360413
0.00014553041
0.00016122838
0.00017989721
0.00020142984
0.00022432388
0.00024983061
0.00027476744
5.8256943e-05
0.00013286247
0.00018244901
0.00017654633
0.00016041049
0.00014556367
0.00013772111
0.00013640058
0.00014090155
0.00015045406
0.00016432243
0.00018190526
0.00020223637
0.00022519384
0.00024921684
0.00027575981
0.00030144567
8.413091e-05
0.00020054034
0.00027054975
0.00025036207
0.00021142151
0.00017789283
0.00015821017
0.00014986937
0.00014995449
0.00015645674
0.00016823075
0.0001842688
0.00020379007
0.00022571684
0.00024999112
0.00027499718
0.00030253116
0.00032885883
0.00011398326
0.00028395141
0.00038798939
0.00036249656
0.00029222693
0.00022800858
0.00018775764
0.00016782683
0.00016148271
0.00016398178
0.00017304039
0.00018731847
0.00020559962
0.00022699588
0.00025037456
0.00027578171
0.00030166684
0.00033005749
0.00035699139
0.00014271371
0.00037456159
0.00052920978
0.0005135622
0.00041529855
0.00030735367
0.0002336469
0.00019369873
0.00017688783
0.00017365599
0.00017917944
0.00019112296
0.0002080035
0.00022848313
0.00025158513
0.00027618909
0.00030254765
0.00032912877
0.00035831899
0.00038578299
0.00016666708
0.00046539892
0.00068013217
0.00069618782
0.00058311452
0.00042972518
0.00030703819
0.00023401945
0.00019909816
0.00018674437
0.00018721702
0.00019607217
0.00021104276
0.00023052275
0.00025302314
0.00027756417
0.00030312983
0.00033018528
0.00035735886
0.00038724052
0.00041520516
0.00018139066
0.00054713661
0.00082832513
0.00089250416
0.00078731585
0.00060134974
0.00042271428
0.00030026173
0.00023390197
0.00020568559
0.00019829804
0.00020270665
0.00021505419
0.00023310443
0.00025503151
0.00027926848
0.00030490059
0.00033109033
0.00035865477
0.00038625543
0.00041678647
0.00044521719
0.00018743211
0.00061072878
0.00096567605
0.0010826436
0.0010101179
0.00081466272
0.00059018055
0.00040657227
0.00029217191
0.00023549289
0.0002145055
0.00021206049
0.00022054604
0.00023651149
0.00025753491
0.00028164203
0.00030720128
0.00033348853
0.00035999426
0.00038781574
0.00041577285
0.00044690344
0.0004757912
0.00019085056
0.00065666334
0.0010867229
0.0012570868
0.0012290751
0.0010532299
0.00080461481
0.0005644596
0.00038731076
0.00028561608
0.00024000967
0.0002259617
0.0002284511
0.00024118277
0.0002607557
0.00028454318
0.00031038058
0.00033672847
0.0003632141
0.00038967061
0.00041760699
0.00044583302
0.00047755784
0.00050690279
0.00019485819
0.00069227627
0.0011778189
0.0014113741
0.0014301671
0.0012934752
0.0010525583
0.00077470742
0.00053334897
0.00036962587
0.00028284438
0.00024772689
0.00024031697
0.00024791461
0.00026502952
0.00028812163
0.00031423613
0.00034118748
0.00036770721
0.00039387641
0.00042002357
0.00044790436
0.000476391
0.00050871633
0.00053853605
0.00020057455
0.00072598499
0.001246148
0.0015222888
0.0016065773
0.0015161852
0.0013087981
0.0010257236
0.00073589188
0.00050325373
0.00035650562
0.000284083
0.00025890694
0.00025804267
0.00027100049
0.00029257525
0.00031883293
0.00034662807
0.00037391364
0.00039990386
0.00042531418
0.00045086748
0.00047864335
0.00050739775
0.00054035739
0.00057067775
0.00020732012
0.00075439743
0.0013061803
0.0015967261
0.0017394615
0.0017134751
0.0015525677
0.0012955683
0.00098593114
0.0006951301
0.00047631858
0.00034702133
0.00028947634
0.00027383677
0.00027979268
0.00029839938
0.00032423511
0.0003530376
0.0003815995
0.0004082987
0.00043308215
0.00045727667
0.00048211015
0.00050974103
0.00053882106
0.00057246532
0.00060330918
0.00021234915
0.00077289648
0.0013495863
0.0016523559
0.0018260699
0.0018746497
0.0017736145
0.0015595784
0.0012653634
0.00093994374
0.00065401
0.00045144122
0.00034194165
0.00029931152
0.00029327258
0.00030644921
0.00033074755
0.00036035071
0.00039069956
0.00041888949
0.00044403241
0.00046691084
0.0004896033
0.00051360037
0.00054114897
0.00057063672
0.00060502679
0.00063640328
0.0002141236
0.00077979024
0.0013730436
0.0016871367
0.0018849267
0.0019843575
0.0019630102
0.0018041892
0.0015473694
0.0012242117
0.0008903177
0.00061310688
0.00043154296
0.00034255072
0.00031448129
0.00031825527
0.0003389923
0.00036866794
0.00040103402
0.0004315982
0.00045811973
0.00048069481
0.00050111938
0.0005220554
0.00054526049
0.00057282024
0.00060283104
0.00063802804
0.0006699555
0.0002113278
0.00077416863
0.001378676
0.0017000978
0.0019226937
0.0020560114
0.0021035305
0.0020211663
0.0018146079
0.001521778
0.0011738982
0.00083742199
0.00057464994
0.00041712566
0.0003495986
0.00033623473
0.00035012472
0.00037836871
0.000412521
0.00044617745
0.00047531988
0.00049876394
0.0005178784
0.00053537913
0.00055450758
0.00057700004
0.00060473248
0.00063539971
0.0006714607
0.00070399865
0.00019981284
0.00076032679
0.0013683344
0.0016965741
0.001937702
0.0021047413
0.0021992764
0.0022009893
0.0020620396
0.00181151
0.0014828079
0.0011145902
0.00078111687
0.00053866098
0.00040975214
0.00036471828
0.00036603767
0.00039024226
0.00042529842
0.0004624111
0.00049538706
0.00052123815
0.00054025447
0.00055510938
0.0005694675
0.00058680392
0.00060879407
0.00063688697
0.00066834523
0.00070532364
0.00073852898
0.00018296355
0.00072935636
0.0013459418
0.0016763508
0.0019366825
0.0021320192
0.0022670801
0.0023299543
0.0022811908
0.0020882091
0.0017939409
0.00142827
0.001046284
0.00072223999
0.00051034292
0.00041260224
0.00038988585
0.00040572602
0.00043982193
0.00048020181
0.00051803246
0.00054797175
0.00056861199
0.00058193277
0.00059200225
0.00060311596
0.00061889837
0.00064063249
0.0006692979
0.00070167101
0.00073960809
0.00077342518
0.00016031055
0.00068739022
0.0012905391
0.0016465783
0.0019186235
0.0021432547
0.0023156706
0.0024231526
0.0024477726
0.0023411197
0.0020971662
0.0017561208
0.0013566404
0.0009709763
0.00066775756
0.00049376827
0.00042802861
0.00042720881
0.00045704824
0.00049969814
0.00054299227
0.00057869033
0.00060301035
0.00061655296
0.00062319389
0.00062814884
0.00063620133
0.00065071749
0.00067252973
0.00070197781
0.00073538032
0.00077428568
0.00080859047
0.00013224794
0.00062388679
0.0012209219
0.0015791833
0.0018934585
0.0021379762
0.0023473633
0.0024990969
0.0025754761
0.0025525065
0.0023836287
0.00208239
0.0016945646
0.0012707494
0.00089192827
0.00062352302
0.00049201496
0.00045888448
0.00047875545
0.00052142492
0.00057013174
0.00061305281
0.00064331142
0.00065934765
0.00066417392
0.00066342186
0.00066328577
0.00066858397
0.00068228424
0.00070450574
0.00073494674
0.00076947125
0.00080933339
0.00084402956
0.00010406442
0.00053928854
0.0011158279
0.0015035028
0.0018244902
0.0021277427
0.0023628662
0.0025577259
0.0026829623
0.0027231774
0.0026446489
0.0024004321
0.0020397483
0.0016092816
0.001175271
0.00081663738
0.00059679555
0.00050953944
0.00050775682
0.00054654678
0.00059961462
0.0006507401
0.00068921761
0.00071045494
0.00071575199
0.00071056272
0.00070214402
0.00069717121
0.00070026133
0.00071361336
0.00073660557
0.0007682319
0.00080393376
0.00084472
0.00087982097
7.8416885e-05
0.00044516046
0.00097522277
0.0013934675
0.0017538831
0.0020651287
0.0023753159
0.0026000277
0.0027733629
0.0028679869
0.0028657182
0.0027066631
0.0023837249
0.0019655516
0.0015050839
0.0010762243
0.00075649382
0.00059320116
0.00054989412
0.00057713307
0.00063207583
0.00069162328
0.00074036755
0.00076978599
0.00077848732
0.00077092016
0.00075494919
0.00073894448
0.00072972241
0.00073122482
0.00074478229
0.00076888192
0.00080185713
0.00083875696
0.00088037556
0.00091598695
5.6317628e-05
0.00035299603
0.00081553368
0.0012449476
0.0016475317
0.0020088641
0.0023252295
0.0026398875
0.0028465234
0.0029958336
0.0030570499
0.0029835841
0.0027287933
0.0023302485
0.0018640118
0.0013899218
0.00098282632
0.00072220017
0.00061712107
0.00061672722
0.00066881284
0.00073586799
0.00079643921
0.00083708558
0.00085266319
0.00084560986
0.00082366755
0.00079664514
0.00077359323
0.00076088962
0.0007615766
0.00077586476
0.0008013957
0.00083584104
0.00087395025
0.00091629539
0.00095244714
3.8802219e-05
0.00026857152
0.00065922087
0.0010649623
0.0014992372
0.0019119265
0.0022913103
0.0026042556
0.0029177181
0.0031064892
0.00322959
0.0032304059
0.0030616022
0.0027055356
0.0022421969
0.0017431219
0.0012734486
0.00091141807
0.00072198372
0.00067332051
0.00071217375
0.00078415548
0.00085728934
0.00091203368
0.00093834092
0.00093547135
0.00091010037
0.00087291376
0.00083518617
0.00080595122
0.00079076153
0.0007914112
0.00080697133
0.00083420359
0.00087018874
0.0009094911
0.00095247039
0.00098916319
2.7139298e-05
0.00019861774
0.00051459451
0.00088300868
0.0013121654
0.001773316
0.0022098982
0.0025965329
0.0028975662
0.0032158876
0.0033852814
0.0034542948
0.0033647974
0.0030832552
0.0026396253
0.0021273703
0.0016134691
0.0011696055
0.0008751309
0.00076031439
0.00076671954
0.00083793789
0.00092307265
0.00099432767
0.0010354207
0.0010410801
0.0010157955
0.00097032391
0.00091784024
0.00087025807
0.00083605566
0.00081946134
0.00082089869
0.00083820292
0.00086735668
0.00090490418
0.00094534832
0.00098885853
0.0010260638
2.2188672e-05
0.00014909833
0.00039335179
0.00071380891
0.0011117855
0.0015872836
0.0020867848
0.0025335318
0.0029193142
0.003214988
0.0035418343
0.0036632709
0.0036423741
0.0034454959
0.0030537272
0.002542315
0.0019954242
0.0014864499
0.0010933148
0.00088688263
0.0008432589
0.0008996875
0.00099450122
0.001083799
0.0011436392
0.0011627818
0.0011420492
0.0010912683
0.0010249462
0.00095783981
0.00090178593
0.00086403204
0.00084720712
0.00085019423
0.00086967368
0.00090089111
0.00093998635
0.00098148815
0.0010254208
0.0010630429
0.00012467107
2.4231895e-05
0.00030685667
0.00057145464
0.00092528583
0.0013745638
0.0019064366
0.0024263733
0.0028768534
0.0032706975
0.0035685329
0.0038764831
0.0039089648
0.0037834558
0.0034726699
0.0029868775
0.0024202644
0.0018562753
0.0013777631
0.0010668802
0.00095367593
0.00097578378
0.0010729664
0.0011806607
0.0012628203
0.0013006911
0.0012898904
0.0012379365
0.0011598393
0.0010729111
0.0009926229
0.00092984577
0.00089013844
0.00087423297
0.00087949356
0.00090147225
0.00093483805
0.00097542165
0.0010178672
0.0010621065
0.0011000167
0.00026370644
0.00012775439
3.3317394e-05
0.00046982813
0.00076774184
0.0011755994
0.0016863348
0.0022534826
0.0027853556
0.0032531516
0.0036690774
0.0039388646
0.0041858253
0.0041091148
0.0038716838
0.0034485715
0.0028866459
0.0022811738
0.0017238691
0.0013110563
0.0011049011
0.0010787362
0.0011614985
0.0012855242
0.0013928301
0.0014548335
0.0014600975
0.0014122743
0.0013257398
0.0012198016
0.0011135855
0.0010221472
0.00095471687
0.00091468232
0.00090082481
0.00090895291
0.00093368632
0.00096921284
0.0010111859
0.0010544365
0.0010988571
0.0011369309
0.0004189891
0.00026811039
0.00015821289
4.9292507e-05
0.0006550199
0.0010070738
0.0014752941
0.0020307767
0.0026227248
0.0031809931
0.0036843678
0.004098165
0.0042920729
0.004453572
0.0042622496
0.0039107787
0.0033850255
0.0027605784
0.0021360727
0.0016229239
0.0013092017
0.0012173784
0.0012688743
0.0013995235
0.0015337969
0.0016251089
0.0016532117
0.0016159884
0.0015256935
0.0014028404
0.0012699804
0.0011466855
0.0010466576
0.00097678113
0.00093805449
0.00092723387
0.00093874528
0.00096637617
0.0010040202
0.0010472464
0.0010911434
0.0011356074
0.0011737337
0.00059818739
0.00042415781
0.00031962605
0.00021320977
7.1572867e-05
0.000886869
0.0012968749
0.0018070508
0.0023996429
0.003033155
0.0036376789
0.0041571891
0.0045202547
0.0046103529
0.0046813467
0.004373055
0.0039058142
0.0032890693
0.0026171113
0.0020077454
0.0015815792
0.0013940713
0.0014077556
0.0015270754
0.0016861126
0.0018115064
0.0018696071
0.0018504883
0.0017625723
0.0016263229
0.0014672765
0.0013096848
0.0011723339
0.0010665909
0.00099654857
0.00096066545
0.00095374383
0.00096900502
0.00099959386
0.0010392491
0.0010835615
0.0011279351
0.0011723016
0.0012103656
0.00082679755
0.00060319622
0.00048407681
0.00041278121
0.00028757685
9.8744213e-05
0.0011702589
0.0016177835
0.0021622665
0.0028105872
0.0035114501
0.0041488159
0.0046349886
0.0049205709
0.004897027
0.0048718145
0.0044399243
0.0038563312
0.0031632256
0.0024741543
0.0019292762
0.0016287021
0.0015766503
0.0016792321
0.0018512673
0.0020140563
0.0021094894
0.0021169497
0.0020389633
0.0018944469
0.0017110955
0.0015177461
0.0013388046
0.0011909778
0.0010825838
0.0010145913
0.00098292826
0.00098060116
0.00099985566
0.0010333653
0.0010748772
0.0011200836
0.0011647526
0.0012088824
0.0012467696
0.0011083604
0.00083341757
0.00066846875
0.00059157866
0.00053761483
0.00037444492
0.00012960047
0.0014837214
0.0019611979
0.0025584745
0.0032909139
0.0040545972
0.0046770863
0.0051013064
0.0052999073
0.0051563671
0.0050236566
0.0044590527
0.0037671636
0.0030214025
0.0023646752
0.0019365538
0.001786147
0.0018619847
0.0020350467
0.0022328334
0.0023729177
0.002416266
0.0023571755
0.0022112236
0.0020070732
0.0017777903
0.0015536964
0.0013576882
0.0012033652
0.0010953888
0.0010315118
0.0010052351
0.0010080311
0.0010313822
0.0010677032
0.0011108709
0.0011567599
0.0012015362
0.0012452912
0.0012828892
0.0014197049
0.0011182322
0.00090451336
0.00078540262
0.00073436737
0.00068154101
0.00046658279
0.00016238774
0.0018182188
0.0023436354
0.0030227936
0.0038431053
0.0046248749
0.0052051706
0.0055599787
0.0056644989
0.0053863618
0.0051291042
0.0044245256
0.0036450673
0.0028936439
0.0023329114
0.0020617789
0.0020722291
0.0022484318
0.0024696746
0.0026594741
0.0027488836
0.0027191538
0.002580392
0.0023608034
0.0020969398
0.0018251712
0.001575258
0.0013671632
0.00121045
0.0011058369
0.0010479068
0.0010279577
0.0010362155
0.0010636503
0.0011025983
0.0011471892
0.0011935346
0.0012382237
0.0012814686
0.0013186749
0.0017515072
0.0014332661
0.0011972095
0.0010302698
0.00093987028
0.00089705185
0.00083071126
0.00055684975
0.00019396003
0.002190123
0.0027908311
0.0035589771
0.0044323531
0.0052057045
0.0057396583
0.0060180277
0.0060132798
0.005575812
0.00517901
0.0043419933
0.0035171822
0.0028284957
0.0024196105
0.0023321234
0.002488794
0.0027330313
0.0029691937
0.0031148202
0.0031264025
0.0030053528
0.0027777002
0.0024824779
0.0021618325
0.0018529634
0.0015832373
0.0013683885
0.0012133328
0.0011147903
0.00106435
0.0010514174
0.0010653037
0.0010966959
0.0011380326
0.0011837802
0.0012303423
0.0012747514
0.0013173602
0.0013540803
0.0021197608
0.0017690234
0.0015210007
0.0013338046
0.0011950434
0.0011137946
0.00106246
0.00097571857
0.00063326989
0.00021810444
0.0026234541
0.0033077961
0.0041423337
0.0050438805
0.005804585
0.0062890785
0.0064757271
0.006335322
0.0057121753
0.0051697926
0.0042333954
0.0034314814
0.0028755795
0.00266349
0.0027608067
0.0030275718
0.0033067636
0.0035137055
0.0035796472
0.0034889606
0.0032628985
0.002941619
0.0025726133
0.0022007606
0.0018618091
0.0015789576
0.0013627557
0.0012132009
0.0011230973
0.0010813604
0.0010758941
0.0010954054
0.001130537
0.0011739672
0.0012205779
0.0012671119
0.0013110632
0.0013529224
0.0013890622
0.0025466825
0.0021415288
0.001866362
0.0016694748
0.0015099818
0.0013778397
0.0012884046
0.0012148091
0.0010938561
0.00068144241
0.00023303726
0.0031230225
0.0038731314
0.0047591279
0.0056879175
0.0064325211
0.0068565023
0.0069225842
0.0066092616
0.0057867241
0.0051129585
0.004143354
0.0034449759
0.0030836114
0.0030895902
0.0033467459
0.0036777206
0.0039467389
0.0040787547
0.0040332145
0.0038209355
0.0034814267
0.0030666004
0.0026291794
0.0022140233
0.0018531256
0.0015641508
0.0013518541
0.0012112565
0.0011315491
0.0010993958
0.0011016151
0.0011265986
0.0011651598
0.0012103406
0.001257505
0.0013037861
0.0013471233
0.0013881156
0.0014235728
0.0030369274
0.0025716094
0.0022498484
0.0020279982
0.0018575031
0.0017020084
0.0015575236
0.0014361811
0.0013227961
0.0011647025
0.00069852622
0.00024010079
0.0036717395
0.0044751214
0.0054166515
0.0063770345
0.0070945496
0.0074300189
0.0073341317
0.0068212312
0.0057985844
0.005045147
0.0041331874
0.0036161724
0.0034922223
0.0037088963
0.0040776864
0.0044172682
0.0046226693
0.0046385767
0.0044554028
0.0041084057
0.0036529098
0.0031491814
0.0026518671
0.0022030142
0.0018289846
0.0015408648
0.0013373327
0.0012086574
0.0011408662
0.0011188525
0.001128751
0.0011589159
0.0012005152
0.0012470716
0.0012945047
0.0013403405
0.0013828937
0.0014228745
0.0014592088
0.0035762253
0.0030640406
0.0026917645
0.0024267237
0.0022288947
0.0020592882
0.0018841874
0.0016923588
0.0015264199
0.0013747051
0.0011855864
0.00069867081
0.00023625512
0.0042583552
0.00511988
0.0061282946
0.0071194321
0.00778396
0.0079865601
0.0076865781
0.006963446
0.0057698042
0.0050311612
0.0042688974
0.0039954348
0.0041267914
0.0045115815
0.0049243233
0.0052139394
0.0053040882
0.0051682396
0.0048280572
0.0043402007
0.0037718853
0.003188023
0.002641842
0.0021700817
0.0017919263
0.0015112944
0.00132082
0.001206487
0.0011516926
0.0011400524
0.0011574061
0.0011923325
0.0012365257
0.0012841075
0.001331566
0.0013767384
0.001418275
0.0014585183
0.0014967814
0.0041542109
0.0036060057
0.0031964067
0.0028854193
0.0026425016
0.002441663
0.0022385474
0.0020014022
0.0017559653
0.0015531568
0.0013742776
0.0011843607
0.00067724969
0.0002251824
0.0048880203
0.005820361
0.0069054792
0.0079110951
0.0084753929
0.008496278
0.0079649562
0.0070385941
0.0057574523
0.0051442801
0.0046111948
0.0046233704
0.0049863673
0.005465835
0.0058515512
0.0060304418
0.0059596722
0.0056443224
0.0051362494
0.0045082761
0.0038356248
0.0031838266
0.0026016351
0.0021182944
0.0017447991
0.0014776669
0.0013038799
0.001205732
0.0011645656
0.0011632204
0.0011876059
0.0012267907
0.0012731551
0.0013214569
0.0013686516
0.0014128226
0.0014543587
0.0014959793
0.001535275
0.0047742195
0.0041881682
0.0037522348
0.0034073497
0.0031166081
0.0028678614
0.0026135207
0.0023356946
0.0020318259
0.0017540153
0.0015253763
0.0013588706
0.0011432235
0.00064127413
0.00020776902
0.0055731713
0.0065886102
0.0077449772
0.008731323
0.0091391483
0.0089325878
0.0081682321
0.007091475
0.0058352706
0.0054575063
0.0052122384
0.0055164253
0.0060389796
0.0065263291
0.0068151133
0.0068275542
0.0065584461
0.006047036
0.0053685825
0.0046079322
0.0038439757
0.0031391343
0.002534832
0.0020512381
0.0016905766
0.0014421652
0.0012879739
0.0012072376
0.0011798734
0.0011884619
0.0012193385
0.0012622817
0.0013104335
0.0013590721
0.0014055334
0.0014494419
0.0014922631
0.0015345287
0.0015746853
0.0054482634
0.0048113553
0.0043495182
0.0039817266
0.0036542751
0.0033523485
0.0030284167
0.002686843
0.0023326928
0.0019956235
0.0016913581
0.0014908966
0.0012986506
0.0010801587
0.00058728203
0.00018577135
0.0063262843
0.0074229239
0.0086300403
0.0095428474
0.009739996
0.0092858596
0.0083117076
0.0071826285
0.0060813233
0.0060317817
0.0061038662
0.0066520277
0.0072345311
0.0076444442
0.0077694745
0.0075683373
0.0070756989
0.0063612172
0.0055177832
0.0046377702
0.0037992368
0.0030579824
0.0024458218
0.0019727825
0.0016322354
0.0014068716
0.0012743783
0.0012116531
0.0011978577
0.0012158449
0.0012526429
0.0012988613
0.0013482947
0.0013966456
0.0014428433
0.0014879758
0.0015314234
0.0015741647
0.0016150006
0.0061887976
0.0054869629
0.0049872351
0.0045976181
0.0042440121
0.0038993788
0.0034999233
0.0030726373
0.0026510833
0.0022602207
0.0018910751
0.0016312968
0.0014042743
0.0012172844
0.00099235122
0.00051779236
0.00016230773
0.0071476791
0.0083076835
0.0095239919
0.01030043
0.010255919
0.0095589353
0.0084493962
0.007398631
0.0065656825
0.0069085133
0.0072826694
0.0079737885
0.0085110818
0.0087704654
0.0086698784
0.0082216499
0.0074917204
0.0065763043
0.0055806102
0.0045994684
0.0037057424
0.0029456019
0.0023395007
0.0018868915
0.0015726541
0.001373657
0.0012641047
0.0012194328
0.0012187208
0.0012454914
0.0012876055
0.0013364337
0.0013863399
0.0014346173
0.0014822744
0.0015279544
0.0015718663
0.0016148629
0.0016562073
0.0069979123
0.0062290343
0.0056763606
0.0052523373
0.0048753026
0.004491537
0.0040265079
0.0035084844
0.0030007946
0.002541038
0.0021118504
0.0017999447
0.0015096227
0.0012981532
0.0011099018
0.00088182552
0.00043695099
0.0001391172
0.008020823
0.0092083033
0.010380061
0.010969923
0.010680347
0.0097902083
0.0086605928
0.0078209218
0.0073381054
0.008101806
0.0086971493
0.0094038706
0.0098068593
0.0098502062
0.0094783359
0.0087616197
0.007792153
0.0066866945
0.0055577683
0.0044974307
0.0035695306
0.0028080402
0.0022210349
0.0017974621
0.0015144727
0.0013440435
0.0012579161
0.0012309746
0.0012427253
0.001277526
0.0013240874
0.0013745025
0.0014248483
0.0014750482
0.0015233547
0.0015694525
0.0016135483
0.0016566031
0.0016982864
0.0078559168
0.0070399916
0.0064321506
0.0059566411
0.0055419799
0.005114031
0.0045913234
0.0039901764
0.0033953684
0.0028496602
0.0023463115
0.0019892935
0.0016375174
0.0013715642
0.0011664312
0.00098249467
0.00075141738
0.00035362012
0.00011715272
0.0089084135
0.010088043
0.0111574
0.011534617
0.011034314
0.01005087
0.009031628
0.0084983486
0.0084235422
0.009574388
0.010258941
0.010870046
0.011070383
0.010835577
0.010165885
0.0091697547
0.0079681723
0.0066914784
0.0054533233
0.0043383743
0.0033978938
0.0026518468
0.0020955899
0.0017081135
0.0014599114
0.0013192341
0.0012565201
0.0012467202
0.0012700422
0.0013117449
0.0013614878
0.0014132518
0.0014663082
0.0015173569
0.0015662336
0.0016124012
0.0016564461
0.0016993524
0.0017412177
0.0087233248
0.007897259
0.0072580425
0.0067267635
0.0062546942
0.0057642342
0.0051765959
0.0045012806
0.0038284734
0.00319711
0.0026052775
0.0021921582
0.0017832136
0.0014614398
0.0012097339
0.00101718
0.00083693131
0.00061272866
0.00027461725
9.6351692e-05
0.0097730622
0.010909122
0.011833332
0.012007345
0.011379249
0.010422295
0.0096204622
0.0094633293
0.0098037966
0.01123853
0.011882175
0.012312882
0.012248365
0.011690319
0.010706932
0.0094327678
0.0080165361
0.0065938512
0.0052744431
0.0041308236
0.0031989565
0.0024837268
0.0019680214
0.0016219748
0.001410804
0.0013003756
0.0012606507
0.0012669222
0.0013003751
0.0013474496
0.0013999741
0.001455649
0.0015099173
0.0015618021
0.0016108173
0.001656781
0.0017005163
0.001743078
0.0017849761
0.0095650834
0.008760148
0.0081280386
0.0075668935
0.0070337727
0.0064525083
0.0057771095
0.0050249477
0.0042804815
0.0035753217
0.0028959638
0.0024177233
0.0019409257
0.0015664424
0.0012632514
0.0010333135
0.00085391972
0.00068374378
0.00048039267
0.00020413385
7.7317551e-05
0.010579036
0.011634314
0.012408234
0.012441088
0.011794053
0.010965273
0.01046327
0.010714523
0.011415121
0.012993313
0.013494117
0.013677915
0.013292119
0.012387985
0.01108228
0.0095446197
0.0079388606
0.0064010269
0.0050307571
0.0038846305
0.0029812254
0.0023101049
0.0018426544
0.0015417683
0.0013689185
0.0012885924
0.0012706415
0.0012911727
0.0013329475
0.0013849197
0.0014430468
0.0015005211
0.0015560808
0.0016082677
0.0016570879
0.0017025376
0.0017457144
0.0017877368
0.001829534
0.010347796
0.009594604
0.0090006325
0.0084469253
0.0078826104
0.0071987609
0.0064023171
0.0055550764
0.0047338701
0.0039644276
0.0032087721
0.0026705222
0.0021179974
0.0016815832
0.0013306197
0.0010544561
0.00084863804
0.00068696011
0.00053800209
0.00036048175
0.0001459009
6.0512045e-05
0.011291084
0.012259253
0.01292979
0.012916327
0.012337538
0.011717196
0.011564912
0.012205083
0.013161256
0.014752689
0.015031231
0.014922317
0.014166436
0.0129067
0.011282833
0.009504659
0.0077417669
0.0061234521
0.0047338742
0.0036103705
0.0027530376
0.0021368151
0.001723371
0.0014701277
0.0013359155
0.0012843508
0.0012859146
0.00131866
0.0013683142
0.0014282211
0.0014890096
0.0015484699
0.0016046509
0.0016567341
0.0017049891
0.0017496162
0.001791985
0.0018332844
0.0018748582
0.011036798
0.010366024
0.0098419282
0.0093236451
0.0087656295
0.0080038865
0.007070366
0.0061007131
0.0051825585
0.0043460069
0.0035228761
0.002941521
0.002317411
0.0018137051
0.0014070805
0.0010884323
0.00084535231
0.00066713451
0.00053219236
0.00040620946
0.00026044795
0.00010158674
4.5705078e-05
0.011903625
0.012821604
0.013475639
0.013491657
0.013042523
0.012687969
0.012888028
0.013861693
0.014952781
0.016443599
0.016456612
0.016005563
0.014849872
0.013227925
0.011304153
0.0093179774
0.0074360712
0.0057743672
0.0043966496
0.003318632
0.0025221283
0.0019692395
0.0016139481
0.0014094172
0.001312426
0.0012869513
0.0013057084
0.0013504344
0.001411122
0.0014749482
0.0015387111
0.0015993008
0.0016556124
0.0017071398
0.0017544552
0.0017979518
0.0018392664
0.0018796672
0.001920925
0.011628848
0.011041962
0.01061555
0.010167708
0.0096324697
0.008830396
0.007776501
0.0066739981
0.0056361958
0.0047131383
0.0038185311
0.0032079456
0.0025285901
0.0019645919
0.0014981254
0.0011310652
0.00085333944
0.00064684007
0.00050263199
0.00039631581
0.00029741864
0.00018607898
6.9614645e-05
3.2625197e-05
0.012451468
0.013392969
0.014107111
0.014192161
0.013926804
0.013846956
0.014382
0.01561045
0.016714138
0.018025254
0.0177407
0.016892292
0.015330247
0.013344064
0.011149135
0.0089951268
0.0070362939
0.0053689899
0.0040322971
0.003019512
0.0022957918
0.0018126466
0.0015177076
0.0013605004
0.0012976097
0.0012957991
0.0013318757
0.0013916979
0.001458071
0.0015262567
0.0015918918
0.0016530101
0.0017088966
0.0017594136
0.0018054119
0.0018474667
0.0018874864
0.0019268415
0.0019676962
0.012156508
0.011625238
0.011297156
0.010946724
0.010453559
0.0096226836
0.008484679
0.0072732813
0.0061057001
0.0050757489
0.0040917328
0.003452834
0.0027322119
0.0021240533
0.0016055291
0.0011866686
0.00086997377
0.00063645817
0.00047133314
0.00036428413
0.0002881604
0.00021663923
0.00013307079
4.7648894e-05
2.2708623e-05
0.012999013
0.014035075
0.014844804
0.015031566
0.014958653
0.015148232
0.015993458
0.017376458
0.018391701
0.019470432
0.018852313
0.017556702
0.01558951
0.013250845
0.010827086
0.0085510819
0.0065598617
0.0049234257
0.0036536973
0.0027227135
0.0020812298
0.001671623
0.0014358632
0.0013224023
0.0012912287
0.0013136754
0.0013700975
0.0014380631
0.0015106846
0.0015817984
0.0016485658
0.0017095205
0.0017644282
0.0018134728
0.0018577655
0.0018980717
0.0019365897
0.0019747508
0.0020151337
0.012680424
0.012144227
0.011888198
0.011636986
0.011199445
0.010358218
0.0091442137
0.0078545712
0.0065849129
0.0054441679
0.0043521214
0.0036698354
0.0029106475
0.0022736468
0.0017196104
0.0012566509
0.00089832138
0.00063555275
0.0004497071
0.00033080114
0.00025967729
0.00021047261
0.00015917416
9.5227791e-05
3.2704924e-05
1.5087517e-05
0.013609976
0.014776519
0.015695467
0.015980081
0.016081815
0.016550057
0.017660059
0.019103405
0.019953084
0.020769154
0.01975438
0.017977813
0.015605381
0.012955206
0.010351868
0.0080048202
0.0060258777
0.0044538285
0.0032735823
0.0024379341
0.0018846641
0.0015479157
0.0013673187
0.0012954634
0.0012973225
0.0013467607
0.0014147315
0.0014914896
0.0015684953
0.0016416119
0.0017086437
0.0017687531
0.0018221158
0.0018692109
0.0019114103
0.0019496982
0.0019865036
0.0020233338
0.0020631956
0.013264471
0.012653069
0.012413171
0.012241237
0.011856748
0.011015418
0.009742764
0.008381478
0.0070354503
0.0058106208
0.0046072447
0.0038680509
0.0030597321
0.0023983054
0.0018242119
0.0013324856
0.00093916793
0.00064690243
0.00043915377
0.00030650578
0.00022993288
0.00018823212
0.00015650489
0.00011811744
6.8553731e-05
2.2705952e-05
9.614637e-06
0.014317779
0.015622841
0.016633561
0.016978936
0.017262161
0.018023341
0.019323663
0.020752971
0.021384695
0.021915651
0.020393366
0.018141736
0.015378807
0.012469711
0.0097427942
0.0073782017
0.0054541364
0.0039765782
0.00290484
0.002173519
0.0017086023
0.0014403343
0.0013132754
0.0012852059
0.0013224311
0.0013880678
0.0014682317
0.0015513545
0.0016315698
0.0017055909
0.0017720417
0.0018306084
0.0018818426
0.0019265046
0.0019662709
0.002002263