/*--------------------------------*- C++ -*----------------------------------*\
| =========                 |                                                 |
| \\      /  F ield         | OpenFOAM: The Open Source CFD Toolbox           |
|  \\    /   O peration     | Version:  5.0                                   |
|   \\  /    A nd           | Web:      www.OpenFOAM.org                      |
|    \\/     M anipulation  |                                                 |
\*---------------------------------------------------------------------------*/
FoamFile
{
    version     2.0;
    format      ascii;
    class       volVectorField;
    location    "400";
    object      U;
}
// * * * * * * * * * * * * * * * * * * * * * * * * * * * * * * * * * * * * * //

dimensions      [0 1 -1 0 0 0 0];

internalField   nonuniform List<vector> 
9200
(
(1.0388275 0.00074019798 -1.4834146e-24)
(1.0390062 0.0023598112 7.3684949e-22)
(1.036599 0.0007424793 0)
(1.0392856 0.0037562963 -3.8885873e-22)
(1.0367543 0.0023856201 6.4115901e-22)
(1.0356158 0.00073449997 0)
(1.0396677 0.0051496018 -3.9120684e-23)
(1.0370202 0.0038009821 1.1512903e-23)
(1.0357601 0.002373817 0)
(1.0341632 0.00071025985 0)
(1.0401011 0.0064254345 7.9995714e-22)
(1.0373745 0.0052186341 5.8763024e-22)
(1.0360118 0.0037877802 3.6455107e-22)
(1.0342844 0.0023079774 2.2280597e-23)
(1.0330456 0.00067671059 2.1282688e-25)
(1.0405789 0.007618833 7.6625804e-22)
(1.0378066 0.0065297151 -3.2442678e-23)
(1.0363481 0.0052095792 1.2162238e-21)
(1.0345093 0.0036873134 4.9802001e-22)
(1.033151 0.002204157 1.5483272e-23)
(1.0319363 0.00063789395 -9.3840495e-22)
(1.0410719 0.0086912224 7.760508e-22)
(1.0383247 0.0077744991 8.7602395e-22)
(1.0367599 0.00654373 -7.3573852e-22)
(1.0347973 0.0050763144 -5.337143e-23)
(1.0333563 0.0035219112 4.5297953e-22)
(1.032026 0.0020762666 4.5908316e-22)
(1.0309628 0.00060323197 8.1201272e-23)
(1.041588 0.0096080255 3.5707808e-22)
(1.0389392 0.0089316746 7.1275927e-22)
(1.0372612 0.0078419696 8.7510564e-22)
(1.0351397 0.0063962736 4.4788767e-23)
(1.0336106 0.0048428934 -1.1661648e-21)
(1.0322128 0.0033148471 -5.1761991e-22)
(1.0310454 0.001952728 -5.2883638e-22)
(1.0300657 0.00057684622 8.7070297e-22)
(1.0421241 0.010315671 -1.0111275e-21)
(1.0396928 0.0099690157 7.8437073e-22)
(1.0378613 0.0091095311 3.3425669e-23)
(1.0355359 0.0077046392 4.2468725e-22)
(1.0339001 0.0060977982 1.095152e-22)
(1.032437 0.0045423528 -1.7427345e-21)
(1.0312245 0.0031143733 1.4931537e-22)
(1.0301471 0.0018492662 -8.9747153e-22)
(1.0292424 0.00055857002 -1.8452053e-21)
(1.0426365 0.010774917 7.3144327e-22)
(1.0406394 0.01088669 -3.7856898e-22)
(1.0385822 0.010353035 -4.020756e-23)
(1.0359749 0.009031637 -1.5475687e-22)
(1.03421 0.0073345896 -1.7860542e-22)
(1.0326821 0.0056968262 1.9139076e-22)
(1.0314412 0.0042488324 6.111688e-22)
(1.0303237 0.0029483675 1.0186193e-21)
(1.0293276 0.0017735343 5.7778244e-22)
(1.0284733 0.00054444368 1.4928291e-22)
(1.0431687 0.010991398 -3.5653635e-22)
(1.0419581 0.011605895 9.582205e-23)
(1.039481 0.01162767 6.2292325e-22)
(1.0364567 0.010424719 -7.1372966e-22)
(1.0344919 0.0085853249 5.440526e-22)
(1.0329177 0.0068029064 -1.6100336e-21)
(1.0316814 0.0053029186 6.3826868e-23)
(1.0305438 0.0040077152 1.5340946e-21)
(1.0295031 0.0028313993 -7.6155362e-22)
(1.028563 0.0017210228 1.676254e-21)
(1.0277503 0.00053097581 -2.4928028e-22)
(1.0440841 0.010545281 1.2393646e-22)
(1.0434279 0.012097069 -3.0658513e-22)
(1.0404432 0.013036803 -7.2730004e-22)
(1.036981 0.011992048 0)
(1.0347107 0.0099001179 3.1059838e-23)
(1.033081 0.0078809802 -2.8173708e-22)
(1.0319172 0.0062771564 -3.1670078e-22)
(1.0307974 0.0049864364 -7.6103642e-22)
(1.0297302 0.0038455023 -2.1351889e-22)
(1.0287337 0.002756192 -9.6457577e-22)
(1.0278408 0.0016811033 -6.5242047e-22)
(1.0270689 0.00051691877 1.5115889e-22)
(1.0450129 0.0095493079 6.3105396e-23)
(1.0453714 0.012731112 -1.4059927e-22)
(1.0414627 0.014655511 0)
(1.0374271 0.013814991 0)
(1.03473 0.011344247 -1.9977805e-22)
(1.0331268 0.0089418145 -1.7250068e-22)
(1.0320914 0.0071717432 -4.2024031e-22)
(1.0310704 0.0058705239 9.0572079e-22)
(1.0299994 0.0047897671 9.4295336e-23)
(1.0289604 0.0037509212 2.5952045e-24)
(1.0280016 0.0027034913 1.06989e-21)
(1.0271547 0.0016417264 -1.1389211e-21)
(1.0264289 0.00050179678 2.3700064e-21)
(1.0460589 0.007842758 -9.4164258e-22)
(1.0481798 0.013303748 5.2500259e-23)
(1.0428319 0.01651854 -4.0020476e-22)
(1.0377735 0.015942433 1.9045193e-22)
(1.0345014 0.012971826 -1.0593153e-22)
(1.0329622 0.010003083 -1.3537436e-22)
(1.0321654 0.0079547552 2.5643176e-22)
(1.0313206 0.0066484572 1.5482253e-23)
(1.0303145 0.0056466475 1.0234458e-21)
(1.0292316 0.0046928639 9.5337377e-22)
(1.0282182 0.003690799 2.9828903e-22)
(1.0273018 0.0026510055 8.6235063e-22)
(1.0265062 0.0015924044 5.8353235e-22)
(1.0258331 0.00048393669 -6.4645906e-22)
(1.0474683 0.0055143581 7.4836774e-22)
(1.0518358 0.01373988 2.0022313e-21)
(1.0446827 0.018767455 -3.0167878e-22)
(1.0380687 0.018498321 4.5397423e-23)
(1.0339859 0.014851438 -5.7609235e-23)
(1.032494 0.011040613 2.5953951e-22)
(1.0320558 0.0086111212 2.4935488e-22)
(1.0315298 0.0072683869 -3.2574408e-22)
(1.0306514 0.0064045096 -9.9019574e-23)
(1.0295703 0.0055673425 -1.149973e-22)
(1.0284772 0.004643485 -1.7827748e-23)
(1.0274986 0.0036283181 -1.476625e-22)
(1.0266377 0.0025796025 -1.0889257e-21)
(1.0259011 0.0015255873 5.4464473e-22)
(1.0252859 0.00046114223 -4.8890223e-22)
(1.049064 0.0020416749 2.6059501e-21)
(1.0563572 0.013884786 -2.1714058e-21)
(1.0470785 0.021619455 3.7042062e-22)
(1.0382743 0.021719207 -2.3399347e-22)
(1.0329951 0.017093794 4.1231755e-25)
(1.0315698 0.012079804 -5.7165816e-22)
(1.0317049 0.0090530837 -4.1106625e-23)
(1.0316638 0.007681283 3.562002e-23)
(1.031016 0.0070055253 -1.9812402e-22)
(1.0299707 0.0063705973 -2.7703549e-22)
(1.0288123 0.0055520451 -1.9329432e-21)
(1.027729 0.0045887515 3.7891315e-22)
(1.0268082 0.0035341664 3.3927807e-22)
(1.0260173 0.0024762173 1.7778118e-22)
(1.0253467 0.0014380067 4.5411053e-23)
(1.0247919 0.00043299848 5.4062568e-22)
(1.0510742 -0.0018921086 0)
(1.0616367 0.013925452 -3.1687407e-21)
(1.0500222 0.025250648 7.8183883e-22)
(1.0383333 0.025823284 0)
(1.0313739 0.019835074 0)
(1.0300128 0.013146425 0)
(1.0309604 0.0092056662 1.2036543e-22)
(1.0317826 0.0077851507 4.6240277e-22)
(1.0314484 0.0073840773 3.801079e-22)
(1.0304744 0.0070547436 5.8163745e-22)
(1.0292314 0.0064301079 9.9298019e-23)
(1.0280251 0.0055295082 4.2320228e-22)
(1.026996 0.0044859709 8.7234433e-24)
(1.0261605 0.003389229 -3.8978303e-22)
(1.0254502 0.0023360956 -1.2265216e-22)
(1.0248485 0.0013316206 -2.6358897e-22)
(1.0243535 0.00040152148 0)
(1.0530768 -0.0066639528 3.9934148e-21)
(1.0673713 0.013557014 7.083525e-21)
(1.0533161 0.029808484 -3.2065424e-21)
(1.0380947 0.031048622 6.101705e-22)
(1.028971 0.023233866 8.7584167e-22)
(1.0276261 0.01423773 0)
(1.0297115 0.0089977211 8.1331335e-22)
(1.0317097 0.0073871493 -2.6819956e-22)
(1.03212 0.0074665816 3.5671651e-22)
(1.0311985 0.0075534175 4.4625479e-22)
(1.0298094 0.0072546155 -3.4649702e-22)
(1.0283967 0.0064869884 1.3038333e-22)
(1.0272242 0.0054381431 6.8045795e-22)
(1.0262977 0.0043052427 -1.2968989e-21)
(1.0255699 0.003186408 -3.8097535e-22)
(1.0249445 0.0021633464 -1.7722987e-21)
(1.0244095 0.0012130704 -7.0772505e-22)
(1.0239698 0.00036955677 -6.6990568e-22)
(1.0557038 -0.012475657 -3.2060881e-22)
(1.0743281 0.013110546 4.8984665e-21)
(1.0566502 0.035573745 1.1715359e-21)
(1.0371846 0.037624114 -3.394273e-22)
(1.0255477 0.027455501 -1.8557165e-22)
(1.0241791 0.015377494 -6.8743666e-22)
(1.0277817 0.0083158723 -2.1725303e-21)
(1.0314164 0.0063962848 -1.2041083e-21)
(1.0329186 0.0070627552 -1.8132228e-22)
(1.0321547 0.0078233038 -6.2021442e-22)
(1.0306351 0.008009658 -1.0256851e-22)
(1.0289181 0.0074832474 -7.6841021e-22)
(1.0274839 0.0064445799 9.7376371e-23)
(1.0264446 0.0052293074 1.1950078e-22)
(1.0256631 0.0040377056 1.8050505e-22)
(1.0250491 0.0029326528 2.6833099e-22)
(1.0245044 0.0019693415 -5.8008433e-22)
(1.0240292 0.0010915233 2.0512244e-23)
(1.0236369 0.00033943926 -6.2767342e-22)
(1.0584342 -0.020870856 -3.9834451e-21)
(1.0847172 0.011906305 -9.1244912e-21)
(1.0611826 0.042474162 1.3502408e-20)
(1.0354435 0.045693652 -3.3611413e-22)
(1.0207816 0.032625802 -2.4658479e-22)
(1.0193975 0.016579115 -3.3475573e-22)
(1.0249738 0.0070289987 2.9142407e-22)
(1.0308526 0.0046146758 -2.5315799e-24)
(1.033843 0.0060342042 -8.5272713e-23)
(1.0335414 0.0079359514 2.2039105e-22)
(1.0316754 0.0087512739 -9.779108e-22)
(1.0295968 0.008583352 2.7257015e-22)
(1.0278141 0.0075706706 4.2644517e-22)
(1.0265603 0.0062225756 -3.8877927e-23)
(1.0257324 0.0048849564 1.3034405e-22)
(1.0251133 0.0036941121 8.4877716e-22)
(1.0246055 0.0026464869 -1.4990715e-22)
(1.0241295 0.0017693856 9.557672e-22)
(1.0237036 0.00097597403 2.5234224e-22)
(1.0233485 0.00031322292 6.5278105e-22)
(1.0631474 -0.028594847 -3.4110603e-22)
(1.0991181 0.0099975971 -1.8056831e-20)
(1.0701932 0.050449066 8.7749063e-22)
(1.0343759 0.055310763 -1.3154192e-21)
(1.0144524 0.038744609 -1.5119798e-21)
(1.0130287 0.017871384 -1.2205331e-21)
(1.0210546 0.004993428 2.6646157e-21)
(1.0299321 0.0018096554 2.5391903e-21)
(1.0349959 0.0041764191 3.4113733e-22)
(1.0354655 0.0076119414 0)
(1.0331995 0.0095190252 6.5785497e-22)
(1.030452 0.0098665237 3.0721326e-22)
(1.028172 0.0089101483 -5.6913822e-22)
(1.0266451 0.0073566615 3.7677611e-23)
(1.0257196 0.0057921809 -4.0676253e-22)
(1.0251295 0.0044248518 6.7732998e-22)
(1.0246609 0.0033010612 1.6802155e-22)
(1.0242398 0.0023517031 -2.7438287e-22)
(1.0238152 0.0015789237 5.5517538e-22)
(1.0234257 0.00087343498 4.5740996e-23)
(1.0230973 0.00029311141 6.2075265e-22)
(1.059297 -0.038445712 2.1758359e-21)
(1.1064313 0.004018749 -1.7027168e-20)
(1.0855813 0.059083709 -1.1480172e-20)
(1.037344 0.066686185 5.9525742e-21)
(1.0072747 0.046051887 -2.6928443e-21)
(1.0047765 0.019220626 -1.8615216e-22)
(1.015819 0.0020482377 0)
(1.0285608 -0.0022366438 1.3067298e-22)
(1.0364479 0.00124217 -1.3845259e-22)
(1.0380648 0.0067178833 6.7202243e-22)
(1.0354321 0.010276215 3.6232253e-22)
(1.03172 0.011367713 6.1595019e-23)
(1.0286135 0.010537916 -7.3105416e-23)
(1.026646 0.0087160067 3.4224763e-22)
(1.0255901 0.0068048223 -1.9371278e-22)
(1.025027 0.0051826409 2.0423346e-22)
(1.0246579 0.0038930678 -8.5559953e-23)
(1.0243074 0.0028930965 5.1053671e-22)
(1.0239468 0.0020712868 1.3185094e-22)
(1.0235538 0.0014105907 1.9254502e-23)
(1.0231872 0.00078866754 3.2788361e-22)
(1.0228754 0.00028104907 0)
(1.0506441 -0.048128234 3.5289982e-22)
(1.1072144 -0.0013549419 1.0965206e-20)
(1.1022038 0.068199007 -4.2178414e-22)
(1.0454345 0.08003526 8.158028e-21)
(1.0011167 0.055193568 -3.5248038e-21)
(0.99439754 0.020677006 1.804218e-21)
(1.0090492 -0.0019530341 -5.893084e-23)
(1.0266217 -0.0077839099 1.7466005e-21)
(1.0382643 -0.0030287116 1.2680568e-22)
(1.0415431 0.0050632046 -5.7493774e-23)
(1.0385851 0.010989111 -1.9180683e-24)
(1.0335652 0.013240401 -1.7802941e-22)
(1.0292298 0.01258643 -9.6110231e-23)
(1.0265612 0.010398218 1.2124324e-21)
(1.0252733 0.0079971094 8.3847656e-22)
(1.0247534 0.0059876423 5.7152056e-22)
(1.0245168 0.0044649858 -1.4144938e-22)
(1.0243199 0.0033418334 -7.9703242e-22)
(1.0240453 0.0025042366 -1.9524852e-23)
(1.0237165 0.001823291 2.9565968e-22)
(1.0233356 0.0012726193 0)
(1.0229798 0.0007245884 -7.3259048e-22)
(1.0226747 0.00027774895 -3.2118143e-24)
(1.0366446 -0.057703954 -6.2282933e-21)
(1.1039118 -0.0084181603 3.929731e-20)
(1.1061105 0.076880094 -2.8688417e-20)
(1.0542373 0.097522869 -7.9068803e-21)
(0.99589369 0.067297971 -3.1149162e-21)
(0.98176356 0.022515277 0)
(1.000424 -0.0071538889 -6.2099623e-23)
(1.0239913 -0.015104842 1.1201038e-21)
(1.0404557 -0.0089469644 -3.2056957e-22)
(1.0461294 0.0024498043 -1.2121826e-21)
(1.0429363 0.011604838 6.9688569e-22)
(1.0361972 0.015614316 3.0864071e-22)
(1.030096 0.015268031 -2.4132353e-22)
(1.026352 0.012563067 6.1353791e-22)
(1.0246989 0.0094605325 -6.7494904e-22)
(1.0242143 0.0068862406 -1.3465347e-21)
(1.0241835 0.005015048 -2.9903997e-22)
(1.0241951 0.0037218902 -2.7914609e-22)
(1.0241025 0.0028209373 7.3923013e-22)
(1.0238599 0.0021628004 -1.8120932e-22)
(1.023536 0.0016192948 -6.1225842e-22)
(1.0231511 0.0011686979 6.5976067e-22)
(1.022796 0.00068210542 -5.0467698e-22)
(1.0224877 0.00028146126 -1.8418719e-24)
(1.0170935 -0.066365555 2.4953365e-21)
(1.0952523 -0.012249117 3.8819504e-20)
(1.0954407 0.085036298 1.9824248e-21)
(1.0525336 0.11736244 3.8999805e-20)
(0.98813119 0.083626127 9.5001649e-22)
(0.96670609 0.025758809 -9.2268319e-21)
(0.98941349 -0.013740014 -1.1495966e-22)
(1.0205289 -0.024421671 -2.7093315e-21)
(1.0430115 -0.016815213 6.4802383e-22)
(1.0520367 -0.0014144248 -7.3330026e-22)
(1.0488135 0.012082958 5.8507632e-22)
(1.039864 0.018659598 -4.7091584e-22)
(1.0313106 0.0188294 5.4472305e-22)
(1.0259909 0.01541905 -6.4857463e-23)
(1.0237589 0.011313411 -1.0394917e-21)
(1.0233085 0.0079326301 -1.6810947e-23)
(1.0235555 0.0055524855 -6.1409977e-23)
(1.0238883 0.0040087795 -4.0239296e-22)
(1.0240419 0.0030273481 0)
(1.0239826 0.0023703864 -9.2086337e-23)
(1.0237321 0.0018883995 -2.5909839e-23)
(1.0233916 0.0014651911 5.1767041e-23)
(1.0229917 0.0010989919 -2.6489032e-23)
(1.0226293 0.00065957845 7.2170616e-22)
(1.0223091 0.00028766319 4.1001067e-22)
(0.99553918 -0.074007344 7.8331725e-21)
(1.0803698 -0.016061049 -2.4194893e-20)
(1.0752846 0.095152837 -1.0434546e-20)
(1.0358841 0.1362913 -4.5013107e-21)
(0.97696068 0.1021497 6.9627761e-21)
(0.94942225 0.030562012 2.1823207e-21)
(0.97573987 -0.021707771 -1.969078e-22)
(1.0160313 -0.035991653 2.2856639e-22)
(1.0459241 -0.026933367 -1.0796422e-21)
(1.0594515 -0.0068025169 -6.9875659e-22)
(1.0565788 0.01233687 -1.262809e-21)
(1.044847 0.022570987 6.8154037e-23)
(1.0329519 0.023582984 -7.2599327e-23)
(1.0254179 0.019228684 -3.2608771e-22)
(1.0223288 0.013713599 -3.4064864e-22)
(1.0218922 0.0091852507 1.4136535e-21)
(1.0225247 0.006084062 2.1759241e-21)
(1.023305 0.004179235 5.2600004e-22)
(1.0238346 0.0030802762 7.052096e-22)
(1.0240197 0.0024383963 2.2867871e-23)
(1.0239321 0.0020156517 -7.9069653e-22)
(1.0236429 0.0016892906 -1.6338591e-22)
(1.0232714 0.0013626794 5.1812103e-22)
(1.0228485 0.0010611498 -6.1981076e-22)
(1.022473 0.00065331134 5.418391e-22)
(1.0221365 0.0002916374 -2.9795643e-23)
(0.97282939 -0.080888542 -2.6097688e-22)
(1.0603338 -0.019543493 -2.6965512e-20)
(1.0555219 0.10527844 3.8269567e-20)
(1.0162241 0.15273089 -2.9151886e-20)
(0.96488604 0.12081255 5.9423666e-21)
(0.93194294 0.035775076 1.2543362e-20)
(0.95994403 -0.031221767 3.1749425e-21)
(1.0102557 -0.050117295 3.5224772e-21)
(1.0491537 -0.039564283 3.277662e-21)
(1.0684894 -0.014033198 2.609252e-21)
(1.0666013 0.012299049 5.0983538e-23)
(1.0514568 0.027588749 2.7192218e-21)
(1.0350845 0.029891392 -1.3398833e-21)
(1.0245328 0.024296067 -4.2697059e-22)
(1.0202362 0.016844088 -2.9638512e-22)
(1.0197878 0.010719006 2.9576698e-22)
(1.0209406 0.0066071646 -6.1858935e-23)
(1.0223488 0.0041960081 7.4681129e-23)
(1.0234051 0.0029320724 1.3618447e-22)
(1.0239617 0.0023137973 8.2855023e-23)
(1.0240841 0.0019886726 0)
(1.0239237 0.0017665581 -2.7260067e-22)
(1.0235756 0.00156143 -4.8186079e-23)
(1.0231648 0.0013094375 0)
(1.0227133 0.0010506309 7.6075864e-22)
(1.0223226 0.00065934551 5.0402412e-24)
(1.0219678 0.00029262223 -3.9732078e-22)
(0.94898658 -0.08703041 -2.6780152e-21)
(1.0373611 -0.022318263 -2.3283013e-21)
(1.0316241 0.1155252 2.9612892e-20)
(0.99557964 0.16808986 -4.3449233e-21)
(0.95059984 0.13707247 -8.9108561e-22)
(0.91530792 0.043107693 -1.3166381e-20)
(0.94244234 -0.042000137 -2.5649451e-22)
(1.0030558 -0.066929262 -1.9112899e-21)
(1.0523437 -0.054786413 -1.8795734e-21)
(1.0788998 -0.023290207 -5.3528031e-21)
(1.079007 0.01184113 5.7975752e-21)
(1.0599737 0.034011808 5.0784128e-22)
(1.037762 0.03818621 3.1198048e-22)
(1.0232188 0.030967031 -4.7270487e-22)
(1.0172842 0.020914665 -8.0829972e-22)
(1.0167769 0.012609664 -2.931398e-22)
(1.0186217 0.0071151172 -1.5144015e-21)
(1.0208876 0.0040021669 -1.0056292e-21)
(1.0226833 0.0025129402 -4.0082208e-22)
(1.023758 0.0019333844 -7.7627781e-22)
(1.0241985 0.0017537422 -2.651836e-22)
(1.0241926 0.0016876924 1.133312e-22)
(1.0239344 0.001618934 2.6148372e-23)
(1.0235153 0.0014937691 0)
(1.0230635 0.0012981881 0)
(1.0225824 0.001061838 -5.5656431e-23)
(1.0221741 0.00067518543 6.8919848e-22)
(1.0218016 0.00029422006 7.6019919e-22)
(0.92460067 -0.092472009 0)
(1.0128883 -0.024386472 -1.4691086e-20)
(1.0058834 0.12556122 -2.6799192e-20)
(0.9707454 0.18274153 -1.066007e-20)
(0.92943149 0.15237644 -8.2621128e-21)
(0.89784254 0.05065566 9.0159479e-22)
(0.92339865 -0.052916532 -1.8160903e-21)
(0.99381028 -0.08584826 -1.4673809e-21)
(1.0545735 -0.072361559 -4.0996786e-21)
(1.0898158 -0.034353601 6.8753491e-22)
(1.0930736 0.01109287 -6.597314e-22)
(1.0701855 0.042200167 -1.3047696e-21)
(1.0409654 0.04894376 2.3049731e-21)
(1.0212858 0.039618954 -1.0885819e-21)
(1.0132147 0.02614159 -3.4422429e-22)
(1.0126098 0.014941259 -9.9310212e-22)
(1.015349 0.0075833271 -1.6336479e-22)
(1.0187676 0.0035242118 -3.5601926e-22)
(1.0215732 0.0017252985 1.9218113e-23)
(1.0233733 0.001209413 -4.4732455e-22)
(1.0242514 0.0012427569 -1.7075702e-22)
(1.0244784 0.001407142 -1.3247436e-22)
(1.0243104 0.0015261864 2.9321795e-23)
(1.023946 0.0015575303 5.6559576e-22)
(1.0234536 0.0014767601 1.9602849e-22)
(1.022967 0.0013187442 -1.4916569e-23)
(1.0224529 0.0010906569 -7.1242266e-22)
(1.0220235 0.00069972219 4.5158346e-22)
(1.0216364 0.00030012075 -1.1356175e-21)
(0.90031501 -0.097297351 3.909983e-21)
(0.98754425 -0.026736779 0)
(0.97927332 0.13528067 0)
(0.94466829 0.19633471 0)
(0.90575302 0.16627836 3.9304691e-21)
(0.87846118 0.059390208 0)
(0.90401609 -0.064288107 -7.9379583e-22)
(0.98218033 -0.10654761 -2.5765452e-21)
(1.0551811 -0.092090973 -1.2354445e-20)
(1.1003369 -0.047114106 2.583289e-20)
(1.107622 0.010415266 -7.5770462e-21)
(1.0806671 0.052799864 2.0052054e-21)
(1.0439719 0.062740641 -7.1004968e-22)
(1.0184238 0.050668838 1.9304208e-21)
(1.0076884 0.032751074 1.7954514e-21)
(1.0069896 0.017782863 -2.6007703e-22)
(1.010877 0.0079801374 -1.1862975e-21)
(1.0158052 0.0026600929 2.6500575e-22)
(1.0199681 0.00044775949 7.9241134e-22)
(1.0227592 2.1529685e-05 4.8788902e-22)
(1.0242456 0.00036573905 1.5007789e-22)
(1.024782 0.00086232461 -1.6985635e-22)
(1.0247484 0.0012545755 -2.0640756e-22)
(1.0244145 0.001481348 1.343969e-22)
(1.023943 0.0015541603 2.204053e-23)
(1.0233973 0.0015013885 1.2910532e-22)
(1.0228719 0.0013638691 -5.209294e-22)
(1.0223208 0.0011340939 -3.5750343e-24)
(1.0218696 0.00073119993 -1.7441819e-21)
(1.0214705 0.00031060902 -6.8267406e-22)
(0.87423383 -0.10222668 -4.2509423e-21)
(0.96192212 -0.028788718 -5.2625138e-21)
(0.95246336 0.1444238 0)
(0.91826481 0.20897429 0)
(0.88122898 0.17862751 0)
(0.85895903 0.067529917 0)
(0.88543501 -0.075213153 0)
(0.96877521 -0.1287674 6.8629835e-22)
(1.0541468 -0.11431891 3.0160637e-21)
(1.1106972 -0.062334117 -3.843645e-20)
(1.1234985 0.0094845512 1.3647051e-22)
(1.090845 0.066340924 -8.3853306e-21)
(1.0449807 0.080089931 7.7220056e-21)
(1.0137933 0.064552224 1.351239e-21)
(1.0002777 0.040961844 -2.4700035e-22)
(0.9995622 0.021185546 4.3616517e-22)
(1.0049347 0.0082514031 -1.7063742e-22)
(1.0117968 0.0012910552 5.8743176e-22)
(1.0177416 -0.001474665 -5.9939166e-22)
(1.0218657 -0.0017775623 -1.9704164e-22)
(1.0241843 -0.0010023397 -1.3845172e-23)
(1.0251427 -2.4042615e-05 -3.6023734e-22)
(1.0252691 0.00075558745 -2.4461165e-23)
(1.0249735 0.0012596628 6.7170017e-23)
(1.0244869 0.0015205804 -1.1504103e-22)
(1.023923 0.0015916409 -3.7961079e-22)
(1.0233363 0.0015664597 -1.4066813e-22)
(1.0227657 0.0014311176 2.267958e-22)
(1.0221837 0.0011869089 5.625599e-25)
(1.021713 0.0007667609 1.2564584e-21)
(1.0213032 0.00032347162 4.4315244e-22)
(0.84640716 -0.10711405 5.5336597e-21)
(0.93424729 -0.032403112 -6.6074901e-22)
(0.92627969 0.15252356 -1.9346742e-20)
(0.89236431 0.22054582 -2.3547582e-20)
(0.8569385 0.18969062 0)
(0.83912475 0.073244094 0)
(0.8675659 -0.085514622 -7.3837624e-22)
(0.95385436 -0.15146871 -3.8353555e-21)
(1.0504124 -0.13851052 1.8622261e-20)
(1.1216118 -0.080679863 -4.5129654e-20)
(1.1434439 0.0065751767 -3.2444008e-22)
(1.1057808 0.082173366 1.5846392e-20)
(1.0455477 0.10129354 -4.3628125e-22)
(1.0059728 0.081307633 -2.0739989e-23)
(0.9903534 0.050953104 -1.4132701e-21)
(0.98992746 0.025154405 -1.1454553e-22)
(0.997228 0.008317391 2.8354851e-21)
(1.0065247 -0.0007261465 -8.2299514e-23)
(1.0147532 -0.0042192005 -1.5944879e-21)
(1.0206349 -0.0043751706 -8.1449694e-23)
(1.0240754 -0.003013661 -8.2256319e-22)
(1.0256081 -0.0013653637 9.9921692e-23)
(1.0259399 -2.3900343e-05 4.8695352e-23)
(1.0256589 0.00086286451 -2.5324764e-22)
(1.0251333 0.0013752254 -1.2377791e-22)
(1.0245152 0.0016090174 -1.0804696e-22)
(1.0238901 0.0016836686 -9.7573267e-23)
(1.0232569 0.0016685386 -1.0884733e-22)
(1.0226493 0.0015088173 3.080233e-22)
(1.0220445 0.0012426769 -2.4290085e-23)
(1.0215546 0.00080364844 6.0859334e-22)
(1.0211343 0.000336527 4.6932259e-23)
(0.81843209 -0.11165977 -3.7799702e-21)
(0.90412115 -0.036848629 7.9500254e-23)
(0.89938448 0.1596338 2.0863494e-20)
(0.86758772 0.23115715 3.7274959e-20)
(0.83389223 0.19936196 0)
(0.81909756 0.077287947 0)
(0.84969193 -0.095946763 0)
(0.937799 -0.17399422 -2.8826139e-22)
(1.0426809 -0.16331588 -4.1457495e-20)
(1.1260577 -0.10079172 -5.2750052e-20)
(1.1644129 0.00023979325 -2.7400468e-22)
(1.1307442 0.09739976 4.2136222e-21)
(1.0541891 0.12540975 -2.4034136e-20)
(0.99690972 0.10099443 6.6972374e-21)
(0.97698748 0.062530394 -1.2686115e-21)
(0.97766707 0.029634484 0)
(0.98745543 0.0080559424 8.0016651e-22)
(0.99976917 -0.0035511495 -7.6504687e-22)
(1.0108523 -0.0079891419 -5.5118877e-22)
(1.0190019 -0.0079819097 2.2054385e-22)
(1.0239356 -0.0058634698 1.3678161e-22)
(1.0262449 -0.0032968019 3.6391672e-22)
(1.0268429 -0.0011693238 1.6103242e-22)
(1.0265546 0.00027142913 7.8926788e-23)
(1.0259236 0.0011139621 9.3419439e-23)
(1.0252168 0.0015522819 -5.8077805e-23)
(1.02451 0.0017384243 2.167936e-23)
(1.0238439 0.001811506 -4.3518915e-24)
(1.0231716 0.001762331 2.8373057e-22)
(1.0225369 0.0015833718 2.2978861e-22)
(1.0219043 0.0012990181 1.3068385e-23)
(1.0213951 0.00083999583 -1.7124638e-21)
(1.0209648 0.00034861782 6.6449134e-22)
(0.79067053 -0.11574469 -6.7811012e-21)
(0.87228722 -0.042034213 0)
(0.87101756 0.16524149 1.9488471e-20)
(0.84295782 0.24132178 5.9701957e-20)
(0.81256521 0.20784182 -1.7805513e-20)
(0.79989678 0.080085568 -3.5474873e-22)
(0.83155988 -0.10612857 -2.6083348e-20)
(0.92099776 -0.19587261 1.4016034e-20)
(1.0311811 -0.1878241 1.1508401e-20)
(1.1236505 -0.12098472 1.232515e-19)
(1.1718558 -0.0090412613 -5.4630024e-20)
(1.1603139 0.11168075 -4.7604612e-20)
(1.0746937 0.15078716 1.5885651e-21)
(0.99492251 0.12393476 2.2083892e-21)
(0.96060424 0.075396336 -1.1415627e-21)
(0.96229019 0.034406711 5.2121684e-22)
(0.97534182 0.0072905849 3.7724686e-22)
(0.99132209 -0.0073593032 3.8020538e-23)
(1.0058892 -0.012995147 -1.8923711e-22)
(1.0168947 -0.012837267 3.7467288e-23)
(1.0237826 -0.0097717771 4.9984018e-22)
(1.0271407 -0.0059949055 -5.7343673e-25)
(1.0280956 -0.0027794505 -1.874536e-22)
(1.0277654 -0.00056131471 4.0637279e-22)
(1.0269473 0.00075358323 4.1817801e-23)
(1.0260557 0.0014392185 -1.1371588e-23)
(1.025231 0.0017611125 -9.7366119e-24)
(1.0244788 0.0019005511 3.5579002e-23)
(1.0237817 0.0019406743 7.8561025e-23)
(1.0230821 0.0018543564 -3.0924561e-23)
(1.0224183 0.00166314 1.5521161e-22)
(1.021761 0.0013554428 1.4265131e-23)
(1.0212343 0.00087483493 6.9609237e-22)
(1.0207953 0.0003594445 -1.2462185e-21)
(0.7639068 -0.11926683 6.2046202e-21)
(0.83901926 -0.046782704 -3.8449268e-22)
(0.84136992 0.16835821 -1.3107526e-21)
(0.81860899 0.25097837 -3.0593638e-20)
(0.79190375 0.21668043 7.1785844e-20)
(0.7816096 0.081677813 8.7207597e-20)
(0.81330221 -0.11512766 4.8472515e-21)
(0.90364467 -0.21671723 0)
(1.0166369 -0.21145859 3.3940874e-20)
(1.1160421 -0.14062662 1.6932427e-19)
(1.1710927 -0.019201596 8.8885439e-21)
(1.1771756 0.12387854 2.4124852e-20)
(1.0997644 0.17930224 0)
(1.003788 0.15115859 3.2204732e-21)
(0.9456888 0.090985731 1.3153308e-21)
(0.94336024 0.038943954 -8.2055122e-22)
(0.96067553 0.0058231846 -2.8908148e-21)
(0.98100342 -0.012344901 0)
(0.99972261 -0.019447426 7.3793237e-22)
(1.0142358 -0.019188144 8.9092533e-22)
(1.0236321 -0.014992972 -2.1709871e-22)
(1.0283973 -0.0096639281 4.7302478e-22)
(1.0298453 -0.0049891012 0)
(1.0294422 -0.0016836055 -1.0513197e-23)
(1.0283183 0.00029143401 2.4723492e-22)
(1.0271155 0.0013171785 -2.072832e-23)
(1.0260681 0.0017849198 1.059537e-23)
(1.0251937 0.00198603 4.021445e-23)
(1.0244256 0.0020643194 -2.5616933e-24)
(1.0237089 0.0020571655 2.2800095e-22)
(1.0229863 0.001953987 -5.9976888e-22)
(1.0222945 0.0017420501 -3.9908435e-22)
(1.021616 0.0014092305 0)
(1.0210736 0.00090741818 -2.7247411e-23)
(1.020626 0.00036909701 -3.7246792e-22)
(0.73882239 -0.1223706 9.1218061e-21)
(0.80615272 -0.049916827 -7.8456993e-21)
(0.81191589 0.17071765 1.2359528e-20)
(0.79426167 0.25984932 -6.6097421e-21)
(0.77206749 0.22759687 2.5324245e-20)
(0.76370374 0.085126434 1.0153433e-20)
(0.79669486 -0.1261991 4.9815114e-20)
(0.88564741 -0.23610665 3.3537244e-21)
(0.99976398 -0.23353462 0)
(1.1024068 -0.15978579 -6.0605436e-20)
(1.1652967 -0.028091154 6.8698708e-20)
(1.1755237 0.13465727 -6.6218173e-21)
(1.1144586 0.20983707 2.308442e-20)
(1.0138642 0.18436444 -1.0826001e-20)
(0.93713348 0.11154363 3.5946699e-21)
(0.92115919 0.044034697 1.4173468e-21)
(0.94319722 0.0032375849 -4.4856285e-21)
(0.96870719 -0.018683858 -2.1682619e-21)
(0.99223007 -0.027534626 1.3127049e-21)
(1.0109427 -0.027276084 -1.6760326e-21)
(1.0234892 -0.021795262 7.0787939e-22)
(1.0301227 -0.014546956 -7.0721647e-22)
(1.0322691 -0.0079571857 0)
(1.0317731 -0.0031687352 5.9033119e-25)
(1.0301991 -0.00026284203 6.126182e-23)
(1.028505 0.0012259397 8.9768138e-23)
(1.0270879 0.0018731408 -1.2238538e-22)
(1.025991 0.0021097206 -4.6645444e-23)
(1.0251227 0.0021940408 6.1327155e-23)
(1.0243588 0.0022050975 0)
(1.0236327 0.0021682183 -1.669362e-22)
(1.022888 0.0020473363 -6.487612e-22)
(1.022172 0.0018135518 1.1304675e-21)
(1.021472 0.0014588747 -3.9714137e-22)
(1.0209132 0.00093779076 5.2106335e-23)
(1.0204584 0.00037770845 1.3322221e-21)
(0.71607862 -0.12504251 -9.1316014e-21)
(0.77537702 -0.052616769 -3.5825199e-22)
(0.78433464 0.17455387 -6.0056291e-21)
(0.77136921 0.26772029 -5.9771813e-22)
(0.75334674 0.23684441 -1.0333542e-19)
(0.7459566 0.094197419 -1.1554252e-19)
(0.77702012 -0.13124791 -5.8330931e-22)
(0.86866247 -0.25478246 4.0138149e-20)
(0.98123644 -0.25428528 5.4472941e-21)
(1.0845745 -0.17756634 5.6190252e-20)
(1.1538605 -0.034896206 -3.9966717e-22)
(1.1615851 0.14638485 -3.6197833e-20)
(1.1079985 0.23837422 6.9029409e-22)
(1.0163909 0.22020296 -1.7388978e-20)
(0.93306306 0.13908816 5.835165e-21)
(0.89838452 0.050363221 -1.7917846e-21)
(0.92248215 -0.00032295513 2.2934658e-21)
(0.9543821 -0.02658135 1.9538097e-21)
(0.98332607 -0.037427184 -1.5138598e-21)
(1.0069317 -0.037317092 -3.277615e-22)
(1.0233429 -0.030452978 4.3815479e-22)
(1.0324194 -0.020911911 -5.3471918e-22)
(1.0355661 -0.011882391 3.9349578e-22)
(1.0349907 -0.0051033656 0)
(1.0327934 -0.00090920266 -4.3809906e-22)
(1.0303752 0.0012341126 6.7300263e-23)
(1.0283768 0.0021042347 -2.2870814e-22)
(1.0269145 0.0023543502 3.054374e-22)
(1.0258594 0.0023772928 -8.3882417e-24)
(1.0250346 0.0023590373 -9.0830324e-23)
(1.0242877 0.0023259539 -2.761364e-23)
(1.0235555 0.0022726207 -1.9276436e-22)
(1.0227904 0.002130738 3.7075563e-24)
(1.0220493 0.0018808742 1.1541173e-21)
(1.021327 0.0015056654 -1.6133027e-23)
(1.0207536 0.00096605736 -3.7979873e-23)
(1.0202921 0.00038544167 4.8330596e-22)
(0.69628647 -0.12732363 -8.2303656e-22)
(0.74720526 -0.054951174 1.6104269e-20)
(0.75907219 0.1783135 -2.4822549e-20)
(0.75042439 0.27453596 6.6485137e-22)
(0.73637239 0.24531899 5.301647e-22)
(0.72983783 0.10129738 -4.4185589e-22)
(0.75679195 -0.13164028 4.606998e-20)
(0.84715439 -0.27041585 -8.7958229e-21)
(0.96215045 -0.27237349 0)
(1.0641354 -0.19487533 -1.2583628e-20)
(1.1368282 -0.040782942 0)
(1.1435023 0.15896648 0)
(1.089782 0.26553284 -2.2677171e-20)
(1.0118725 0.25413286 9.7981574e-22)
(0.93249008 0.17006492 3.4622974e-21)
(0.87928425 0.062187345 2.6599886e-22)
(0.8978764 -0.0063134177 0)
(0.93826244 -0.036126764 7.5309266e-22)
(0.97297513 -0.049213662 6.0566571e-22)
(1.0021304 -0.049493729 1.7008693e-22)
(1.0231649 -0.04122878 -8.7252494e-22)
(1.035373 -0.029055243 -1.0644719e-22)
(1.0399439 -0.016999099 1.9329384e-24)
(1.0393691 -0.0076063478 -4.9231872e-22)
(1.0363581 -0.0016420102 -1.1793534e-22)
(1.0329186 0.0014164202 6.7312922e-23)
(1.030055 0.0025970333 1.872149e-22)
(1.0280156 0.0028253184 -2.0421269e-22)
(1.0266524 0.0027173242 -6.4775205e-24)
(1.0257036 0.0025695997 -4.2333394e-22)
(1.0249442 0.0024829351 -4.4667353e-24)
(1.0242203 0.0024280974 -1.9950556e-23)
(1.0234805 0.0023641313 9.0254427e-23)
(1.0226931 0.0022094359 6.2012252e-22)
(1.0219246 0.001944802 -2.3043508e-21)
(1.0211827 0.0015488406 -4.9043177e-22)
(1.0205953 0.00099234585 -4.6046856e-22)
(1.0201279 0.000392391 0)
(0.6800857 -0.12930886 1.9289941e-20)
(0.72235331 -0.056760212 -3.0239205e-22)
(0.73593049 0.18044855 -1.5686109e-20)
(0.73222292 0.28009515 -8.1361698e-22)
(0.72166173 0.25301744 5.7480675e-20)
(0.71573104 0.10820636 6.833071e-20)
(0.73860242 -0.13248506 -1.1256836e-22)
(0.82390351 -0.2841129 -8.8855559e-20)
(0.93763831 -0.29109634 -7.7510176e-21)
(1.0408618 -0.20763007 -1.1732366e-19)
(1.1146852 -0.046680702 -1.470722e-21)
(1.1223073 0.17067209 0)
(1.0694413 0.29031755 0)
(0.9999404 0.28401394 1.4436692e-20)
(0.93024856 0.20109242 -2.0801783e-20)
(0.86482077 0.077839513 -2.781237e-21)
(0.87255132 -0.01046403 1.8669484e-21)
(0.91952983 -0.04805716 -4.7988788e-22)
(0.96131341 -0.062980865 9.6553491e-22)
(0.99649116 -0.063904092 -1.3422241e-21)
(1.0229173 -0.054343323 -6.5828013e-23)