/*--------------------------------*- C++ -*----------------------------------*\
| =========                 |                                                 |
| \\      /  F ield         | OpenFOAM: The Open Source CFD Toolbox           |
|  \\    /   O peration     | Version:  5.0                                   |
|   \\  /    A nd           | Web:      www.OpenFOAM.org                      |
|    \\/     M anipulation  |                                                 |
\*---------------------------------------------------------------------------*/
FoamFile
{
    version     2.0;
    format      ascii;
    class       volVectorField;
    location    "400";
    object      U_0;
}
// * * * * * * * * * * * * * * * * * * * * * * * * * * * * * * * * * * * * * //

dimensions      [0 1 -1 0 0 0 0];

internalField   nonuniform List<vector> 
9200
(
(1.0388173 0.00073971634 -1.4545499e-24)
(1.0389957 0.0023581689 7.2786881e-22)
(1.0365903 0.00074208204 0)
(1.0392747 0.0037536149 -3.8397354e-22)
(1.0367455 0.0023839043 6.3297272e-22)
(1.0356079 0.00073454656 0)
(1.0396559 0.0051458786 -3.8642024e-23)
(1.0370111 0.0037979238 1.1751254e-23)
(1.0357524 0.0023735753 0)
(1.0341545 0.00071087758 0)
(1.0400876 0.0064207705 7.8913684e-22)
(1.0373649 0.0052138592 5.7809496e-22)
(1.0360041 0.0037871332 3.6002151e-22)
(1.034276 0.0023097035 2.2014672e-23)
(1.0330359 0.00067765891 2.0898968e-25)
(1.0405621 0.0076133053 7.558409e-22)
(1.0377958 0.0065225523 -3.2800351e-23)
(1.0363407 0.0052081946 1.2008462e-21)
(1.034501 0.0036899867 4.9140652e-22)
(1.0331416 0.0022071581 1.5101944e-23)
(1.0319246 0.00063875595 -9.2785184e-22)
(1.0410495 0.0086848548 7.6242526e-22)
(1.0383117 0.0077636054 8.6494255e-22)
(1.036753 0.0065409084 -7.2697582e-22)
(1.0347896 0.0050798576 -5.2593416e-23)
(1.033347 0.0035268273 4.4791605e-22)
(1.0320144 0.0020793737 4.5379832e-22)
(1.0309499 0.00060363404 8.0275181e-23)
(1.0415568 0.0096009464 3.4541502e-22)
(1.0389223 0.0089148416 7.0099129e-22)
(1.0372553 0.007836354 8.635804e-22)
(1.0351331 0.0064004502 4.3096396e-23)
(1.0336018 0.0048500062 -1.1525766e-21)
(1.032201 0.003320069 -5.1153724e-22)
(1.0310322 0.0019547948 -5.2327121e-22)
(1.0300523 0.00057666242 8.6120888e-22)
(1.0420789 0.010307519 -9.8957415e-22)
(1.0396706 0.0099429065 7.7717804e-22)
(1.037857 0.0090986723 3.0762072e-23)
(1.0355319 0.0077089854 4.2033933e-22)
(1.0338924 0.0061074646 1.0634767e-22)
(1.0324249 0.0045502037 -1.723835e-21)
(1.0312109 0.0031179352 1.4889991e-22)
(1.0301331 0.0018495439 -8.879655e-22)
(1.0292294 0.00055796543 -1.8251723e-21)
(1.042572 0.010762747 7.0818652e-22)
(1.0406087 0.010845209 -3.845708e-22)
(1.0385812 0.010332602 -3.891499e-23)
(1.0359764 0.0090351218 -1.470268e-22)
(1.0342051 0.0073476364 -1.7637522e-22)
(1.0326697 0.0057079251 1.869892e-22)
(1.0314266 0.0042543843 6.0476742e-22)
(1.0303091 0.0029488994 1.0078897e-21)
(1.0293139 0.0017719418 5.7158631e-22)
(1.0284614 0.00054367505 1.477287e-22)
(1.0430843 0.010976761 -3.448353e-22)
(1.041915 0.011542295 8.2497023e-23)
(1.0394856 0.011590423 6.2087007e-22)
(1.0364687 0.010425232 -7.0603239e-22)
(1.0344926 0.0086030011 5.4503151e-22)
(1.0329053 0.0068187374 -1.5973145e-21)
(1.0316653 0.0053109509 6.2705032e-23)
(1.030528 0.0040086154 1.5190706e-21)
(1.029489 0.0028286712 -7.537512e-22)
(1.0285505 0.0017180412 1.6584601e-21)
(1.0277397 0.00053018763 -2.4644473e-22)
(1.0439672 0.010514349 1.3942169e-22)
(1.0433753 0.011999963 -2.7953033e-22)
(1.040465 0.012971005 -7.1567446e-22)
(1.0370147 0.011986702 0)
(1.0347212 0.0099246991 3.0436225e-23)
(1.0330691 0.0079041141 -2.7598446e-22)
(1.0318987 0.0062887598 -3.1415589e-22)
(1.0307795 0.0049876727 -7.5399576e-22)
(1.029715 0.0038412099 -2.1084674e-22)
(1.0287211 0.0027510144 -9.5466793e-22)
(1.0278301 0.001677505 -6.4539552e-22)
(1.0270597 0.00051615491 1.4956132e-22)
(1.0448272 0.0095079139 6.360657e-23)
(1.0453183 0.012582528 -1.5329649e-22)
(1.0415107 0.014549028 0)
(1.0374907 0.013802724 0)
(1.034755 0.011380913 -2.0239504e-22)
(1.0331159 0.0089770711 -1.6492781e-22)
(1.0320688 0.0071890344 -4.1901161e-22)
(1.0310489 0.0058720719 8.975347e-22)
(1.0299829 0.0047833864 9.3347051e-23)
(1.0289476 0.0037428057 2.5686666e-24)
(1.0279912 0.0026972699 1.0586261e-21)
(1.0271458 0.0016383409 -1.1254639e-21)
(1.0264208 0.0005011642 2.3421518e-21)
(1.0457964 0.0077789148 -9.57785e-22)
(1.048127 0.013080537 5.4780565e-23)
(1.0429178 0.016364097 -4.1251782e-22)
(1.0378737 0.015922073 2.0287395e-22)
(1.0345446 0.01302815 -1.1323932e-22)
(1.0329527 0.010056954 -1.321326e-22)
(1.0321367 0.0079811598 2.5482165e-22)
(1.0312932 0.0066507294 1.5288566e-23)
(1.0302953 0.0056371988 1.0137536e-21)
(1.0292182 0.0046811407 9.4443347e-22)
(1.0282082 0.0036812243 2.9539461e-22)
(1.0272935 0.0026452436 8.5355268e-22)
(1.0264987 0.0015899875 5.7728225e-22)
(1.0258257 0.00048365205 -6.3860724e-22)
(1.0471196 0.0054256292 8.134406e-22)
(1.0517774 0.013405394 2.0966645e-21)
(1.0448278 0.018547959 -2.9177249e-22)
(1.0382275 0.018467494 4.2467578e-23)
(1.0340586 0.014935903 -5.6126328e-23)
(1.0324862 0.011123566 2.5459149e-22)
(1.032017 0.0086514796 2.4825406e-22)
(1.0314931 0.0072721954 -3.2306776e-22)
(1.0306273 0.0063909045 -9.7864013e-23)
(1.0295555 0.0055507434 -1.1394927e-22)
(1.0284677 0.0046298972 -1.7668092e-23)
(1.0274914 0.0036196485 -1.4675193e-22)
(1.0266309 0.0025756117 -1.0770616e-21)
(1.0258944 0.0015247085 5.378812e-22)
(1.0252785 0.0004613727 -4.8242454e-22)
(1.0486145 0.0019169954 2.5872944e-21)
(1.0562912 0.013403616 -2.2200607e-21)
(1.0473082 0.021313107 4.0156839e-22)
(1.0385209 0.021677408 -2.5802565e-22)
(1.033111 0.017217418 1.6090724e-23)
(1.0315654 0.012206091 -5.8143226e-22)
(1.0316479 0.0091162425 -3.7288755e-23)
(1.031611 0.0076899489 3.5540782e-23)
(1.0309832 0.00698648 -1.9649412e-22)
(1.0299525 0.0063473498 -2.7410427e-22)
(1.0288033 0.0055330874 -1.9167878e-21)
(1.0277233 0.0045765233 3.7493512e-22)
(1.026803 0.0035283175 3.3579606e-22)
(1.0260113 0.0024749154 1.7635544e-22)
(1.0253398 0.0014389094 4.5802284e-23)
(1.0247839 0.00043371494 5.3316704e-22)
(1.050499 -0.0020780747 0)
(1.061566 0.013249723 -3.2777775e-21)
(1.0503696 0.024826208 7.6630897e-22)
(1.0387009 0.025771709 0)
(1.0315498 0.020015578 0)
(1.0300111 0.01333536 0)
(1.0308784 0.0093034402 1.2028863e-22)
(1.0316985 0.0077981176 4.5855549e-22)
(1.0313985 0.007358856 3.7687025e-22)
(1.0304488 0.0070223307 5.7693559e-22)
(1.0292223 0.0064033493 9.8242473e-23)
(1.028022 0.0055123459 4.1973292e-22)
(1.0269933 0.0044779304 8.8831585e-24)
(1.0261561 0.0033875277 -3.8587368e-22)
(1.025444 0.0023378108 -1.2199362e-22)
(1.0248409 0.0013341416 -2.6003859e-22)
(1.0243444 0.00040255061 0)
(1.0523321 -0.0069144294 3.910002e-21)
(1.0672976 0.012642892 7.2667126e-21)
(1.0538224 0.029230487 -3.3479753e-21)
(1.0386236 0.030989989 5.3034076e-22)
(1.0292284 0.023493999 8.3020416e-22)
(1.0276274 0.01451456 0)
(1.0295927 0.0091475541 8.127221e-22)
(1.0315803 0.0074129577 -2.7179409e-22)
(1.0320451 0.0074325472 3.48903e-22)
(1.0311598 0.0075086251 4.4117931e-22)
(1.0297982 0.0072157672 -3.4365014e-22)
(1.0283977 0.0064624481 1.2912414e-22)
(1.0272256 0.0054269288 6.7483127e-22)
(1.0262961 0.004303297 -1.2859302e-21)
(1.0255651 0.0031893082 -3.7915735e-22)
(1.0249373 0.0021677628 -1.749273e-21)
(1.0244007 0.0012167009 -6.984003e-22)
(1.0239594 0.00037071605 -6.5938819e-22)
(1.0546287 -0.012843845 -3.1979655e-22)
(1.0742277 0.011911179 5.0355235e-21)
(1.0573567 0.034797016 1.1838582e-21)
(1.037918 0.037564773 -4.3844616e-22)
(1.025911 0.027823873 -1.783761e-22)
(1.0241842 0.01577506 -7.051981e-22)
(1.0276104 0.008538462 -2.193196e-21)
(1.0312256 0.0064406447 -1.2465667e-21)
(1.0327961 0.0070092249 -1.8689641e-22)
(1.0321046 0.0077588784 -6.1362122e-22)
(1.0306238 0.0079493984 -1.0103149e-22)
(1.0289257 0.0074458834 -7.6305402e-22)
(1.0274929 0.0064286734 9.7030228e-23)
(1.0264479 0.005227162 1.1902623e-22)
(1.0256606 0.0040423537 1.8020592e-22)
(1.0250427 0.0029395803 2.6513685e-22)
(1.0244957 0.0019756123 -5.7188749e-22)
(1.0240189 0.0010955922 1.9560276e-23)
(1.0236252 0.00034056301 -6.1672896e-22)
(1.0570497 -0.021254996 -3.9236583e-21)
(1.0844935 0.010374196 -9.2895497e-21)
(1.0620708 0.041462847 1.3932131e-20)
(1.0364086 0.045653227 -2.7148946e-22)
(1.0212694 0.033134774 -2.7723801e-22)
(1.0194071 0.017138348 -3.4438549e-22)
(1.0247301 0.0073519715 2.8977759e-22)
(1.0305754 0.0046871241 7.9094691e-24)
(1.0336535 0.0059580997 -8.8995373e-23)
(1.0334727 0.0078338734 2.1890468e-22)
(1.0316661 0.008657128 -9.6736214e-22)
(1.0296182 0.0085236733 2.6930984e-22)
(1.0278367 0.0075467546 4.2354762e-22)
(1.0265721 0.0062201544 -3.8671116e-23)
(1.0257343 0.004892743 1.3040016e-22)
(1.0251084 0.0037045156 8.3963156e-22)
(1.0245969 0.002656075 -1.4513733e-22)
(1.0241189 0.0017763794 9.424777e-22)
(1.0236918 0.00097984504 2.4860143e-22)
(1.0233357 0.00031411278 6.4072776e-22)
(1.0612998 -0.029252428 -3.2282348e-22)
(1.0986305 0.0079803977 -1.824834e-20)
(1.0712386 0.0491483 8.05117e-22)
(1.0356005 0.055296698 -1.4447278e-21)
(1.015084 0.03943288 -1.5204759e-21)
(1.0130411 0.018643292 -1.2097211e-21)
(1.0207145 0.0054497367 2.6466424e-21)
(1.0295355 0.0019243405 2.3224933e-21)
(1.0347141 0.0040712045 3.1785373e-22)
(1.0353569 0.0074514284 0)
(1.0331931 0.0093813437 6.4911639e-22)
(1.0304918 0.009775569 2.9841689e-22)
(1.0282159 0.0088746093 -5.6903343e-22)
(1.0266716 0.0073547701 3.9164976e-23)
(1.0257284 0.0058044408 -4.0518486e-22)
(1.0251269 0.0044408349 6.7209095e-22)
(1.0246523 0.003315267 1.69529e-22)
(1.0242286 0.0023622333 -2.6892489e-22)
(1.0238029 0.0015854991 5.451652e-22)
(1.0234127 0.00087660006 4.5562148e-23)
(1.0230838 0.00029353653 6.0834457e-22)
(1.0570221 -0.03937678 1.9477309e-21)
(1.1062671 0.0016896286 -1.7260842e-20)
(1.086773 0.057424297 -1.1817102e-20)
(1.038878 0.066694113 6.175844e-21)
(1.0081152 0.046952928 -2.5402703e-21)
(1.0047879 0.020254281 -2.0664919e-22)
(1.0153522 0.002678134 0)
(1.0280036 -0.0020670459 1.224168e-22)
(1.0360397 0.0011009235 -1.1798983e-22)
(1.0378943 0.0064762229 6.3801682e-22)
(1.035428 0.010070425 3.5068092e-22)
(1.0317881 0.011232725 5.5893787e-23)
(1.0286878 0.010486386 -7.1376398e-23)
(1.0266943 0.0087160209 3.4161004e-22)
(1.0256104 0.0068250244 -1.9342732e-22)
(1.0250287 0.0052071439 2.0208589e-22)
(1.0246495 0.0039141056 -8.4909545e-23)
(1.024295 0.0029086053 5.040758e-22)
(1.0239331 0.0020811096 1.3278635e-22)
(1.02354 0.0014158161 1.9538261e-23)
(1.0231734 0.00079073405 3.212223e-22)
(1.0228615 0.00028081561 0)
(1.048338 -0.049030196 3.8960403e-22)
(1.1071335 -0.0040994395 1.1107872e-20)
(1.1032342 0.066036812 -4.159155e-22)
(1.0474362 0.080005046 8.3545019e-21)
(1.0023448 0.056327851 -3.3601015e-21)
(0.99442587 0.022033405 1.7979144e-21)
(1.0084223 -0.0011024053 -2.0074314e-23)
(1.0258577 -0.0075425061 1.8707241e-21)
(1.0376857 -0.0032149405 1.2221317e-22)
(1.0412835 0.0047129006 -5.5045199e-23)
(1.0385799 0.01068103 -6.1522898e-25)
(1.033676 0.013041394 -1.5497836e-22)
(1.0293529 0.012510166 -9.5921649e-23)
(1.0266435 0.010400828 1.2023642e-21)
(1.0253119 0.0080300268 8.3881323e-22)
(1.0247618 0.0060252456 5.7075466e-22)
(1.0245089 0.0044964103 -1.4206807e-22)
(1.0243053 0.0033641715 -7.8863223e-22)
(1.0240293 0.0025185154 -1.8342323e-23)
(1.023701 0.0018311091 2.9030063e-22)
(1.0233208 0.0012758939 0)
(1.0229656 0.00072529232 -7.1647141e-22)
(1.0226609 0.00027684593 -3.29939e-24)
(1.0345535 -0.058622177 -6.5131163e-21)
(1.1036863 -0.011643782 3.8903146e-20)
(1.1071669 0.074130442 -2.9138077e-20)
(1.0569953 0.097331564 -8.060561e-21)
(0.99775349 0.068666054 -2.4482245e-21)
(0.98188446 0.024283615 0)
(0.99959627 -0.0060300675 -4.90371e-23)
(1.0229694 -0.014768094 1.1476341e-21)
(1.0396514 -0.0091845834 -2.7813032e-22)
(1.0457458 0.001949408 -1.3617282e-21)
(1.0429243 0.011148845 6.8561067e-22)
(1.0363693 0.015321866 3.2492087e-22)
(1.0302926 0.015156505 -2.5508869e-22)
(1.0264871 0.012570127 6.1815626e-22)
(1.0247655 0.0095128293 -6.8070969e-22)
(1.0242331 0.0069441116 -1.3496667e-21)
(1.0241762 0.005062267 -3.0314539e-22)
(1.0241773 0.0037544211 -2.7700497e-22)
(1.0240827 0.0028408731 7.2515195e-22)
(1.0238413 0.0021736532 -1.720522e-22)
(1.0235193 0.001624239 -5.9837091e-22)
(1.0231359 0.0011697564 6.4327541e-22)
(1.0227817 0.00068141082 -4.9170126e-22)
(1.0224745 0.00028022212 -1.9090998e-24)
(1.0151604 -0.067336078 2.796055e-21)
(1.0950391 -0.016011707 3.8211962e-20)
(1.0972461 0.08167863 2.0908731e-21)
(1.0559991 0.11702371 4.1735328e-20)
(0.99066433 0.085307987 4.546718e-22)
(0.96700255 0.028061011 -9.304128e-21)
(0.98833631 -0.01227918 -9.8467268e-23)
(1.0191906 -0.023965515 -2.8984534e-21)
(1.041924 -0.017109458 6.809341e-22)
(1.0514834 -0.0020995509 -7.519597e-22)
(1.0487869 0.011421054 5.4201422e-22)
(1.040123 0.018231387 -5.3653025e-22)
(1.0316149 0.018667281 5.4788448e-22)
(1.0262049 0.015434058 -6.2933306e-23)
(1.0238672 0.011395514 -1.0427809e-21)
(1.0233426 0.0080213568 -1.7437725e-23)
(1.0235488 0.0056236221 -6.1981796e-23)
(1.023865 0.0040567409 -4.0084637e-22)
(1.0240156 0.0030555186 0)
(1.023959 0.0023849023 -9.1599498e-23)
(1.0237122 0.0018943352 -2.562211e-23)
(1.0233747 0.0014667504 5.0907644e-23)
(1.0229765 0.0010978374 -2.4715304e-23)
(1.0226152 0.000657714 7.0331612e-22)
(1.0222965 0.00028666694 3.9953838e-22)
(0.99384013 -0.075053511 7.4621543e-21)
(1.0803237 -0.020308299 -2.4055505e-20)
(1.0776323 0.091306454 -1.0445305e-20)
(1.0393223 0.13583948 -5.0574819e-21)
(0.97976861 0.10422718 6.1586138e-21)
(0.94989027 0.033552158 2.2913801e-21)
(0.97436466 -0.019809331 -1.7525061e-22)
(1.0143057 -0.035390513 2.4278225e-22)
(1.0444854 -0.027287297 -8.9999239e-22)
(1.0586713 -0.0077138289 -7.4208658e-22)
(1.0565303 0.011396954 -1.2854443e-21)
(1.0452274 0.021950199 8.2700344e-23)
(1.0334124 0.023351001 -4.2250624e-23)
(1.0257468 0.019257723 -3.2690503e-22)
(1.0224982 0.013840832 -3.3688367e-22)
(1.0219485 0.0093199721 1.4235019e-21)
(1.0225184 0.0061909638 2.191408e-21)
(1.0232728 0.0042501488 5.2650404e-22)
(1.0237977 0.0031206155 7.0020974e-22)
(1.0239877 0.0024579285 2.3218707e-23)
(1.0239068 0.0020228432 -7.7705816e-22)
(1.023623 0.0016899064 -1.5577606e-22)
(1.023255 0.0013606634 5.0207931e-22)
(1.0228339 0.0010580111 -6.0208781e-22)
(1.0224596 0.00065062789 5.2717608e-22)
(1.0221246 0.0002912378 -2.9044267e-23)
(0.97127535 -0.082031094 -2.3716504e-22)
(1.0604954 -0.024207358 -2.6917535e-20)
(1.0580597 0.1009332 4.2766827e-20)
(1.0193344 0.15223165 -3.3057771e-20)
(0.96771653 0.12312836 6.1624896e-21)
(0.93260096 0.039508445 1.2918444e-20)
(0.9582511 -0.028771458 3.3304233e-21)
(1.0080737 -0.049349633 3.6855387e-21)
(1.0472978 -0.039982794 2.8901425e-21)
(1.0674223 -0.015229221 2.5372234e-21)
(1.0665133 0.010991471 7.568154e-23)
(1.0520055 0.02669954 2.8533932e-21)
(1.0357637 0.029565444 -1.4106191e-21)
(1.0250205 0.024349408 -4.0301967e-22)
(1.0204913 0.017039091 -3.0100951e-22)
(1.0198752 0.010921313 2.9594413e-22)
(1.0209342 0.0067661762 -6.0031346e-23)
(1.0223027 0.004300634 7.6817631e-23)
(1.0233517 0.0029902433 1.3359498e-22)
(1.023916 0.0023403157 8.5377249e-23)
(1.0240497 0.0019971107 0)
(1.0238986 0.0017657593 -2.6579039e-22)
(1.0235569 0.0015573768 -4.9396012e-23)
(1.0231494 0.001304125 0)
(1.0226997 0.001045925 7.3889807e-22)
(1.02231 0.00065613555 5.3291131e-24)
(1.0219566 0.00029259656 -3.8628398e-22)
(0.94751015 -0.088281935 -2.5119362e-21)
(1.0376859 -0.027330311 -2.3432237e-21)
(1.0343596 0.1106885 3.2511082e-20)
(0.99874346 0.16754907 -4.6718008e-21)
(0.95349183 0.13960421 -1.0270831e-21)
(0.91624315 0.047666779 -1.2427699e-20)
(0.94049445 -0.038914125 -2.6160518e-22)
(1.0003943 -0.065998473 -2.1974217e-21)
(1.0500294 -0.055295716 -1.8165927e-21)
(1.0775117 -0.024840554 -5.1694842e-21)
(1.0788821 0.010044602 6.1223999e-21)
(1.0607583 0.03275668 6.2671309e-22)
(1.0387406 0.03773917 3.7505529e-22)
(1.0239212 0.031061126 -4.8123538e-22)
(1.0176551 0.021207736 -7.9580836e-22)
(1.0169059 0.012908576 -2.998453e-22)
(1.0186137 0.0073483814 -1.5271592e-21)
(1.0208205 0.0041551989 -1.0200068e-21)
(1.0226048 0.0025968884 -4.0370147e-22)
(1.0236911 0.0019698046 -7.8882661e-22)
(1.0241495 0.0017632643 -2.6011891e-22)
(1.0241592 0.001684415 1.1564792e-22)
(1.0239112 0.0016106067 2.5764332e-23)
(1.0234988 0.0014858812 0)
(1.0230495 0.0012903825 0)
(1.02257 0.0010560288 -5.4125765e-23)
(1.0221626 0.00067161098 6.6883344e-22)
(1.021791 0.00029403875 7.3858473e-22)
(0.92321941 -0.093817596 0)
(1.0132963 -0.029800387 -1.2779562e-20)
(1.0087569 0.12030418 -2.6510214e-20)
(0.97392397 0.18221362 -1.1588348e-20)
(0.93236179 0.15507902 -7.6688065e-21)
(0.89910801 0.05614153 8.9893971e-22)
(0.92128572 -0.049052052 -1.8080812e-21)
(0.9906556 -0.084749851 -2.092299e-21)
(1.0517954 -0.072999328 -3.3768483e-21)
(1.0881122 -0.036341874 5.1272139e-22)
(1.0929837 0.0086774579 -6.9944344e-22)
(1.0713173 0.04045864 -1.2996055e-21)
(1.0423452 0.048348594 2.50762e-21)
(1.0222731 0.039778172 -1.1110607e-21)
(1.0137381 0.026573174 -3.5869418e-22)
(1.0127929 0.015374916 -9.9556023e-22)
(1.0153367 0.0079198425 -1.6858186e-22)
(1.0186697 0.003745104 -3.5924867e-22)
(1.0214574 0.0018458386 2.2661623e-23)
(1.0232743 0.0012597575 -4.5787159e-22)
(1.0241797 0.0012532104 -1.6769943e-22)
(1.0244314 0.001399253 -1.2957425e-22)
(1.0242805 0.0015121254 2.9996948e-23)
(1.0239267 0.0015433158 5.4158781e-22)
(1.0234394 0.0014655765 1.9233149e-22)
(1.0229543 0.0013093584 -1.570925e-23)
(1.0224418 0.0010841119 -6.8907812e-22)
(1.0220133 0.00069592123 4.3764111e-22)
(1.0216266 0.0002995096 -1.1026991e-21)
(0.89904592 -0.098745135 3.1454867e-21)
(0.98792271 -0.032700711 0)
(0.98222981 0.12970347 0)
(0.94786262 0.19583644 0)
(0.90857399 0.1691556 3.9022158e-21)
(0.8798164 0.065558779 0)
(0.90180496 -0.059593004 -7.5966437e-22)
(0.9785016 -0.1052385 -2.4640012e-21)
(1.051912 -0.092855399 -1.1150197e-20)
(1.098263 -0.049581807 2.4999997e-20)
(1.1075532 0.0071920056 -7.719934e-21)
(1.0822942 0.05040629 1.9998273e-21)
(1.0458968 0.061969852 -7.7750579e-22)
(1.019783 0.050926782 1.9732244e-21)
(1.0084063 0.033373478 1.7559773e-21)
(1.0072397 0.018399185 -2.7520946e-22)
(1.0108561 0.0084566733 -1.2018404e-21)
(1.015663 0.0029734623 2.7423998e-22)
(1.0197988 0.00061906736 8.0630708e-22)
(1.0226128 9.133416e-05 4.9574486e-22)
(1.0241396 0.00037676511 1.4750044e-22)
(1.024714 0.000846771 -1.734361e-22)
(1.0247077 0.0012310208 -1.969198e-22)
(1.0243899 0.0014587787 1.2353036e-22)
(1.023928 0.0015377303 2.456241e-23)
(1.0233849 0.0014875891 1.2326061e-22)
(1.0228613 0.0013535008 -4.9967142e-22)
(1.0223111 0.0011272906 -4.7306189e-24)
(1.0218605 0.00072741611 -1.6891446e-21)
(1.0214614 0.00030970701 -6.6261076e-22)
(0.87308809 -0.10375779 -4.2724627e-21)
(0.96221054 -0.035211727 -4.2016968e-21)
(0.95544539 0.13859117 0)
(0.92143146 0.2085198 0)
(0.88387422 0.18172454 0)
(0.86016891 0.07420587 0)
(0.88318202 -0.069592015 0)
(0.96457635 -0.1272097 6.0786477e-22)
(1.0503013 -0.11515022 2.5199705e-21)
(1.1080701 -0.065226251 -3.727939e-20)
(1.1232612 0.0053319304 1.0432611e-22)
(1.0929997 0.063191746 -8.4348839e-21)
(1.04757 0.079148762 7.9620202e-21)
(1.0156141 0.064960993 1.2273733e-21)
(1.0012353 0.041842139 -2.4468841e-22)
(0.99989023 0.022043598 4.219857e-22)
(1.0048982 0.0089126698 -1.57137e-22)
(1.0115927 0.0017273757 5.9869611e-22)
(1.0174976 -0.001234773 -6.1441689e-22)
(1.0216519 -0.0016810175 -2.0021653e-22)
(1.024028 -0.00099098508 -1.3583604e-23)
(1.0250428 -5.1680949e-05 -3.6421437e-22)
(1.0252115 0.00071718749 -2.5018508e-23)
(1.0249419 0.0012238947 6.3194348e-23)
(1.0244697 0.0014930713 -1.1765186e-22)
(1.0239119 0.001572378 -3.5990035e-22)
(1.0233267 0.0015503301 -1.3450933e-22)
(1.0227573 0.0014205976 2.1729423e-22)
(1.0221752 0.0011805039 4.4763584e-25)
(1.0217048 0.00076331281 1.2161823e-21)
(1.0212947 0.00032257073 4.2996709e-22)
(0.84540096 -0.10872599 5.9076163e-21)
(0.93442526 -0.039159905 -5.7981653e-22)
(0.92925258 0.14646506 -1.6714292e-20)
(0.89546388 0.22015055 -2.200493e-20)
(0.85941005 0.19301805 0)
(0.84007469 0.080567708 0)
(0.86532089 -0.078886737 -7.3138374e-22)
(0.94922564 -0.14968705 -4.461555e-21)
(1.0461295 -0.13941939 1.7396791e-20)
(1.1182585 -0.083971702 -4.3337383e-20)
(1.1426422 0.0014492851 -2.0241048e-22)
(1.1080501 0.078198269 1.6005758e-20)
(1.0486874 0.10021445 -5.2497001e-22)
(1.0082909 0.081952578 6.8388905e-24)
(0.99158331 0.052178549 -1.3573679e-21)
(0.99033941 0.026325198 -1.224708e-22)
(0.9971639 0.0092159677 2.9049362e-21)
(1.0062373 -0.00013057051 -8.3619016e-23)
(1.0144078 -0.0038889284 -1.6326638e-21)
(1.0203275 -0.0042425552 -8.415607e-23)
(1.0238472 -0.0030023379 -8.4255127e-22)
(1.0254615 -0.0014111016 9.7985724e-23)
(1.0258568 -8.5084885e-05 6.2430167e-23)
(1.0256166 0.00080701991 -2.5413496e-22)
(1.0251131 0.0013321097 -1.3326742e-22)
(1.0245057 0.0015795311 -9.7531128e-23)
(1.0238826 0.0016614457 -9.146248e-23)
(1.0232503 0.0016531775 -1.0151212e-22)
(1.0226423 0.0014995215 2.9448663e-22)
(1.0220368 0.0012371486 -2.3198825e-23)
(1.021547 0.00080082037 5.8889821e-22)
(1.0211264 0.00033584303 4.5529162e-23)
(0.81758366 -0.11334201 -3.7405757e-21)
(0.90412727 -0.043814508 5.9825583e-23)
(0.90235646 0.15324266 1.7036553e-20)
(0.87059401 0.23082215 3.6194232e-20)
(0.83616159 0.20293402 0)
(0.81982034 0.085270559 0)
(0.84742895 -0.088451624 0)
(0.93295368 -0.17207591 -1.3166364e-22)
(1.0380905 -0.16433976 -3.9837058e-20)
(1.1224525 -0.10451038 -5.0992345e-20)
(1.1630593 -0.0058649079 -9.5232074e-23)
(1.1328072 0.092547447 4.2501443e-21)
(1.0576553 0.12422693 -2.4837471e-20)
(0.99970259 0.10196329 7.0830927e-21)
(0.97848244 0.064199549 -1.3349069e-21)
(0.97815788 0.031202177 0)
(0.98734434 0.0092508382 8.2905636e-22)
(0.99937136 -0.0027550863 -7.8688335e-22)
(1.0103733 -0.0075425303 -5.7406388e-22)
(1.0185685 -0.0078016237 2.2685986e-22)
(1.0236076 -0.0058525544 1.3769954e-22)
(1.0260313 -0.0033686702 3.7323884e-22)
(1.0267225 -0.0012642543 1.5802917e-22)
(1.0264961 0.00018503499 7.1030115e-23)
(1.0258993 0.0010474447 1.0142707e-22)
(1.0252087 0.0015065759 -6.0016471e-23)
(1.0245067 0.0017074039 2.2649756e-23)
(1.0238404 0.0017895836 -3.70965e-24)
(1.0231669 0.0017496934 2.6560225e-22)
(1.0225308 0.0015754469 2.1957259e-22)
(1.0218973 0.0012945401 1.2540326e-23)
(1.0213879 0.00083796438 -1.6571793e-21)
(1.0209572 0.00034824425 6.4501447e-22)
(0.79000138 -0.11748654 -6.5694626e-21)
(0.87222586 -0.048992557 0)
(0.87394467 0.15858025 1.4584609e-20)
(0.84584146 0.2410595 5.8237116e-20)
(0.81463347 0.2116449 -1.8132847e-20)
(0.80044128 0.088581026 -2.0825748e-22)
(0.82926862 -0.097850172 -2.7162727e-20)
(0.91614248 -0.19375978 1.5877304e-20)
(1.0263862 -0.18896474 1.1239454e-20)
(1.1199425 -0.12516945 1.1997782e-19)
(1.1708984 -0.015998589 -5.4834317e-20)
(1.1622686 0.10571268 -4.8556835e-20)
(1.0785577 0.14935345 1.5638953e-21)
(0.99827447 0.12523171 2.5583597e-21)
(0.96240127 0.077612075 -9.9981628e-22)
(0.96283036 0.036455516 5.859837e-22)
(0.97515599 0.0088461732 4.0151925e-22)
(0.99078107 -0.0063182355 2.1113846e-23)
(1.0052394 -0.012402743 -1.943417e-22)
(1.016296 -0.012595063 4.005739e-23)
(1.0233196 -0.0097611656 5.1686239e-22)
(1.0268338 -0.0061030389 -9.543594e-24)
(1.0279216 -0.0029228479 -1.9216677e-22)
(1.0276832 -0.00069273813 4.1996863e-22)
(1.0269177 0.00065222306 3.0857128e-23)
(1.0260505 0.0013691454 -1.6817173e-23)
(1.025234 0.0017155361 -1.655734e-23)
(1.0244813 0.0018701397 3.7871215e-23)
(1.0237815 0.0019223425 6.9955658e-23)
(1.0230789 0.0018434089 -2.8741445e-23)
(1.0224133 0.001656698 1.4784012e-22)
(1.0217547 0.0013522581 1.3682316e-23)
(1.0212274 0.00087370263 6.7378513e-22)
(1.0207878 0.0003593906 -1.2102108e-21)
(0.76341164 -0.12106028 5.9168722e-21)
(0.83900383 -0.053774432 -3.6750366e-22)
(0.84417085 0.16131596 -9.3788186e-22)
(0.8213212 0.25070458 -2.9487885e-20)
(0.79379896 0.22062098 7.0921191e-20)
(0.78212316 0.0906994 8.333896e-20)
(0.81104612 -0.10615877 5.1136345e-21)
(0.89887863 -0.21437632 0)
(1.0117833 -0.21271429 3.2947267e-20)
(1.1121822 -0.14533353 1.6627644e-19)
(1.1702063 -0.026957694 9.6694463e-21)
(1.1784045 0.11658236 2.5230282e-20)
(1.1044937 0.17735594 0)
(1.0079101 0.15253944 3.2223161e-21)
(0.9481096 0.093799767 9.7744839e-22)
(0.94392764 0.041548506 -9.7354503e-22)
(0.96037439 0.0078046814 -3.2754803e-21)
(0.98028042 -0.011015285 0)
(0.99886039 -0.018677257 7.708283e-22)
(1.0134269 -0.018866987 9.3374243e-22)
(1.0229913 -0.014981595 -2.2022657e-22)
(1.0279629 -0.0098204494 4.909113e-22)
(1.0295957 -0.0051999989 0)
(1.0293258 -0.0018796509 -2.0845856e-23)
(1.0282807 0.00013916817 2.5715623e-22)
(1.0271155 0.0012114983 -2.1621239e-23)
(1.0260807 0.0017167318 6.6502509e-24)
(1.0252059 0.0019430511 4.8656778e-23)
(1.0244329 0.0020387307 -2.8542871e-24)
(1.023711 0.0020428573 1.9769474e-22)
(1.0229844 0.0019453745 -5.5775519e-22)
(1.0222901 0.0017379327 -3.7980335e-22)
(1.0216098 0.0014076 0)
(1.0210668 0.00090721095 -2.6373708e-23)
(1.0206185 0.00036934148 -3.6200539e-22)
(0.73847129 -0.12419825 8.7797717e-21)
(0.80616801 -0.057068488 -6.7051783e-21)
(0.81445862 0.16328599 6.7002465e-21)
(0.79672108 0.25959705 -6.0698987e-21)
(0.77382084 0.23158447 2.4985882e-20)
(0.76430233 0.094356533 9.9430588e-21)
(0.79431501 -0.11664818 5.1337258e-20)
(0.8809672 -0.23349002 3.2971851e-21)
(0.99495271 -0.23493591 0)
(1.0988016 -0.16495067 -5.9347216e-20)
(1.1644156 -0.036722252 6.7971435e-20)
(1.1772346 0.12577833 -6.7734029e-21)
(1.1205698 0.20715912 2.2936399e-20)
(1.0190234 0.1857361 -1.1242104e-20)
(0.94064705 0.11504311 3.5344052e-21)
(0.92188123 0.047312067 7.1917331e-22)
(0.94272349 0.0056999746 -6.2217713e-21)
(0.9677587 -0.017023783 -2.216486e-21)
(0.99111066 -0.026554243 1.3304109e-21)
(1.009874 -0.026856124 -1.7380759e-21)
(1.0226206 -0.021780403 7.323726e-22)
(1.0295185 -0.014765497 -7.4714803e-22)
(1.0319154 -0.0082593712 0)
(1.0316083 -0.0034552236 -2.4195332e-24)
(1.0301502 -0.00048801584 6.3472632e-23)
(1.0285129 0.0010691932 9.5855397e-23)
(1.027115 0.0017729475 -1.2563257e-22)
(1.026018 0.0020491743 -4.8530732e-23)
(1.0251419 0.0021589834 6.9200354e-23)
(1.0243693 0.0021859601 0)
(1.0236361 0.0021576844 -1.4193261e-22)
(1.0228864 0.0020423986 -6.0243806e-22)
(1.0221675 0.001811849 1.0786111e-21)
(1.0214657 0.0014587676 -3.8334908e-22)
(1.0209062 0.00093847958 5.0320037e-23)
(1.0204508 0.00037822466 1.2950671e-21)
(0.7158485 -0.12688827 -8.7820668e-21)
(0.77539601 -0.059940178 -3.361522e-22)
(0.7865486 0.16698403 -6.4693768e-21)
(0.77355266 0.26748508 -6.1268875e-22)
(0.75491953 0.24090554 -9.9866101e-20)
(0.74659344 0.10368435 -1.1594514e-19)
(0.77463495 -0.12120029 -6.0468486e-22)
(0.86407875 -0.25209487 3.9046275e-20)
(0.97649195 -0.25579377 5.3551275e-21)
(1.0810557 -0.1831844 5.5035099e-20)
(1.1528637 -0.04457609 -5.3050213e-22)
(1.1645876 0.13600471 -3.6672349e-20)
(1.1145467 0.23525025 7.3640082e-22)
(1.022114 0.2216812 -1.7859155e-20)
(0.93770394 0.14328359 7.9486046e-21)
(0.89957027 0.054593909 -1.1169782e-21)
(0.92174666 0.0026115358 1.8456702e-21)
(0.95315696 -0.024566239 1.9130138e-21)
(0.98190457 -0.036204431 -1.5471531e-21)
(1.0055512 -0.036774625 -3.458467e-22)
(1.0221902 -0.030428287 4.4114776e-22)
(1.0315938 -0.021206219 -5.7985412e-22)
(1.0350713 -0.012304496 4.261888e-22)
(1.0347585 -0.005513579 0)
(1.0327287 -0.001236718 -4.3932198e-22)
(1.0303952 0.0010045507 7.6387033e-23)
(1.0284261 0.0019580595 -2.3684644e-22)
(1.0269639 0.002267904 3.1918378e-22)
(1.0258969 0.002329205 -8.8370473e-24)
(1.0250584 0.0023339277 -1.0033999e-22)
(1.0242999 0.0023134633 -5.3802882e-23)
(1.0235593 0.0022669834 -1.6952201e-22)
(1.0227889 0.0021291295 3.0707903e-24)
(1.0220448 0.0018813652 1.1014357e-21)
(1.0213206 0.0015070546 -1.6701447e-23)
(1.0207464 0.00096759788 -3.6936439e-23)
(1.0202841 0.0003862063 4.7019139e-22)
(0.69615939 -0.1291781 -8.1938438e-22)
(0.74725504 -0.062429873 1.4549223e-20)
(0.7608386 0.1704899 -2.7539539e-20)
(0.75230236 0.27432814 -6.1885526e-23)
(0.73776326 0.24942743 5.8909738e-22)
(0.73045091 0.11104377 -5.2645603e-22)
(0.75463954 -0.12068498 4.7404098e-20)
(0.84275684 -0.26743441 -8.8486732e-21)
(0.95762438 -0.27411714 0)
(1.0608292 -0.20093087 -1.2394235e-20)
(1.1359754 -0.051384974 0)
(1.1470868 0.14746965 0)
(1.0960104 0.26215334 -2.3516488e-20)
(1.0175774 0.25572356 1.0630937e-21)
(0.93757027 0.17488011 3.9755364e-21)
(0.88112406 0.067595914 1.95572e-22)
(0.89686925 -0.0027086447 0)
(0.93668931 -0.033726859 8.1439094e-23)
(0.97120647 -0.047720261 6.008993e-22)
(1.0003838 -0.048802747 1.9134627e-22)
(1.0216648 -0.041183783 -8.976014e-22)
(1.0342648 -0.02943744 -5.111082e-23)
(1.039261 -0.017573289 3.0476821e-24)
(1.0390436 -0.0081820157 -5.1174704e-22)
(1.0362713 -0.0021108542 -1.1998936e-22)
(1.0329566 0.0010846248 7.0265128e-23)
(1.0301375 0.0023858234 1.9052838e-22)
(1.0280986 0.0027019204 -2.1075893e-22)
(1.0267179 0.0026506743 -6.6874018e-24)
(1.0257479 0.002536554 -4.4512357e-22)
(1.0249703 0.0024681876 -9.4332055e-25)
(1.0242328 0.0024226952 -1.6578067e-23)
(1.0234841 0.0023635049 6.7036013e-23)
(1.0226913 0.0022109796 5.8029879e-22)
(1.0219197 0.0019476566 -2.1993823e-21)
(1.0211759 0.0015516996 -4.720639e-22)
(1.0205877 0.00099465698 -4.4649514e-22)
(1.0201195 0.00039337117 0)
(0.68004355 -0.13116851 1.869534e-20)
(0.72244563 -0.064422053 -2.9821779e-22)
(0.73723655 0.17224031 -1.6071049e-20)
(0.73375524 0.27992002 -1.6295202e-21)
(0.7229089 0.25706482 6.1507034e-20)
(0.71628311 0.11819969 6.8128009e-20)
(0.73671719 -0.12089294 8.3952105e-25)
(0.81968151 -0.28066312 -8.971844e-20)
(0.93328846 -0.29282394 -7.6325864e-21)
(1.0377922 -0.21415317 -1.1559046e-19)
(1.1141013 -0.058151943 -1.7598071e-21)
(1.1263116 0.15810691 0)
(1.0755317 0.28670134 0)
(1.0055353 0.28571196 1.5083067e-20)
(0.93529504 0.20631942 -2.1326053e-20)
(0.86758047 0.084590273 -3.1964655e-21)
(0.8715234 -0.0058810426 1.3790188e-21)
(0.91757265 -0.045311914 -6.2373783e-23)
(0.95917081 -0.061191033 8.8882241e-22)
(0.99432748 -0.063035807 -1.3154445e-21)
(1.0210063 -0.054262905 -6.1651395e-23)
(1.0375903 -0.039749292 -1.9376159e-22)