/*--------------------------------*- C++ -*----------------------------------*\
| =========                 |                                                 |
| \\      /  F ield         | OpenFOAM: The Open Source CFD Toolbox           |
|  \\    /   O peration     | Version:  5.0                                   |
|   \\  /    A nd           | Web:      www.OpenFOAM.org                      |
|    \\/     M anipulation  |                                                 |
\*---------------------------------------------------------------------------*/
FoamFile
{
    version     2.0;
    format      ascii;
    class       volVectorField;
    location    "400";
    object      UMean;
}
// * * * * * * * * * * * * * * * * * * * * * * * * * * * * * * * * * * * * * //

dimensions      [0 1 -1 0 0 0 0];

internalField   nonuniform List<vector> 
9200
(
(1.0329379 0.00047939448 -2.2574398e-24)
(1.0331362 0.001535817 4.6319323e-22)
(1.0315463 0.00046181356 0)
(1.0334469 0.0024914703 -2.489918e-22)
(1.0317019 0.00148999 3.9875049e-22)
(1.0309311 0.00044988189 0)
(1.0338559 0.0034436378 -2.4232039e-23)
(1.0319682 0.0024165374 -6.446246e-24)
(1.0310772 0.0014466563 0)
(1.0300703 0.00042349818 0)
(1.0343323 0.0043972578 5.3709348e-22)
(1.0322991 0.0033277443 4.3416496e-22)
(1.0313213 0.0023477234 2.2942168e-22)
(1.0301938 0.0013636049 1.3235347e-23)
(1.0293964 0.00040135812 2.9229539e-25)
(1.0348528 0.0053346935 5.071556e-22)
(1.0326838 0.0042406198 6.0758601e-25)
(1.0316246 0.0032258199 7.8358928e-22)
(1.0304106 0.0022190161 3.3270064e-22)
(1.0295107 0.0012838528 2.4049667e-23)
(1.0287629 0.00037334504 -5.0192532e-22)
(1.0353795 0.0062945373 6.1702171e-22)
(1.0330995 0.0051211734 5.5202513e-22)
(1.0319738 0.0041060804 -4.6575509e-22)
(1.0306766 0.0030395412 -3.8878705e-23)
(1.0297076 0.002093525 2.5760964e-22)
(1.028865 0.001184552 2.6535384e-22)
(1.0281934 0.0003459789 5.2883094e-23)
(1.0358889 0.0072520465 4.4658723e-22)
(1.0335213 0.0060125524 5.0477491e-22)
(1.0323501 0.0049459936 5.9149088e-22)
(1.0309822 0.0038696789 6.7564383e-23)
(1.0299466 0.0028581181 -7.1834071e-22)
(1.029043 0.0019399238 -3.1808497e-22)
(1.0282878 0.0010836191 -2.4189931e-22)
(1.0277094 0.00031664467 4.0411346e-22)
(1.03636 0.0082252192 -8.5751145e-22)
(1.0339395 0.0068817237 4.3585345e-22)
(1.032722 0.0057898404 6.4696672e-23)
(1.0313126 0.0046555112 2.5740598e-22)
(1.0302181 0.0036371873 1.5150759e-22)
(1.0292581 0.0026393513 -1.0056221e-21)
(1.0284503 0.0017831168 -6.511574e-23)
(1.0277976 0.00097341061 -3.8875525e-22)
(1.0272733 0.00028799595 -8.0321485e-22)
(1.0367482 0.0091980366 7.5727559e-22)
(1.0343277 0.0077496505 -4.092163e-23)
(1.0330716 0.0066012152 -4.0392001e-23)
(1.0316412 0.0054491174 -2.2863859e-22)
(1.0305122 0.0043668941 -1.2235199e-22)
(1.0294994 0.0033606483 2.5662052e-22)
(1.0286455 0.0024162858 3.4380984e-22)
(1.0279477 0.0016122032 5.1228202e-22)
(1.0273571 0.00086364458 2.9980001e-22)
(1.0269166 0.00025914581 7.5476063e-23)
(1.0369905 0.010158458 -3.380735e-22)
(1.0346649 0.008588646 2.4786912e-22)
(1.0333833 0.0074013273 3.2764612e-22)
(1.0319602 0.0062127383 -4.6388938e-22)
(1.0308027 0.0051023872 1.8779574e-22)
(1.02976 0.0040291449 -8.3688682e-22)
(1.0288619 0.0030781805 8.6183485e-23)
(1.0281272 0.0021735177 6.8142697e-22)
(1.0274966 0.0014418032 -3.1155763e-22)
(1.0269988 0.00075046367 7.2226031e-22)
(1.026604 0.00023165272 -7.666971e-23)
(1.0371426 0.01109524 4.6698037e-24)
(1.0348566 0.0093923691 -4.8582609e-22)
(1.0336345 0.00817661 -4.997409e-22)
(1.0322618 0.0069621562 0)
(1.0310848 0.0058037399 2.5093091e-23)
(1.0300156 0.0047065643 -2.9798061e-22)
(1.0290964 0.0036850848 -1.549285e-22)
(1.0283217 0.0027707229 -3.3969732e-22)
(1.0276635 0.0019317894 -2.9528992e-22)
(1.0271313 0.0012656472 -3.8184931e-22)
(1.026686 0.00064059894 -2.3290301e-22)
(1.026358 0.00020514916 5.8525107e-23)
(1.0371616 0.012005276 1.8875335e-23)
(1.0349631 0.010187157 6.6702189e-23)
(1.0338001 0.0089302007 0)
(1.0325337 0.0076813162 0)
(1.0313372 0.0064923737 -8.6946452e-23)
(1.0302639 0.0053547891 -2.7631565e-22)
(1.0293211 0.0043025185 -6.9658478e-23)
(1.0285318 0.0033114555 4.6534012e-22)
(1.0278401 0.0024640669 6.0028677e-23)
(1.0272904 0.0016811303 3.5449133e-24)
(1.0268135 0.0010943056 3.0114778e-22)
(1.0264429 0.00053194261 -2.1538932e-22)
(1.0261503 0.00018065971 6.198311e-22)
(1.0366713 0.012772686 -1.9482046e-22)
(1.0350415 0.0110028 3.8642331e-24)
(1.0338674 0.0096345147 -1.1459293e-22)
(1.0327133 0.0083557289 5.5270744e-23)
(1.0315537 0.0071582175 -3.3227361e-23)
(1.0304914 0.0059968326 -1.2134942e-22)
(1.0295375 0.0048921118 1.5642358e-22)
(1.0287291 0.0038661927 2.0549443e-23)
(1.0280298 0.0029378983 6.3323413e-22)
(1.0274535 0.00214452 5.9573783e-22)
(1.0269678 0.0014369647 1.0386842e-22)
(1.0265695 0.00092413987 3.0849197e-22)
(1.0262397 0.00042928859 1.9037357e-22)
(1.0259953 0.00015811838 -1.4558403e-22)
(1.0354491 0.013348399 -5.1942132e-22)
(1.0349082 0.011786327 1.372259e-22)
(1.0338456 0.01029558 -1.973626e-22)
(1.0327793 0.0089958686 2.7629636e-23)
(1.0317005 0.0077995797 -3.2205415e-23)
(1.0306865 0.0066172727 1.7734875e-22)
(1.0297308 0.005478757 1.6078469e-22)
(1.0289157 0.0043966324 -1.9708631e-22)
(1.0282019 0.0034273858 -1.3857091e-22)
(1.0276272 0.0025479232 -8.5846353e-23)
(1.0271211 0.0018319225 -6.2828838e-24)
(1.0267243 0.0011932371 -1.7077978e-22)
(1.0263675 0.00076280521 -2.5625192e-22)
(1.0260924 0.00033176192 9.0125412e-23)
(1.0258716 0.00013815506 -7.7863547e-23)
(1.0334338 0.013716313 5.8906991e-22)
(1.03416 0.012411484 -5.2032603e-22)
(1.0337255 0.010961714 5.0961446e-23)
(1.0327343 0.009592371 -1.1652575e-22)
(1.0317559 0.0084100523 6.1073743e-23)
(1.0308195 0.0072162912 -4.0968166e-22)
(1.0298854 0.0060478934 -6.3940028e-23)
(1.0290763 0.0049278794 4.204522e-23)
(1.028361 0.003895842 -9.1849679e-23)
(1.0277781 0.0029688899 -4.1368593e-22)
(1.0272825 0.0021644753 -6.9642536e-22)
(1.0268735 0.0015175255 -1.2302179e-22)
(1.0265266 0.0009612731 6.5025102e-23)
(1.026226 0.00060864981 8.5636568e-23)
(1.0259779 0.00024259103 6.4941343e-23)
(1.0257863 0.00012085396 7.0281767e-23)
(1.0307747 0.014021613 0)
(1.0327282 0.012890179 -4.6369117e-22)
(1.0331272 0.011550498 3.4944501e-22)
(1.0326127 0.010184407 0)
(1.0316711 0.0089753005 0)
(1.0308743 0.0077893943 0)
(1.0299916 0.0066071028 7.7677648e-23)
(1.0291944 0.005444982 3.2390496e-22)
(1.0284902 0.0043675646 5.8138343e-22)
(1.027911 0.0033707027 2.7493244e-22)
(1.0274157 0.0025144158 1.5291124e-22)
(1.0270284 0.0017762618 1.5387199e-22)
(1.0266761 0.0012162228 5.5746554e-23)
(1.0263953 0.00073810625 -7.5896523e-23)
(1.0261196 0.00046698151 -7.0711329e-23)
(1.025905 0.00016174214 -2.7548563e-23)
(1.0257247 0.00010655399 0)
(1.027976 0.01426238 3.9036998e-22)
(1.0304782 0.013186984 1.1731263e-21)
(1.0318288 0.011981922 -8.3223302e-22)
(1.0321647 0.010760274 -4.358033e-23)
(1.0314937 0.0095307519 -3.5567873e-23)
(1.0307769 0.0083216041 0)
(1.0300354 0.0071471879 3.2974792e-22)
(1.0292677 0.0059590259 -2.3310692e-22)
(1.0285732 0.0048299171 -1.0799812e-22)
(1.0280088 0.0037775255 7.8842505e-22)
(1.0275269 0.0028468544 -1.5501134e-22)
(1.0271494 0.0020515934 1.9616359e-22)
(1.0268295 0.001401622 -5.2518082e-24)
(1.026552 0.00092348424 -2.9639213e-22)
(1.0263032 0.00053173997 -2.2196254e-22)
(1.0260596 0.00033758643 -1.0801203e-22)
(1.0258574 9.1150233e-05 -7.549315e-23)
(1.0256879 9.539888e-05 -3.8471141e-23)
(1.0257562 0.014544061 -6.486351e-23)
(1.0276942 0.013367001 5.0857492e-22)
(1.0297721 0.012316841 3.1624311e-22)
(1.0310614 0.011194006 -4.6035531e-22)
(1.0310923 0.010093957 1.4447668e-23)
(1.0305419 0.0088293696 -4.3364662e-22)
(1.029934 0.0076548492 -9.9046578e-22)
(1.0292906 0.0064609052 -7.8154301e-22)
(1.0286133 0.0052936414 -3.4429717e-22)
(1.0280573 0.0041802443 -4.3412369e-22)
(1.0275979 0.0031855385 -1.9437225e-22)
(1.0272429 0.0023093738 -2.1662576e-22)
(1.0269437 0.0016008084 -2.8261834e-22)
(1.0267112 0.0010341861 1.1891425e-22)
(1.0264722 0.00065015523 1.549078e-22)
(1.026264 0.00034149768 2.6669599e-24)
(1.0260272 0.00022377356 -2.1553376e-24)
(1.0258374 3.1190716e-05 -1.7917875e-23)
(1.0256671 8.753609e-05 -1.1845427e-23)
(1.0234038 0.014806478 -7.2114999e-22)
(1.0253533 0.013488494 -8.2340076e-22)
(1.0271841 0.012536685 2.923714e-21)
(1.0292188 0.011517416 1.6801759e-22)
(1.0301466 0.010560762 -3.1525671e-22)
(1.0301355 0.0093582599 -2.0183236e-22)
(1.0296431 0.0081249415 4.457605e-23)
(1.0291921 0.0069416585 -3.1058917e-22)
(1.0286085 0.0057510708 -1.3987616e-22)
(1.0280604 0.0045866057 -5.5564122e-22)
(1.027616 0.0035236293 -4.4695907e-22)
(1.0272897 0.0025731126 2.4736422e-22)
(1.0270255 0.0017813255 2.0445091e-22)
(1.0268259 0.0011543596 -2.1756329e-23)
(1.0266435 0.00068785577 1.5598443e-22)
(1.0264531 0.00039494613 -6.8675292e-23)
(1.0262562 0.00017257281 1.4524448e-22)
(1.026027 0.0001260826 6.0923905e-25)
(1.0258348 -1.7136822e-05 5.7414215e-24)
(1.0256597 8.2994044e-05 -1.0923162e-24)
(1.0186588 0.014961936 5.5990587e-24)
(1.0236972 0.013788436 -1.5297243e-21)
(1.0248362 0.012674385 1.6286233e-22)
(1.0267503 0.011738997 -7.670726e-22)
(1.0284845 0.010922471 -1.8519537e-22)
(1.0292872 0.0098382325 2.5440475e-22)
(1.0291892 0.0086126157 7.9252233e-24)
(1.0288736 0.0073752512 8.2855264e-22)
(1.0285087 0.0061982646 6.75992e-22)
(1.0280189 0.0049933346 0)
(1.0275849 0.0038684578 3.245854e-22)
(1.0272781 0.0028398917 6.3385219e-22)
(1.0270534 0.0019666817 1.299792e-22)
(1.0269028 0.0012533251 -5.2394628e-22)
(1.0267657 0.00072900582 -1.1958127e-22)
(1.0266451 0.00036052854 -4.5707859e-23)
(1.0264708 0.00016520474 1.8083496e-22)
(1.0262873 2.5659294e-05 9.389357e-23)
(1.0260464 4.6300405e-05 -7.0437783e-23)
(1.0258477 -5.3486035e-05 7.3185319e-24)
(1.0256602 8.1802857e-05 -1.100991e-23)
(1.0103664 0.014567012 1.8559334e-21)
(1.0204653 0.013683786 -1.8345169e-21)
(1.0231651 0.012818222 -2.3199386e-21)
(1.0244802 0.011897239 2.1108574e-21)
(1.0261299 0.01118516 1.0288109e-21)
(1.0277656 0.010224859 -2.4879883e-22)
(1.0283925 0.0090937031 0)
(1.0283539 0.0078115693 -6.3268976e-22)
(1.0281958 0.0066020609 -5.6527094e-22)
(1.0279059 0.005399022 -5.5640201e-23)
(1.0275055 0.0042184144 3.9795165e-22)
(1.0272124 0.0031154813 2.9114694e-22)
(1.0270182 0.0021568447 -1.2276664e-22)
(1.0269172 0.0013537914 9.7784195e-23)
(1.0268454 0.0007444526 2.1423966e-22)
(1.0267841 0.00032171633 -1.9485827e-22)
(1.0266902 6.2033762e-05 8.0773849e-24)
(1.0265356 -3.8246195e-05 -1.0990446e-22)
(1.0263413 -9.6337406e-05 6.7561208e-23)
(1.026085 -1.4930421e-05 9.2310102e-24)
(1.0258697 -7.7526615e-05 -2.7936474e-23)
(1.0256652 8.3945754e-05 0)
(0.99927024 0.014137327 6.2007861e-22)
(1.012725 0.013341504 1.3883485e-21)
(1.0208179 0.012915249 -4.4129463e-23)
(1.0229341 0.012025106 2.8640881e-21)
(1.0237939 0.011389096 9.1733082e-22)
(1.0255124 0.01051709 -5.7208006e-22)
(1.0269772 0.0094981767 5.9997991e-22)
(1.0275536 0.0082616945 -4.8676442e-22)
(1.0276154 0.0069786404 -1.7097605e-22)
(1.0276155 0.0057784175 7.816612e-23)
(1.0273679 0.0045735302 -3.3293175e-23)
(1.0270923 0.003401528 -7.5881704e-22)
(1.0269222 0.0023569685 -2.3043223e-23)
(1.0268626 0.0014594958 1.1233165e-21)
(1.0268548 0.00075643655 2.4978541e-22)
(1.0268759 0.00025087861 -5.1744582e-23)
(1.0268544 -5.4949714e-05 -1.1272961e-22)
(1.0267918 -0.00020675211 2.5745943e-22)
(1.026628 -0.00021106637 4.1269106e-23)
(1.0264204 -0.00019239077 -8.0716919e-23)
(1.0261349 -5.6918445e-05 0)
(1.0258975 -8.9211343e-05 7.308731e-23)
(1.0256709 8.9449415e-05 3.4686665e-24)
(0.98537718 0.013602021 -2.6301019e-21)
(1.0016355 0.01264061 5.080711e-21)
(1.0144522 0.012622222 -5.2622117e-21)
(1.0211489 0.01216675 -1.9614409e-21)
(1.0222474 0.011577937 3.2190919e-21)
(1.0231173 0.010765625 0)
(1.024815 0.0098066811 1.3450408e-22)
(1.0262275 0.0086598295 -5.9543095e-22)
(1.0267808 0.0073735619 -1.1924887e-22)
(1.0270195 0.0061011643 8.0990134e-22)
(1.0270984 0.0049230001 1.4506285e-22)
(1.026917 0.0036983045 -2.9526974e-22)
(1.0267644 0.00257184 3.7913875e-22)
(1.0267388 0.0015753635 1.5446209e-23)
(1.0267889 0.00077203677 2.0681681e-22)
(1.0268892 0.00017000387 -1.6360414e-22)
(1.0269678 -0.00021201997 -6.5511124e-22)
(1.0269915 -0.00040013257 1.2117749e-22)
(1.0269278 -0.00043964116 -5.777187e-22)
(1.0267534 -0.00035160615 2.720983e-22)
(1.0265136 -0.00026125365 2.347752e-22)
(1.0261931 -7.9450368e-05 -1.5081839e-22)
(1.0259268 -8.8711169e-05 4.6159714e-23)
(1.0256741 9.7928175e-05 3.8138825e-24)
(0.96917491 0.012947467 -3.5769159e-22)
(0.9888288 0.012208477 5.3189737e-21)
(1.0044881 0.011819436 8.7020726e-22)
(1.0159239 0.012084176 1.426551e-20)
(1.020949 0.011849686 -3.0003783e-21)
(1.0214669 0.010992583 3.8226866e-21)
(1.0223417 0.010077636 1.210428e-22)
(1.024159 0.0089679416 1.75795e-21)
(1.0255246 0.0077486202 -4.2948798e-22)
(1.0261275 0.0064285128 -8.7827057e-23)
(1.0265368 0.0052116558 3.9405885e-22)
(1.026648 0.0040056967 7.5065989e-22)
(1.0265463 0.0028020245 7.7676165e-23)
(1.0265446 0.0017089117 -9.0109547e-23)
(1.0266447 0.00079583296 -4.6604516e-22)
(1.0268205 8.786945e-05 9.9443901e-23)
(1.0269963 -0.0003876292 -1.2633862e-22)
(1.0271378 -0.00064339785 2.1768633e-22)
(1.0271718 -0.00070534146 0)
(1.0271058 -0.00063421496 1.8574093e-23)
(1.0268969 -0.00045792862 8.2715893e-24)
(1.0266193 -0.00030238404 -1.7150215e-23)
(1.0262543 -8.2651111e-05 5.2302496e-24)
(1.0259544 -7.6344171e-05 -6.7979686e-23)
(1.0256723 0.00010939434 1.0792773e-23)
(0.95150837 0.012223335 2.0377562e-21)
(0.97367665 0.011648626 -3.6666453e-21)
(0.99172566 0.011194567 -2.5298713e-21)
(1.0064641 0.011431135 -2.1800911e-21)
(1.0170266 0.0118944 -1.3368851e-20)
(1.0204135 0.011321891 -5.7798358e-22)
(1.0205325 0.010336176 1.1686925e-22)
(1.0216107 0.0092335882 -1.7410794e-22)
(1.0235478 0.0080407959 -1.2391352e-21)
(1.0248983 0.0067629892 3.5057077e-22)
(1.0256055 0.0054698687 -1.4393759e-22)
(1.0261399 0.0042768646 -9.6973749e-23)
(1.0262554 0.0030524474 -4.5520651e-22)
(1.0262806 0.0018622057 -1.2014016e-22)
(1.0264204 0.00083812991 -3.6941137e-22)
(1.0266632 1.0374382e-05 6.2623053e-22)
(1.026936 -0.00057186352 1.3894428e-21)
(1.0271931 -0.00091568361 -3.3489221e-22)
(1.0273614 -0.0010321701 -5.8954563e-22)
(1.0274047 -0.0009674371 1.6459139e-23)
(1.0273077 -0.00078755612 5.9550642e-22)
(1.0270591 -0.00052874341 1.8580356e-22)
(1.0267303 -0.00031575482 -2.5187846e-22)
(1.0263152 -6.6922529e-05 1.37966e-22)
(1.0259772 -5.2607438e-05 -3.7649296e-23)
(1.0256631 0.00012337782 1.575932e-24)
(0.93320263 0.01145951 -9.38707e-23)
(0.95677808 0.011070342 -4.7146766e-21)
(0.97682565 0.010406031 1.1177909e-20)
(0.99433103 0.010777141 -1.3673677e-20)
(1.0085807 0.011456108 1.4011791e-20)
(1.017594 0.011543842 -7.5482825e-21)
(1.0195253 0.010688725 -3.2852219e-21)
(1.0196042 0.0095005285 -2.7425667e-21)
(1.0209528 0.0082824086 2.7086769e-21)
(1.0230141 0.0070307368 6.8404165e-22)
(1.0243478 0.0057412519 -1.2124391e-22)
(1.0252129 0.0044764596 1.3034988e-22)
(1.0257905 0.0033008316 2.6126298e-22)
(1.0259472 0.0020418345 -5.275386e-22)
(1.0261151 0.0009026066 -6.3371744e-23)
(1.0264154 -5.0016511e-05 2.8614483e-22)
(1.0267773 -0.00075727616 -4.6902421e-22)
(1.0271534 -0.0012061916 5.6767514e-22)
(1.0274563 -0.0013999087 -3.9696987e-22)
(1.027649 -0.0013743209 1.5175303e-22)
(1.0276694 -0.0011819404 0)
(1.0275365 -0.00089721363 2.9613869e-22)
(1.0272298 -0.00056379803 1.3703665e-24)
(1.0268433 -0.00030169062 0)
(1.0263721 -3.3014818e-05 -1.7012027e-22)
(1.0259927 -1.814758e-05 -1.6515983e-23)
(1.0256446 0.00013974708 -4.544006e-23)
(0.91475195 0.01074006 -7.8568591e-22)
(0.93911401 0.01050151 -4.4014947e-22)
(0.96030985 0.0097313699 1.1039051e-20)
(0.98023878 0.0099713699 -1.3297617e-21)
(0.99691503 0.010706369 3.8379641e-21)
(1.0101776 0.011370946 1.120317e-20)
(1.0175804 0.011033549 4.284426e-22)
(1.0185195 0.0098375484 3.8598958e-21)
(1.018723 0.0085237428 -3.7342865e-22)
(1.0204134 0.0072396851 -1.8532737e-21)
(1.0225548 0.0059888251 8.6502445e-22)
(1.0238979 0.0046724154 -1.1887961e-22)
(1.0249362 0.0034705465 -2.3267301e-22)
(1.0254909 0.0022429086 -8.9347515e-23)
(1.0257325 0.00099678614 -6.8216907e-22)
(1.0260747 -8.8050268e-05 -2.9629934e-23)
(1.0265174 -0.00093009289 -1.4118978e-21)
(1.0270059 -0.0015062945 6.866022e-22)
(1.027451 -0.0017977194 1.7705216e-22)
(1.027797 -0.0018357314 -6.1641393e-22)
(1.0279788 -0.0016627982 4.6084641e-22)
(1.0279707 -0.0013452596 4.8866622e-23)
(1.027778 -0.00096280989 -2.2624114e-23)
(1.0274066 -0.00056292866 0)
(1.0269535 -0.00026109791 0)
(1.0264221 1.8096232e-05 1.5695417e-23)
(1.0259988 2.6382062e-05 1.0525686e-23)
(1.0256156 0.00015810457 1.2312781e-22)
(0.89656627 0.010026443 0)
(0.92122648 0.0099185105 -3.0050142e-21)
(0.94306437 0.0090332303 -1.1423259e-20)
(0.96432441 0.0094371092 -8.9665092e-21)
(0.98323938 0.0099983009 -1.678215e-20)
(0.99924038 0.010617974 -1.8436266e-21)
(1.011395 0.011049169 6.7448747e-21)
(1.0171883 0.01025693 9.2427668e-21)
(1.0175134 0.008843041 -6.205133e-21)
(1.0179328 0.0074390781 8.3029229e-22)
(1.0199839 0.0061636639 -1.4597439e-22)
(1.0221532 0.0048926441 -3.3608109e-22)
(1.0235843 0.0035930652 2.6155817e-22)
(1.0247243 0.0024014263 -2.0468254e-22)
(1.0252519 0.0011236527 -1.4586495e-23)
(1.0256432 -9.5165254e-05 -7.5063039e-22)
(1.0261526 -0.0010833288 5.0628284e-23)
(1.0267463 -0.0018008934 -6.1466083e-22)
(1.0273298 -0.002215992 1.1043943e-21)
(1.0278405 -0.002340769 -7.2121328e-22)
(1.0281927 -0.0022136651 4.0625512e-22)
(1.0283564 -0.001893058 2.6783714e-22)
(1.0282908 -0.0014564132 6.6325127e-24)
(1.0280319 -0.00098291805 -9.0522829e-22)
(1.0275827 -0.0005270804 -1.9147371e-22)
(1.0270575 -0.00019508507 3.4801332e-23)
(1.0264626 8.5282153e-05 1.0763495e-22)
(1.0259939 7.977301e-05 3.7415811e-23)
(1.0255748 0.00017799729 -2.6422449e-22)
(0.87893997 0.0092726693 2.4367006e-21)
(0.90346376 0.0090996392 0)
(0.92546581 0.0081706977 0)
(0.94740606 0.0085919312 0)
(0.96777428 0.0094678474 5.0235314e-21)
(0.98607147 0.01004443 -1.5270526e-20)
(1.0013187 0.010331868 3.899954e-22)
(1.0124159 0.010379608 8.6518482e-23)
(1.01659 0.009273329 -1.2924036e-20)
(1.0165249 0.0077455826 8.5457509e-21)
(1.0172565 0.0063280562 -2.3118092e-21)
(1.019634 0.0050406903 5.3184051e-22)
(1.0217996 0.0037499656 -3.5116131e-22)
(1.0234016 0.0024679738 3.5386954e-22)
(1.0245474 0.0012533759 8.0327677e-22)
(1.0251177 -6.6870719e-05 3.1847358e-23)
(1.0256831 -0.0012070537 -9.0599492e-22)
(1.0263698 -0.0020816222 -2.4021809e-22)
(1.0270865 -0.0026385223 7.8984984e-22)
(1.0277613 -0.0028795438 1.4904418e-22)
(1.0282998 -0.0028227151 -4.9058995e-22)
(1.0286489 -0.0025276105 -1.0722272e-22)
(1.0287619 -0.0020626073 7.6004145e-22)
(1.0286307 -0.0015118531 -5.2085557e-22)
(1.0282876 -0.00095917323 1.3388616e-23)
(1.0277548 -0.00045737475 -1.4120521e-22)
(1.0271523 -0.00010524017 2.3388476e-22)
(1.0264916 0.00016720769 8.952921e-23)
(1.0259767 0.00014130891 -2.2355731e-22)
(1.0255222 0.00019916284 -2.0333485e-22)
(0.86065301 0.0083968155 -8.4004681e-23)
(0.88612528 0.008304635 -3.7717871e-21)
(0.90780119 0.0072852018 0)
(0.92995921 0.0078189446 0)
(0.95116468 0.0086051666 0)
(0.97114047 0.0094810212 0)
(0.98871207 0.0097990596 0)
(1.0033074 0.0097963442 1.1508772e-24)
(1.01317 0.0095243243 7.2259483e-21)
(1.0157954 0.0081533364 -1.3951843e-20)
(1.0155557 0.0066331236 9.4329963e-23)
(1.0166872 0.0051847888 -2.2994986e-21)
(1.0193287 0.0038818471 2.6771995e-21)
(1.0215392 0.0025270894 -3.8388129e-22)
(1.0233507 0.0012888439 -4.2581759e-23)
(1.0244311 -7.3182411e-06 2.9633235e-22)
(1.0251092 -0.0012961901 -4.4246742e-22)
(1.0258752 -0.0023369938 4.8566437e-22)
(1.0267151 -0.0030558757 6.6860704e-24)
(1.0275512 -0.0034347461 1.1283977e-22)
(1.0282794 -0.0034806898 6.5667568e-23)
(1.0288341 -0.0032360585 1.3381487e-22)
(1.0291445 -0.0027728101 -1.1475615e-23)
(1.0291968 -0.00216729 -3.1329343e-22)
(1.0289766 -0.0015136988 8.1792096e-23)
(1.028542 -0.00089100818 8.4193713e-22)
(1.0279178 -0.00035567675 1.8298312e-22)
(1.027235 6.7529402e-06 -1.0597955e-22)
(1.0265074 0.00026244854 1.0924272e-23)
(1.0259464 0.00021005877 2.3300124e-22)
(1.0254575 0.00022144009 1.4514421e-22)
(0.84148773 0.007286689 -2.6100665e-21)
(0.86803462 0.0073863358 -8.569068e-22)
(0.89045043 0.0064447872 -1.2518113e-20)
(0.91235559 0.00700205 -2.0320356e-20)
(0.93397954 0.0078563944 0)
(0.95484046 0.0086313403 0)
(0.97436782 0.0091754411 -8.4456162e-23)
(0.99135054 0.0092240977 -1.6799527e-20)
(1.0052274 0.0091435165 2.0894523e-20)
(1.0134257 0.008528464 -1.8440126e-20)
(1.0148271 0.0069980983 -2.2068835e-22)
(1.0145974 0.0054912752 5.3602785e-21)
(1.0162061 0.0040079257 -6.6361845e-22)
(1.0190716 0.0026192484 1.8858362e-22)
(1.0214607 0.0012493569 2.9552054e-22)
(1.023367 7.2816789e-06 -2.1723312e-23)
(1.0244054 -0.0013451485 1.3971954e-21)
(1.0252621 -0.0025609202 -7.604618e-23)
(1.026213 -0.0034549012 -1.4933756e-21)
(1.0272026 -0.0039958393 1.413803e-21)
(1.0281209 -0.0041694288 -8.3662497e-22)
(1.0288891 -0.0040101866 -4.4090816e-22)
(1.029422 -0.0035733767 1.3166155e-21)
(1.0296806 -0.0029437494 3.5972795e-22)
(1.0296443 -0.0022081287 -2.9954123e-22)
(1.0293272 -0.0014605563 5.5799076e-22)
(1.0287884 -0.00078127586 2.5415728e-22)
(1.0280681 -0.00022306673 7.853658e-23)
(1.027303 0.00013912459 -1.0324864e-22)
(1.0265089 0.00036945463 -4.7486081e-23)
(1.0259023 0.00028501174 1.9129056e-22)
(1.02538 0.00024400407 1.870539e-23)
(0.82237033 0.0059794715 8.6583353e-22)
(0.8491 0.0065025993 3.9712062e-21)
(0.87220707 0.0055302563 1.8182129e-20)
(0.89506711 0.0062531717 2.525875e-20)
(0.91656125 0.0070462885 0)
(0.93785581 0.0078538786 0)
(0.95842149 0.0083327907 0)
(0.97758476 0.0085275175 2.4433693e-21)
(0.99401611 0.0085164185 -2.5554509e-20)
(1.0068465 0.0084034936 -2.0225599e-20)
(1.013275 0.0075043049 -1.6507201e-22)
(1.0137108 0.0058252702 1.4561938e-21)
(1.013632 0.0042984359 -1.0114213e-20)
(1.015811 0.0027087568 3.3630456e-21)
(1.0189149 0.0012354709 -2.3876422e-22)
(1.0215821 -0.00010726714 0)
(1.0234306 -0.0013858052 2.5183829e-22)
(1.0245225 -0.0027459352 -4.404068e-22)
(1.0255787 -0.00382807 -1.6528567e-22)
(1.0267116 -0.0045490012 2.4052603e-22)
(1.0278154 -0.0048777058 -6.1445604e-22)
(1.028801 -0.0048312793 3.5696203e-22)
(1.0295688 -0.0044574384 -7.0599092e-22)
(1.0300636 -0.0038276953 -1.0154258e-21)
(1.0302388 -0.0030400018 4.7124121e-22)
(1.0301033 -0.0021823833 3.5037399e-23)
(1.0296717 -0.0013559816 -3.6991489e-23)
(1.0290237 -0.0006316604 1.0146693e-23)
(1.0282033 -6.2596414e-05 -2.1267286e-22)
(1.027355 0.0002893757 -1.3158422e-22)
(1.0264952 0.00048679451 6.4810531e-23)
(1.0258442 0.00036511223 -6.7139788e-22)
(1.0252886 0.00026503886 3.4284895e-22)
(0.80359467 0.0047989989 6.4362084e-22)
(0.8300966 0.0051677123 3.4570725e-22)
(0.85308071 0.0046668473 3.0599138e-20)
(0.87684414 0.0053776586 4.9971926e-20)
(0.89939841 0.0063157732 -1.0798127e-20)
(0.92056517 0.0070339395 -1.1533127e-21)
(0.94163314 0.0074983801 -4.3134054e-20)
(0.96205283 0.0076581617 2.0460945e-20)
(0.98081916 0.0077222945 2.9380039e-21)
(0.99662341 0.0077568438 5.1236709e-20)
(1.0082098 0.0076412276 -1.7014523e-20)
(1.0126908 0.0064755029 -1.796843e-20)
(1.0124284 0.0046186739 1.3862441e-22)
(1.0127107 0.0029447455 4.0547665e-21)
(1.0155481 0.0012524207 2.3740771e-21)
(1.0189719 -0.00027037245 1.614828e-22)
(1.0218701 -0.0015408765 2.2977042e-23)
(1.0235858 -0.0028950804 1.2284033e-22)
(1.024807 -0.0041676839 -1.5867779e-22)
(1.0260763 -0.0050840998 -2.900104e-23)
(1.0273571 -0.0055907955 6.3543972e-22)
(1.0285589 -0.0056878299 -1.3389624e-21)
(1.0295698 -0.0054061507 -1.6332514e-22)
(1.0303178 -0.0048139225 7.5518906e-22)
(1.0307393 -0.0039966749 -1.4245005e-21)
(1.030817 -0.0030578964 -5.0756466e-22)
(1.0305601 -0.0020937537 -4.6325422e-22)
(1.0300075 -0.0012000711 -1.130602e-22)
(1.0292427 -0.00044534726 -2.4413887e-22)
(1.0283206 0.00012301132 1.1221837e-24)
(1.0273893 0.00045587497 -1.0305481e-23)
(1.0264658 0.00061285964 -1.6078455e-23)
(1.0257719 0.00044950482 3.2066148e-22)
(1.0251857 0.00028581104 -7.2800325e-22)
(0.7857148 0.0036447914 -9.5382024e-22)
(0.81130175 0.0040773263 -5.3784387e-22)
(0.83389998 0.0034428774 -3.5226837e-20)
(0.85776391 0.0045368683 -2.4862022e-20)
(0.88114956 0.0054209175 4.1823518e-20)
(0.90347642 0.0063323438 5.209503e-20)
(0.92445696 0.0066296267 6.081225e-21)
(0.94546365 0.0067554752 0)
(0.96574218 0.006807198 2.2974774e-20)
(0.98398824 0.0068861037 7.1869502e-20)
(0.99904097 0.0070256781 2.6916047e-21)
(1.0091262 0.0068596372 8.9041042e-21)
(1.0117367 0.0054507576 0)
(1.0109853 0.0032701865 -5.4708521e-22)
(1.0119342 0.0013989513 -6.9463016e-21)
(1.0154929 -0.00039774462 -2.9490975e-22)
(1.0193245 -0.0018388336 1.0099233e-21)
(1.0222217 -0.0030906524 0)
(1.023872 -0.0044674566 4.5108433e-22)
(1.02529 -0.0055933018 9.3805019e-22)
(1.0267438 -0.0062963509 -9.8489445e-22)
(1.0281552 -0.0065636173 6.7022424e-22)
(1.0294117 -0.0064078297 0)
(1.0304258 -0.0058837536 -1.3471552e-21)
(1.0311155 -0.0050748774 7.1580142e-22)
(1.0314454 -0.0040755382 -5.0016729e-23)
(1.0313993 -0.0030002563 -6.0080553e-22)
(1.0310121 -0.0019413789 5.4209443e-22)
(1.0303268 -0.00099761078 1.8249945e-23)
(1.0294428 -0.00022504942 -6.0239052e-22)
(1.0284183 0.00033103059 4.2080833e-22)
(1.0274053 0.00063603196 8.0960952e-23)
(1.0264203 0.00074613962 0)
(1.0256855 0.00053745776 -1.3039917e-23)
(1.025072 0.00030616933 -2.4344946e-22)
(0.76879911 0.0024575346 -6.7088911e-22)
(0.79333968 0.0032347443 2.1440985e-21)
(0.81503028 0.0021961582 -3.278619e-20)
(0.83858277 0.0036450741 -8.5995417e-21)
(0.86203031 0.0045845924 1.115544e-20)
(0.8851894 0.0054258818 7.0173631e-21)
(0.90744186 0.005911204 4.572228e-20)
(0.92838909 0.0058102089 2.2394637e-22)
(0.94940389 0.0058569101 0)
(0.96941049 0.0059578922 -2.744024e-20)
(0.98700182 0.0061451587 2.280787e-20)
(1.0010801 0.0064227458 -1.4832176e-21)
(1.0093507 0.0060233953 9.2353104e-21)
(1.0103152 0.0042022392 -9.2096939e-21)
(1.0095463 0.0017077898 -4.1844127e-21)
(1.0114209 -0.00038013208 -4.5024984e-21)
(1.0157354 -0.0021737742 5.7213337e-21)
(1.0199583 -0.0034715805 5.0286455e-22)
(1.022635 -0.0047580603 4.8970136e-22)
(1.0243433 -0.0060694079 -1.7967692e-21)
(1.0259679 -0.0069861031 1.4124177e-21)
(1.0275872 -0.0074458441 -1.6774582e-21)
(1.0290859 -0.0074451478 0)
(1.0303722 -0.0070253485 -3.6150116e-22)
(1.0313474 -0.0062559513 1.7160083e-22)
(1.0319564 -0.0052335184 7.7740284e-22)
(1.0321646 -0.0040653783 1.1253567e-22)
(1.0319818 -0.0028656506 6.8279114e-23)
(1.0314486 -0.001730833 4.1117443e-22)
(1.030627 -0.00075015087 0)
(1.0296206 2.5538115e-05 5.3479302e-22)
(1.0284948 0.00055861494 4.7774587e-22)
(1.0274026 0.00082774333 3.6394894e-22)
(1.0263591 0.0008851844 -2.6792111e-22)
(1.0255853 0.00062816878 1.4596863e-23)
(1.0249492 0.00032750286 9.1521823e-22)
(0.75304785 0.0013954538 7.9380175e-22)
(0.77661063 0.0023125696 -1.9360492e-22)
(0.79693722 0.0013877842 9.8181127e-21)
(0.81976567 0.0023922689 3.5369883e-22)
(0.84262476 0.0038223307 -4.8818609e-20)
(0.86600835 0.0046243034 -5.1919989e-20)
(0.88910325 0.0049948626 -1.7841221e-22)
(0.91145067 0.0050342397 3.5234074e-20)
(0.93245988 0.0048547366 1.9399591e-22)
(0.95338443 0.0049661153 2.6880087e-20)
(0.97295086 0.0052471577 -3.8474098e-23)
(0.98969271 0.0056294962 -1.2270203e-20)
(1.0024561 0.0059150265 -1.4358381e-21)
(1.0087452 0.0049609432 -9.6549142e-21)
(1.0085973 0.0026304606 3.2157222e-20)
(1.008232 -0.00017754852 4.6088031e-22)
(1.0112753 -0.0023641931 -3.6728659e-21)
(1.0163969 -0.0040059303 -1.9579605e-21)
(1.0207304 -0.005180243 1.9571129e-22)
(1.0231709 -0.0065132398 -2.9507786e-22)
(1.0250214 -0.0076525545 5.5427801e-22)
(1.0268474 -0.0083235435 -1.9284114e-21)
(1.0285877 -0.008505209 1.7457569e-21)
(1.0301465 -0.0082205265 0)
(1.0314173 -0.007528546 7.0594783e-22)
(1.0323278 -0.0065143396 1.5855359e-21)
(1.0328218 -0.0052895323 -7.7024588e-22)
(1.0328912 -0.003964117 1.4421301e-21)
(1.0325521 -0.00265946 2.1558895e-23)
(1.0318666 -0.001462957 -4.7863554e-22)
(1.0309025 -0.00046320982 -6.1503849e-22)
(1.0297743 0.00030324251 -3.8985258e-24)
(1.0285492 0.00080283386 -3.6798197e-23)
(1.027381 0.0010286533 4.5607744e-22)
(1.0262825 0.0010286546 -1.1857635e-22)
(1.0254721 0.00072096463 -3.5355887e-23)
(1.0248166 0.00035193565 3.5999329e-22)
(0.73935062 0.00030705028 -2.2188654e-22)
(0.76140054 0.0013515907 -1.7183257e-21)
(0.78006802 0.00062274274 1.2582582e-20)
(0.80155208 0.0016852229 6.8600745e-21)
(0.8235999 0.0027530116 -3.840985e-22)
(0.84632986 0.003909745 3.2602787e-22)
(0.86984943 0.0042083396 2.8473047e-20)
(0.89305639 0.0041068605 -1.3401209e-20)
(0.91562039 0.004008617 0)
(0.93661902 0.0039331834 -6.1156471e-21)
(0.95733137 0.0042477683 0)
(0.97620581 0.0047980042 0)
(0.99188598 0.0052803284 -1.2986553e-20)
(1.0030675 0.0052264104 1.5572851e-21)
(1.0074198 0.0035329718 6.8817109e-21)
(1.0067589 0.00065160734 9.0730474e-21)
(1.0072307 -0.0023544227 -1.0740623e-20)
(1.0116163 -0.0044928781 -3.5048946e-21)
(1.0174664 -0.0058443527 -1.4012832e-21)
(1.0215384 -0.0069991731 4.1452892e-23)
(1.0238812 -0.0082871126 -1.017593e-21)
(1.0259262 -0.0091887564 1.1480214e-21)
(1.0279105 -0.0095733332 1.7457652e-22)
(1.0297418 -0.009455447 -8.9082914e-22)
(1.0313131 -0.0088739391 -9.4213071e-23)
(1.0325395 -0.0079070636 3.7847777e-22)
(1.0333466 -0.0066564729 -6.2131217e-23)
(1.0337044 -0.005239796 -9.0574415e-22)
(1.033611 -0.0037763326 -7.2891443e-23)
(1.0331057 -0.002381974 -1.4782447e-21)
(1.0322585 -0.0011444 -2.8647171e-22)
(1.0311514 -0.00013932058 -1.1066387e-22)
(1.029902 0.00060425302 -6.4302632e-22)
(1.0285811 0.0010608313 1.7163468e-22)
(1.0273406 0.0012368297 -9.4843405e-22)
(1.0261913 0.0011753553 -2.0727646e-22)
(1.025347 0.0008147853 -3.1783811e-22)
(1.0246753 0.00037674515 0)
(0.72932945 -0.00077516175 -1.2051898e-21)
(0.74829284 0.00028241586 -1.8562078e-22)
(0.76468557 -5.4064745e-05 3.1602911e-21)
(0.78447381 0.001042338 5.5794194e-21)
(0.80518062 0.0019023976 2.4577061e-20)
(0.82706053 0.0031006782 2.0826349e-20)
(0.84985313 0.0035096484 -6.5823529e-23)
(0.8737586 0.0033029558 -8.5491077e-20)