/*--------------------------------*- C++ -*----------------------------------*\
| =========                 |                                                 |
| \\      /  F ield         | OpenFOAM: The Open Source CFD Toolbox           |
|  \\    /   O peration     | Version:  5.0                                   |
|   \\  /    A nd           | Web:      www.OpenFOAM.org                      |
|    \\/     M anipulation  |                                                 |
\*---------------------------------------------------------------------------*/
FoamFile
{
    version     2.0;
    format      ascii;
    class       volSymmTensorField;
    location    "400";
    object      UPrime2Mean;
}
// * * * * * * * * * * * * * * * * * * * * * * * * * * * * * * * * * * * * * //

dimensions      [0 2 -2 0 0 0 0];

internalField   nonuniform List<symmTensor> 
9200
(
(0.0003825389 1.4556881e-05 -4.1655263e-26 1.1896773e-06 -3.1877115e-27 2.7475208e-47)
(0.00039131647 4.7584446e-05 1.3328966e-23 1.3431376e-05 1.6666654e-24 5.531963e-43)
(0.00030458771 1.2447098e-05 0 1.1519529e-06 0 0)
(0.00040490604 7.6338125e-05 -7.260246e-24 3.4702548e-05 -1.4411953e-24 1.5878974e-43)
(0.0003111032 4.0819726e-05 1.0313324e-23 1.3229105e-05 1.5360926e-24 4.1223685e-43)
(0.00026907618 1.1495366e-05 0 1.099102e-06 0 0)
(0.0004273811 0.00010742862 -7.2612043e-25 6.9742866e-05 -1.9048873e-25 1.477506e-45)
(0.00032191435 6.4864676e-05 8.5227967e-26 3.3967184e-05 -6.3939975e-26 1.493364e-45)
(0.00027522681 3.7365256e-05 0 1.2623828e-05 0 0)
(0.00022799134 9.9054246e-06 0 1.030433e-06 0 0)
(0.00045673516 0.00013724368 1.6409664e-23 0.00011654256 5.7277932e-24 7.2497278e-43)
(0.00033980717 8.9861476e-05 1.0424139e-23 6.7994679e-05 4.0047656e-24 4.4789174e-43)
(0.00028452393 5.90777e-05 5.467465e-24 3.2257987e-05 1.5843629e-24 1.3197523e-43)
(0.00023311986 3.2264671e-05 2.9063512e-25 1.1975297e-05 5.9688553e-26 4.7191089e-46)
(0.00019687452 8.7581473e-06 1.6623559e-27 9.7184012e-07 3.074455e-28 2.374355e-49)
(0.0004956932 0.00016844774 1.5942049e-23 0.00018145182 6.2955249e-24 6.1529565e-43)
(0.00036372591 0.00011246519 -3.3523998e-25 0.00011271756 2.2090197e-25 4.5905875e-45)
(0.00029997917 8.1302459e-05 1.8605773e-23 6.425186e-05 7.6248311e-24 1.4890981e-42)
(0.00024166046 5.0751187e-05 6.4636763e-24 3.0429788e-05 2.3499026e-24 2.5430789e-43)
(0.00020197726 2.8363757e-05 1.0494936e-25 1.1292696e-05 8.3056696e-26 1.7765126e-45)
(0.00016947599 7.5904954e-06 -9.637156e-24 9.1091707e-07 -7.4058335e-25 8.2734152e-43)
(0.00054442138 0.00019900256 2.0604463e-23 0.00026675204 1.1501143e-23 1.0967288e-42)
(0.00039618689 0.00013443927 1.5538696e-23 0.00017385708 6.9336343e-24 7.1895402e-43)
(0.0003206969 0.00010074091 -1.1409938e-23 0.00010571088 -5.6692835e-24 5.1964231e-43)
(0.00025622709 6.928764e-05 -6.8543236e-25 6.0350175e-05 -3.8825524e-25 3.3065919e-45)
(0.00021010374 4.4402799e-05 5.252609e-24 2.8503179e-05 1.894073e-24 1.8611124e-43)
(0.00017423669 2.4546733e-05 4.5945041e-24 1.0654472e-05 1.2455935e-24 1.9171288e-43)
(0.00014711675 6.5972176e-06 6.5811675e-25 8.5608754e-07 6.7399623e-26 6.0025344e-45)
(0.00060557784 0.00022827888 1.5570862e-23 0.00037982638 1.4215927e-23 1.0121212e-42)
(0.00043918179 0.00015378157 1.3696262e-23 0.00025295786 8.8982374e-24 5.8966103e-43)
(0.00034902866 0.00011877718 1.3882776e-23 0.00016154381 9.1824715e-24 7.9641954e-43)
(0.00027623744 8.4971152e-05 3.9002563e-25 9.8639751e-05 9.9472703e-25 2.1100758e-44)
(0.00022391488 6.0279542e-05 -1.3211617e-23 5.6270121e-05 -7.1255852e-24 1.2136518e-42)
(0.00018203056 3.8356159e-05 -5.0326036e-24 2.6779346e-05 -2.2608618e-24 2.3868494e-43)
(0.00015181566 2.1279661e-05 -5.0378671e-24 1.0048607e-05 -1.3617814e-24 2.86545e-43)
(0.00012807085 5.6780754e-06 7.06012e-24 8.0764567e-07 6.7941354e-25 7.6587361e-43)
(0.00068176766 0.00025431612 -2.9891666e-23 0.00052782395 -2.2130552e-23 1.949944e-42)
(0.00049703794 0.00016999097 1.4679681e-23 0.00035669914 5.2522614e-24 5.0448322e-43)
(0.00038683631 0.00013336568 3.7532656e-25 0.000232287 2.1118935e-24 3.446709e-44)
(0.00030433702 9.9023304e-05 5.7489261e-24 0.00014975128 3.7136199e-24 1.5148294e-43)
(0.00024298034 7.342077e-05 2.8108314e-25 9.1367901e-05 1.8678749e-24 8.9054586e-44)
(0.00019543106 5.1943739e-05 -1.7562908e-23 5.2748734e-05 -1.0133571e-23 2.6270964e-42)
(0.00015942755 3.324995e-05 2.6231971e-24 2.5139826e-05 3.3501688e-25 1.6358681e-43)
(0.00013260089 1.8273778e-05 -7.5345309e-24 9.5442266e-06 -2.3554975e-24 8.5838984e-43)
(0.00011265617 4.8657777e-06 -1.3046359e-23 7.6403456e-07 -1.447028e-24 3.5942105e-42)
(0.00077529009 0.00027278671 2.5431642e-23 0.00071879257 2.6901226e-23 1.7129926e-42)
(0.00057514106 0.00018094127 -7.9891916e-24 0.00049121481 8.0242866e-24 5.1622305e-43)
(0.00043802401 0.00014401084 -4.810271e-25 0.0003229522 -1.2983473e-24 6.8226043e-45)
(0.00034267653 0.00010984532 3.108449e-25 0.00021393855 -6.137162e-24 3.446619e-43)
(0.00026991281 8.4919768e-05 -1.7982229e-24 0.00013781558 -1.8331462e-24 2.8943735e-44)
(0.00021416067 6.3161457e-05 -1.6330312e-25 8.5242653e-05 2.5532764e-24 2.074581e-43)
(0.00017244853 4.501213e-05 5.393214e-24 4.9422335e-05 3.5013234e-24 3.2072482e-43)
(0.00013997433 2.8595197e-05 8.0853676e-24 2.380078e-05 4.1803245e-24 9.7088882e-43)
(0.00011706219 1.5608922e-05 3.7739163e-24 9.0930365e-06 1.5230031e-24 3.0573539e-43)
(9.9749549e-05 4.1072683e-06 8.110738e-25 7.2658245e-07 1.1615519e-25 2.1099427e-44)
(0.00088830706 0.00027957654 -1.285245e-23 0.00096227987 -1.251774e-23 3.2702907e-43)
(0.00068006849 0.00018291879 -2.4323863e-24 0.0006650629 1.7190595e-23 6.5521252e-43)
(0.00050792021 0.0001490754 1.258318e-23 0.00043793567 4.8244069e-24 3.6175874e-43)
(0.00039558658 0.0001172438 -9.1015143e-24 0.00029582552 -9.6845628e-24 4.2151136e-43)
(0.0003069004 9.3443382e-05 1.0694073e-23 0.00019547511 1.7088669e-24 6.1631258e-43)
(0.00024077176 7.3008461e-05 -1.9081187e-23 0.00012801277 -1.2391055e-23 2.352601e-42)
(0.00019062706 5.4793551e-05 -1.8624134e-25 7.9565788e-05 6.7738948e-25 1.8933517e-44)
(0.00015256207 3.8750078e-05 1.3477252e-23 4.6785466e-05 8.5650793e-24 2.4574725e-42)
(0.00012418709 2.4501391e-05 -5.6938726e-24 2.2611274e-05 -3.1592306e-24 6.4385811e-43)
(0.00010400213 1.3098104e-05 9.9432847e-24 8.7312156e-06 4.521101e-24 2.9786477e-42)
(8.9561649e-05 3.4237672e-06 -1.3438511e-24 6.9189508e-07 -2.0358875e-25 8.3486544e-44)
(0.0010267785 0.00029105272 4.1802271e-24 0.0012806865 -2.4102076e-24 6.2867734e-44)
(0.00081624761 0.00017083983 1.3028257e-23 0.0008898027 -3.7126562e-23 2.5295905e-42)
(0.00060354296 0.00014655942 -1.0101359e-23 0.00058534375 -1.7258566e-23 6.1668606e-43)
(0.00046894748 0.00012007914 0 0.00039955335 0 0)
(0.00035807228 9.8985073e-05 1.4529968e-26 0.00026851433 6.029912e-25 1.8914548e-45)
(0.00027742071 8.0536292e-05 1.6793889e-24 0.00018074769 -4.9780992e-24 3.1709675e-43)
(0.00021635116 6.3512227e-05 -3.545836e-24 0.00011914089 -2.4806571e-24 1.0088939e-43)
(0.000170144 4.7361293e-05 -7.121262e-24 7.5164446e-05 -5.2198793e-24 6.1388913e-43)
(0.00013628271 3.3270748e-05 4.1649887e-25 4.4463195e-05 -1.1255952e-24 1.3601666e-43)
(0.00011083352 2.0639647e-05 -6.0784721e-24 2.1668034e-05 -4.0948048e-24 1.0590888e-42)
(9.3673647e-05 1.0806055e-05 -3.3883335e-24 8.402249e-06 -1.8253083e-24 5.2240046e-43)
(8.1380442e-05 2.7774903e-06 5.8018529e-25 6.6062865e-07 1.2106292e-25 2.6580257e-44)
(0.0011699956 0.00030929689 2.5756654e-24 0.0016839384 8.305785e-25 9.0220964e-45)
(0.00099041628 0.00014787837 -2.2195349e-23 0.0011857597 1.461599e-23 1.0091438e-42)
(0.0007304792 0.00013139415 0 0.00077463791 0 0)
(0.00057099983 0.00011723777 0 0.00053254207 0 0)
(0.00042878649 0.00010078315 -6.5994276e-24 0.00036069656 -4.8982291e-25 1.3965122e-43)
(0.00032805104 8.5992401e-05 9.5600009e-24 0.00024734449 -6.2824699e-24 9.9047329e-43)
(0.00025158872 7.0461248e-05 -1.0214835e-23 0.00016770486 -2.4618967e-24 7.4891972e-43)
(0.00019501112 5.5256003e-05 8.3165042e-24 0.00011235372 7.5167589e-24 7.6130653e-43)
(0.00015308528 4.0888639e-05 5.2185069e-25 7.1345449e-05 6.5988217e-25 6.640749e-45)
(0.00012238609 2.8058403e-05 -5.0550438e-27 4.2669534e-05 1.1082706e-26 1.6223652e-47)
(0.00010020131 1.7112796e-05 6.2178967e-24 2.0820066e-05 4.8194837e-24 1.6625162e-42)
(8.5360994e-05 8.5973501e-06 -5.4019608e-24 8.1235562e-06 -3.4854172e-24 2.2389742e-42)
(7.5251913e-05 2.1922472e-06 7.5785479e-24 6.3008377e-07 1.9852797e-24 8.2661434e-42)
(0.0012193231 0.00025181256 -4.2012483e-23 0.0021158785 -5.0390876e-24 2.6723226e-42)
(0.0012064621 0.0001325131 5.6158093e-24 0.0015820441 -1.7058733e-24 3.9285629e-44)
(0.00089112608 0.00010069251 -3.1418161e-23 0.0010202946 5.4141763e-24 1.5178539e-42)
(0.00070898873 0.00010501922 2.1097287e-23 0.00070457956 -4.4915646e-24 9.0436573e-43)
(0.00052694558 9.8488506e-05 -1.2469221e-23 0.00047924962 2.2298714e-24 4.407042e-43)
(0.00039770359 8.8930156e-05 4.2043849e-24 0.00033142061 -3.3322144e-24 1.4202728e-43)
(0.00030006937 7.5923374e-05 2.8849516e-24 0.00022893611 2.9074973e-24 5.5565354e-44)
(0.0002289214 6.198831e-05 -1.8665356e-25 0.00015784033 1.9481766e-25 1.1235468e-45)
(0.00017668594 4.8043419e-05 6.11686e-24 0.00010658112 8.650273e-24 7.8037535e-43)
(0.00013834586 3.4676638e-05 4.4238094e-24 6.8467344e-05 6.5821635e-24 6.7886212e-43)
(0.00011118559 2.3264235e-05 1.7045784e-24 4.1073235e-05 1.8366231e-24 1.1408013e-43)
(9.158995e-05 1.3687078e-05 3.5516349e-24 2.0111246e-05 3.8250185e-24 9.2033405e-43)
(7.9131834e-05 6.5579441e-06 1.7565501e-24 7.8491282e-06 1.6885749e-24 4.4732201e-43)
(7.0748354e-05 1.6438333e-06 -1.3832291e-24 6.0036513e-07 -5.4826541e-25 6.6040543e-43)
(0.0011407366 6.2454803e-05 3.6088866e-23 0.002521715 -1.2741002e-22 1.04563e-41)
(0.0014070967 0.00010569963 2.3886948e-22 0.0020903635 -6.5768824e-23 5.7767105e-41)
(0.0010935577 6.7030038e-05 4.9379903e-24 0.0013435002 -1.790366e-23 3.042075e-43)
(0.000885125 7.7664382e-05 -4.0108239e-24 0.0009293459 2.5624333e-24 3.3195323e-44)
(0.00066167119 9.0229236e-05 1.9304049e-24 0.00063408967 -1.6381185e-24 1.3732914e-44)
(0.00049388534 8.9239816e-05 -8.4398587e-24 0.00043988934 5.9108445e-24 3.4555544e-43)
(0.00036636283 7.9680277e-05 3.2370197e-24 0.00030622099 3.4050544e-24 5.8384034e-44)
(0.00027518301 6.7884193e-05 -3.2682712e-24 0.00021512195 -3.7717938e-24 9.1933508e-44)
(0.00020862741 5.4464133e-05 1.1486608e-24 0.00014959214 -9.7617155e-25 4.043669e-44)
(0.00016067928 4.1061235e-05 -3.6115084e-25 0.00010230036 -9.351863e-25 9.1097771e-45)
(0.00012623828 2.8902148e-05 -1.1084032e-25 6.5949561e-05 -1.3816078e-25 4.1577171e-46)
(0.00010203081 1.8529516e-05 7.4213231e-26 3.977149e-05 -5.4888029e-25 2.5603808e-44)
(8.5092508e-05 1.0508671e-05 -3.7560221e-24 1.9421151e-05 -5.1977955e-24 1.889472e-42)
(7.4568151e-05 4.5995568e-06 1.2416681e-24 7.5862379e-06 1.7218739e-24 5.3206772e-43)
(6.7781281e-05 1.1535982e-06 -5.6111441e-25 5.6999567e-07 -4.2089845e-25 4.244721e-43)
(0.0010440237 -0.00021018941 5.0787578e-23 0.0028805653 3.7589738e-23 9.7303788e-42)
(0.0014588448 -7.4573719e-06 -1.6137275e-22 0.0026432993 -1.2094324e-23 2.4734687e-41)
(0.0013307021 5.2791992e-05 7.956043e-23 0.0017843059 -1.8036985e-23 6.2531396e-42)
(0.001098941 3.9227392e-05 -5.618133e-23 0.0012264048 2.8599264e-24 3.5679711e-42)
(0.00083706879 6.9629774e-05 3.2547478e-23 0.00083876714 -1.8889798e-24 1.5703104e-42)
(0.00062612215 8.6005905e-05 -2.7716356e-23 0.00058273382 -1.1722928e-23 1.5837657e-42)
(0.00045728303 8.1662148e-05 2.5805209e-23 0.00040614027 -1.3569553e-24 2.0012956e-42)
(0.00033798185 7.2826638e-05 -9.9482624e-25 0.0002873289 6.0043627e-25 7.8614559e-45)
(0.00025203201 6.0502808e-05 -2.6366151e-24 0.00020364562 -2.3364518e-24 5.6000845e-44)
(0.00019070711 4.7128613e-05 2.9871682e-24 0.00014353502 -2.1756525e-24 2.8950249e-43)
(0.00014715662 3.4434557e-05 -1.3579031e-23 9.8627538e-05 -1.828727e-23 5.056561e-42)
(0.00011621868 2.3079227e-05 3.734459e-24 6.3957596e-05 4.0855732e-24 6.9294984e-43)
(9.5043114e-05 1.4083255e-05 1.327584e-24 3.8506329e-05 2.3587867e-24 2.0560032e-43)
(8.0317104e-05 7.4232758e-06 2.6668418e-25 1.8768418e-05 7.4780117e-25 3.2196946e-44)
(7.1586238e-05 2.8096361e-06 -3.7848205e-26 7.3059073e-06 5.9002782e-26 4.2983679e-45)
(6.6067984e-05 7.0890494e-07 3.2002087e-26 5.3898213e-07 4.6468369e-25 5.470435e-43)
(0.0010432093 -0.00050164621 0 0.0031887812 0 0)
(0.0014384916 -0.00021093667 -2.3211339e-22 0.0032053271 4.2845099e-23 5.627441e-41)
(0.0014605606 3.3778086e-06 -2.4713117e-24 0.0023199602 5.6773231e-23 1.6336153e-42)
(0.0013475206 1.8134136e-05 0 0.0016356609 0 0)
(0.0010483849 3.1969087e-05 0 0.0011126706 0 0)
(0.00080146737 7.3725475e-05 0 0.00077415791 0 0)
(0.00058257073 8.1770791e-05 -3.4362723e-24 0.0005384093 2.4070184e-24 4.1870419e-44)
(0.00042350627 7.6737198e-05 9.8200162e-24 0.00038061852 8.7851189e-24 4.1012844e-43)
(0.00031067537 6.6122403e-05 -1.1660383e-23 0.00027162399 5.989408e-24 1.1419083e-42)
(0.00023116386 5.3180941e-05 6.2901484e-24 0.00019526773 7.3184611e-24 4.5231189e-43)
(0.00017505545 3.9892719e-05 -9.2458664e-25 0.0001384439 6.2121969e-25 3.2219197e-44)
(0.00013581088 2.7579674e-05 2.2763193e-24 9.5803924e-05 4.1216076e-24 2.3772831e-43)
(0.00010842836 1.7517836e-05 -2.7950336e-25 6.20453e-05 -1.8270313e-25 7.4297302e-45)
(8.988284e-05 9.6874296e-06 -9.6619981e-25 3.7323035e-05 -2.7575841e-24 2.7099563e-43)
(7.7185824e-05 4.5900506e-06 -4.4928032e-26 1.8075471e-05 -4.9247327e-25 1.4224993e-44)
(6.9917758e-05 1.1410707e-06 5.6909627e-27 7.0112748e-06 -8.5738003e-25 1.3918928e-43)
(6.5459726e-05 3.2369128e-07 0 5.0689111e-07 0 0)
(0.0012565776 -0.00074617787 3.9349038e-23 0.0034721922 -8.23958e-23 1.7158858e-41)
(0.0014158861 -0.00047464397 3.1024847e-22 0.0037571278 1.785904e-23 1.2809203e-40)
(0.0014781456 -0.00013642542 -4.361631e-22 0.0028928239 4.4019002e-23 1.7826783e-40)
(0.0015322874 -1.8402784e-06 -1.9775276e-22 0.0021756087 4.5318139e-23 3.2544538e-41)
(0.0012978185 7.7549135e-07 -1.2885817e-22 0.0014923506 1.3058224e-23 1.5347897e-41)
(0.0010140808 4.0773908e-05 0 0.0010322279 0 0)
(0.00075228241 7.6369705e-05 -5.2356689e-23 0.00071755045 1.2616742e-23 4.6873056e-42)
(0.00054111229 7.9662721e-05 1.0308387e-23 0.00050407976 -5.6050475e-24 3.550866e-43)
(0.00039013994 7.1223929e-05 3.0002065e-23 0.00035925276 6.025299e-24 3.1773946e-42)
(0.00028547617 5.9237222e-05 -1.3138434e-23 0.00026008551 5.8255172e-24 1.6298032e-42)
(0.00021246524 4.5595173e-05 -3.1299607e-24 0.00018829605 -4.5356299e-24 1.6173541e-43)
(0.00016175052 3.221591e-05 -9.6639662e-25 0.00013461719 6.604276e-25 4.4123722e-44)
(0.00012677073 2.0883057e-05 4.5319234e-24 9.3132849e-05 8.283827e-24 1.3210738e-42)
(0.00010260871 1.1896741e-05 -3.4493884e-24 6.0293778e-05 -1.1561512e-23 2.8919378e-42)
(8.6476523e-05 5.6033201e-06 -8.216762e-26 3.6052003e-05 -2.1522093e-24 1.3613782e-43)
(7.546156e-05 1.9186071e-06 3.3739648e-26 1.7350953e-05 -9.4165727e-24 6.9704711e-42)
(6.9405301e-05 -3.410434e-07 8.2834886e-25 6.6900956e-06 -2.2928059e-24 1.0092232e-42)
(6.5730829e-05 -6.6439275e-09 1.3455496e-24 4.7388541e-07 -5.618236e-25 9.4158369e-43)
(0.0018069286 -0.00087129828 -1.1942196e-24 0.0037423741 2.2292824e-24 1.2523948e-43)
(0.001503433 -0.00076567812 1.5955905e-22 0.0042859339 -5.7149392e-23 4.131774e-41)
(0.001465465 -0.00033824309 4.8541616e-23 0.0035005956 4.9802434e-23 3.9484322e-42)
(0.0015947841 -0.00010147912 -2.3472694e-22 0.0027803938 -9.0908219e-25 4.5382337e-41)
(0.0015164902 -1.2200584e-05 2.3885402e-23 0.0020191529 -2.7426214e-24 4.591813e-43)
(0.0012607777 -3.4347758e-06 -1.4239567e-23 0.0013885555 -4.3400944e-23 1.8493267e-42)
(0.00096414952 5.1663993e-05 1.0359054e-22 0.00096113644 -5.9132887e-23 1.7401634e-41)
(0.00070305607 7.9765535e-05 9.4914273e-23 0.00067208044 -2.0415495e-23 1.6304455e-41)
(0.00049914231 7.5913307e-05 2.0073578e-23 0.00047495395 -4.7687368e-24 1.1761191e-42)
(0.0003587833 6.5264569e-05 -7.126034e-24 0.00034325664 -1.1946802e-23 5.2989428e-43)
(0.00026246126 5.1613707e-05 2.6418136e-24 0.00025052046 -1.0477041e-24 7.8361047e-44)
(0.00019625275 3.7255899e-05 -7.1395442e-24 0.00018315315 -1.0951949e-23 1.0840851e-42)
(0.00015083034 2.4456934e-05 3.5373526e-24 0.00013108002 3.4076605e-24 4.5794268e-43)
(0.00011991018 1.3940025e-05 -1.4655027e-25 9.0744226e-05 6.9797378e-25 1.1321669e-44)
(9.8691401e-05 6.5886835e-06 -1.2154234e-25 5.8401511e-05 1.0082147e-24 2.4926845e-44)
(8.4638522e-05 1.6820757e-06 4.8869079e-27 3.4716408e-05 2.1431142e-24 1.8200541e-43)
(7.4968403e-05 -4.6155277e-07 7.3371431e-25 1.6559868e-05 -3.1465883e-24 8.2181769e-43)
(6.9828414e-05 -1.6527149e-06 -3.7094401e-26 6.3452527e-06 7.725496e-26 3.2039645e-45)
(6.6724034e-05 -2.7630642e-07 1.8310114e-24 4.4018481e-07 -5.0711323e-25 8.6308225e-43)
(0.0027252991 -0.00089813451 -2.4371221e-23 0.0040586292 2.3630741e-23 5.4235416e-42)
(0.0018993452 -0.00098176188 -1.6704348e-22 0.0048248458 4.0743106e-23 5.040873e-41)
(0.0015146302 -0.00058315474 7.4653578e-22 0.0041183352 3.5503622e-23 7.8421474e-40)
(0.0016122353 -0.00026444987 1.2579293e-22 0.0034415928 -4.9420952e-23 1.4365373e-41)
(0.0016280513 -7.8833722e-05 -6.6761909e-23 0.0026504549 -4.9014293e-23 4.7846457e-42)
(0.001500957 -2.8344933e-05 -6.5008038e-24 0.0018980768 -3.1626271e-23 6.7665929e-43)
(0.0012085297 -4.2180648e-07 -2.5675655e-23 0.0012958535 4.4005479e-24 6.4022512e-43)
(0.00091323609 6.5027562e-05 -3.8286349e-23 0.00090293664 -2.2546099e-23 2.3457483e-42)
(0.00065056348 7.9577289e-05 1.2942204e-23 0.00063229427 -2.5511586e-24 3.3181995e-43)
(0.00045906377 7.1265728e-05 4.7089165e-23 0.00045243208 3.1507328e-24 6.47198e-42)
(0.00032975005 5.7958993e-05 -1.5775064e-23 0.00032995787 -1.885335e-23 1.9085216e-42)
(0.00024207928 4.282323e-05 -3.0572555e-25 0.00024350328 3.4879421e-24 6.6156988e-44)
(0.00018263198 2.8478778e-05 1.790565e-24 0.00017851215 5.5303219e-24 1.9894794e-43)
(0.00014237725 1.6192909e-05 -5.5143732e-26 0.00012801002 -4.0576745e-25 1.3691591e-45)
(0.00011516037 7.250598e-06 -3.1239257e-25 8.8151663e-05 5.4534614e-25 1.9639951e-44)
(9.6561551e-05 1.3865148e-06 2.2546792e-25 5.641269e-05 9.3582928e-24 2.2219939e-42)
(8.4156161e-05 -1.8425622e-06 1.3439393e-25 3.3233834e-05 -1.7209903e-24 2.0134118e-43)
(7.5510988e-05 -2.5895226e-06 -2.4342794e-24 1.5710396e-05 5.1679962e-24 2.2638221e-42)
(7.102097e-05 -2.7599575e-06 -8.5527999e-25 5.9760588e-06 8.2405762e-25 1.4803165e-43)
(6.8252193e-05 -4.8743899e-07 -2.4798249e-24 4.0604171e-07 5.0661352e-25 9.5511012e-43)
(0.0037537391 -0.00091341224 1.2009824e-24 0.0044057954 4.1323074e-23 7.0259713e-43)
(0.002769092 -0.0010832699 -3.3397469e-22 0.0054445564 1.3199308e-22 1.2751555e-40)
(0.001812568 -0.0008025745 -9.5413377e-23 0.0047561067 2.3712836e-22 1.9991283e-41)
(0.0016467262 -0.00048173838 -2.0827639e-22 0.0041506013 -8.2796151e-24 4.7282444e-41)
(0.0016858292 -0.00021333106 4.3002685e-23 0.0033601354 -1.0219837e-22 4.8421225e-42)
(0.001654492 -8.2251127e-05 1.341087e-22 0.002547727 9.8324509e-24 1.3782169e-41)
(0.0014681399 -4.7060718e-05 -2.8187131e-22 0.0017797414 3.0496018e-23 6.3758694e-41)
(0.0011598341 1.3503724e-05 -3.4110842e-22 0.0012178789 5.3901988e-23 1.1627777e-40)
(0.00085470433 7.405532e-05 1.7294517e-23 0.0008506901 4.101702e-23 2.5956702e-42)
(0.00059883737 7.7158734e-05 0 0.0006001404 0 0)
(0.00042153888 6.4602697e-05 1.3695771e-23 0.00043358769 1.589202e-23 1.0527832e-42)
(0.00030355489 4.8984893e-05 -1.0416453e-23 0.00032010255 3.0120961e-24 8.9829908e-43)
(0.0002246291 3.3132999e-05 -9.7639145e-24 0.00023732142 -1.2002412e-23 1.5758739e-42)
(0.00017181884 1.8869056e-05 5.620783e-24 0.00017461231 5.8972545e-24 1.1140855e-42)
(0.00013630413 8.0305658e-06 -6.7606648e-25 0.00012468849 -5.2848157e-24 2.68861e-43)
(0.00011249705 5.4742327e-07 3.7011437e-25 8.5429416e-05 9.4348208e-24 1.4611317e-42)
(9.5970874e-05 -3.3525408e-06 -3.8399331e-25 5.4169949e-05 8.1247097e-25 3.5462445e-44)
(8.4892772e-05 -5.0515e-06 8.0582429e-25 3.1622992e-05 -2.513983e-24 3.1772539e-43)
(7.6899415e-05 -4.3890668e-06 -2.0807635e-24 1.479845e-05 3.0456497e-24 9.0642772e-43)
(7.2789133e-05 -3.665803e-06 -2.3659505e-25 5.5873279e-06 1.6149608e-25 5.2454507e-45)
(7.0166787e-05 -6.3958414e-07 -2.7963279e-24 3.719546e-07 4.51897e-25 8.6724778e-43)
(0.0047449219 -0.00097015186 1.9186011e-22 0.0047700727 9.8336641e-23 2.5404185e-41)
(0.0039294631 -0.0011823343 -4.3630096e-22 0.0061856838 1.0254683e-22 1.0303859e-40)
(0.0025836289 -0.00094728746 -3.6808699e-22 0.0054728866 -4.9697313e-23 1.6213459e-40)
(0.0018660129 -0.00068225974 3.3766444e-22 0.0049090664 1.5565565e-22 1.6476807e-40)
(0.001748932 -0.00040816609 2.8859221e-22 0.004152547 -9.8099515e-24 7.9300354e-41)
(0.0017551396 -0.00020172079 -1.9813946e-23 0.00329937 -7.1048666e-23 2.2827406e-42)
(0.0016645182 -0.00010083174 0 0.0024329533 0 0)
(0.0014367818 -5.6449558e-05 -5.7328543e-24 0.0016708033 -9.3554384e-23 6.3955688e-42)
(0.0011038383 3.287427e-05 7.8530178e-23 0.0011490683 -3.7618385e-23 7.9580691e-42)
(0.00079296563 7.8723424e-05 9.8885633e-23 0.00080598801 2.6317682e-23 1.4215542e-41)
(0.0005494022 7.1532729e-05 -1.6797682e-24 0.00057282479 1.3092212e-23 3.9276954e-43)
(0.00038724702 5.5731159e-05 -8.83561e-24 0.00041927384 5.2733849e-25 3.6005735e-43)
(0.00028073551 3.8540491e-05 1.5936457e-24 0.00031159788 -4.7139932e-25 2.7122845e-44)
(0.00021037788 2.2173006e-05 1.92785e-24 0.00023228622 5.8093504e-24 1.932727e-43)
(0.0001637545 9.087002e-06 -2.522967e-24 0.00017045359 -6.1008625e-24 5.1678858e-43)
(0.00013270601 -3.411872e-07 8.5652145e-25 0.00012122523 5.323784e-24 4.5643036e-43)
(0.00011163409 -5.6634659e-06 1.3111123e-25 8.2306769e-05 -1.2389388e-24 2.4929556e-44)
(9.6855591e-05 -7.7550967e-06 -1.7368649e-24 5.1705719e-05 6.1274292e-24 1.004134e-42)
(8.6591633e-05 -7.7843032e-06 -6.0683586e-25 2.9869717e-05 9.4201275e-25 3.509311e-44)
(7.8940415e-05 -5.8711521e-06 -1.2233819e-25 1.3836261e-05 1.1348593e-25 1.1910368e-45)
(7.4976279e-05 -4.3602572e-06 -1.6854502e-24 5.1843666e-06 9.9808791e-25 2.790297e-43)
(7.2320656e-05 -7.3553051e-07 0 3.3841782e-07 0 0)
(0.0056674156 -0.0010628431 1.0741807e-22 0.0051816458 1.178859e-22 9.473321e-42)
(0.0049634296 -0.0014277587 3.3253625e-22 0.0070185833 -4.3832899e-23 4.1527665e-41)
(0.0038028854 -0.0010435011 9.5023629e-24 0.0063670278 -5.4204526e-23 5.6020485e-43)
(0.0025280508 -0.00080393648 4.1672591e-22 0.00576454 -1.0110331e-23 1.7907655e-40)
(0.0019569949 -0.00061029357 2.2340694e-22 0.0050284347 -1.3187321e-22 5.1221695e-41)
(0.0018589491 -0.00038677566 -1.4606829e-22 0.0041608143 -2.3299548e-23 1.8908576e-41)
(0.0018089167 -0.0002116049 3.2720094e-24 0.0032195884 2.0508843e-22 1.5671507e-41)
(0.0016736129 -0.00012602455 -3.3976046e-22 0.0023119178 -2.6508755e-23 8.5473254e-41)
(0.0013894345 -5.3333304e-05 -6.0177706e-23 0.0015689253 -2.6731149e-23 3.6150163e-42)
(0.0010431315 5.3501454e-05 -1.46314e-23 0.0010911059 2.8149113e-24 2.4485002e-43)
(0.00073024966 7.7217602e-05 2.1090901e-24 0.00076619269 -7.7568789e-25 9.1107522e-45)
(0.0005036518 6.2997611e-05 3.0268532e-23 0.00055143601 -5.6316107e-24 2.9151097e-42)
(0.00035696011 4.4735134e-05 -1.412944e-24 0.00040709665 -2.1272873e-24 1.902613e-44)
(0.00026162743 2.6291999e-05 -6.432494e-24 0.00030481063 1.3186215e-23 1.4606127e-42)
(0.00019939555 1.0663182e-05 2.6464117e-24 0.00022705859 1.464294e-23 1.1600157e-42)
(0.00015864388 -1.1735142e-06 1.2813045e-24 0.00016618005 1.1861108e-23 1.2081806e-42)
(0.00013126485 -8.2594869e-06 3.8319933e-25 0.00011718905 -1.2090821e-24 1.8297385e-44)
(0.00011259204 -1.1554427e-05 3.027598e-24 7.8835385e-05 -1.3175181e-23 3.0662413e-42)
(9.8866954e-05 -1.1543477e-05 1.2986292e-25 4.8983188e-05 -4.025087e-25 8.6865805e-45)
(8.9091445e-05 -1.0074193e-05 -1.7949915e-24 2.7998545e-05 2.5891786e-24 3.3763421e-43)
(8.1460627e-05 -7.0068961e-06 0 1.2836544e-05 0 0)
(7.7424063e-05 -4.848454e-06 4.2681828e-24 4.7738659e-06 -2.1050783e-24 1.3953702e-42)
(7.4589759e-05 -7.7834922e-07 7.9465089e-26 3.0600079e-07 -7.5240173e-27 2.5619731e-46)
(0.0063911398 -0.0011667302 -5.8356769e-22 0.0056196613 -1.6711701e-22 1.3732445e-40)
(0.0058629734 -0.0018276917 1.1158582e-21 0.0079410475 1.7449625e-22 4.1804572e-40)
(0.0048735595 -0.0012448406 -7.9673655e-22 0.0074225546 -1.7532274e-22 2.4947856e-40)
(0.0037422573 -0.00085993434 -2.1492523e-22 0.0068231008 -2.0866676e-22 3.8169647e-41)
(0.0025666168 -0.00073845764 3.8689941e-22 0.0060290973 1.7381876e-22 1.6253705e-40)
(0.0020749314 -0.00059883558 0 0.0051402467 0 0)
(0.0019700764 -0.00038798622 -4.4748647e-24 0.0041385144 6.4896345e-23 1.1962001e-42)
(0.0018647591 -0.00023540729 -1.1875121e-22 0.0031241365 -1.1904806e-22 1.7101133e-41)
(0.0016723765 -0.00014970309 -2.3754269e-22 0.0021822024 1.1117675e-23 4.066535e-41)
(0.0013383543 -3.2349991e-05 -2.3671493e-22 0.0014813006 7.1302721e-23 5.1431012e-41)
(0.00097585691 6.6914863e-05 5.3336769e-23 0.001038516 3.0426346e-23 3.9958676e-42)
(0.00066970395 7.0535032e-05 3.5648192e-23 0.00073347913 6.7056834e-24 2.3600835e-42)
(0.00046282509 5.1656344e-05 -2.406775e-23 0.00053336156 -9.3424108e-24 2.0123091e-42)
(0.00033103756 3.1341693e-05 9.9524304e-24 0.00039743922 1.572881e-23 1.1820078e-42)
(0.00024645527 1.2994139e-05 -9.3041262e-24 0.00029804007 -2.0373395e-23 2.6802961e-42)
(0.0001919396 -1.6818366e-06 -2.9744726e-24 0.00022182735 -2.8421488e-23 4.7102402e-42)
(0.0001561681 -1.1107903e-05 2.0471936e-24 0.00016115068 2.8667454e-24 6.4799496e-43)
(0.00013209131 -1.593024e-05 1.1134084e-24 0.00011265622 -6.1592823e-24 4.7385044e-43)
(0.0001149275 -1.6700113e-05 -5.052867e-24 7.4935146e-05 1.4816806e-23 4.5159306e-42)
(0.00010192339 -1.4788014e-05 1.5131053e-24 4.6038524e-05 -3.0606435e-24 4.6535919e-43)
(9.2165701e-05 -1.1844203e-05 4.5556986e-24 2.6033729e-05 -5.3093124e-24 1.6253038e-42)
(8.4286302e-05 -7.804936e-06 -4.3370584e-24 1.1816136e-05 3.1895056e-24 1.3941516e-42)
(7.9999514e-05 -5.1358924e-06 2.9575089e-24 4.3630238e-06 -1.2667624e-24 6.2237895e-43)
(7.6866217e-05 -7.71246e-07 7.1147464e-26 2.7504905e-07 -5.5688785e-27 1.6797213e-46)
(0.0069827627 -0.0012898781 -1.4040667e-22 0.0060628553 -2.5741146e-22 2.4733344e-41)
(0.0067481877 -0.002165246 1.1042307e-21 0.0089241649 5.4460179e-23 3.4334807e-40)
(0.0057155346 -0.0015520078 1.865204e-22 0.0086094153 -3.4567472e-22 2.3517044e-41)
(0.0049478472 -0.00098227111 1.8208813e-21 0.008111847 3.7266325e-22 1.1867256e-39)
(0.0037770301 -0.00078898821 -3.0210593e-22 0.0072675153 -2.6360074e-22 6.9079186e-41)
(0.0026449269 -0.00074350466 4.6074835e-22 0.0062721406 2.0667764e-22 2.0781208e-40)
(0.0022258022 -0.00060736351 -1.0790836e-23 0.0052112089 8.103208e-23 1.464715e-42)
(0.0020871507 -0.00040668017 4.9471153e-22 0.004093605 8.7058319e-23 1.8582641e-40)
(0.0019190178 -0.00026526339 -5.0271143e-23 0.0030060528 -1.1035958e-22 7.2806459e-42)
(0.0016666027 -0.00015854714 -1.1927757e-22 0.0020545173 -1.239808e-23 1.047977e-41)
(0.0012796292 -2.1018095e-06 2.846466e-23 0.0014081578 5.6085415e-23 3.3486015e-42)
(0.00090447824 7.0945951e-05 -1.0526414e-22 0.00099191329 1.4012539e-24 1.4573107e-41)
(0.0006140405 5.9256964e-05 1.5435037e-23 0.00070566973 1.6338567e-23 8.3777446e-43)
(0.00042731969 3.7250901e-05 2.2299104e-24 0.00051891236 -3.7983576e-25 2.4355388e-44)
(0.00030988909 1.6244665e-05 -2.1089802e-24 0.00038822114 -2.002811e-23 1.1993816e-42)
(0.00023548789 -1.5974187e-06 -1.2409317e-24 0.00029149197 -2.4624753e-24 6.1186369e-44)
(0.00018774283 -1.3938733e-05 5.7277089e-25 0.00021568604 7.1899064e-25 2.6549039e-44)
(0.00015652184 -2.0929479e-05 1.511378e-24 0.00015546731 -1.1638797e-23 1.2413082e-42)
(0.00013466073 -2.276046e-05 0 0.00010746904 0 0)
(0.00011865011 -2.1206465e-05 7.98938e-25 7.0655119e-05 -1.4901547e-24 3.8177672e-44)
(0.00010567771 -1.7322966e-05 2.5182307e-25 4.2911969e-05 -3.3049815e-25 3.2169634e-45)
(9.5632179e-05 -1.3111776e-05 -4.9714038e-25 2.4008625e-05 4.6102419e-25 1.1744458e-44)
(8.7268152e-05 -8.2685892e-06 -2.5247361e-26 1.0793474e-05 -1.7017609e-26 3.7347159e-45)
(8.2584657e-05 -5.2347864e-06 -4.7724877e-24 3.9588118e-06 1.750068e-24 1.2781935e-42)
(7.9062179e-05 -7.182536e-07 -2.3039671e-24 2.4628803e-07 1.9258734e-25 3.1828327e-43)
(0.007504041 -0.0014257306 4.7543558e-22 0.0064919054 2.2380561e-22 9.9335297e-41)
(0.0075360787 -0.0024920259 -6.7772327e-22 0.0099499822 3.0082634e-23 1.1979801e-40)
(0.0064743269 -0.0018920107 -3.6043603e-22 0.0099043631 2.0054604e-23 3.5886489e-41)
(0.0058550975 -0.001265153 -2.5686838e-22 0.0095757868 -4.820697e-23 1.9638672e-41)
(0.0051511646 -0.00089280146 -1.4926636e-21 0.0088064445 -3.76804e-22 7.771277e-40)
(0.003835643 -0.00079410532 -1.1337236e-22 0.0076749675 1.8833122e-22 1.0181641e-41)
(0.0027908694 -0.0007693963 -1.8084303e-23 0.0064677363 1.0879519e-22 2.115266e-42)
(0.0023995158 -0.000632317 -3.1106441e-23 0.0052509696 -1.3437648e-23 8.3347601e-43)
(0.0021986135 -0.000437648 -3.8026647e-22 0.0040188676 -6.1907464e-23 1.0315079e-40)
(0.0019745529 -0.00029448862 -2.4845987e-23 0.0028698666 1.1981078e-22 5.9973652e-42)
(0.0016442302 -0.00014522415 -1.2810134e-22 0.0019363169 -3.7868757e-23 1.3168516e-41)
(0.0012120267 2.7880237e-05 2.1307394e-23 0.0013491017 -2.881712e-24 4.4609848e-43)
(0.00083322008 6.5076e-05 4.5534035e-23 0.00094953584 -6.8036648e-25 3.1562183e-42)
(0.00056470001 4.3906729e-05 -2.1233891e-24 0.0006831626 -8.4533858e-24 1.3063277e-43)
(0.00039766739 2.0430969e-05 7.1884315e-24 0.00050566101 -1.5585686e-24 3.2622995e-43)
(0.0002937785 -7.1632179e-07 8.8936647e-26 0.00037964242 2.8439531e-23 2.4704019e-42)
(0.00022856462 -1.6470487e-05 -7.6385426e-24 0.00028395258 3.1899765e-23 4.7116045e-42)
(0.00018706113 -2.6304315e-05 -1.4736605e-24 0.00020875683 1.9666682e-23 2.6781735e-42)
(0.00015912968 -2.9873753e-05 -5.9575875e-24 0.00014884958 2.3867715e-23 5.4111621e-42)
(0.00013906458 -2.8877975e-05 -1.6584838e-25 0.00010169399 2.6078745e-25 9.9613949e-46)
(0.00012325526 -2.4782308e-05 1.0000467e-23 6.6051618e-05 -1.563822e-23 5.0798245e-42)