/*--------------------------------*- C++ -*----------------------------------*\
| =========                 |                                                 |
| \\      /  F ield         | OpenFOAM: The Open Source CFD Toolbox           |
|  \\    /   O peration     | Version:  5.0                                   |
|   \\  /    A nd           | Web:      www.OpenFOAM.org                      |
|    \\/     M anipulation  |                                                 |
\*---------------------------------------------------------------------------*/
FoamFile
{
    version     2.0;
    format      ascii;
    class       volScalarField;
    location    "165";
    object      p;
}
// * * * * * * * * * * * * * * * * * * * * * * * * * * * * * * * * * * * * * //

dimensions      [0 2 -2 0 0 0 0];

internalField   nonuniform List<scalar> 
9200
(
-0.00076654329
-0.00076294819
-0.0017158565
-0.00075806684
-0.0017172924
-0.002930954
-0.00075580831
-0.0017053759
-0.0029290315
-0.0040021629
-0.00074826448
-0.0016952777
-0.0029122252
-0.0040027418
-0.0051057548
-0.00074044649
-0.0016736258
-0.0028970815
-0.0039833701
-0.0051088859
-0.0061510643
-0.0007286831
-0.0016492517
-0.0028652718
-0.0039661458
-0.0050895446
-0.0061603824
-0.0071740915
-0.00071490613
-0.0016159025
-0.0028276323
-0.0039278556
-0.0050742323
-0.0061445951
-0.0071914284
-0.0081532154
-0.00069822117
-0.0015767124
-0.0027760294
-0.0038812365
-0.005034053
-0.0061364113
-0.0071824732
-0.0081814663
-0.0090941124
-0.00067931885
-0.0015302237
-0.0027141789
-0.0038161661
-0.0049835041
-0.0061003791
-0.0071866573
-0.0081833304
-0.0091367665
-0.0099899888
-0.0006583997
-0.0014774927
-0.0026403164
-0.0037367853
-0.0049101401
-0.0060528588
-0.0071607922
-0.0082062347
-0.0091539744
-0.010049903
-0.010838573
-0.00063610666
-0.0014187101
-0.0025558729
-0.0036408525
-0.0048183268
-0.0059787173
-0.0071229948
-0.0081981086
-0.0092012618
-0.010086385
-0.010918772
-0.011636213
-0.00061321981
-0.0013545158
-0.0024614001
-0.0035300212
-0.0047052036
-0.0058824447
-0.0070551966
-0.0081787471
-0.0092180302
-0.010164185
-0.01097944
-0.011739549
-0.012379614
-0.00059073994
-0.0012853842
-0.0023581786
-0.0034049687
-0.0045726157
-0.0057602964
-0.006962047
-0.0081266294
-0.0092255939
-0.010213935
-0.011095481
-0.01182866
-0.012508778
-0.013065518
-0.00056955298
-0.0012117562
-0.0022474865
-0.0032672839
-0.0044213791
-0.0056141051
-0.0068386432
-0.0080459512
-0.0091984951
-0.010257453
-0.011185867
-0.011988832
-0.01263059
-0.013222953
-0.013690978
-0.00055093011
-0.0011339151
-0.002130742
-0.0031185349
-0.0042535038
-0.0054446036
-0.0066864775
-0.0079304395
-0.0091402607
-0.010265027
-0.011274759
-0.012127578
-0.012841379
-0.013381391
-0.013878829
-0.014253428
-0.00053450927
-0.0010530173
-0.0020092428
-0.0029604459
-0.0040710897
-0.0052539998
-0.0065060135
-0.0077813177
-0.009042876
-0.010239644
-0.011327709
-0.012271264
-0.013037164
-0.013648402
-0.014077494
-0.014473479
-0.014750795
-0.00051816163
-0.00097005824
-0.0018847522
-0.002794688
-0.0038765206
-0.0050446566
-0.0062995854
-0.0075986317
-0.0089069809
-0.01017129
-0.011346608
-0.012380137
-0.013245175
-0.013908098
-0.014406208
-0.014715506
-0.015004432
-0.015181553
-0.0004985623
-0.00088658707
-0.0017581941
-0.0026234434
-0.0036721645
-0.004819297
-0.0060698424
-0.0073846626
-0.0087319931
-0.010059664
-0.011319109
-0.012454866
-0.013420921
-0.014189668
-0.014737704
-0.015110592
-0.015292439
-0.01546974
-0.015544759
-0.00047011696
-0.00080585694
-0.0016298336
-0.002448692
-0.0034606791
-0.004580696
-0.0058199566
-0.0071421593
-0.0085199715
-0.0099032835
-0.01124377
-0.012480514
-0.013563549
-0.01444295
-0.015101572
-0.01551984
-0.01575785
-0.015805742
-0.015868021
-0.015840054
-0.00042603477
-0.00073164652
-0.0015001939
-0.0022722933
-0.0032443505
-0.0043319313
-0.005553251
-0.0068745558
-0.0082736599
-0.0097037559
-0.011117947
-0.012454179
-0.013655237
-0.014665415
-0.015442759
-0.015973946
-0.016250643
-0.016344551
-0.01625339
-0.016198474
-0.016067727
-0.00035953953
-0.00066819872
-0.0013692088
-0.0020968628
-0.0030249058
-0.0040759909
-0.0052732946
-0.0065855517
-0.0079967185
-0.0094635986
-0.010942583
-0.012371756
-0.013691383
-0.014836191
-0.015756965
-0.016412858
-0.016802707
-0.016925497
-0.016867838
-0.016633902
-0.016460905
-0.016228756
-0.00026524935
-0.0006196185
-0.0012366129
-0.0019250462
-0.0028043497
-0.0038155177
-0.0049835509
-0.0062791372
-0.0076932277
-0.0091865159
-0.010719759
-0.01223327
-0.013666131
-0.014948708
-0.016020042
-0.01683024
-0.017348416
-0.017581488
-0.01754093
-0.017325355
-0.01694644
-0.016655797
-0.016324438
-0.00014036709
-0.00058914922
-0.0011021801
-0.0017593546
-0.002584652
-0.0035534956
-0.0046870175
-0.0059593263
-0.0073676348
-0.0088768037
-0.010453089
-0.012040114
-0.013578307
-0.014995071
-0.016223219
-0.01719858
-0.017879838
-0.01824208
-0.01830606
-0.018093064
-0.017715462
-0.017190981
-0.016784347
-0.016355457
1.4536874e-05
-0.0005785778
-0.00096590519
-0.0016020544
-0.0023677198
-0.0032929369
-0.0043868748
-0.0056297692
-0.0070244891
-0.0085392436
-0.010147003
-0.011795573
-0.013428383
-0.014972602
-0.016356287
-0.01750672
-0.018366056
-0.018897491
-0.019088415
-0.018970894
-0.018579084
-0.018037309
-0.017368391
-0.016848062
-0.016322968
0.00019525806
-0.00058788216
-0.0008281021
-0.0014549928
-0.002155522
-0.0030366252
-0.0040864162
-0.0052942908
-0.0066680069
-0.0081788524
-0.0098065904
-0.011504028
-0.013219066
-0.014880566
-0.016414762
-0.017741887
-0.01879337
-0.019513467
-0.0198767
-0.019880633
-0.01957218
-0.01899651
-0.018290113
-0.017479475
-0.016847931
-0.016233981
0.00039506603
-0.00061454689
-0.00068934297
-0.001319433
-0.0019500092
-0.0027871859
-0.0037888538
-0.0049568703
-0.0063025071
-0.0078004324
-0.0094373227
-0.011170718
-0.012954501
-0.01472084
-0.016396384
-0.017897502
-0.019146229
-0.020073678
-0.020633426
-0.020809374
-0.020613427
-0.020105711
-0.019343487
-0.01847338
-0.017524631
-0.016785646
-0.01609157
0.00060750915
-0.00065071924
-0.00055068465
-0.0011961675
-0.0017527609
-0.0025470708
-0.00349738
-0.0046213939
-0.0059324676
-0.0074089261
-0.0090445827
-0.010801435
-0.01263996
-0.01449706
-0.016301921
-0.017969458
-0.01941568
-0.020559636
-0.021339601
-0.021716631
-0.02168876
-0.021281086
-0.020568563
-0.019618811
-0.018587517
-0.01750554
-0.016666612
-0.015897996
0.00082530215
-0.00068115903
-0.00041727943
-0.0010851835
-0.001564737
-0.0023188761
-0.003215012
-0.0042917557
-0.0055623156
-0.0070094916
-0.0086339037
-0.010402062
-0.012281476
-0.014214311
-0.016134244
-0.017957086
-0.019595457
-0.020959767
-0.021973686
-0.022580801
-0.022754951
-0.022507522
-0.021879112
-0.020958048
-0.019822142
-0.018634154
-0.017425908
-0.016494061
-0.015657038
0.001034881
-0.00070696638
-0.00030160197
-0.00098516569
-0.0013871064
-0.0021047071
-0.0029443819
-0.0039717757
-0.0051965481
-0.0066072904
-0.0082110426
-0.0099787138
-0.011885391
-0.013878683
-0.015898014
-0.017862183
-0.019683115
-0.021265343
-0.022521287
-0.023377272
-0.023787916
-0.02373942
-0.023259468
-0.022403267
-0.021272639
-0.019953863
-0.018615462
-0.01728875
-0.016271568
-0.015371744
0.0012334545
-0.00074516928
-0.00019202716
-0.00089254982
-0.0012230561
-0.001905846
-0.0026879516
-0.0036650561
-0.0048396205
-0.0062075933
-0.0077818014
-0.0095378036
-0.011458372
-0.013496838
-0.015599196
-0.017688713
-0.019679045
-0.021471803
-0.022970939
-0.024088683
-0.02476002
-0.024950427
-0.024662087
-0.023938565
-0.022850437
-0.021511414
-0.020015233
-0.018534061
-0.017097608
-0.016002507
-0.01504594
0.0014416706
-0.00079259606
-7.8082677e-05
-0.00080120223
-0.0010791284
-0.0017233697
-0.0024478197
-0.0033746222
-0.0044957672
-0.0058156762
-0.0073521436
-0.009085886
-0.011007432
-0.013075903
-0.015244644
-0.017442263
-0.019586199
-0.02157778
-0.02331564
-0.024700605
-0.02565086
-0.026110031
-0.026058648
-0.025514997
-0.024539891
-0.023218158
-0.021674401
-0.020007984
-0.018392958
-0.016855987
-0.015690573
-0.014683571
0.0016512739
-0.00084366644
2.5754672e-05
-0.00072386104
-0.00094115528
-0.0015559659
-0.0022268869
-0.003102876
-0.0041687308
-0.0054366087
-0.0069281162
-0.0086297539
-0.010539812
-0.01262346
-0.014841865
-0.017129638
-0.01940953
-0.021584863
-0.0235519
-0.025203286
-0.026442871
-0.027194797
-0.027415995
-0.027102648
-0.026291232
-0.025059159
-0.023504982
-0.021762296
-0.01993449
-0.018195411
-0.016567558
-0.015339505
-0.014288293
0.0018529025
-0.00089409885
0.00012595658
-0.00067252529
-0.00080028682
-0.0013903995
-0.0020282395
-0.0028527588
-0.003861677
-0.0050748941
-0.0065156391
-0.0081763526
-0.010063068
-0.012147469
-0.014398932
-0.016758542
-0.019155552
-0.021497043
-0.023679579
-0.025590759
-0.027123287
-0.028183925
-0.028707762
-0.028666055
-0.028073409
-0.026984455
-0.025493167
-0.023710237
-0.021776545
-0.019797526
-0.017944958
-0.016236092
-0.014953047
-0.013864014
0.0020395466
-0.00094470251
0.00022629337
-0.00062054269
-0.00067897554
-0.0012256391
-0.0018331308
-0.0026261233
-0.0035784673
-0.0047343359
-0.0061201186
-0.0077325553
-0.0095850118
-0.011656317
-0.013924438
-0.016337424
-0.018831973
-0.021320245
-0.023701349
-0.025860772
-0.027683331
-0.029061428
-0.029909904
-0.03017612
-0.02984907
-0.028962358
-0.027589434
-0.025839571
-0.023834171
-0.021719201
-0.01960029
-0.017645319
-0.015865413
-0.014535029
-0.013414277
0.0022052264
-0.00099419209
0.00032109545
-0.00056435474
-0.00056675627
-0.0011001162
-0.0016286833
-0.0023997655
-0.0033219909
-0.0044194053
-0.0057462517
-0.0073047212
-0.0091135019
-0.011158774
-0.013427533
-0.015875442
-0.018447473
-0.021061918
-0.023622221
-0.026014288
-0.028118258
-0.029815418
-0.03100307
-0.031605631
-0.031586675
-0.030954137
-0.029762
-0.028101852
-0.026097093
-0.023877815
-0.021592901
-0.019346309
-0.017300359
-0.015459383
-0.014089124
-0.012942643
0.0023444726
-0.0010396781
0.00040576391
-0.00051239324
-0.00045720795
-0.00098993269
-0.0014651251
-0.0021658718
-0.0030662548
-0.004133291
-0.005399497
-0.0068984447
-0.0086559693
-0.010663766
-0.012917893
-0.015382472
-0.018011632
-0.020730764
-0.023449098
-0.026055029
-0.028426918
-0.030438289
-0.03197202
-0.032931822
-0.033256033
-0.032926196
-0.031971322
-0.030465746
-0.028518533
-0.026265398
-0.023842972
-0.021400779
-0.019039372
-0.016914044
-0.015021821
-0.01361897
-0.012452435
0.0024527122
-0.0010786812
0.00047891299
-0.00046935796
-0.00035342826
-0.00087595796
-0.0013222441
-0.0019854139
-0.0028071456
-0.0038463987
-0.0050840264
-0.0065201346
-0.0082190947
-0.010179874
-0.012405512
-0.014869088
-0.017534934
-0.020336626
-0.023190452
-0.025989006
-0.028611344
-0.030926372
-0.032805956
-0.034135926
-0.034831002
-0.03484565
-0.034182225
-0.032891524
-0.031068216
-0.028837415
-0.02634512
-0.023732125
-0.021146395
-0.018683479
-0.016490363
-0.014556488
-0.013128028
-0.011946812
0.002526488
-0.0011092949
0.00053927294
-0.00043430365
-0.00026308689
-0.00076738533
-0.0011789521
-0.0018228099
-0.0026038621
-0.0035586855
-0.0047667913
-0.0061749013
-0.007810492
-0.0097149373
-0.011900185
-0.014346357
-0.017028748
-0.019890475
-0.022856166
-0.025824155
-0.028676278
-0.031279588
-0.033498296
-0.035203671
-0.036289204
-0.036683132
-0.03635952
-0.035342978
-0.033706858
-0.031565218
-0.029057587
-0.026337776
-0.023548376
-0.020833661
-0.018282757
-0.016033304
-0.014067033
-0.012619606
-0.011428745
0.0025638615
-0.0011304382
0.00058554953
-0.00040639009
-0.00018699295
-0.0006735936
-0.0010407696
-0.00165564
-0.0024097568
-0.0033353024
-0.0044499799
-0.0058260483
-0.0074365983
-0.0092778238
-0.011411016
-0.013825306
-0.016505164
-0.019404394
-0.022457494
-0.025570132
-0.028628773
-0.031500992
-0.034046417
-0.036125194
-0.037612674
-0.038412654
-0.03847087
-0.037783107
-0.03639782
-0.034410642
-0.031953893
-0.029179227
-0.026245715
-0.02329536
-0.020466757
-0.017841412
-0.015546788
-0.013556964
-0.012096835
-0.010900985
-0.0011410224
0.0025638615
0.0006161196
-0.00038536692
-0.00012523499
-0.0005944301
-0.00092061471
-0.0014950319
-0.0022141481
-0.0031138018
-0.0042012158
-0.0054782134
-0.0070570353
-0.0088763955
-0.010948258
-0.013316357
-0.015976444
-0.018891423
-0.022007043
-0.025238241
-0.028477932
-0.031596356
-0.034451249
-0.036894907
-0.038787953
-0.040012436
-0.040486799
-0.040176973
-0.039102859
-0.037337294
-0.034997651
-0.032232651
-0.029203564
-0.026072032
-0.022977153
-0.020050061
-0.017363657
-0.01503464
-0.013029631
-0.011562635
-0.010366095
0.00063080652
-0.0011410223
0.0025264881
-0.00037197405
-7.8227774e-05
-0.00053009531
-0.00081978929
-0.0013564153
-0.0020265588
-0.0028889259
-0.0039446361
-0.0052040532
-0.0066778654
-0.0084666279
-0.01052149
-0.012831249
-0.015454409
-0.01836503
-0.021518657
-0.02484141
-0.028234807
-0.031573866
-0.034716856
-0.037511161
-0.039806089
-0.041465167
-0.042381676
-0.042491841
-0.041784914
-0.0403063
-0.038153392
-0.035464094
-0.032401194
-0.029132816
-0.025820472
-0.02259819
-0.019588067
-0.016853672
-0.014500544
-0.012488191
-0.011019737
-0.009826414
-0.00036576014
0.00063080665
-0.001130438
0.0024527124
-4.7506112e-05
-0.00048147149
-0.00073838197
-0.0012403855
-0.0018644027
-0.0026732703
-0.0036863576
-0.0049113917
-0.0063738401
-0.0080563981
-0.010083369
-0.012381473
-0.014952405
-0.017838424
-0.0210069
-0.024394098
-0.027912361
-0.031443979
-0.034850096
-0.037975863
-0.040662412
-0.042758177
-0.044134168
-0.044698311
-0.04440835
-0.043279051
-0.04138236
-0.03883969
-0.035807673
-0.03246044
-0.028970085
-0.025495338
-0.022163165
-0.019085322
-0.016315543
-0.013948028
-0.011935616
-0.010470649
-0.0092840888
-3.2925395e-05
-0.00036576013
0.00061611976
-0.0011092947
0.0023444729
-0.00045068066
-0.00067690137
-0.0011467567
-0.001728855
-0.0024875121
-0.0034391473
-0.0046172473
-0.0060375279
-0.0077189127
-0.009643364
-0.011916001
-0.014484062
-0.017326574
-0.020486342
-0.023911813
-0.027525394
-0.031219355
-0.034860426
-0.038294094
-0.041356199
-0.043883343
-0.045727595
-0.046770953
-0.04694019
-0.046217471
-0.044645022
-0.042321544
-0.03939142
-0.036027549
-0.032412471
-0.028719276
-0.02510138
-0.021676952
-0.018546357
-0.015753237
-0.013380434
-0.01137466
-0.0099176812
-0.0087410585
-0.00043736993
-3.2925401e-05
-0.00037197379
0.00058554994
-0.0010786808
0.0022052268
-0.00063749059
-0.0010761359
-0.0016197098
-0.0023323463
-0.0032261074
-0.0043358012
-0.0057021908
-0.0073328541
-0.0092670852
-0.011445864
-0.013994719
-0.01684539
-0.019973601
-0.023410369
-0.027090115
-0.030914817
-0.034759812
-0.03847387
-0.041890281
-0.044836856
-0.047149997
-0.048688866
-0.049350954
-0.049085342
-0.047901427
-0.045869943
-0.043116153
-0.039805481
-0.036124311
-0.032260425
-0.028384961
-0.024643694
-0.021144516
-0.017975644
-0.015170561
-0.012800899
-0.010807866
-0.0093629301
-0.0081990732
-0.00061967693
-0.00043736978
-4.7505806e-05
-0.00038536662
0.00053927339
-0.0010396777
0.002039547
-0.0010309642
-0.0015375508
-0.0022074823
-0.0030483382
-0.0040933764
-0.005382027
-0.0069533076
-0.0088222982
-0.011033859
-0.013497395
-0.016336638
-0.019487079
-0.022907963
-0.02662341
-0.030546962
-0.034562685
-0.038526017
-0.042270765
-0.045618806
-0.048394028
-0.05043592
-0.051615393
-0.051849294
-0.051112547
-0.049443753
-0.046942755
-0.043760316
-0.040080455
-0.036099899
-0.032008389
-0.027972279
-0.024127618
-0.020570859
-0.017377539
-0.014571125
-0.012212328
-0.010237568
-0.008808318
-0.0076596832
-0.0010106507
-0.00061967674
-0.00045068051
-7.8227493e-05
-0.00040638955
0.00047891367
-0.00099419157
0.0018529029
-0.0014850411
-0.0021136013
-0.0029055026
-0.0038911874
-0.005106233
-0.006591252
-0.0083931056
-0.010529574
-0.013047708
-0.015815741
-0.018965091
-0.022425572
-0.026144933
-0.030133483
-0.034285638
-0.038464112
-0.042506831
-0.046232892
-0.049456549
-0.052000829
-0.053712959
-0.054479726
-0.054241429
-0.053001659
-0.050829663
-0.047854346
-0.04425007
-0.040216563
-0.035957494
-0.031661262
-0.027486803
-0.023558662
-0.019960939
-0.016756221
-0.013958297
-0.011617442
-0.0096659519
-0.0082555485
-0.007124292
-0.0014614302
-0.0010106507
-0.00063749048
-0.00048147103
-0.00012523439
-0.00043430306
0.00040576464
-0.00094470198
0.0016512744
-0.0020536355
-0.0027982797
-0.0037288743
-0.0048763859
-0.0062789843
-0.0079846827
-0.010044209
-0.012476288
-0.015327318
-0.018425669
-0.021898092
-0.025678333
-0.029695258
-0.033946802
-0.038304261
-0.042610679
-0.046686121
-0.050338349
-0.053376743
-0.05562807
-0.056951514
-0.05725424
-0.056503532
-0.054734014
-0.052046381
-0.048597663
-0.044583352
-0.040215588
-0.03570139
-0.031224638
-0.026934466
-0.022942399
-0.019319568
-0.016115627
-0.013335296
-0.011018848
-0.0090949377
-0.0077060202
-0.0065941881
-0.0020266729
-0.0014614303
-0.0010309638
-0.0006769009
-0.00053009484
-0.00018699234
-0.0004693571
0.00032109641
-0.00089409823
0.0014416712
-0.0027298118
-0.0036071739
-0.0046920841
-0.0060188015
-0.0076318769
-0.0095835524
-0.011928257
-0.014682467
-0.017897509
-0.02134673
-0.025155183
-0.02925859
-0.033567967
-0.038064571
-0.04259735
-0.046988724
-0.051043709
-0.054561057
-0.057349715
-0.059244484
-0.060121238
-0.059911569
-0.058612994
-0.056292786
-0.053083296
-0.049167789
-0.044759976
-0.040080744
-0.035336871
-0.030704695
-0.026321409
-0.022284316
-0.018651334
-0.015459601
-0.012705291
-0.010418789
-0.0085259008
-0.0071610578
-0.0060703897
-0.0026989839
-0.0020266727
-0.0014850407
-0.0010761355
-0.00073838155
-0.00059442931
-0.00026308596
-0.00051239231
0.0002262944
-0.00084366582
0.0012334553
-0.0035294619
-0.0045540861
-0.0058103503
-0.0073378899
-0.0091855244
-0.011409495
-0.014065712
-0.017172242
-0.020778681
-0.024600263
-0.028751707
-0.033178004
-0.037767299
-0.04248436
-0.047154036
-0.051580258
-0.055554758
-0.05887145
-0.061343053
-0.062817437
-0.063191493
-0.062425204
-0.06054879
-0.057663387
-0.053932067
-0.04956195
-0.044781521
-0.039816581
-0.034870102
-0.030108037
-0.025653786
-0.021589716
-0.017960832
-0.014792041
-0.01207092
-0.0098185263
-0.007960306
-0.0066228009
-0.0055533645
-0.0034944092
-0.0026989836
-0.0020536353
-0.0015375505
-0.0011467558
-0.00081978845
-0.00067359277
-0.0003534273
-0.00056435352
0.00012595786
-0.00079259534
0.001034882
-0.0044659572
-0.0056544391
-0.0071025379
-0.0088538565
-0.010961098
-0.013483245
-0.016479883
-0.019966466
-0.023992816
-0.028203594
-0.032701786
-0.037443679
-0.042293849
-0.047198288
-0.051958902
-0.056362225
-0.0601904
-0.063236567
-0.065322339
-0.066313368
-0.066132013
-0.064769908
-0.062291992
-0.058833581
-0.054586729
-0.049779473
-0.044651267
-0.03942887
-0.034307929
-0.029441395
-0.02493764
-0.020864065
-0.017252863
-0.014116063
-0.01143331
-0.0092198771
-0.007401971
-0.0060926528
-0.0050190584
-0.0044261122
-0.0034944092
-0.0027298116
-0.0021136007
-0.001619709
-0.0012403846
-0.00092061387
-0.00076738415
-0.00045720666
-0.00062054138
2.5756085e-05
-0.00074516849
0.00082530348
-0.0055548329
-0.006926691
-0.0085885037
-0.010587461
-0.012979467
-0.015827482
-0.019191959
-0.023087317
-0.02755834
-0.032173081
-0.037015096
-0.042059098
-0.047142789
-0.052193801
-0.056991164
-0.061307026
-0.064917763
-0.06762073
-0.069251694
-0.069698558
-0.068913435
-0.066922215
-0.063826081
-0.059793633
-0.055043694
-0.04982175
-0.044374107
-0.03892438
-0.033657504
-0.028711539
-0.024179407
-0.020113231
-0.016531119
-0.013432573
-0.010794775
-0.0086296774
-0.0068530339
-0.0055376195
-0.0044607436
-0.0055096813
-0.0044261124
-0.0035294614
-0.002798279
-0.0022074817
-0.0017288543
-0.0013564139
-0.0010407684
-0.00087595668
-0.00056675491
-0.00067252362
-7.8080873e-05
-0.00070696543
0.00060751079
-0.0068143002
-0.0083904313
-0.010288694
-0.012559551
-0.015262823
-0.018463542
-0.02222379
-0.026553999
-0.03149263
-0.036520843
-0.041697782
-0.047022362
-0.052304558
-0.057452792
-0.062225043
-0.066382474
-0.069700601
-0.071986086
-0.073094381
-0.072939737
-0.071507827
-0.068861009
-0.065137068
-0.060536412
-0.055301803
-0.049692202
-0.043956283
-0.038310406
-0.032926207
-0.027925923
-0.023386171
-0.019341547
-0.015796127
-0.012744605
-0.010165894
-0.0080508014
-0.00626486
-0.0049611782
-0.0038909135
-0.0067632188
-0.005509681
-0.0044659566
-0.0036071735
-0.002905502
-0.0023323452
-0.0018644016
-0.0014950305
-0.0011789508
-0.00098993099
-0.00067897375
-0.0007238591
-0.00019202503
-0.000681158
0.00039506801
-0.0082637735
-0.010065886
-0.012223878
-0.014791928
-0.017832499
-0.021412981
-0.025595003
-0.030384741
-0.035809049
-0.041255514
-0.046750612
-0.0523269
-0.057763991
-0.062951768
-0.067629647
-0.071552384
-0.074499675
-0.076293282
-0.07681341
-0.076004632
-0.073889231
-0.070567716
-0.066213712
-0.061057512
-0.055362325
-0.049395984
-0.043404836
-0.037594728
-0.032122518
-0.027092985
-0.022562949
-0.018549051
-0.015051709
-0.012067696
-0.009550362
-0.0074051337
-0.0056637442
-0.0043692397
-0.0033112566
-0.0082060597
-0.0067632188
-0.0055548327
-0.0045540857
-0.0037288733
-0.0030483369
-0.0024875109
-0.0020265576
-0.001655638
-0.0013222422
-0.0011001143
-0.00080028482
-0.00080119979
-0.00030159928
-0.00065071799
0.00019526036
-0.0099233368
-0.01197372
-0.014415541
-0.017305843
-0.020709821
-0.024695628
-0.029324088
-0.03459432
-0.04051725
-0.046380342
-0.052169849
-0.057960599
-0.063500207
-0.068661689
-0.073169496
-0.076776906
-0.079273542
-0.08050212
-0.080372213
-0.078862547
-0.076034244
-0.072026516
-0.067047716
-0.061355351
-0.055228667
-0.048939336
-0.042727603
-0.036786777
-0.031256314
-0.02621843
-0.021709169
-0.017740619
-0.014319946
-0.011406339
-0.0088330604
-0.0067556477
-0.0050413929
-0.0037666587
-0.0027215463
-0.0098582197
-0.0082060598
-0.0068142996
-0.0056544381
-0.0046920829
-0.0038911863
-0.0032261061
-0.0026732686
-0.0022141464
-0.0018228077
-0.0014651231
-0.0012256366
-0.00094115269
-0.000892547
-0.00041727634
-0.00061454544
1.4539436e-05
-0.011813579
-0.014135189
-0.016884814
-0.020122396
-0.023914707
-0.028330031
-0.03342662
-0.039193393
-0.045621313
-0.051894357
-0.057946318
-0.063905332
-0.069486435
-0.074548439
-0.078804767
-0.082013283
-0.083979207
-0.084572563
-0.083735555
-0.081485015
-0.077922174
-0.073224678
-0.067633948
-0.06143084
-0.054905596
-0.048329681
-0.041934785
-0.035897896
-0.030333942
-0.025300891
-0.020831067
-0.016946186
-0.013605925
-0.010596282
-0.0081243537
-0.0060780031
-0.0044079369
-0.0031520788
-0.0021226397
-0.011740258
-0.0098582194
-0.0082637727
-0.0069266903
-0.0058103495
-0.0048763848
-0.0040933747
-0.0034391453
-0.0028889241
-0.002409755
-0.001985411
-0.0016286806
-0.0013903969
-0.0010791254
-0.00098516227
-0.0005506811
-0.00058788042
-0.00014036438
-0.013955599
-0.016571303
-0.019652589
-0.023261475
-0.027465732
-0.032332185
-0.03791354
-0.044187177
-0.051121154
-0.057791457
-0.064064493
-0.070136848
-0.075690479
-0.080572947
-0.084492023
-0.087216445
-0.08857312
-0.088465024
-0.086870056
-0.083846275
-0.079535448
-0.074152886
-0.067970078
-0.061286512
-0.054399493
-0.047577677
-0.04103914
-0.034934926
-0.029352925
-0.024348285
-0.019967796
-0.016171616
-0.01268496
-0.0098088708
-0.0073775813
-0.0053892941
-0.0037609503
-0.0025272915
-0.0015148925
-0.013873206
-0.011740258
-0.0099233363
-0.0083904306
-0.0071025365
-0.0060187998
-0.0051062311
-0.0043357994
-0.0036863557
-0.0031137993
-0.0026038596
-0.0021658686
-0.0018331277
-0.0015559625
-0.0012230524
-0.0010851796
-0.00068933921
-0.00057857592
-0.0002652466
-0.016370319
-0.01930278
-0.022738666
-0.02674164
-0.031379198
-0.036714194
-0.04279261
-0.04957937
-0.057012686
-0.064058735
-0.070502522
-0.076625294
-0.082074651
-0.086691835
-0.09018484
-0.092339606
-0.093011758
-0.092141085
-0.089744956
-0.085923703
-0.080860071
-0.074804873
-0.068055563
-0.060926935
-0.053721031
-0.046697334
-0.040047709
-0.033893814
-0.028323232
-0.023410669
-0.019126261
-0.015117559
-0.011803177
-0.0089710876
-0.0066210083
-0.0046861752
-0.0031031506
-0.001892552
-0.00089897306
-0.016277941
-0.013873206
-0.011813578
-0.010065884
-0.0085885021
-0.0073378883
-0.0062789827
-0.0053820252
-0.0046172447
-0.0039446333
-0.0033352997
-0.0028071428
-0.0023997615
-0.0020282356
-0.0017233658
-0.0013871023
-0.0011961632
-0.00082809806
-0.0005891472
-0.00035953687
-0.019078334
-0.02234932
-0.026161526
-0.03057931
-0.035668143
-0.041485722
-0.048070534
-0.055368644
-0.063284748
-0.070676988
-0.077232919
-0.083334941
-0.088596301
-0.092858157
-0.095834248
-0.097335514
-0.097252487
-0.095564365
-0.092332331
-0.087698344
-0.081885268
-0.075176189
-0.067892307
-0.060362241
-0.052885191
-0.045695429
-0.03895419
-0.032786957
-0.027307855
-0.022496293
-0.0179163
-0.014121523
-0.010855545
-0.0081252756
-0.0058490874
-0.0039721136
-0.0024345715
-0.0012489573
-0.00027545019
-0.018975012
-0.016277941
-0.013955598
-0.011973719
-0.010288693
-0.0088538549
-0.0076318745
-0.0065912494
-0.0057021881
-0.004911389
-0.0042012128
-0.0035586818
-0.0030662511
-0.0026261187
-0.0022268825
-0.0019058414
-0.0015647323
-0.0013194284
-0.00096590114
-0.00061961651
-0.00042603233
-0.022099263
-0.0257293
-0.02993762
-0.034788084
-0.040343032
-0.046653635
-0.053746964
-0.061546999
-0.069920426
-0.077621619
-0.084222029
-0.090224374
-0.0952089
-0.099021531
-0.10138981
-0.10215742
-0.1012541
-0.098702093
-0.094607946
-0.08915449
-0.082601965
-0.075265178
-0.067489235
-0.059607963
-0.051897782
-0.044562443
-0.037773799
-0.031692816
-0.026316771
-0.021104539
-0.016785552
-0.013040939
-0.0099023988
-0.0072643483
-0.0050659051
-0.0032470573
-0.0017566857
-0.00059729494
0.00035504212
-0.021984005
-0.018975011
-0.016370318
-0.014135188
-0.012223877
-0.010587459
-0.0091855217
-0.0079846801
-0.0069533049
-0.006037525
-0.0052040495
-0.0044499758
-0.0038463946
-0.0033219867
-0.0028527534
-0.0024478146
-0.0021047022
-0.001752756
-0.0014549879
-0.001102176
-0.00066819677
-0.00047011482
-0.025451406
-0.029459154
-0.034080817
-0.03937887
-0.045411103
-0.052219351
-0.059816625
-0.068100756
-0.076898104
-0.084861748
-0.09142949
-0.097248472
-0.10186161
-0.10512899
-0.10680095
-0.10675974
-0.10497806
-0.10152511
-0.096550801
-0.090277826
-0.083004067
-0.075078866
-0.066861938
-0.058667984
-0.05074475
-0.043316801
-0.036603553
-0.030623538
-0.024714994
-0.01981607
-0.015547641
-0.011958524
-0.0089346703
-0.0063925803
-0.00427203
-0.0025127148
-0.0010704416
6.140889e-05
0.00099195955
-0.025323182
-0.021984004
-0.019078334
-0.016571302
-0.014415539
-0.012559549
-0.010961096
-0.0095835496
-0.008393102
-0.0073328502
-0.006373836
-0.0054782092
-0.0047667869
-0.0041332859
-0.0035784621
-0.0031028701
-0.0026879461
-0.0023188708
-0.0019500039
-0.0016020496
-0.0012366091
-0.00073164474
-0.00049856052
-0.029151153
-0.033552855
-0.038602264
-0.044359306
-0.050875054
-0.058179607
-0.066268501
-0.075012883
-0.084190212
-0.092358466
-0.098812094
-0.10435727
-0.10849952
-0.11112676
-0.11201768
-0.11109842
-0.10839104
-0.10400773
-0.098141118
-0.091056996
-0.083096036
-0.074632401
-0.066011106
-0.057521923
-0.049448085
-0.042077838
-0.035458236
-0.0287806
-0.023243771
-0.018393244
-0.014312862
-0.010862546
-0.0079568862
-0.0055105568
-0.0034689363
-0.0017702205
-0.00037718181
0.00072677208
0.0016344924
-0.02900891
-0.025323182
-0.022099263
-0.019302779
-0.016884812
-0.014791925
-0.012979464
-0.011409491
-0.010044205
-0.0088222942
-0.0077189086
-0.006677861
-0.0058260431
-0.0050840209
-0.0044193998
-0.0038616712
-0.0033746156
-0.0029443759
-0.0025470654
-0.0021555168
-0.0017593499
-0.0013692052
-0.00080585529
-0.00051816021
-0.033212504
-0.038021641
-0.043509848
-0.04973285
-0.056732999
-0.06452573
-0.073087912
-0.082265021
-0.091758401
-0.10007205
-0.10632187
-0.11149458
-0.11506633
-0.11696115
-0.11699123
-0.11513235
-0.11146205
-0.10612503
-0.099361934
-0.091493391
-0.082892153
-0.073921773
-0.064907662
-0.05619569
-0.048154013
-0.040863503
-0.033340186
-0.02709934
-0.021605503
-0.016980135
-0.013065958
-0.0097577997
-0.0069695097
-0.0046198026
-0.0026583634
-0.0010212025
0.00032317121
0.0013975904
0.0022819381
-0.033055204
-0.02900891
-0.025451405
-0.022349318
-0.019652587
-0.017305841
-0.01526282
-0.013483241
-0.011928254
-0.01052957
-0.0092670799
-0.0080563927
-0.0070570297
-0.0061748956
-0.0053994911
-0.0047343296
-0.0041687243
-0.0036650493
-0.003215006
-0.0027871804
-0.0023677146
-0.0019250418
-0.0015001906
-0.00088658565
-0.00053450817
-0.037646722
-0.042873505
-0.048807433
-0.055498515
-0.062978021
-0.071244876
-0.080258528
-0.089817971
-0.099566221
-0.10795901
-0.11390119
-0.1186025
-0.12150546
-0.12257902
-0.12167621
-0.11882687
-0.11415862
-0.10785286
-0.1002114
-0.091600421
-0.082382082
-0.0729061
-0.063581843
-0.054867943
-0.046884219
-0.038433939
-0.031419513
-0.025211811
-0.019985484
-0.01555686
-0.011812069
-0.00864453
-0.0059741572
-0.0037224985
-0.0018417536
-0.00026466506
0.0010283401
0.0020731122
0.0029335848
-0.037473335
-0.033055203
-0.029151152
-0.025729299
-0.022738665
-0.020122393
-0.017832495
-0.015827478
-0.014065707
-0.012476283
-0.011033853
-0.0096433581
-0.0084666222
-0.0074365923
-0.006520128
-0.0057462449
-0.0050748875
-0.0044957606
-0.0039717686
-0.0034973738
-0.0030366199
-0.0025846472
-0.0020968586
-0.0016298307
-0.00097005694
-0.00055092927
-0.042461824
-0.048112521
-0.054494596
-0.061650534
-0.069598674
-0.078321417
-0.087745489
-0.097633973
-0.10757836
-0.11596044
-0.12149043
-0.12562291
-0.12776028
-0.12792961
-0.12603124
-0.12214823
-0.11645045
-0.10918458
-0.10070252
-0.091359923
-0.081509482
-0.071620026
-0.062251819
-0.053564641
-0.04410471
-0.036243122
-0.029245465
-0.023353496
-0.018357767
-0.014128965
-0.010551115
-0.007524369
-0.0049734241
-0.0028202267
-0.0010168245
0.0004961122
0.0017374552
0.0027522033
0.003588744
-0.042271328
-0.037473334
-0.033212503
-0.029459153
-0.026161523
-0.023261472
-0.020709817
-0.018463538
-0.016479878
-0.014682462
-0.013047702
-0.011445858
-0.010083362
-0.0088763885
-0.0078104849
-0.0068984378
-0.0061201119
-0.0054366018
-0.0048396135
-0.0042917489
-0.003788848
-0.0032929318
-0.0028043451
-0.0022722896
-0.0017581916
-0.0010530162
-0.00056955233
-0.047661976
-0.053738557
-0.06056626
-0.068178518
-0.076579505
-0.085728687
-0.095512544
-0.10569865
-0.11573521
-0.12401593
-0.12903107
-0.13249676