/*--------------------------------*- C++ -*----------------------------------*\
| =========                 |                                                 |
| \\      /  F ield         | OpenFOAM: The Open Source CFD Toolbox           |
|  \\    /   O peration     | Version:  5.0                                   |
|   \\  /    A nd           | Web:      www.OpenFOAM.org                      |
|    \\/     M anipulation  |                                                 |
\*---------------------------------------------------------------------------*/
FoamFile
{
    version     2.0;
    format      ascii;
    class       surfaceScalarField;
    location    "165";
    object      phi;
}
// * * * * * * * * * * * * * * * * * * * * * * * * * * * * * * * * * * * * * //

dimensions      [0 3 -1 0 0 0 0];

internalField   nonuniform List<scalar> 
18180
(
0.0017316467
-1.3871708
0.0033439383
-1.2976751
0.0016752459
-1.3888461
0.0048423834
-1.2141506
0.0032273386
-1.2992272
0.0016161443
-1.3904622
0.0062379895
-1.1361325
0.0046757693
-1.2155991
0.0031179923
-1.3007291
0.0015628169
-1.392025
0.0075327145
-1.0632628
0.0060255869
-1.1374823
0.0045207427
-1.2170018
0.0030162894
-1.3021825
0.001509015
-1.393534
0.0087323846
-0.99513914
0.0072809371
-1.0645182
0.0058293484
-1.1387909
0.0043775032
-1.218363
0.0029159036
-1.3035894
0.0014557765
-1.3949898
0.0098392366
-0.93142246
0.0084455609
-0.99630376
0.0070492201
-1.065738
0.0056516469
-1.140065
0.0042367811
-1.2196839
0.0028162331
-1.3049499
0.0014008057
-1.3963906
0.010857304
-0.87179663
0.0095222642
-0.93249916
0.0081831873
-0.99743773
0.0068438695
-1.0669303
0.0054776317
-1.1413059
0.004097957
-1.2209656
0.0027138691
-1.306263
0.0013436902
-1.3977343
0.01179007
-0.81597997
0.010514143
-0.8727885
0.0092341722
-0.93355015
0.00795684
-0.9985507
0.0066435882
-1.0680962
0.0053078668
-1.1425158
0.0039556828
-1.2222074
0.0026073499
-1.3075266
0.0012836922
-1.399018
0.012641764
-0.7637124
0.011424349
-0.81689018
0.010204701
-0.87375903
0.0089929677
-0.93458628
0.0077370653
-0.99964418
0.0064509838
-1.0692393
0.0051341055
-1.1436942
0.0038077847
-1.2234079
0.0024951868
-1.3087381
0.0012200409
-1.400238
0.013417015
-0.71476072
0.01225635
-0.7645444
0.011097619
-0.8177831
0.0099542448
-0.87472031
0.0087599901
-0.9356092
0.0075296373
-1.0007228
0.0062541187
-1.0703593
0.0049540274
-1.1448404
0.0036513718
-1.2245641
0.0023760333
-1.3098941
0.0011524626
-1.4013905
0.014121305
-0.66890676
0.013013924
-0.7155183
0.011916002
-0.76536278
0.01084285
-0.8186717
0.0097137363
-0.87567406
0.0085452442
-0.93662481
0.0073178787
-1.0017866
0.0060511609
-1.0714565
0.004763306
-1.1459524
0.0034848797
-1.2256729
0.0022493046
-1.3109909
0.0010808078
-1.4024713
0.014761384
-0.62594836
0.01370139
-0.66959422
0.012663365
-0.71626566
0.011661158
-0.76618109
0.010599791
-0.81955776
0.009498505
-0.87662732
0.0083262966
-0.93763322
0.0071012366
-1.0028367
0.0058356308
-1.0725288
0.0045597521
-1.1470273
0.0033075905
-1.2267312
0.0021144998
-1.3120246
0.0010051959
-1.4034765
0.015345997
-0.58569091
0.014324093
-0.62657106
0.013343815
-0.67027467
0.01241194
-0.71701644
0.011419791
-0.76700109
0.010390091
-0.82044934
0.0092792837
-0.8775803
0.0081045615
-0.93863655
0.0068703097
-1.0038713
0.0056048669
-1.0735739
0.0043416116
-1.1480613
0.0031182319
-1.2277349
0.001971804
-1.3129912
0.00092589208
-1.4044024
0.015886566
-0.54793839
0.014889469
-0.58625629
0.013962429
-0.62718968
0.013098484
-0.67096122
0.012175804
-0.71777246
0.011220788
-0.76783179
0.010176606
-0.82134667
0.0090604935
-0.87853624
0.007867136
-0.93963338
0.0066226536
-1.0048891
0.005356622
-1.0745889
0.0041075783
-1.1490506
0.0029170514
-1.2286802
0.0018216371
-1.313887
0.00084332227
-1.4052457
0.016397697
-0.512485
0.015408664
-0.54845758
0.01452604
-0.5868199
0.013724932
-0.62781613
0.012870425
-0.67165584
0.011991774
-0.71854344
0.011018163
-0.76867335
0.0099680123
-0.82225418
0.0088248451
-0.87949394
0.00761251
-0.94062323
0.006354609
-1.0058871
0.005088595
-1.0755699
0.003858145
-1.1499917
0.0027044489
-1.229563
0.0016647625
-1.3147084
0.00075802956
-1.4060038
0.01689545
-0.47910762
0.015897919
-0.51297426
0.015044403
-0.54897595
0.014297042
-0.58739201
0.013507092
-0.62845279
0.012704703
-0.67236877
0.0118042
-0.71932948
0.010826002
-0.76953134
0.0097415343
-0.82317087
0.0085724699
-0.8804539
0.0073346058
-0.94160323
0.0060633386
-1.0068619
0.0048012152
-1.076513
0.0035928173
-1.1508801
0.0024814623
-1.2303797
0.0015021624
-1.3154526
0.00067065881
-1.4066744
0.01739472
-0.44756399
0.016378362
-0.47958806
0.015531216
-0.51346107
0.014823469
-0.54950237
0.014090731
-0.58797565
0.013361985
-0.62911007
0.012535462
-0.67310003
0.01163365
-0.72013713
0.010615079
-0.77040488
0.0094997256
-0.82409813
0.0082941613
-0.88141346
0.0070307607
-0.94257065
0.00574887
-1.0078095
0.0044934223
-1.0774136
0.0033133491
-1.151712
0.0022493651
-1.2311269
0.0013350468
-1.3161169
0.000581919
-1.4072563
0.017905378
-0.41760803
0.016874006
-0.44805964
0.016003942
-0.48006079
0.015317134
-0.51395473
0.014628876
-0.55004052
0.013967365
-0.58858103
0.01321348
-0.62978809
0.01239063
-0.67385701
0.011443618
-0.72096566
0.010391195
-0.77129635
0.0092296995
-0.82503367
0.0079879326
-0.88237063
0.0066997796
-0.94352156
0.0054093613
-1.0087255
0.0041673145
-1.0782676
0.0030207609
-1.1524834
0.0020098514
-1.2318017
0.0011647566
-1.3166998
0.00049255645
-1.4077489
0.018428054
-0.38901247
0.017406475
-0.4181405
0.016482282
-0.44853798
0.015795666
-0.48053932
0.015132968
-0.51445883
0.014527011
-0.55060016
0.013841087
-0.58920863
0.013097358
-0.63049482
0.012225782
-0.67463917
0.011243928
-0.7218184
0.010137186
-0.77220384
0.0089305362
-0.82597627
0.0076507636
-0.88332162
0.006339532
-0.94445173
0.0050472635
-1.0096054
0.0038234402
-1.0790703
0.0027172403
-1.1531908
0.0017647919
-1.2324017
0.00099271952
-1.3171999
0.00040333525
-1.4081522
0.018951778
-0.36159541
0.017988512
-0.3895945
0.01698377
-0.41864198
0.016280338
-0.44902265
0.015618944
-0.48102529
0.015050966
-0.51498278
0.014423409
-0.55118249
0.013755449
-0.58986672
0.012960948
-0.63122999
0.012055425
-0.67545067
0.011012621
-0.72269383
0.0098536589
-0.77312696
0.0085969419
-0.82692245
0.0072805293
-0.88426261
0.0059520059
-0.94535647
0.0046622545
-1.0104442
0.0034649059
-1.0798179
0.0024050231
-1.153831
0.001516219
-1.2329252
0.00082040516
-1.317617
0.0003150012
-1.4084672
0.019454364
-0.33524199
0.018618423
-0.36222532
0.017518395
-0.39012913
0.016791772
-0.41915342
0.016106545
-0.44951025
0.015554124
-0.48152845
0.014969258
-0.51552863
0.014368642
-0.55179568
0.013649672
-0.59055545
0.012823888
-0.63199845
0.011852391
-0.67629044
0.01075228
-0.72359245
0.0095326314
-0.77406265
0.0082269975
-0.82786892
0.0068782284
-0.88518884
0.005536476
-0.94623069
0.0042582037
-1.0112375
0.0030933966
-1.0805063
0.0020867727
-1.1544015
0.0012662575
-1.2333711
0.00064927306
-1.3179513
0.00022827704
-1.4086955
0.019905526
-0.30991214
0.019277581
-0.33590115
0.018083922
-0.36279085
0.017344054
-0.39068141
0.016615665
-0.41966254
0.016055978
-0.4500121
0.01549223
-0.48205142
0.014944199
-0.51610419
0.014294529
-0.55244053
0.013548631
-0.59128019
0.012653579
-0.63279964
0.011621666
-0.67715982
0.010451873
-0.72451169
0.0091726078
-0.77500826
0.0078203338
-0.82881102
0.0064428961
-0.88609525
0.0050968195
-0.94706931
0.0038362912
-1.0119804
0.002712674
-1.0811322
0.0017651323
-1.1549004
0.001017071
-1.2337389
0.00048075323
-1.3182038
0.00014389233
-1.4088394
0.02027181
-0.28563297
0.01993192
-0.31056648
0.018663845
-0.33648107
0.017939023
-0.36338582
0.017160905
-0.39122665
0.016577344
-0.4201839
0.016010749
-0.45053062
0.015494258
-0.48260148
0.01490145
-0.51671111
0.014230851
-0.55312275
0.013414336
-0.59204095
0.012457725
-0.6336357
0.011348891
-0.67805684
0.010110562
-0.72544965
0.008771525
-0.77595945
0.0073758014
-0.82974393
0.0059779564
-0.88697639
0.0046340056
-0.94786702
0.0034011123
-1.0126688
0.0023253693
-1.0816924
0.0014428373
-1.1553262
0.00077081785
-1.2340289
0.00031625025
-1.3183761
6.2657137e-05
-1.408902
0.020522014
-0.26247987
0.020536825
-0.28623788
0.019228854
-0.31113149
0.018563045
-0.33710509
0.017745866
-0.36397078
0.017134861
-0.39178417
0.016545307
-0.42071846
0.016036236
-0.4510726
0.015481175
-0.48318121
0.014874933
-0.51735519
0.014134597
-0.55384301
0.013257358
-0.59284058
0.012218459
-0.63450526
0.011034102
-0.67898038
0.0097243148
-0.72640244
0.0083280988
-0.77691175
0.0068960427
-0.83066201
0.0054842028
-0.88782659
0.0041528763
-0.94861879
0.0029550965
-1.0132986
0.0019352685
-1.0821849
0.0011226654
-1.155678
0.00052973108
-1.2342424
0.00015722099
-1.3184707
-1.4238431e-05
-1.4088878
0.020631973
-0.2405509
0.021043948
-0.26298699
0.019741356
-0.28675038
0.019187615
-0.31175606
0.018359421
-0.33771865
0.01773475
-0.36457067
0.017113292
-0.39235215
0.016590585
-0.42127281
0.016049919
-0.45164135
0.015490016
-0.48379629
0.014817323
-0.51803792
0.014019132
-0.55460479
0.013056295
-0.59367842
0.011936907
-0.63540807
0.010671083
-0.67992715
0.0092917748
-0.72736611
0.0078439095
-0.77785961
0.0063816208
-0.83155943
0.0049663821
-0.88864009
0.0036559107
-0.9493196
0.0025029615
-1.0138663
0.0015453426
-1.0826076
0.00080766383
-1.155956
0.00029545033
-1.2343806
5.2863954e-06
-1.3184902
-8.6458177e-05
-1.4088014
0.020587463
-0.21994064
0.021408435
-0.24091539
0.020161232
-0.26340687
0.019773828
-0.28733659
0.018975438
-0.31237208
0.018368365
-0.33835226
0.017722656
-0.36518004
0.017175856
-0.39293742
0.016627619
-0.42185051
0.016090965
-0.4522423
0.015470095
-0.48444906
0.014744454
-0.51876324
0.013859661
-0.55540815
0.012813494
-0.594555
0.011604508
-0.63634149
0.010258484
-0.68089386
0.0088132172
-0.72833542
0.0073192247
-0.77879722
0.0058369163
-0.83242996
0.0044270022
-0.88941119
0.0031482916
-0.94996493
0.0020478321
-1.0143688
0.001159263
-1.0829591
0.0004999269
-1.1561604
7.0036616e-05
-1.2344454
-0.00013976028
-1.3184369
-0.00015781683
-1.4086435
0.020382578
-0.20072013
0.021595552
-0.22012776
0.020451701
-0.24120586
0.02027838
-0.26391142
0.019555889
-0.28791704
0.019011386
-0.3130151
0.01836691
-0.33899652
0.017802173
-0.36580635
0.017233323
-0.39354312
0.016697096
-0.42245664
0.016106324
-0.45287852
0.015439214
-0.48514382
0.014628483
-0.51953206
0.013659796
-0.55625446
0.012517981
-0.59546848
0.011220003
-0.63730301
0.0097950744
-0.68187572
0.0082885592
-0.72930476
0.0067578069
-0.77971811
0.0052643585
-0.83326732
0.0038714558
-0.89013435
0.0026334784
-0.95055058
0.0015941875
-1.0148037
0.00077983326
-1.0832391
0.00020184201
-1.1562922
-0.00014604717
-1.2344391
-0.00027788017
-1.3183168
-0.00022359361
-1.4084199
0.020020418
-0.18293234
0.021587241
-0.20071182
0.020584587
-0.22026065
0.020660141
-0.24158762
0.020057935
-0.26441347
0.019626854
-0.28853251
0.019023571
-0.31367176
0.018465569
-0.33965991
0.017878642
-0.36645167
0.017327942
-0.39417397
0.016744442
-0.42309476
0.016115215
-0.45355452
0.015366987
-0.48588233
0.014474212
-0.52034647
0.013406176
-0.55714265
0.01216867
-0.59641714
0.010780506
-0.63828844
0.0092803819
-0.68286754
0.0077207143
-0.73026766
0.00616188
-0.78061563
0.0046693296
-0.83406519
0.0033034849
-0.89080436
0.0021165483
-0.95107294
0.0011453399
-1.0151692
0.00041014039
-1.0834474
-8.4844266e-05
-1.1563534
-0.00035138208
-1.2343656
-0.0004073868
-1.3181331
-0.00028485921
-1.4081351
0.019515687
-0.16659004
0.021376537
-0.18272164
0.020545824
-0.20067306
0.02088431
-0.22048481
0.020440508
-0.24197019
0.020171241
-0.26495785
0.019656917
-0.28916586
0.019145539
-0.31435173
0.018561619
-0.34034289
0.017996668
-0.3671204
0.017404086
-0.39483361
0.016789833
-0.42376938
0.016085311
-0.45427285
0.015259232
-0.48666735
0.01426602
-0.52120632
0.013097931
-0.55807191
0.011760918
-0.59739755
0.010285132
-0.63929319
0.008716265
-0.68386309
0.0071115705
-0.73121735
0.0055365902
-0.78148289
0.0040557352
-0.83481744
0.0027286239
-0.89141643
0.0016013891
-0.95152899
0.00070519487
-1.0154642
5.2621612e-05
-1.0835848
-0.00035839222
-1.1563464
-0.00054485223
-1.2342281
-0.00052823301
-1.3178897
-0.00034104854
-1.407794
0.017122817
-0.17780609
0.020961397
-0.1661749
0.0203307
-0.18250651
0.020922567
-0.20071132
0.020670201
-0.22071451
0.020601087
-0.24240004
0.020223029
-0.26552397
0.019806882
-0.2898272
0.019263626
-0.31505374
0.018703454
-0.34104968
0.018099604
-0.36781592
0.017482644
-0.39552642
0.016799598
-0.42448366
0.016023214
-0.45503683
0.015098305
-0.48749963
0.014003272
-0.52211166
0.012728633
-0.55903963
0.01129342
-0.59840584
0.0097345165
-0.64031145
0.0081041554
-0.68485567
0.0064658138
-0.73214658
0.0048858589
-0.78231301
0.003429408
-0.83551823
0.0021512845
-0.89196633
0.0010926291
-0.95191642
0.00027684877
-1.0156885
-0.00029026373
-1.0836529
-0.00061725429
-1.156274
-0.00072570252
-1.2340307
-0.0006396669
-1.3175911
-0.00039216141
-1.4074019
0.015009427
-0.17259418
0.018718665
-0.17556336
0.019938058
-0.16578225
0.020762308
-0.18234626
0.020725326
-0.20076644
0.02087889
-0.22099231
0.020677219
-0.24285423
0.020405329
-0.26612241
0.019950608
-0.29051418
0.019431594
-0.31578188
0.018833053
-0.34178312
0.018209066
-0.36854234
0.017529093
-0.39625592
0.016780892
-0.42524134
0.015909576
-0.4558481
0.014883776
-0.48838013
0.013677777
-0.5230608
0.012296558
-0.56004276
0.010765459
-0.59943678
0.0091295271
-0.64133682
0.0074480648
-0.68583793
0.005787218
-0.73304794
0.0042156304
-0.78309924
0.0027951857
-0.83616213
0.0015767497
-0.89245045
0.00059406248
-0.95223364
-0.0001365015
-1.0158422
-0.00061652969
-1.0836537
-0.00086025397
-1.1561395
-0.00089320392
-1.2337771
-0.00074157983
-1.3172416
-0.00043831636
-1.4069636
0.013086777
-0.167279
0.016713552
-0.17058907
0.017784244
-0.17340955
0.020410839
-0.16543078
0.020594077
-0.18221501
0.02097671
-0.20086426
0.020980783
-0.22129588
0.020894732
-0.24334363
0.020578234
-0.26675004
0.02014807
-0.29123066
0.01958959
-0.31653841
0.018972986
-0.34254704
0.018290011
-0.36930326
0.017550982
-0.39702601
0.01671303
-0.42604479
0.015744115
-0.45670844
0.014605784
-0.48930814
0.013287395
-0.52405164
0.011799544
-0.56107685
0.010177251
-0.60048451
0.0084733058
-0.64236206
0.0067514502
-0.68680216
0.0050816344
-0.73391394
0.0035310372
-0.78383509
0.002158908
-0.83674429
0.0010095006
-0.89286589
0.00010964584
-0.95247978
-0.00053225339
-1.0159265
-0.00092441687
-1.0835895
-0.0010864115
-1.1559463
-0.001047014
-1.2334717
-0.00083390904
-1.316846
-0.00047950341
-1.4064841
0.011270581
-0.16203214
0.01483441
-0.16539986
0.015860911
-0.16866573
0.018343598
-0.17134231
0.020273089
-0.1651098
0.020879662
-0.18211796
0.021105979
-0.20098946
0.021233935
-0.22163508
0.021099223
-0.24386462
0.02080841
-0.26741038
0.020337338
-0.2919784
0.019761416
-0.31732684
0.019087886
-0.34334492
0.018350318
-0.37010259
0.017526632
-0.39783961
0.016595803
-0.42689648
0.01551546
-0.45761812
0.014261776
-0.49028252
0.01282848
-0.52508058
0.011237087
-0.56213669
0.0095308999
-0.6015421
0.0077688296
-0.64337944
0.0060198567
-0.68774038
0.0043543294
-0.73473723
0.0028383403
-0.78451452
0.0015256945
-0.83726048
0.00045425985
-0.8932105
-0.00035731615
-0.95265472
-0.00090802397
-1.0159429
-0.0012125699
-1.0834634
-0.0012950895
-1.1556982
-0.0011869365
-1.2331187
-0.00091669547
-1.3164089
-0.00051592467
-1.4059681
0.0094908439
-0.1570416
0.012984975
-0.1601827
0.014065289
-0.16360424
0.016482477
-0.16680461
0.01828765
-0.16935687
0.020589409
-0.16481954
0.021037978
-0.18204996
0.021391837
-0.20114736
0.021470665
-0.22200652
0.021364087
-0.24442029
0.021031844
-0.26810489
0.020543596
-0.29276059
0.019911521
-0.31815048
0.019185976
-0.34418058
0.018367605
-0.37094357
0.01745586
-0.39869967
0.016416554
-0.42779758
0.015220643
-0.45857698
0.013846623
-0.49130067
0.012299754
-0.52614324
0.010610123
-0.56321591
0.0088287524
-0.60260202
0.007021127
-0.64438071
0.005258505
-0.68864456
0.00361182
-0.73551071
0.0021432122
-0.78513204
0.00090100596
-0.83770723
-8.4905685e-05
-0.89348291
-0.00080372122
-0.95275902
-0.001261918
-1.0158936
-0.001479954
-1.0832785
-0.0014859099
-1.1553992
-0.0013129876
-1.2327224
-0.00099016733
-1.3159346
-0.00054770687
-1.4054204
0.0076955127
-0.15250071
0.011089044
-0.15514567
0.012305159
-0.15842257
0.014719444
-0.1618412
0.016491116
-0.16500808
0.01867399
-0.16744145
0.020773278
-0.16455484
0.021350321
-0.18200844
0.021659676
-0.20133637
0.021770148
-0.22241258
0.021623504
-0.24501195
0.02127503
-0.26883632
0.020731301
-0.29358037
0.020048515
-0.31901302
0.019244396
-0.34505737
0.0183417
-0.3718294
0.017324976
-0.39960809
0.016171903
-0.42874884
0.014853103
-0.45958346
0.013358244
-0.49235916
0.011700883
-0.527234
0.0099202279
-0.56430738
0.0080751214
-0.60365602
0.0062351826
-0.64535738
0.0044739769
-0.68950671
0.0028602054
-0.7362277
0.0014517833
-0.78568281
0.00028968866
-0.83808182
-0.000604106
-0.89368252
-0.0012270221
-0.95279392
-0.0015923946
-1.0157811
-0.0017258937
-1.0830385
-0.0016587497
-1.1550535
-0.0014253629
-1.2322872
-0.0010545732
-1.3154277
-0.00057506778
-1.4048454
0.0058527123
-0.14859706
0.0090945802
-0.15050625
0.010506059
-0.15334657
0.012958634
-0.15666176
0.014777096
-0.16012718
0.016924196
-0.16325829
0.018920242
-0.16558841
0.021105811
-0.16431033
0.021646543
-0.18199531
0.021991276
-0.2015575
0.022065561
-0.22285464
0.021904931
-0.24564185
0.021502748
-0.26960777
0.020909457
-0.29444131
0.020149253
-0.31991787
0.019263012
-0.34597868
0.018258135
-0.37276256
0.017130193
-0.40056638
0.015853952
-0.42974968
0.014409948
-0.46063517
0.012794971
-0.49345324
0.011032563
-0.52834634
0.0091708253
-0.56540309
0.007274565
-0.6046954
0.0054174376
-0.64630085
0.0036726398
-0.69031915
0.0021061784
-0.7368821
0.00076965446
-0.78616278
-0.00030353957
-0.83838239
-0.0011000449
-0.8938095
-0.0016250477
-0.95276127
-0.0018983539
-1.0156087
-0.0019500261
-1.0827472
-0.0018137247
-1.1546651
-0.0015243838
-1.2318174
-0.0011102797
-1.3148925
-0.00059822411
-1.4042471
0.0039503892
-0.14549979
0.0069764879
-0.14647897
0.0086167907
-0.14861698
0.011123587
-0.15151153
0.013050105
-0.15493477
0.015233361
-0.15843635
0.017218357
-0.1615564
0.019307185
-0.16378979
0.021424902
-0.16408869
0.022005429
-0.18200946
0.022320624
-0.20181256
0.022384576
-0.22333428
0.022173939
-0.24631304
0.021724282
-0.27042259
0.021054831
-0.29534689
0.020213694
-0.32086856
0.019226828
-0.34694737
0.018112735
-0.37374511
0.016862408
-0.40157484
0.01545901
-0.43079875
0.013888152
-0.46172835
0.012156532
-0.49457721
0.010297175
-0.52947269
0.0083658635
-0.56649439
0.0064331744
-0.60571114
0.0045743428
-0.64720255
0.0028616036
-0.69107457
0.001356024
-0.73746847
0.00010237532
-0.78656869
-0.00087454841
-0.83860788
-0.0015698089
-0.89386474
-0.0019961421
-0.95266348
-0.0021790678
-1.0153796
-0.0021522916
-1.0824087
-0.0019511413
-1.1542383
-0.0016105057
-1.2313171
-0.0011576877
-1.3143331
-0.00061741712
-1.4036297
0.001993674
-0.14334791
0.0047358472
-0.14325915
0.006611402
-0.14447358
0.009162734
-0.14665613
0.011233114
-0.14969454
0.013504769
-0.15320618
0.015559305
-0.1567773
0.01764165
-0.15989087
0.019681125
-0.16204601
0.021805037
-0.1638883
0.022364647
-0.18205348
0.022674322
-0.20210231
0.022694226
-0.22385457
0.022439813
-0.24702858
0.021916564
-0.27128432
0.021167539
-0.29630073
0.020226573
-0.3218683
0.019131311
-0.34796595
0.017895338
-0.37477804
0.016517162
-0.40263299
0.014982713
-0.43189331
0.013286421
-0.46285823
0.011444145
-0.49572418
0.0094978885
-0.53060471
0.0075108775
-0.56757209
0.0055572827
-0.60669408
0.0037132504
-0.6480542
0.0020477265
-0.69176627
0.00061608452
-0.73798218
-0.00054505111
-0.78689819
-0.0014196059
-0.83875809
-0.0020110555
-0.89384983
-0.0023390796
-0.95250347
-0.002434188
-1.0150977
-0.0023328902
-1.0820269
-0.0020714859
-1.1537774
-0.001684272
-1.2307906
-0.0011972477
-1.3137532
-0.0006329015
-1.4029968
-0.14224036
9.2252505e-09
0.0023966871
-0.14100875
0.004489607
-0.14113735
0.0070528714
-0.14236372
0.0092747073
-0.14469772
0.011662185
-0.14785195
0.01384373
-0.1514906
0.015999873
-0.15513552
0.018055472
-0.15826521
0.020108989
-0.16034996
0.022188094
-0.16371175
0.022748062
-0.18212723
0.023021742
-0.20242982
0.023003326
-0.22441808
0.022679954
-0.24779197
0.022079903
-0.27219669
0.021232339
-0.2973065
0.020183035
-0.32292002
0.018965389
-0.349036
0.017600763
-0.37586164
0.016088806
-0.40373908
0.014422719
-0.4330296
0.012604719
-0.46401881
0.010660055
-0.49688635
0.0086394932
-0.53173333
0.0066118787
-0.56862668
0.0046542879
-0.60763511
0.0028414425
-0.64884791
0.0012380571
-0.69238825
-0.00010776331
-0.73841947
-0.0011680005
-0.7871498
-0.0019355603
-0.83883358
-0.0024219285
-0.89376698
-0.0026530913
-0.95228456
-0.0026636957
-1.0147669
-0.0024922596
-1.0816061
-0.0021753837
-1.1532863
-0.0017463022
-1.2302415
-0.0012294405
-1.3131567
-0.00064493629
-1.4023519
-0.13984368
5.9942534e-09
-0.14224036
-0.0019936555
0.002273203
-0.13879234
0.0047991403
-0.13888362
0.0071526752
-0.14024169
0.0096549186
-0.14269045
0.011992456
-0.14600068
0.014281615
-0.14977235
0.016434913
-0.15351496
0.018513422
-0.15666965
0.02053985
-0.15870172
0.022594939
-0.16355862
0.023128243
-0.18223373
0.023370625
-0.20279712
0.023290082
-0.22502821
0.022894842
-0.2486069
0.02219943
-0.27316378
0.021244098
-0.29836756
0.020071262
-0.3240259
0.01872322
-0.35015846
0.017222151
-0.37699498
0.015573955
-0.40489032
0.013777693
-0.43420258
0.011844256
-0.46520301
0.0098081326
-0.49805499
0.0077274729
-0.53284892
0.0056760995
-0.5696485
0.0037317163
-0.60852539
0.00196655
-0.6495764
0.00043930021
-0.69293531
-0.00080996946
-0.7387775
-0.0017624344
-0.78732292
-0.0024197965
-0.83883571
-0.0028010962
-0.89361897
-0.0029378123
-0.95201045
-0.0028678796
-1.0143913
-0.0026310339
-1.0811505
-0.0022635737
-1.152769
-0.0017972719
-1.2296737
-0.0012547635
-1.3125469
-0.00065378555
-1.4016981
-0.13757048
4.8661258e-09
-0.13984368
-0.0023966753
-0.1433479
-0.0039503707
0.0024318603
-0.13642506
0.0048739927
-0.13660494
0.0074620535
-0.13804882
0.009953705
-0.1406517
0.012406071
-0.14412513
0.014716196
-0.14805363
0.016904855
-0.1519064
0.018975721
-0.15510552
0.020990621
-0.1570974
0.023001005
-0.16343139
0.023511367
-0.18237447
0.023700326
-0.20320737
0.023555018
-0.22568838
0.023070384
-0.24947786
0.022269756
-0.27418944
0.021190449
-0.29948675
0.019884835
-0.32518751
0.018396818
-0.35133312
0.016755097
-0.37817612
0.014969962
-0.40608258
0.013047727
-0.43540605
0.011007837
-0.46640271
0.008893145
-0.49922066
0.0067686845
-0.5339415
0.0047111118
-0.57062789
0.0027976213
-0.60935646
0.0010960106
-0.65023311
-0.00034207999
-0.6934032
-0.0014855548
-0.73905438
-0.0023248563
-0.78741786
-0.0028702807
-0.83876653
-0.0031477092
-0.89340908
-0.003193263
-0.95168506
-0.0030472917
-1.013975
-0.0027500102
-1.0806641
-0.002336885
-1.1522294
-0.0018378913
-1.2290905
-0.0012737255
-1.3119269
-0.00065971051
-1.4010384
-0.13513863
4.1652465e-09
-0.13757048
-0.002273193
-0.14100874
-0.004735835
-0.14549978
-0.0058526937
0.0024719722
-0.13402304
0.0050934651
-0.13423635
0.00770741
-0.13580253
0.010320167
-0.1385658
0.012817003
-0.14222594
0.015178712
-0.14632748
0.01738024
-0.15031091
0.019453733
-0.15356863
0.021440572
-0.15553696
0.023411298
-0.16333132
0.023878279
-0.18255242
0.024011115
-0.20366346
0.023785266
-0.22640327
0.023200921
-0.25040902
0.022278224
-0.27527721
0.021064513
-0.30066643
0.019614744
-0.32640544
0.017980798
-0.35255882
0.016195653
-0.37940181
0.014275757
-0.40731061
0.012234455
-0.43663267
0.010099344
-0.46760891
0.0079213668
-0.50037334
0.0057705317
-0.53500092
0.0037252024
-0.57155547
0.0018600388
-0.61012049
0.00023714737
-0.65081234
-0.0011001253
-0.69378863
-0.0021300567
-0.73924918
-0.002852404
-0.78743574
-0.0032855313
-0.83862871
-0.0034613833
-0.89314096
-0.0034198028
-0.95131255
-0.0032027074
-1.0135223
-0.002850119
-1.0801508
-0.0023962077
-1.1516711
-0.0018688943
-1.2284954
-0.0012868344
-1.3112998
-0.00066296838
-1.4003754
-0.13266666
3.8713816e-09
-0.13513862
-0.0024318522
-0.13879234
-0.0044895971
-0.14325914
-0.0069764758
-0.14859706
-0.007695494
0.0025867245
-0.1315163
0.0052670298
-0.13179597
0.0080050408
-0.1334874
0.010684453
-0.13643325
0.013250523
-0.14029775
0.01564646
-0.14459371
0.017867503
-0.14872468
0.019931548
-0.1520596
0.021893695
-0.15401936
0.023808272
-0.16326131
0.024228413
-0.18276972
0.02429179
-0.20416999
0.023974829
-0.22717717
0.023273814
-0.25140461
0.022217642
-0.27643034
0.020856402
-0.30190808
0.019254684
-0.32767932
0.017469935
-0.35383311
0.015541567
-0.38066762
0.013491726
-0.40856789
0.011340737
-0.43787406
0.0091242817
-0.46881183
0.0068998197
-0.50150263
0.0047413298
-0.53601705
0.0027268409
-0.57242227
0.00092704777
-0.61081039
-0.00060312759
-0.65130934
-0.0018293798
-0.69408931
-0.0027396692
-0.73936191
-0.0033428198
-0.78737845
-0.0036646149
-0.83842548
-0.0037421567
-0.8928186
-0.0036180865
-0.95089717
-0.0033350912
-1.0130374
-0.0029323888
-1.0796146
-0.0024424754
-1.1510975
-0.0018910212
-1.2278912
-0.0012945925
-1.3106682
-0.00066380904
-1.3997116
-0.13007994
3.5939879e-09
-0.13266666
-0.0024719648
-0.13642506
-0.0047991319
-0.14113735
-0.0066113918
-0.14647897
-0.0090945677
-0.15250071
-0.009490825
0.0026759222
-0.12892519
0.0054769751
-0.1292679
0.0083007659
-0.13110371
0.011066415
-0.13424914
0.013688508
-0.1383398
0.016123394
-0.1428496
0.018354914
-0.14714805
0.020410776
-0.15057669
0.022335193
-0.15254628
0.024189824
-0.16322272
0.024552602
-0.18303053
0.024535946
-0.2047311
0.024111402
-0.22801476
0.023281719
-0.25246869
0.022077456
-0.27765139
0.020558993
-0.30321239
0.018798191
-0.32900758
0.016860779
-0.35515232
0.014791924
-0.38196782
0.01261961
-0.40984676
0.010371145
-0.43912092
0.0080890848
-0.47000109
0.0058366315
-0.50259793
0.0036897876
-0.53698
0.001724713
-0.57321994
6.4522414e-06
-0.61141997
-0.0014183334
-0.65172039
-0.0025250032
-0.69430397
-0.0033112316
-0.7393935
-0.0037944689
-0.7872486
-0.0040071031
-0.83816053
-0.0039904449
-0.89244625
-0.003789026
-0.95044324
-0.0034455534
-1.0125242
-0.002997921
-1.0790592
-0.0024766432
-1.1505118
-0.0019050099
-1.2272808
-0.0012974904
-1.3100345
-0.00066247262
-1.3990491
-0.12740402
3.5811531e-09
-0.13007993
-0.002586717
-0.13402304
-0.0048739849
-0.13888362
-0.0070528632
-0.14447358
-0.0086167805
-0.15050624
-0.011089032
-0.1570416
-0.011270562
0.0027844411
-0.12623266
0.0056855378
-0.12665268
0.008609754
-0.12864705
0.011452131
-0.13201276
0.014133609
-0.13635001
0.016600171
-0.14109485
0.018842083
-0.14557936
0.020879409
-0.1491209
0.022761066
-0.15111753
0.024548811
-0.16321893
0.024844062
-0.18333865
0.024731883
-0.20535158
0.024187635
-0.22892068
0.02321369
-0.25360492
0.021849894
-0.27894229
0.020164673
-0.30457887
0.018240617
-0.33038742
0.016151073
-0.35651147
0.013947269
-0.38329548
0.011662919
-0.41113853
0.0093313492
-0.44036319
0.0070014799
-0.47116594
0.0047405402
-0.50364868
0.0026250259
-0.53788031
0.00072740488
-0.57394089
-0.00089427624
-0.61194403
-0.0022025804
-0.65204281
-0.0031828263
-0.69443238
-0.0038422605
-0.73934571
-0.0042063052
-0.7870494
-0.0043130361
-0.83783794
-0.0042069996
-0.89202827
-0.0039337397
-0.94995505
-0.0035353186
-1.0119868
-0.0030478622
-1.078488
-0.0024996732
-1.1499172
-0.0019115852
-1.2266667
-0.0012960008
-1.309401
-0.00065918758
-1.3983899
-0.12461958
3.8538979e-09
-0.12740402
-0.0026759146
-0.1315163
-0.0050934579
-0.13660493
-0.0071526678
-0.14236371
-0.0091627254
-0.14861697
-0.010506049
-0.15514567
-0.012984962
-0.16203213
-0.013086758
0.002892213
-0.12343933
0.0059029284
-0.12394585
0.0089215292
-0.12611645
0.011842999
-0.12972215
0.014578158
-0.134328
0.017075905
-0.13932867
0.01931981
-0.14401976
0.021333001
-0.14769284
0.023165658
-0.14973437
0.02487841
-0.16325328
0.025091856
-0.18369862
0.024872333
-0.20603628
0.024192501
-0.22989949
0.02306153
-0.25481656
0.021526358
-0.28030398
0.01966764
-0.3060059
0.017578332
-0.33181468
0.015340093
-0.35790429
0.013009943
-0.3846425
0.010626405
-0.41243359
0.0082284775
-0.44159018
0.0058700189
-0.47229542
0.0036209023
-0.50464456
0.001556255
-0.53870916
-0.00025669362
-0.57457847
-0.0017681893
-0.61237842
-0.002950601
-0.65227503
-0.0037993883
-0.69447525
-0.0043309387
-0.73922107
-0.0045778406
-0.78678459
-0.0045828769
-0.83746206
-0.0043928533
-0.89156916
-0.004053515
-0.94943685
-0.0036056916
-1.011429
-0.0030833838
-1.0779043
-0.0025125185
-1.1493163
-0.0019114482
-1.2260512
-0.0012905748
-1.3087696
-0.00065417343
-1.3977358
-0.12172737
4.0546473e-09
-0.12461958
-0.0027844338
-0.12892519
-0.0052670227
-0.13423635
-0.0074620461
-0.14024168
-0.0092746994
-0.14665612
-0.011123579
-0.15334657
-0.012305148
-0.1601827
-0.014834397
-0.167279
-0.015009407
0.0030044256
-0.12054083
0.0061222121
-0.12114653
0.009236988
-0.12351044
0.012233418
-0.12737741
0.01502126
-0.13227335
0.017542948
-0.13755181
0.019783567
-0.14247032
0.021767166
-0.14629434
0.023543427
-0.14839939
0.025168387
-0.16332981
0.025288823
-0.18411511
0.02494649
-0.20679027
0.024117622
-0.23095558
0.022815919
-0.25610612
0.021100028
-0.28173637
0.019062894
-0.30749046
0.016809267
-0.33328385
0.014428913
-0.35932326
0.011983656
-0.38599975
0.009516429
-0.41372154
0.007070691
-0.44279085
0.0047040828
-0.4733786
0.0024873711
-0.50557568
0.00049266876
-0.53945852
-0.0012196014
-0.57512706
-0.0026089039
-0.61272011
-0.0036578617
-0.65241656
-0.0043719541
-0.69443423
-0.004776091
-0.73902282
-0.0049091056
-0.78645836
-0.0048174573
-0.83703746
-0.004549276
-0.8910734
-0.0041497671
-0.94889278
-0.0036580301
-1.0108543
-0.0031056596
-1.0773111
-0.002516106
-1.1487116
-0.0019052718
-1.2254365
-0.0012816497
-1.3081421
-0.00064763254
-1.3970881
-0.11872295
3.8285767e-09
-0.12172737
-0.0028922055
-0.12623266
-0.0054769675
-0.13179597
-0.0077074026
-0.13804882
-0.0096549114
-0.14469771
-0.011233107
-0.15151152
-0.012958625
-0.15842257
-0.014065278
-0.16539985
-0.016713538
-0.17259418
-0.017122797
0.0031175839
-0.1175362
0.0063438552
-0.1182534
0.0095519872
-0.12082901
0.012621979
-0.12497813
0.015456534
-0.13018694
0.017997293
-0.13576554
0.020229261
-0.14093242
0.022176519
-0.14492744
0.023885389
-0.14711639
0.025411764