/*--------------------------------*- C++ -*----------------------------------*\
| =========                 |                                                 |
| \\      /  F ield         | OpenFOAM: The Open Source CFD Toolbox           |
|  \\    /   O peration     | Version:  5.0                                   |
|   \\  /    A nd           | Web:      www.OpenFOAM.org                      |
|    \\/     M anipulation  |                                                 |
\*---------------------------------------------------------------------------*/
FoamFile
{
    version     2.0;
    format      ascii;
    class       volScalarField;
    location    "165";
    object      pMean;
}
// * * * * * * * * * * * * * * * * * * * * * * * * * * * * * * * * * * * * * //

dimensions      [0 2 -2 0 0 0 0];

internalField   nonuniform List<scalar> 
9200
(
-0.0005864882
-0.0005796064
-0.0013146748
-0.00057265802
-0.0013059545
-0.0022449116
-0.0005639518
-0.0012881767
-0.0022282966
-0.0030749626
-0.00055152118
-0.0012642952
-0.0021996736
-0.0030552195
-0.0039339388
-0.00053742803
-0.0012309655
-0.0021612025
-0.0030179422
-0.0039111537
-0.0047593069
-0.00052022101
-0.0011924482
-0.0021078339
-0.002968036
-0.0038667603
-0.0047363276
-0.0055756032
-0.0005011183
-0.0011463258
-0.0020453081
-0.0028982136
-0.003807923
-0.0046877071
-0.005554194
-0.006369372
-0.00047984439
-0.0010948714
-0.0019705195
-0.0028158025
-0.0037244133
-0.0046242392
-0.0055040007
-0.0063521072
-0.0071449531
-0.00045699339
-0.0010377886
-0.0018865072
-0.0027168133
-0.0036250698
-0.004531907
-0.0054398712
-0.0063036134
-0.0071342936
-0.007896384
-0.00043282382
-0.0009762016
-0.001793149
-0.0026049694
-0.0035047941
-0.0044211108
-0.0053431983
-0.0062436548
-0.0070909156
-0.0078949582
-0.0086237226
-0.00040780553
-0.00091063797
-0.0016921764
-0.0024801731
-0.0033679455
-0.0042852318
-0.0052259202
-0.0061481416
-0.0070401824
-0.0078602999
-0.008634257
-0.0093221944
-0.00038238972
-0.00084187663
-0.0015846655
-0.0023446269
-0.003214432
-0.0041290417
-0.0050796135
-0.006030507
-0.0069517401
-0.0078241647
-0.0086122863
-0.0093473531
-0.0099901171
-0.00035705178
-0.00077055857
-0.0014720693
-0.002199779
-0.0030469099
-0.0039521456
-0.004909392
-0.0058800677
-0.0068404122
-0.007749101
-0.0085964772
-0.0093418845
-0.010032571
-0.010623263
-0.0003321565
-0.00069732054
-0.0013557145
-0.0020475566
-0.0028672113
-0.0037575744
-0.0047143587
-0.0057020448
-0.0066928633
-0.0076511495
-0.008541498
-0.0093520561
-0.010047627
-0.010685512
-0.011219247
-0.00030791545
-0.00062280665
-0.0012368994
-0.0018897356
-0.0026777997
-0.0035474475
-0.004497726
-0.0054948947
-0.0065142115
-0.007513976
-0.0084646326
-0.0093240591
-0.010089734
-0.01072489
-0.011303656
-0.011774588
-0.00028382343
-0.00054791229
-0.0011168135
-0.0017280891
-0.0024809979
-0.0033246881
-0.0042617839
-0.0052618946
-0.0063019605
-0.0073424012
-0.0083461129
-0.0092762329
-0.01009585
-0.010804518
-0.011371106
-0.011883289
-0.012286636
-0.00025852427
-0.00047365723
-0.0009965803
-0.0015643057
-0.0022791509
-0.0030920966
-0.0040098444
-0.0050053506
-0.0060592566
-0.0071326877
-0.0081901859
-0.0091850035
-0.010085347
-0.010851744
-0.011493881
-0.011982189
-0.012421592
-0.01275285
-0.00022982925
-0.00040142204
-0.00087696484
-0.001400104
-0.0020744627
-0.0028525403
-0.0037451531
-0.0047288512
-0.0057882614
-0.0068876317
-0.0079915753
-0.009053802
-0.010030575
-0.010886952
-0.011589346
-0.012153202
-0.012555199
-0.012915639
-0.013171208
-0.00019458863
-0.00033313033
-0.00075851987
-0.0012371088
-0.0018690119
-0.002608759
-0.0034710808
-0.0044360088
-0.0054927329
-0.0066090528
-0.007752489
-0.0088755231
-0.0099338652
-0.010878003
-0.011678612
-0.012303493
-0.012779262
-0.013086765
-0.013363091
-0.013540093
-0.00014916271
-0.0002710102
-0.00064169985
-0.001076914
-0.0016646082
-0.0023633545
-0.0031908745
-0.0041306611
-0.005176582
-0.0063007286
-0.0074741937
-0.0086515292
-0.0097859742
-0.01082593
-0.011725055
-0.012454996
-0.012990812
-0.013368019
-0.013574095
-0.013761968
-0.013858375
-9.0042262e-05
-0.00021746004
-0.00052666193
-0.00092127671
-0.0014628779
-0.0021186607
-0.0029076293
-0.0038165609
-0.0048440782
-0.0059667561
-0.0071603256
-0.0083822808
-0.0095871466
-0.010719069
-0.011728161
-0.012566343
-0.013212443
-0.013646491
-0.013916219
-0.014014681
-0.014110771
-0.014125429
-1.4553915e-05
-0.00017470911
-0.00041346829
-0.00077196345
-0.0012653462
-0.0018767814
-0.0026241512
-0.0034973169
-0.0044994787
-0.0056117699
-0.0068150333
-0.0080710704
-0.0093367714
-0.010556266
-0.01167357
-0.012635294
-0.013398019
-0.013945546
-0.01426682
-0.014420568
-0.014406511
-0.014408483
-0.014341118
7.8524634e-05
-0.00014447886
-0.00030224493
-0.00063064201
-0.0010733751
-0.0016397629
-0.00234297
-0.0031762658
-0.004146946
-0.0052405039
-0.0064432302
-0.00772193
-0.0090375641
-0.010335546
-0.011558447
-0.012644574
-0.013543502
-0.014214281
-0.014650022
-0.014847584
-0.014878335
-0.014748019
-0.014654599
-0.014505713
0.0001885455
-0.00012779812
-0.00019329546
-0.00049878699
-0.00088822299
-0.0014095528
-0.0020664374
-0.0028564426
-0.0037903866
-0.0048576645
-0.0060500829
-0.0073399282
-0.0086932449
-0.010058781
-0.011379157
-0.0125894
-0.013628505
-0.014446739
-0.01501025
-0.015320693
-0.015385303
-0.015287137
-0.01503816
-0.014849104
-0.014619823
0.00031293553
-0.00012500903
-8.7098053e-05
-0.00037757265
-0.00071108542
-0.0011880166
-0.0017967187
-0.0025406655
-0.003433404
-0.0044677458
-0.0056408419
-0.0069305858
-0.0083088839
-0.0097291376
-0.011136435
-0.012464168
-0.013646052
-0.014619318
-0.015339712
-0.015779981
-0.01595321
-0.015876525
-0.015645119
-0.015276395
-0.014992395
-0.01468461
0.00044763306
-0.00013524844
1.5950261e-05
-0.00026779642
-0.00054312724
-0.00097690821
-0.0015358394
-0.0022315788
-0.003079344
-0.0040749427
-0.0052206249
-0.0064996552
-0.0078902414
-0.0093514939
-0.010832627
-0.012268172
-0.013588281
-0.01472264
-0.01561153
-0.016215815
-0.016518168
-0.016542951
-0.016318401
-0.015950848
-0.0154626
-0.015085212
-0.014701808
0.00058805088
-0.00015503757
0.00011527975
-0.00016987192
-0.00038534372
-0.00077778837
-0.001285732
-0.0019317104
-0.0027313224
-0.0036831832
-0.0047942877
-0.0060528561
-0.0074435111
-0.0089316987
-0.010472184
-0.01200263
-0.013452722
-0.014746312
-0.015813763
-0.016598083
-0.017068893
-0.017219097
-0.017085997
-0.016708424
-0.016203407
-0.015597068
-0.015128833
-0.014673359
0.00072917116
-0.00017759594
0.0002084032
-8.3850089e-05
-0.00023847934
-0.00059211654
-0.0010482029
-0.0016434838
-0.0023922848
-0.0032961499
-0.0043664072
-0.0055957089
-0.006974999
-0.0084762769
-0.010060849
-0.011671285
-0.013239137
-0.014685782
-0.015933254
-0.016912183
-0.017572146
-0.017892171
-0.01787762
-0.017578599
-0.017044717
-0.016402425
-0.015680651
-0.015124986
-0.014601516
0.00086290196
-0.00019930678
0.00028970355
-9.4902526e-06
-0.00010328573
-0.00042106769
-0.00082483138
-0.0013692035
-0.0020650421
-0.0029173372
-0.0039412935
-0.0051334754
-0.0064909132
-0.0079920551
-0.0096053388
-0.011279537
-0.012950253
-0.014539017
-0.015963065
-0.017142008
-0.018010636
-0.018526016
-0.018679279
-0.018488675
-0.018017693
-0.017325885
-0.016548066
-0.015714645
-0.015075714
-0.014488692
0.00099058507
-0.00022526744
0.00036104522
5.441777e-05
1.8729405e-05
-0.00026536005
-0.00061696157
-0.0011109559
-0.0017522521
-0.0025501327
-0.0035230449
-0.0046711554
-0.0059972489
-0.0074858981
-0.0091129064
-0.0108341
-0.01259084
-0.014307372
-0.015899017
-0.017277963
-0.018365189
-0.019100706
-0.019452178
-0.019423771
-0.019047816
-0.018400664
-0.017551155
-0.016640894
-0.015700694
-0.014983335
-0.014337353
0.0011285154
-0.00025735372
0.00042588194
0.00011368704
0.00012528391
-0.00012560671
-0.00042572599
-0.00087048283
-0.0014564004
-0.0021978103
-0.0031156148
-0.0042135333
-0.005499754
-0.0069645434
-0.0085910291
-0.010342507
-0.012167367
-0.013994666
-0.015740735
-0.017313385
-0.018623322
-0.019593959
-0.0201739
-0.020342828
-0.02011971
-0.019551019
-0.018725584
-0.01772028
-0.016681975
-0.015640773
-0.014850285
-0.014150205
0.0012693193
-0.00029296236
0.00048235375
0.00016712536
0.00022272116
-1.5256432e-06
-0.00025273657
-0.00064920568
-0.0011796482
-0.0018634146
-0.0027228197
-0.0037652587
-0.0050039585
-0.006434528
-0.0080471808
-0.0098127504
-0.011687465
-0.013606829
-0.015490714
-0.017245788
-0.018775581
-0.019990239
-0.0208191
-0.021221168
-0.021190498
-0.020761494
-0.019994954
-0.01899111
-0.017833612
-0.01667284
-0.015537072
-0.014679116
-0.013930215
0.0014062622
-0.00032949188
0.00054123086
0.00020132255
0.00031605736
0.00011617769
-9.9341142e-05
-0.00044875637
-0.00092378809
-0.001549581
-0.0023482847
-0.0033308723
-0.0045152504
-0.0059021994
-0.0074887119
-0.0092529882
-0.011159502
-0.01315134
-0.015154012
-0.017075954
-0.018816996
-0.020277033
-0.021369104
-0.022030529
-0.022233561
-0.021987908
-0.021344178
-0.020376915
-0.019196572
-0.017892007
-0.016615372
-0.015392049
-0.014472614
-0.013680155
0.0015344986
-0.0003669847
0.00060129745
0.00023223428
0.00039222236
0.00023006587
4.5621305e-05
-0.00026996225
-0.00069105867
-0.0012585515
-0.001995253
-0.002914714
-0.0040389133
-0.00537378
-0.0069228277
-0.0086713767
-0.010592236
-0.012636753
-0.014737656
-0.016807681
-0.018746225
-0.020446536
-0.021808136
-0.0227491
-0.023217966
-0.023202104
-0.022728338
-0.021863437
-0.020694935
-0.019341909
-0.017896808
-0.016511804
-0.015208413
-0.014233724
-0.013402726
0.0016496276
-0.00040405723
0.00065800552
0.00026641002
0.00046314674
0.0003126036
0.00018718721
-9.8761863e-05
-0.00048299623
-0.0009930167
-0.0016665255
-0.0025207072
-0.003580069
-0.0048554165
-0.0063566379
-0.0080760088
-0.0099945896
-0.01207229
-0.014250142
-0.016447194
-0.018565392
-0.020494873
-0.022125243
-0.02335772
-0.024118868
-0.024370823
-0.02411821
-0.023405626
-0.022315725
-0.020947757
-0.019427672
-0.017849785
-0.016364621
-0.014988971
-0.013965253
-0.013100618
0.0017474138
-0.00043850558
0.00070860981
0.00029819739
0.00053223164
0.00038551546
0.00029556421
6.7897731e-05
-0.00028334775
-0.00075477396
-0.0013654346
-0.0021522822
-0.0031434434
-0.0043531299
-0.0057972094
-0.00747494
-0.0093755361
-0.01146755
-0.013700966
-0.016002624
-0.018279517
-0.020422051
-0.022313627
-0.023842035
-0.02491369
-0.025466396
-0.025478655
-0.024973724
-0.024014378
-0.022698273
-0.021134851
-0.019454962
-0.017753084
-0.016176518
-0.014736586
-0.013670007
-0.012776485
0.0018241418
-0.00046838627
0.00075229714
0.00032451576
0.00059835616
0.0004608583
0.000394308
0.00019103371
-8.9068166e-05
-0.00052483363
-0.0010944763
-0.0018134793
-0.0027332391
-0.0038725499
-0.0052515346
-0.0068762368
-0.0087440978
-0.010832352
-0.013100271
-0.015483489
-0.017896002
-0.020231445
-0.022370727
-0.024191964
-0.025584507
-0.026462912
-0.026779499
-0.026531239
-0.02576118
-0.024550011
-0.023009157
-0.021256379
-0.019425396
-0.017609163
-0.015950332
-0.014454146
-0.013350747
-0.01243296
0.0018768561
-0.00049210271
0.00078831055
0.00034590322
0.00065670686
0.00053259078
0.0004914604
0.00030518037
5.5957653e-05
-0.00030135345
-0.00083197937
-0.0015075004
-0.0023543294
-0.0034187548
-0.0047262693
-0.006287955
-0.0081093836
-0.01017669
-0.012458633
-0.014900286
-0.01742408
-0.019929311
-0.022297806
-0.024401947
-0.026117657
-0.027338797
-0.027991692
-0.028045922
-0.027518887
-0.026473895
-0.02500886
-0.023247274
-0.021313167
-0.019341037
-0.017420738
-0.015688996
-0.014144527
-0.013010176
-0.012072554
0.0019036719
-0.00050860268
0.00081591271
0.00036287813
0.00070637594
0.00059428601
0.0005850398
0.00042018739
0.00019392398
-0.00013691983
-0.00057614632
-0.0012097961
-0.0020108874
-0.0029975756
-0.0042275232
-0.0057178834
-0.0074805787
-0.0095107498
-0.011786973
-0.014264209
-0.016874347
-0.019524219
-0.022099506
-0.024470645
-0.026504172
-0.028076585
-0.029090045
-0.029485896
-0.029253697
-0.028432588
-0.027106129
-0.025388199
-0.023412346
-0.021306651
-0.019204341
-0.017190727
-0.015395502
-0.013810564
-0.012650906
-0.011697653
-0.00051699035
0.001903672
0.00083418818
0.00037563771
0.00074691011
0.00064602091
0.00066720077
0.0005312944
0.00033055468
2.2919921e-05
-0.00038746175
-0.00091904834
-0.0016754633
-0.0026142922
-0.003762233
-0.0051732624
-0.0068666927
-0.0088449073
-0.011096546
-0.013587021
-0.01625842
-0.019026546
-0.021783305
-0.024400592
-0.026739635
-0.028663552
-0.030053171
-0.030822523
-0.030931347
-0.030391343
-0.029264225
-0.027653156
-0.025686275
-0.023504876
-0.021238819
-0.019018098
-0.016922199
-0.015072864
-0.013455031
-0.012275431
-0.011310483
0.00084298615
-0.0005169904
0.0018768562
0.00038380231
0.00077779696
0.00068800417
0.00073691825
0.00062803995
0.00046249163
0.000182174
-0.00019979851
-0.00070526171
-0.0013466476
-0.002238453
-0.003336992
-0.0046622624
-0.0062762367
-0.0081894714
-0.010398936
-0.012881003
-0.015588754
-0.018448074
-0.021358976
-0.024197684
-0.026823949
-0.02909175
-0.030864314
-0.032030486
-0.032520038
-0.032314059
-0.031448135
-0.030006708
-0.028111342
-0.025902294
-0.02352611
-0.021112154
-0.018785371
-0.016618325
-0.014724074
-0.013080599
-0.011886103
-0.01091313
0.00038760542
0.00084298615
-0.00050860269
0.0018241419
0.00079796022
0.00071993042
0.00079374475
0.00070963423
0.00057780041
0.00033657837
-1.4038174e-05
-0.00048769499
-0.0011036312
-0.0018687417
-0.002918397
-0.0041930022
-0.0057187837
-0.0075543459
-0.0097058117
-0.012158941
-0.014878558
-0.017801742
-0.020838134
-0.023870644
-0.026760906
-0.029357927
-0.031511587
-0.033088821
-0.033990651
-0.034166204
-0.033620572
-0.032414303
-0.03065411
-0.028478175
-0.0260364
-0.023477968
-0.020929565
-0.018509436
-0.016282326
-0.014352067
-0.012689813
-0.011485134
-0.010507559
0.00080740507
0.00038760536
0.00083418805
-0.00049210284
0.0017474139
0.00074063589
0.00083708663
0.00077602209
0.00067541344
0.00047149763
0.00016592127
-0.00027271971
-0.00085013702
-0.0015936019
-0.0025049068
-0.0037290537
-0.0052042355
-0.0069506154
-0.009028553
-0.01143389
-0.01414176
-0.017101531
-0.020233932
-0.023430525
-0.026557672
-0.029463217
-0.031988085
-0.033981375
-0.035317961
-0.035915124
-0.035744819
-0.034838204
-0.033281237
-0.031201748
-0.028752277
-0.026089627
-0.023362989
-0.020694322
-0.01819372
-0.015917423
-0.013959671
-0.012285072
-0.011074608
-0.010095606
0.00075024102
0.000807405
0.00038380223
0.00081591257
-0.00046838637
0.0016496277
0.00086544373
0.00082644127
0.0007548958
0.00058547486
0.00032326263
-6.4327256e-05
-0.00060110038
-0.0012991297
-0.0021928714
-0.0032687075
-0.0046931385
-0.0063901858
-0.008379887
-0.010718762
-0.01339278
-0.016362399
-0.019560892
-0.022890346
-0.026224275
-0.029412681
-0.03229172
-0.034697128
-0.036481314
-0.037531417
-0.037785108
-0.03724018
-0.03595533
-0.034041629
-0.031646245
-0.028933383
-0.026063836
-0.02318425
-0.020409981
-0.01784174
-0.015526769
-0.013549571
-0.011868643
-0.010656486
-0.0096789479
0.0008788109
0.00075024099
0.00079796013
0.00037563749
0.00078831027
-0.0004385058
0.0015344987
0.00085899619
0.00081532794
0.00067813359
0.00045624157
0.000118012
-0.00036007249
-0.0010117787
-0.0018498707
-0.002917223
-0.0041835129
-0.0058306341
-0.0077739875
-0.010028027
-0.012646096
-0.01560006
-0.018834827
-0.022264878
-0.025773189
-0.029214799
-0.032424865
-0.03523022
-0.037465184
-0.038989817
-0.03970809
-0.039581905
-0.03863742
-0.036961606
-0.034689604
-0.031985556
-0.029022293
-0.025961651
-0.022945304
-0.020080318
-0.017457005
-0.015113387
-0.013124319
-0.011442688
-0.010232603
-0.0092591114
0.00087378269
0.00087881088
0.0007406357
0.0007777967
0.00036287788
0.00075229683
-0.00040405744
0.0014062623
0.00085463678
0.00074854378
0.00056436995
0.00027206711
-0.00014905413
-0.00073406101
-0.0015183831
-0.0025198746
-0.0037882956
-0.0052697211
-0.0071655697
-0.0093783498
-0.011917968
-0.014830537
-0.018072601
-0.021570529
-0.025219058
-0.028881017
-0.03239388
-0.03557974
-0.038259428
-0.04027
-0.041483924
-0.041826482
-0.041287323
-0.03992282
-0.037848166
-0.035220797
-0.032218947
-0.029020816
-0.025786392
-0.022650083
-0.019709188
-0.017042917
-0.014680173
-0.012686405
-0.011009278
-0.009804627
-0.0088375757
0.00087293191
0.0008737826
0.00086544353
0.00071993019
0.00074690982
0.00034590282
0.00070860936
-0.00036698504
0.0012693194
0.00079432584
0.00064650758
0.00039724908
2.9176022e-05
-0.00049066138
-0.0011989077
-0.0021379441
-0.0033281411
-0.0048265615
-0.0065520352
-0.0087216701
-0.011227775
-0.01407188
-0.017291693
-0.020825109
-0.024578554
-0.02842541
-0.032208639
-0.035749311
-0.038859251
-0.041357084
-0.043087314
-0.043939687
-0.043865145
-0.042884046
-0.04108409
-0.038607781
-0.0356324
-0.032346964
-0.028931722
-0.025541976
-0.02230273
-0.019300373
-0.016602774
-0.014230051
-0.012238292
-0.010570248
-0.0093739848
-0.0084156081
0.00081562391
0.00087293181
0.00085899607
0.00083708639
0.00068800376
0.00070637548
0.00032451532
0.00065800503
-0.00032949222
0.0011285154
0.00069998111
0.00049229208
0.00017392717
-0.0002851311
-0.00091865797
-0.001770905
-0.0028885022
-0.0042947245
-0.0060564333
-0.0080550716
-0.010524827
-0.013346368
-0.016511899
-0.020047386
-0.023870129
-0.027864493
-0.031882133
-0.035746642
-0.039264907
-0.042241823
-0.044498281
-0.045891228
-0.046332645
-0.04580311
-0.044356022
-0.04211061
-0.039234966
-0.035923158
-0.032371406
-0.028758651
-0.025232706
-0.021907376
-0.018857611
-0.016140046
-0.013766006
-0.011782012
-0.010126915
-0.0089419568
-0.0079936708
0.00072498423
0.0008156239
0.00085463667
0.00082644097
0.00079374431
0.00064602044
0.00065670634
0.00029819679
0.00060129682
-0.00029296284
0.00099058513
0.00055419922
0.00028375336
-0.00011830652
-0.00068202359
-0.0014487149
-0.0024673497
-0.0037896647
-0.0054429225
-0.0075026396
-0.0098058258
-0.012600785
-0.015758531
-0.019258764
-0.023113596
-0.027216978
-0.031430228
-0.035583064
-0.039481307
-0.042920463
-0.045702607
-0.047655786
-0.04865468
-0.0486383
-0.047620357
-0.045688787
-0.042993622
-0.039726049
-0.036093382
-0.032295256
-0.028505843
-0.024862964
-0.021468198
-0.018385011
-0.015658379
-0.013290285
-0.011318602
-0.009680709
-0.0085103546
-0.0075725801
0.0005832277
0.00072498423
0.00079432565
0.00081532762
0.00077602176
0.00073691778
0.00059428535
0.00059835545
0.00026640934
0.00054123019
-0.00025735419
0.00086290192
0.00035534801
8.1713738e-06
-0.00049005204
-0.0011766794
-0.0020974121
-0.0033073789
-0.0048636882
-0.0067967789
-0.009192205
-0.01183143
-0.014975944
-0.018487644
-0.02233173
-0.026503371
-0.030871404
-0.035273224
-0.039517487
-0.043394455
-0.046691912
-0.049213738
-0.050800495
-0.051349942
-0.050832637
-0.04929825
-0.04686976
-0.04372638
-0.040079252
-0.036144907
-0.032122369
-0.028177753
-0.024437316
-0.020990016
-0.017887012
-0.015160241
-0.012803536
-0.010849978
-0.0092353842
-0.0080811609
-0.007137357
0.00038905736
0.00058322759
0.00069998088
0.00074854356
0.00075489547
0.00070963372
0.0006672001
0.00053259004
0.00053223086
0.00023223344
0.00048235296
-0.00022526804
0.00072917114
9.0672795e-05
-0.00034463404
-0.00095614289
-0.0017850785
-0.0028834146
-0.0043123522
-0.006134
-0.0083825597
-0.011152675
-0.01416007
-0.017676009
-0.021555991
-0.025747479
-0.030226412
-0.034834792
-0.039386237
-0.043669876
-0.047463509
-0.050551526
-0.052744751
-0.053901926
-0.053949182
-0.052892669
-0.050819918
-0.047888477
-0.044304324
-0.04029468
-0.036080761
-0.031856998
-0.027779212
-0.023961327
-0.020478185
-0.017366307
-0.014645708
-0.012308382
-0.010383375
-0.008793885
-0.0076286637
-0.0066833473
0.00012965491
0.0003890572
0.00055419906
0.00064650735
0.00067813317
0.00067541289
0.00062803939
0.00058503909
0.00046085738
0.00046314578
0.00020132166
0.00042588112
-0.00019930735
0.00058805078
-0.00024971335
-0.00078924641
-0.0015320664
-0.0025254294
-0.0038272938
-0.0055050613
-0.0076260187
-0.010227369
-0.013412738
-0.016819633
-0.020725997
-0.024983676
-0.029519626
-0.034288196
-0.039103753
-0.043756957
-0.048019848
-0.051661595
-0.054468229
-0.056263035
-0.056928797
-0.056425074
-0.054796923
-0.052170612
-0.048736884
-0.04472516
-0.040373957
-0.035904578
-0.031504002
-0.027316509
-0.02344136
-0.019935589
-0.016822185
-0.014118414
-0.011816547
-0.0099224847
-0.0083138085
-0.0071584636
-0.0062180937
-0.00020468807
0.00012965487
0.00035534779
0.00049229169
0.00056436948
0.00058547441
0.00057779981
0.00053129366
0.0004914595
0.00038551448
0.00039222135
0.00016712435
0.00036104431
-0.00017759661
0.00044763301
-0.00068024354
-0.0013407796
-0.0022356307
-0.0034176524
-0.0049512168
-0.006910133
-0.0093662434
-0.012359484
-0.016001069
-0.01983763
-0.02414915
-0.028788062
-0.033657779
-0.038689456
-0.043669679
-0.048367837
-0.052542134
-0.055957799
-0.058407985
-0.059734393
-0.059849678
-0.058751408
-0.056525904
-0.053338105
-0.049409526
-0.044988453
-0.040319551
-0.035620904
-0.031070292
-0.026797075
-0.022880432
-0.019360523
-0.016259553
-0.013596158
-0.011332547
-0.0093947042
-0.0078214399
-0.0066746019
-0.0057437203
-0.00062835805
-0.00020468826
9.0672361e-05
0.00028375281
0.00039724862
0.0004562411
0.00047149698
0.00046249082
0.00042018661
0.00039430709
0.00031260248
0.00031605622
0.00011368604
0.00028970269
-0.00015503818
0.00031293547
-0.0012157787
-0.0020167353
-0.0030862412
-0.0044833594
-0.0062791061
-0.0085534129
-0.011382358
-0.014807498
-0.018946143
-0.023240139
-0.027966294
-0.032982784
-0.038166907
-0.043425678
-0.048518446
-0.053195959
-0.057206754
-0.060317516
-0.062334331
-0.063123722
-0.062633682
-0.060903656
-0.058062632
-0.054313024
-0.049903159
-0.045094818
-0.040135192
-0.035237061
-0.030564367
-0.026223941
-0.022275577
-0.01875954
-0.015703906
-0.013084071
-0.010745152
-0.0088602789
-0.0073116243
-0.0061808669
-0.0052595962
-0.0011560698
-0.00062835831
-0.00024971372
8.1708388e-06
0.00017392656
0.00027206642
0.00032326192
0.00033657768
0.00033055384
0.00030517944
0.00029556317
0.00023006478
0.00022272004
5.4416736e-05
0.00020840233
-0.00013524908
0.00018854553
-0.001873628
-0.0028361367
-0.0041050246
-0.005745803
-0.0078361592
-0.010461942
-0.013702544
-0.017600112
-0.022275144
-0.027051269
-0.032194853
-0.037577
-0.04304683
-0.048486673
-0.05363014
-0.058213103
-0.061979278
-0.064702936
-0.066209118
-0.066395744
-0.065251161
-0.062859651
-0.059393133
-0.055088502
-0.050215796
-0.045046493
-0.039828257
-0.034762521
-0.02998908
-0.025592518
-0.021635385
-0.018167473
-0.015160889
-0.012419462
-0.010159155
-0.0083040318
-0.006791776
-0.0056761329
-0.0047665869
-0.0018050607
-0.00115607
-0.00068024394
-0.0003446348
-0.00011830746
2.9175069e-05
0.00011801125
0.00016592056
0.00018217312
0.00019392294
0.00019103279
0.0001871862
0.00011617654
0.00012528275
-9.4912116e-06
0.000115279
-0.00012500956
7.8524721e-05
-0.0026725732
-0.0038196988
-0.0053146859
-0.0072294826
-0.0096487788
-0.012663411
-0.016355199
-0.020765011
-0.026013487
-0.031292082
-0.036847935
-0.042574928
-0.048291659
-0.053856135
-0.058979007
-0.063385883
-0.066821241
-0.069073527
-0.069993208
-0.069515821
-0.067674529
-0.064600257
-0.060506132
-0.055659074
-0.050347359
-0.044850399
-0.039409019
-0.03419966
-0.029337719
-0.024913855
-0.021005876
-0.017590569
-0.014403904
-0.011765191
-0.0095449558
-0.007737811
-0.0062599701
-0.0051617498
-0.004264857
-0.0025940046
-0.0018050608
-0.0012157793
-0.00078924732
-0.00049005298
-0.00028513214
-0.00014905515
-6.432826e-05
-1.4039133e-05
2.2919032e-05
5.5956643e-05
6.7896742e-05
4.562024e-05
-1.5267224e-06
1.8728371e-05
-8.3850997e-05
1.5949536e-05
-0.00012779861
-1.4553744e-05
-0.0036330406
-0.0049896774
-0.0067391622
-0.0089602634
-0.011744161
-0.015185818
-0.019368077
-0.024328461
-0.030183665
-0.035979503
-0.041933975
-0.047975187
-0.05388919
-0.059511452
-0.064533541
-0.068675992
-0.07169061
-0.07338683
-0.073647313
-0.072450929
-0.069879117
-0.066109128
-0.061391789
-0.056021469
-0.050303606
-0.044517274
-0.0388789
-0.033538963
-0.028624212
-0.024247365
-0.020394035
-0.01672253
-0.013667878
-0.011074648
-0.008921715
-0.0071592796
-0.0057181458
-0.0046378994
-0.0037549715
-0.0035431491
-0.0025940049
-0.0018736286
-0.0013407804
-0.00095614397
-0.00068202494
-0.00049066283
-0.00036007386
-0.00027272077
-0.00019979946
-0.00013692085
-8.9069266e-05
-9.8762792e-05
-9.9342091e-05
-0.00012560776
-0.00010328672
-0.00016987269
-8.709865e-05
-0.00014447927
-9.0042022e-05
-0.0047769682
-0.0063696873
-0.0084038152
-0.010964867
-0.014149826
-0.018056892
-0.022767855
-0.028314422
-0.03480414
-0.041126241
-0.047456006
-0.05377003
-0.059820506
-0.065423745
-0.070256625
-0.074040712
-0.076542662
-0.077599376
-0.077133156
-0.075170728
-0.071843019
-0.067371233
-0.062042617
-0.056179446
-0.050095255
-0.044046975
-0.038224652
-0.03279763
-0.027923988
-0.023600934
-0.01939571
-0.015887506
-0.012885139
-0.010376714
-0.0082859329
-0.0065708259
-0.0051663271
-0.0041054055
-0.0032373586
-0.0046742578
-0.0035431494
-0.0026725737
-0.0020167361
-0.0015320677
-0.001176681
-0.00091865951
-0.00073406257
-0.00060110182
-0.00048769629
-0.00038746289
-0.0003013544
-0.00028334875
-0.00026996314
-0.00025273749
-0.00026536096
-0.00023848017
-0.00026779711
-0.00019329601
-0.00017470946
-0.00014916244
-0.0061277765
-0.0079846982
-0.010334891
-0.013270296
-0.016893297
-0.021303567
-0.02657954
-0.032743935
-0.039889757
-0.046740001
-0.053410755
-0.059944657
-0.066060013
-0.07155793
-0.076105832
-0.079433658
-0.081330719
-0.081668096
-0.08041478
-0.077647503
-0.073545368
-0.068373858
-0.062459479
-0.056143038
-0.049719766
-0.043421262
-0.03746714
-0.032070264
-0.027245999
-0.022450508
-0.018443931
-0.014993052
-0.012097141
-0.0096667302
-0.0076402699
-0.0059723594
-0.0046055778
-0.0035648997
-0.0027125422
-0.0060107072
-0.004674258
-0.003633041
-0.0028361377
-0.0022356322
-0.0017850802
-0.0014487167
-0.0011989096
-0.0010117806
-0.00085013881
-0.00070526301
-0.00057614736
-0.00052483465
-0.00048299724
-0.00044875711
-0.00042572677
-0.00042106856
-0.0003853445
-0.00037757321
-0.00030224536
-0.00021746036
-0.00019458831
-0.0077101315
-0.0098605264
-0.012558903
-0.015903709
-0.020001516
-0.024951373
-0.030826219
-0.037634883
-0.045450999
-0.05282249
-0.059787532
-0.066477287
-0.072575488
-0.077872776
-0.08203399
-0.084805617
-0.086007203
-0.08555185
-0.083458681
-0.07985414
-0.07496735
-0.069113961
-0.062651006
-0.05590621
-0.04915223
-0.042664908
-0.036723856
-0.031367122
-0.025919793
-0.021362003
-0.017417135
-0.014096404
-0.011298022
-0.0089473758
-0.0069848689
-0.0053650896
-0.0040366779
-0.003017218
-0.0021809496
-0.0075770107
-0.0060107072
-0.0047769687
-0.0038196998
-0.0030862425
-0.002525431
-0.0020974142
-0.0017709073
-0.0015183852
-0.0012991318
-0.001103633
-0.0009190498
-0.00083198057
-0.00075477488
-0.00069105952
-0.00064920635
-0.00061696234
-0.00059211731
-0.00054312791
-0.00049878751
-0.00041346871
-0.00027101046
-0.00022982897
-0.00954952
-0.012023176
-0.015102569
-0.018891844
-0.023500271
-0.029024122
-0.035527758
-0.043001347
-0.051493073
-0.059367757
-0.066568334
-0.073339413
-0.079327757
-0.084321386
-0.087990066
-0.090105578
-0.090525897
-0.089211746
-0.086231439
-0.081765065
-0.076101078
-0.069598024
-0.062606317
-0.055435258
-0.048421418
-0.04192279
-0.03600669
-0.029839059
-0.024673056
-0.020179291
-0.016392305
-0.013189942
-0.010490367
-0.0082189093
-0.0063208659
-0.0047499559
-0.003460699
-0.0024625507
-0.0016432896
-0.0093984673
-0.0075770109
-0.0061277771
-0.0049896781
-0.0041050257
-0.0034176541
-0.0028834168
-0.0024673521
-0.0021379466
-0.0018498732
-0.0015936043
-0.0013466497
-0.0012097976
-0.0010944774
-0.0009930177
-0.00092378898
-0.00087048341
-0.00082483207
-0.00077778916
-0.00071108612
-0.00063064247
-0.00052666229
-0.00033313059
-0.00025852396
-0.01167174
-0.01449899
-0.017992347
-0.022260456
-0.027413721
-0.033542837
-0.040700017
-0.048854905
-0.05801326
-0.066362284
-0.073728719
-0.080494883
-0.086271031
-0.09085207
-0.093920367
-0.095282869
-0.094842934
-0.092608284
-0.088700384
-0.083366847
-0.076950156
-0.069808912
-0.062280215
-0.054762834
-0.047704989
-0.041208869
-0.034248673
-0.028410739
-0.023308296
-0.019004075
-0.015359196
-0.012276207
-0.0096743397
-0.0074823501
-0.0056495151
-0.0041282609
-0.0028772749
-0.0019018456
-0.0011001254
-0.011500779
-0.0093984676
-0.0077101318
-0.0063696879
-0.0053146871
-0.0044833611
-0.0038272957
-0.0033073812
-0.0028885051
-0.0025198776
-0.002192874
-0.0018687442
-0.0016754653
-0.001507502
-0.0013654359
-0.0012585525
-0.001179649
-0.0011109566
-0.0010482038
-0.00097690903
-0.00088822367
-0.00077196394
-0.00064170021
-0.00040142223
-0.00028382318
-0.014102833
-0.017314167
-0.021253754
-0.026033781
-0.031763668
-0.038524842
-0.046356892
-0.055196323
-0.065000668
-0.073787274
-0.081235972
-0.087900017
-0.093353791
-0.097409449
-0.099770618
-0.10028895
-0.098913267
-0.095701373
-0.090846136
-0.084659793
-0.077489738
-0.069686611
-0.061708858
-0.054105774
-0.04701957
-0.039191092
-0.032613874
-0.026834828
-0.021958176
-0.017822459
-0.014320476
-0.011355128
-0.0088509573
-0.0067393075
-0.0049722083
-0.0034986133
-0.0022883366
-0.0013356465
-0.00055201035
-0.01390986
-0.011500779
-0.0095495201
-0.0079846988
-0.0067391633
-0.0057458043
-0.0049512185
-0.0043123545
-0.0037896676
-0.0033281442
-0.0029172261
-0.0025049098
-0.0022384558
-0.0020108898
-0.001813481
-0.0016665268
-0.0015495822
-0.0014564015
-0.0013692042
-0.0012857328
-0.0011880176
-0.0010733759
-0.00092127723
-0.00075852021
-0.00047365742
-0.00030791517
-0.016868625
-0.02049395
-0.024910915
-0.030233911
-0.036568622
-0.043985472
-0.052502747
-0.062018739
-0.072441283
-0.081615248
-0.089048779
-0.095504527
-0.10051999
-0.10393616
-0.10548825
-0.10507505
-0.10268995
-0.098465318
-0.092665829
-0.085610009
-0.07764126
-0.069269922
-0.061156002
-0.053484151
-0.044711177
-0.037323834
-0.030794677
-0.025282642
-0.020603849
-0.01663736
-0.013275709
-0.010427674
-0.008022163
-0.0059911587
-0.0042862443
-0.0028638073
-0.0016945154
-0.00076484522
5.2404995e-07
-0.01665139
-0.01390986
-0.01167174
-0.0098605268
-0.0084038159
-0.0072294836
-0.0062791077
-0.0055050635
-0.0048636907
-0.0042947275
-0.0037882991
-0.0032687111
-0.0029184001
-0.0026142951
-0.0023543318