/*--------------------------------*- C++ -*----------------------------------*\
| =========                 |                                                 |
| \\      /  F ield         | OpenFOAM: The Open Source CFD Toolbox           |
|  \\    /   O peration     | Version:  5.0                                   |
|   \\  /    A nd           | Web:      www.OpenFOAM.org                      |
|    \\/     M anipulation  |                                                 |
\*---------------------------------------------------------------------------*/
FoamFile
{
    version     2.0;
    format      ascii;
    class       volScalarField;
    location    "165";
    object      pPrime2Mean;
}
// * * * * * * * * * * * * * * * * * * * * * * * * * * * * * * * * * * * * * //

dimensions      [0 4 -4 0 0 0 0];

internalField   nonuniform List<scalar> 
9200
(
2.4172154e-08
2.425844e-08
1.294055e-07
2.4111448e-08
1.308792e-07
3.7446567e-07
2.4381529e-08
1.3017302e-07
3.7774764e-07
7.0095371e-07
2.4270287e-08
1.3097812e-07
3.770306e-07
7.0812648e-07
1.1379793e-06
2.4261704e-08
1.3012436e-07
3.7981144e-07
7.0872891e-07
1.1511074e-06
1.6477814e-06
2.4046118e-08
1.2945624e-07
3.7881859e-07
7.1570446e-07
1.1556018e-06
1.6704125e-06
2.2325221e-06
2.3795775e-08
1.2770037e-07
3.7785317e-07
7.1664247e-07
1.1709959e-06
1.682614e-06
2.2683982e-06
2.8694169e-06
2.3468738e-08
1.2543691e-07
3.7410665e-07
7.1744933e-07
1.1779524e-06
1.7124917e-06
2.2932182e-06
2.9235826e-06
3.5498117e-06
2.3148525e-08
1.2243826e-07
3.6872894e-07
7.1328235e-07
1.1848016e-06
1.7320872e-06
2.345374e-06
2.9677803e-06
3.6274415e-06
4.2558974e-06
2.2902317e-08
1.1892283e-07
3.6127252e-07
7.0575419e-07
1.1838922e-06
1.7524389e-06
2.3863074e-06
3.0527837e-06
3.6979488e-06
4.3624211e-06
4.9729207e-06
2.2833881e-08
1.1500685e-07
3.5227605e-07
6.9397962e-07
1.1771698e-06
1.7623158e-06
2.4300092e-06
3.1273834e-06
3.8267765e-06
4.4671754e-06
5.1142465e-06
5.6849524e-06
2.3062726e-08
1.1087667e-07
3.4213847e-07
6.7874331e-07
1.1629939e-06
1.7638565e-06
2.4608124e-06
3.2086572e-06
3.9486576e-06
4.6527046e-06
5.2622322e-06
5.8662314e-06
6.3766033e-06
2.3715329e-08
1.0671057e-07
3.3145645e-07
6.6063902e-07
1.1423756e-06
1.7541982e-06
2.4807401e-06
3.2753865e-06
4.084066e-06
4.8380639e-06
5.5180839e-06
6.0655014e-06
6.6028883e-06
7.0334615e-06
2.4896465e-08
1.0269049e-07
3.208392e-07
6.4061612e-07
1.1161247e-06
1.7341486e-06
2.4850138e-06
3.3288854e-06
4.2051073e-06
5.0468045e-06
5.7841128e-06
6.4048452e-06
6.8619439e-06
7.3085469e-06
7.6411588e-06
2.6716661e-08
9.9006139e-08
3.108947e-07
6.1967395e-07
1.0856928e-06
1.704346e-06
2.4738538e-06
3.3618164e-06
4.3118354e-06
5.2439501e-06
6.0883175e-06
6.7697855e-06
7.2986584e-06
7.6341057e-06
7.9683662e-06
8.1886119e-06
2.9133746e-08
9.6011673e-08
3.0208811e-07
5.9885449e-07
1.052683e-06
1.6664825e-06
2.4473971e-06
3.3733705e-06
4.3934486e-06
5.4281363e-06
6.3876043e-06
7.1927526e-06
7.7807822e-06
8.1792718e-06
8.3668208e-06
8.5694458e-06
8.6659955e-06
3.1969467e-08
9.4031543e-08
2.9486892e-07
5.7913387e-07
1.0187643e-06
1.6226153e-06
2.4074183e-06
3.362629e-06
4.4473753e-06
5.584059e-06
6.6785475e-06
7.6223274e-06
8.3468488e-06
8.7953517e-06
9.0310711e-06
9.0449371e-06
9.1003613e-06
9.0664226e-06
3.4950525e-08
9.3485183e-08
2.8929095e-07
5.6156096e-07
9.855109e-07
1.5750252e-06
2.3563664e-06
3.3310107e-06
4.4708832e-06
5.706449e-06
6.940534e-06
8.0531153e-06
8.9374043e-06
9.5284485e-06
9.7974693e-06
9.8350449e-06
9.6550567e-06
9.5529395e-06
9.3849909e-06
3.7572725e-08
9.4978676e-08
2.8508465e-07
5.4684063e-07
9.5449435e-07
1.5259759e-06
2.2972083e-06
3.2810151e-06
4.4643735e-06
5.7897785e-06
7.1647074e-06
8.4583513e-06
9.545007e-06
1.0311016e-05
1.0719759e-05
1.0763534e-05
1.0575987e-05
1.0186359e-05
9.9207922e-06
9.6194336e-06
3.9149442e-08
9.8942467e-08
2.8197105e-07
5.3557602e-07
9.2678322e-07
1.477818e-06
2.2330703e-06
3.2160485e-06
4.4298984e-06
5.832504e-06
7.341596e-06
8.8246604e-06
1.0136278e-05
1.1134252e-05
1.1724952e-05
1.1894597e-05
1.1676522e-05
1.1238718e-05
1.0630427e-05
1.0200299e-05
9.7698526e-06
3.8943305e-08
1.0547598e-07
2.7956973e-07
5.2837079e-07
9.0298465e-07
1.4324875e-06
2.1671627e-06
3.1399855e-06
4.371025e-06
5.8353976e-06
7.4665945e-06
9.1373591e-06
1.0692569e-05
1.1958189e-05
1.2803848e-05
1.315081e-05
1.3032203e-05
1.2515421e-05
1.1811244e-05
1.0981511e-05
1.0390369e-05
9.8385304e-06
3.6434581e-08
1.1417921e-07
2.7755063e-07
5.2540854e-07
8.8361892e-07
1.3915669e-06
2.102278e-06
3.0569953e-06
4.2922664e-06
5.8015161e-06
7.5380649e-06
9.387468e-06
1.1192739e-05
1.2758448e-05
1.391031e-05
1.4524094e-05
1.4564081e-05
1.4106131e-05
1.3264947e-05
1.2283925e-05
1.1236366e-05
1.0492341e-05
9.8298085e-06
3.1653785e-08
1.2415089e-07
2.7577461e-07
5.265735e-07
8.6881765e-07
1.3564772e-06
2.0406687e-06
2.9709855e-06
4.198758e-06
5.7354823e-06
7.5576561e-06
9.5695543e-06
1.1621927e-05
1.3506397e-05
1.5014263e-05
1.5963534e-05
1.6267839e-05
1.5933075e-05
1.5095784e-05
1.3909634e-05
1.2650374e-05
1.1394552e-05
1.0509759e-05
9.749388e-06
2.5434731e-08
1.3428648e-07
2.7438616e-07
5.3147943e-07
8.5843513e-07
1.3281669e-06
1.9843038e-06
2.8854828e-06
4.0956379e-06
5.6430841e-06
7.5294372e-06
9.6824572e-06
1.1969269e-05
1.4179825e-05
1.6078875e-05
1.7434077e-05
1.8089749e-05
1.7998171e-05
1.723042e-05
1.597838e-05
1.4438866e-05
1.2907428e-05
1.1458444e-05
1.0448109e-05
9.6035038e-06
1.9414842e-08
1.4391908e-07
2.7380394e-07
5.3948002e-07
8.5214412e-07
1.3070277e-06
1.934674e-06
2.803822e-06
3.9877177e-06
5.5305814e-06
7.4594123e-06
9.7284889e-06
1.2229121e-05
1.4760581e-05
1.7073291e-05
1.8890643e-05
1.9991327e-05
2.0247944e-05
1.9680914e-05
1.8425608e-05
1.6737103e-05
1.4844003e-05
1.3055002e-05
1.1432706e-05
1.0314175e-05
9.3997577e-06
1.571572e-08
1.5286827e-07
2.7410483e-07
5.4960544e-07
8.4955032e-07
1.2927824e-06
1.8927565e-06
2.7287794e-06
3.8795922e-06
5.4042662e-06
7.3547406e-06
9.7128877e-06
1.2400456e-05
1.5236532e-05
1.7970209e-05
2.0292897e-05
2.1919989e-05
2.2643e-05
2.2397707e-05
2.1276618e-05
1.9493193e-05
1.7356059e-05
1.5120641e-05
1.3095392e-05
1.132353e-05
1.011529e-05
9.1478042e-06
1.656143e-08
1.6048651e-07
2.748196e-07
5.606889e-07
8.5002727e-07
1.2845386e-06
1.8590085e-06
2.6624203e-06
3.7753259e-06
5.2704731e-06
7.2231048e-06
9.6429816e-06
1.2486426e-05
1.5601212e-05
1.8748746e-05
2.1602737e-05
2.3825778e-05
2.5125103e-05
2.5344026e-05
2.4490338e-05
2.2749759e-05
2.0408537e-05
1.7825222e-05
1.5267387e-05
1.3033245e-05
1.1138218e-05
9.8601825e-06
8.8571968e-06
2.379234e-08
1.6586769e-07
2.7601653e-07
5.7148206e-07
8.526159e-07
1.2813237e-06
1.8333536e-06
2.6060671e-06
3.6782779e-06
5.1352401e-06
7.0725839e-06
9.5274305e-06
1.2493504e-05
1.5853693e-05
1.9394552e-05
2.2788242e-05
2.5658673e-05
2.7635568e-05
2.8459e-05
2.803709e-05
2.6479056e-05
2.4064446e-05
2.1152946e-05
1.8137642e-05
1.5286821e-05
1.2875238e-05
1.0885509e-05
9.5586661e-06
8.5364308e-06
3.7838748e-08
1.7191945e-07
2.77717e-07
5.8056547e-07
8.5636987e-07
1.2820598e-06
1.8151569e-06
2.5601014e-06
3.5910911e-06
5.0039742e-06
6.9112224e-06
9.3759406e-06
1.2430603e-05
1.5997822e-05
1.9900153e-05
2.3824394e-05
2.737367e-05
3.011221e-05
3.1677412e-05
3.1857768e-05
3.0663855e-05
2.8314583e-05
2.5190548e-05
2.1711534e-05
1.829181e-05
1.5184366e-05
1.2630202e-05
1.0575157e-05
9.2203213e-06
8.1941139e-06
5.8554588e-08
1.8007211e-07
2.7622115e-07
5.8655631e-07
8.6066392e-07
1.2853765e-06
1.8032473e-06
2.5239662e-06
3.5155489e-06
4.8811566e-06
6.7465734e-06
9.1988185e-06
1.2308591e-05
1.6041354e-05
2.026447e-05
2.4694143e-05
2.8932256e-05
3.2495512e-05
3.4925906e-05
3.5884312e-05
3.5252408e-05
3.3160043e-05
2.9952307e-05
2.6101811e-05
2.2075863e-05
1.8290111e-05
1.4968731e-05
1.2308872e-05
1.0217516e-05
8.8543186e-06
7.8386603e-06
8.8325383e-08
1.8480011e-07
2.7221733e-07
5.9197199e-07
8.6534896e-07
1.289469e-06
1.795786e-06
2.4964047e-06
3.4522419e-06
4.7700417e-06
6.585454e-06
9.006379e-06
1.2139767e-05
1.5995275e-05
2.0492099e-05
2.5388416e-05
3.0304444e-05
3.4730925e-05
3.8130089e-05
4.003481e-05
4.0179147e-05
3.8563219e-05
3.5463845e-05
3.1350843e-05
2.6779393e-05
2.2242792e-05
1.8139508e-05
1.4650937e-05
1.1923121e-05
9.8229805e-06
8.4697478e-06
7.4772446e-06
1.2676005e-07
1.8632507e-07
2.7041036e-07
6.0516948e-07
8.6791997e-07
1.2922169e-06
1.7911457e-06
2.4759174e-06
3.4005233e-06
4.6725088e-06
6.4335878e-06
8.8084414e-06
1.1937172e-05
1.5873254e-05
2.0592546e-05
2.5905712e-05
3.1469525e-05
3.677206e-05
4.1217581e-05
4.422116e-05
4.5358122e-05
4.4467964e-05
4.1709195e-05
3.7514719e-05
3.2476567e-05
2.7211018e-05
2.2215309e-05
1.7850441e-05
1.4243863e-05
1.1485128e-05
9.4020662e-06
8.0753149e-06
7.1149456e-06
1.719784e-07
1.8711506e-07
2.7392369e-07
6.0926951e-07
8.6984148e-07
1.2955501e-06
1.7882148e-06
2.4608281e-06
3.3587152e-06
4.5888651e-06
6.2950974e-06
8.6137005e-06
1.1713931e-05
1.5690941e-05
2.0579603e-05
2.6251472e-05
3.2416259e-05
3.8582441e-05
4.4122463e-05
4.8352628e-05
5.069066e-05
5.0790847e-05
4.8649976e-05
4.4607077e-05
3.9259376e-05
3.3303463e-05
2.7392436e-05
2.2001569e-05
1.7436457e-05
1.376146e-05
1.1007165e-05
8.964603e-06
7.678287e-06
6.7567995e-06
2.2123369e-07
1.8762619e-07
2.8192293e-07
6.0084546e-07
8.6684827e-07
1.3026393e-06
1.784527e-06
2.4488799e-06
3.3250259e-06
4.518129e-06
6.1720381e-06
8.4291679e-06
1.1482475e-05
1.5465096e-05
2.0470689e-05
2.6437482e-05
3.3142577e-05
4.0136613e-05
4.6788293e-05
5.2341531e-05
5.6069033e-05
5.7428116e-05
5.6213866e-05
5.2616632e-05
4.7178756e-05
4.0652307e-05
3.3815387e-05
2.7326658e-05
2.161458e-05
1.6913298e-05
1.3218243e-05
1.0500942e-05
8.5191971e-06
7.2843235e-06
6.4076941e-06
2.7104134e-07
1.8810444e-07
2.9240106e-07
5.9535996e-07
8.6221624e-07
1.2999627e-06
1.7784361e-06
2.4356138e-06
3.2972811e-06
4.4590773e-06
6.0644616e-06
8.2594681e-06
1.1253639e-05
1.5212482e-05
2.0285857e-05
2.6481335e-05
3.3655191e-05
4.1420479e-05
4.9170424e-05
5.6107632e-05
6.1383125e-05
6.4258861e-05
6.430011e-05
6.1492566e-05
5.6260349e-05
4.9352822e-05
4.165948e-05
3.4005923e-05
2.7023925e-05
2.1071209e-05
1.6298204e-05
1.2628682e-05
9.9773427e-06
8.0734063e-06
6.8987989e-06
6.0717878e-06
3.1740185e-07
1.8868932e-07
3.037089e-07
5.915929e-07
8.6191054e-07
1.2900824e-06
1.7637695e-06
2.419087e-06
3.2675494e-06
4.4093226e-06
5.9718967e-06
8.1065819e-06
1.1035643e-05
1.4948634e-05
2.0046449e-05
2.6405447e-05
3.3969215e-05
4.2431391e-05
5.1237369e-05
5.9581949e-05
6.652615e-05
7.1152131e-05
7.2781315e-05
7.1147708e-05
6.6486529e-05
5.9477148e-05
5.1069914e-05
4.2258925e-05
3.3878762e-05
2.6500687e-05
2.0391335e-05
1.5609148e-05
1.200676e-05
9.4462972e-06
7.6339124e-06
6.5262502e-06
5.7525344e-06
3.5631295e-07
1.8937744e-07
3.1490059e-07
5.8807042e-07
8.6613418e-07
1.284707e-06
1.7471297e-06
2.3952502e-06
3.2365135e-06
4.356084e-06
5.892452e-06
7.971761e-06
1.0833473e-05
1.4686472e-05
1.9773474e-05
2.6235479e-05
3.4107421e-05
4.3178129e-05
5.2971665e-05
6.2709539e-05
7.1400162e-05
7.7973736e-05
8.1510311e-05
8.1458091e-05
7.7796562e-05
7.1053151e-05
6.2173958e-05
5.2284633e-05
4.2442227e-05
3.3446999e-05
2.5778681e-05
1.9596859e-05
1.4864147e-05
1.1365663e-05
8.9166824e-06
7.2063749e-06
6.170485e-06
5.4524151e-06
3.8428533e-07
1.9006561e-07
3.2510505e-07
5.8485717e-07
8.7219787e-07
1.2827047e-06
1.7359381e-06
2.3701137e-06
3.1926899e-06
4.3026673e-06
5.8063888e-06
7.8542559e-06
1.0650988e-05
1.4435169e-05
1.9485641e-05
2.5998254e-05
3.4098572e-05
4.3680591e-05
5.4370498e-05
6.5451528e-05
7.5920542e-05
8.4593413e-05
9.0327455e-05
9.2268561e-05
9.0083033e-05
8.4061044e-05
7.5056985e-05
6.4272303e-05
5.2968533e-05
4.2214171e-05
3.2732192e-05
2.4883686e-05
1.8710734e-05
1.4080756e-05
1.0717465e-05
8.3963193e-06
6.795569e-06
5.8344515e-06
5.1732181e-06
3.9890211e-07
1.906213e-07
3.3350965e-07
5.8217505e-07
8.7884171e-07
1.2813001e-06
1.7315282e-06
2.3482161e-06
3.142488e-06
4.2353557e-06
5.7208961e-06
7.7249647e-06
1.0489674e-05
1.420254e-05
1.9197629e-05
2.5719066e-05
3.3974966e-05
4.3968329e-05
5.544601e-05
6.7786789e-05
8.0019668e-05
9.0891218e-05
9.9069112e-05
0.00010339961
0.00010319491
9.842583e-05
8.9755398e-05
7.8375572e-05
6.5713401e-05
5.3110814e-05
4.1592407e-05
3.1763038e-05
2.3844242e-05
1.7756122e-05
1.3275522e-05
1.0072971e-05
7.8918077e-06
6.4053047e-06
5.5203497e-06
4.9160742e-06
1.9090865e-07
3.9890217e-07
3.3928413e-07
5.8014339e-07
8.851739e-07
1.2800715e-06
1.7308296e-06
2.335106e-06
3.0998082e-06
4.1574924e-06
5.6123023e-06
7.5965876e-06
1.0307763e-05
1.3993635e-05
1.8922924e-05
2.5419375e-05
3.3769028e-05
4.4077826e-05
5.6224474e-05
6.9713155e-05
8.3650009e-05
9.6763213e-05
0.00010757598
0.00011465659
0.00011694292
0.00011401682
0.00010624466
9.470192e-05
8.090725e-05
6.6460645e-05
5.2718865e-05
4.0605947e-05
3.057365e-05
2.2690388e-05
1.6755554e-05
1.2463628e-05
9.441506e-06
7.4085392e-06
6.0385113e-06
5.2296703e-06
4.6817277e-06
3.4208202e-07
1.9090856e-07
3.842854e-07
5.7867469e-07
8.9044917e-07
1.279192e-06
1.732244e-06
2.3272289e-06
3.0704604e-06
4.086315e-06
5.4834244e-06
7.4364382e-06
1.0124403e-05
1.3750413e-05
1.8672119e-05
2.5119995e-05
3.3510121e-05
4.4048367e-05
5.6743591e-05
7.1247618e-05
8.6786716e-05
0.00010212644
0.00011570095
0.00012583961
0.00013110829
0.00013064986
0.00012443398
0.00011329613
9.8741871e-05
8.2576258e-05
6.650172e-05
5.181722e-05
3.9293432e-05
2.920193e-05
2.145239e-05
1.5730276e-05
1.1658495e-05
8.8308789e-06
6.9507081e-06
5.6972528e-06
4.9634274e-06
4.4706148e-06
5.7786774e-07
3.4208201e-07
1.9062111e-07
3.5631313e-07
8.9379534e-07
1.2788445e-06
1.7347169e-06
2.322487e-06
3.050378e-06
4.0330447e-06
5.3670053e-06
7.2424896e-06
9.8879908e-06
1.3502021e-05
1.8366722e-05
2.4839249e-05
3.3228111e-05
4.3917549e-05
5.7047763e-05
7.2424199e-05
8.9429139e-05
0.00010692335
0.00012331641
0.00013675349
0.0001454534
0.00014809438
0.00014416428
0.00013412963
0.00011934982
0.00010174409
8.3337399e-05
6.5848644e-05
5.0445892e-05
3.7700774e-05
2.7687632e-05
2.0159667e-05
1.4699561e-05
1.0871617e-05
8.2473357e-06
6.5214838e-06
5.3829719e-06
4.7222182e-06
4.2829529e-06
8.9506731e-07
5.7786758e-07
3.3928408e-07
1.9006525e-07
3.1740203e-07
1.2787411e-06
1.7375839e-06
2.3203633e-06
3.0373149e-06
3.9952561e-06
5.2757199e-06
7.0641221e-06
9.5942424e-06
1.316533e-05
1.8047845e-05
2.4472139e-05
3.2951952e-05
4.3725651e-05
5.7182471e-05
7.3288881e-05
9.1600069e-05
0.0001111251
0.00013032089
0.00014721756
0.00015973355
0.00016608347
0.0001652115
0.00015709257
0.00014278798
0.00012420066
0.00010361325
8.3178064e-05
6.4536757e-05
4.8657638e-05
3.5878774e-05
2.6070765e-05
1.883967e-05
1.3680297e-05
1.0112423e-05
7.6957625e-06
6.1231426e-06
5.0965483e-06
4.5063179e-06
4.1186481e-06
1.2789432e-06
8.9506707e-07
5.7867425e-07
3.3350957e-07
1.89377e-07
2.710416e-07
1.7398791e-06
2.3197537e-06
3.0294866e-06
3.9687364e-06
5.2081028e-06
6.9191274e-06
9.3250157e-06
1.2735449e-05
1.7568288e-05
2.4077517e-05
3.2543611e-05
4.3515043e-05
5.7199125e-05
7.3893009e-05
9.3340856e-05
0.00011473275
0.00013664465
0.00015707494
0.000173709
0.00018432652
0.00018729461
0.00018199189
0.0001690232
0.00015011102
0.00012768228
0.00010429527
8.2118791e-05
6.2621957e-05
4.6514846e-05
3.3880495e-05
2.4389782e-05
1.7517054e-05
1.2686689e-05
9.3884952e-06
7.1798467e-06
5.7572635e-06
4.8384264e-06
4.3156501e-06
3.9773207e-06
1.7412197e-06
1.2789429e-06
8.9379473e-07
5.8014263e-07
3.251049e-07
1.8868873e-07
2.2123394e-07
2.3190154e-06
3.0251851e-06
3.9506765e-06
5.1587734e-06
6.8097346e-06
9.101218e-06
1.2344473e-05
1.693967e-05
2.343658e-05
3.2086405e-05
4.3107096e-05
5.715638e-05
7.4298156e-05
9.4704102e-05
0.00011777362
0.00014225338
0.00016620085
0.00018715704
0.00020252287
0.00021008742
0.00020855497
0.00019792325
0.00017954736
0.00015583733
0.00012967691
0.00010378049
8.0211199e-05
6.0177047e-05
4.4085887e-05
3.1758782e-05
2.2680185e-05
1.621305e-05
1.1730446e-05
8.70581e-06
6.7022853e-06
5.4246983e-06
4.6086211e-06
4.1498952e-06
3.8583444e-06
2.3177279e-06
1.7412192e-06
1.27874e-06
8.9044808e-07
5.82174e-07
3.1490038e-07
1.8810378e-07
1.719787e-07
3.0228415e-06
3.9393042e-06
5.1240374e-06
6.7284461e-06
8.9299072e-06
1.2013285e-05
1.6381234e-05
2.2563505e-05
3.124794e-05
4.2619865e-05
5.682643e-05
7.4581257e-05
9.5759055e-05
0.00012029379
0.00014714702
0.0001745092
0.00019988311
0.0002203764
0.00023323274
0.00023643866
0.00022925402
0.000212472
0.00018828369
0.00015975856
0.00013012331
0.00010210366
7.7534207e-05
5.7286949e-05
4.1441499e-05
2.9563767e-05
2.0973301e-05
1.4945587e-05
1.0821104e-05
8.0689465e-06
6.2647031e-06
5.1257264e-06
4.4069069e-06
4.0084958e-06
3.7611144e-06
3.0218273e-06
2.3177271e-06
1.7398775e-06
1.2788426e-06
8.851724e-07
5.8485578e-07
3.0370857e-07
1.8762539e-07
1.2676033e-07
3.9327173e-06
5.1011186e-06
6.6697989e-06
8.8007638e-06
1.1756633e-05
1.5903713e-05
2.1778972e-05
3.0051239e-05
4.1548958e-05
5.6373895e-05
7.4454548e-05
9.6602005e-05
0.00012236428
0.0001513532
0.00018195492
0.00021173087
0.00023760932
0.00025635852
0.00026524186
0.00026268313
0.00024872607
0.00022511343
0.00019490233
0.00016173355
0.00012901998
9.9340878e-05
7.4188329e-05
5.4043525e-05
3.8650999e-05
2.7341056e-05
1.9296293e-05
1.3729706e-05
9.9662715e-06
7.480896e-06
5.8678224e-06
4.8603006e-06
4.2328215e-06
3.8908143e-06
3.6850884e-06
3.9298553e-06
3.0218262e-06
2.3190131e-06
1.7375812e-06
1.2791893e-06
8.7883966e-07
5.8806872e-07
2.9240062e-07
1.871142e-07
8.8325689e-08
5.0877001e-06
6.6302368e-06
8.7063988e-06
1.1561307e-05
1.552998e-05
2.1102202e-05
2.8965875e-05
3.9939365e-05
5.5036607e-05
7.4146702e-05
9.6872035e-05
0.00012409921
0.00015493443
0.00018853028
0.00022258849
0.00025397562
0.00027909369
0.00029452181
0.00029778834
0.00028802499
0.00026628437
0.00023536373
0.00019914762
0.00016169753
0.00012642482
9.5603452e-05
7.0288761e-05
5.0540141e-05
3.5779344e-05
2.5130975e-05
1.7672443e-05
1.2577773e-05
9.1712339e-06
6.9432768e-06
5.5120212e-06
4.6282611e-06
4.0856138e-06
3.796192e-06
3.6295883e-06
5.0821753e-06
3.9298539e-06
3.0228383e-06
2.3197499e-06
1.734713e-06
1.280068e-06
8.7219536e-07
5.9159085e-07
2.819223e-07
1.8632411e-07
5.855484e-08
6.6069805e-06
8.6418427e-06
1.1417399e-05
1.5243415e-05
2.0569591e-05
2.8023393e-05
3.8466279e-05
5.2907101e-05
7.2519124e-05
9.6883717e-05
0.00012504805
0.00015801795
0.00019427365
0.00023239026
0.00026927183
0.00030108419
0.00032381002
0.00033407158
0.00032995943
0.00031160484
0.00028126032
0.000242813
0.00020085577
0.00015966611
0.00012244929
9.1029398e-05
6.595761e-05
4.6867182e-05
3.2885586e-05
2.2969197e-05
1.6121496e-05
1.1498866e-05
8.4392227e-06
6.4573015e-06
5.19763e-06
4.4286539e-06
3.9642906e-06
3.7240382e-06
3.593564e-06
6.5975869e-06
5.0821734e-06
3.932713e-06
3.0251798e-06
2.3203579e-06
1.7322389e-06
1.2812957e-06
8.6613106e-07
5.9535758e-07
2.7392289e-07
1.8479911e-07
3.7838995e-08
8.6036284e-06
1.1318102e-05
1.5031085e-05
2.0159337e-05
2.7278421e-05
3.7179629e-05
5.0938666e-05
6.9752888e-05
9.4959255e-05
0.0001256418
0.00016004353
0.00019931587
0.00024112807
0.0002833456
0.0003220083
0.00035262999
0.00037097222
0.00037400411
0.00036072403
0.0003325441
0.00029304771
0.00024715433
0.00019996618
0.00015573244
0.00011724915
8.5773117e-05
6.1317216e-05
4.3109317e-05
3.0023148e-05
2.0886574e-05
1.4658562e-05
1.0499008e-05
7.7729503e-06
6.0241389e-06
4.9234961e-06
4.2597761e-06
3.8684833e-06
3.6734986e-06
3.5717074e-06
8.5881467e-06
6.5975844e-06
5.0876944e-06
3.939297e-06
3.0294791e-06
2.3224798e-06
1.7308232e-06
1.2826994e-06
8.6190685e-07
6.0084269e-07
2.7040933e-07
1.8007103e-07
2.3792488e-08
1.1259142e-05
1.4883613e-05
1.9853839e-05
2.670251e-05
3.6158295e-05
4.9211204e-05
6.7167429e-05
9.1432818e-05
0.00012344528
0.0001615958
0.00020296085
0.00024892073
0.00029611225
0.00034159331
0.00038051557
0.00040788373
0.00041952436
0.0004131313
0.00038897943
0.00035000002
0.00030114553
0.00024820605
0.00019652429
0.00015005756
0.00011101124
7.9995603e-05
5.6485995e-05
3.9345093e-05
2.7239424e-05
1.8907742e-05
1.3294366e-05
9.5834455e-06
7.1750164e-06
5.6423001e-06
4.686965e-06
4.1218152e-06
3.7976713e-06
3.6371164e-06
3.5641441e-06
1.1235331e-05
8.5881436e-06
6.606973e-06
5.101109e-06
3.9506663e-06
3.0373049e-06
2.3272199e-06
1.7315204e-06
1.2847007e-06
8.6221185e-07
6.0926639e-07
2.722161e-07
1.7191834e-07
1.6561489e-08
1.4795772e-05
1.9640614e-05
2.6271917e-05
3.5365948e-05
4.783515e-05
6.4888387e-05
8.8091691e-05
0.00011904117
0.00015919752
0.00020599066
0.00025490278
0.00030765473
0.00035963912
0.00040703683
0.00044417325
0.00046578674
0.00046815295
0.00045012409
0.00041361284
0.00036322343
0.00030519543
0.00024592378
0.00019067429
0.00014285558
0.00010394062
7.3857881e-05
5.1577056e-05
3.5646026e-05
2.4573748e-05
1.7051026e-05
1.2038321e-05
8.7571516e-06
6.643562e-06
5.3076548e-06
4.4890023e-06
4.015171e-06
3.7402327e-06
3.6165445e-06
3.5737255e-06
1.4760255e-05
1.1235326e-05
8.6036185e-06
6.6302242e-06
5.1240237e-06
3.9687229e-06
3.0503655e-06
2.335095e-06
1.7359288e-06
1.290075e-06
8.668432e-07
6.0516593e-07
2.7621966e-07
1.6586652e-07
1.5715652e-08
1.9513325e-05
2.5970382e-05
3.4771452e-05
4.6764056e-05
6.3066843e-05
8.5134181e-05
0.00011479732
0.00015382013
0.00020352617
0.00026010714
0.00031689547
0.00037615967
0.00043183093
0.00047921606
0.00051197738
0.00052494655
0.00051532001
0.00048357807
0.00043357309
0.00037161412
0.0003050073
0.00024039947
0.00018264343
0.00013437684
9.6250267e-05
6.7518506e-05
4.6696188e-05
3.2073429e-05
2.2056609e-05
1.5332656e-05
1.0899225e-05
8.0181318e-06
6.1722472e-06
5.0227546e-06
4.3311427e-06
3.9192965e-06
3.7023441e-06
3.6136912e-06
3.6020161e-06
1.9461854e-05
1.476025e-05
1.1259129e-05
8.6418264e-06
6.6697808e-06
5.1587552e-06
3.9952391e-06
3.0704452e-06
2.348203e-06
1.7471188e-06
1.2999542e-06
8.6983564e-07
5.9196798e-07
2.7771522e-07
1.6048537e-07
1.9414636e-08
2.5790029e-05
3.4354001e-05
4.5957779e-05
6.1643997e-05
8.2763035e-05
0.00011102438
0.00014852365
0.00019712737
0.00025779786
0.00032518536
0.00038981137
0.00045479932
0.00051243257
0.00055724245
0.00058251579
0.00058365455
0.00055932601
0.00051209826
0.00044794698
0.00037476639
0.00030056925
0.00023184718
0.00017272203
0.00012489406
8.8156455e-05
6.1130675e-05
4.1937242e-05
2.8676894e-05
1.9715018e-05
1.3767378e-05
9.8754586e-06
7.3571318e-06
5.7659651e-06
4.790506e-06
4.1807271e-06
3.8502208e-06
3.6826061e-06
3.6304433e-06
3.6499612e-06
2.5717059e-05
1.9461849e-05
1.4795757e-05
1.1318081e-05
8.706375e-06
6.7284223e-06
5.20808e-06
4.0330239e-06
3.0997899e-06
2.3700983e-06
1.7637568e-06
1.3026296e-06
8.679133e-07
5.8655178e-07
2.7601435e-07
1.5286713e-07
2.5434409e-08
3.4103883e-05
4.5390273e-05
6.056939e-05
8.0904597e-05
0.00010799064
0.00014379269
0.00019064253
0.00025040697
0.00032336109
0.00040234391
0.00047426495
0.00054355721
0.00060072762
0.00063975274
0.00065396419
0.00063993835
0.00059840001
0.00053439593
0.00045603232
0.00037249529
0.00029203968
0.00022058133
0.00016124541
0.00011469399
7.9874642e-05
5.4835341e-05
3.7379138e-05
2.5500348e-05
1.7572988e-05
1.2354918e-05
8.9540552e-06
6.7814848e-06
5.4294825e-06
4.560352e-06
4.069247e-06
3.8007383e-06
3.6838312e-06
3.6677929e-06
3.7184894e-06
3.400267e-05
2.5717051e-05
1.9513307e-05
1.4883588e-05
1.1417369e-05
8.8007326e-06
6.8097042e-06
5.2756918e-06
4.08629e-06
3.1424663e-06
2.3952322e-06
1.7784216e-06
1.295539e-06
8.6534135e-07
5.805604e-07
2.7481699e-07
1.4391796e-07
3.1653357e-08
4.5049481e-05
5.9811845e-05
7.9496231e-05
0.00010560613
0.00013997859
0.00018481766
0.00024263161
0.00031512024
0.00040146224
0.00049247403
0.00057049581
0.00064193598
0.00069547096
0.0007248785
0.00072412025
0.00069164818
0.00063081369
0.0005493798
0.00045738508
0.000364841
0.00027972617
0.00020699453
0.00014858137
0.00010407197
7.1611989e-05
4.8755622e-05
3.3091536e-05
2.2581949e-05
1.5633087e-05
1.107784e-05
8.1448794e-06
6.299224e-06
5.0883898e-06
4.3883902e-06
3.9779723e-06
3.7756789e-06
3.706989e-06
3.7270278e-06
3.8085905e-06
4.4911394e-05
3.4002661e-05
2.5790007e-05
1.9640583e-05
1.5031047e-05
1.1561267e-05
8.9298673e-06
6.9190902e-06
5.3669715e-06
4.1574627e-06
3.1926647e-06
2.4190662e-06
1.7845105e-06
1.2922043e-06
8.6065527e-07
5.7147636e-07
2.7410175e-07
1.3428533e-07
3.6434094e-08
5.9356026e-05
7.8502612e-05
0.00010379211
0.00013697181
0.00018010982
0.0002356013
0.00030601748
0.00039268231
0.00049314911
0.00059610926
0.00067825243
0.00074887235
0.00079482927
0.00081025379
0.00079048098
0.00073657607
0.00065500161
0.00055623904
0.00045184225
0.00035205375
0.00026406072
0.00019154034
0.00013512333
9.3323669e-05
6.3557201e-05
4.3000254e-05
2.9133946e-05
1.9929848e-05
1.3872947e-05
9.9487944e-06
7.4611202e-06
5.8043431e-06
4.8345673e-06
4.2364936e-06
3.9169917e-06
3.7759335e-06
3.7537255e-06
3.8094011e-06
3.9213477e-06
5.9171655e-05
4.4911385e-05
3.4103859e-05
2.5970345e-05
1.9853793e-05
1.5243366e-05
1.1756582e-05
9.101169e-06
7.0640769e-06
5.4833841e-06
4.235321e-06
3.2364844e-06
2.43559e-06
1.7881961e-06
1.2894548e-06
8.5636004e-07
5.606825e-07
2.7380039e-07
1.2414968e-07
3.8942799e-08
7.7903955e-05
0.0001025091
0.00013467428
0.00017638414
0.00022990603
0.00029772396
0.00038232847
0.00048437593
0.00059913432
0.00071329736
0.00079669498
0.0008626488
0.00089635451
0.00089307622
0.00085036079
0.00077260516
0.0006696852
0.00055449604
0.00043952059
0.00033456885
0.00024557708
0.0001747252
0.00012128322
8.2731969e-05
5.5877307e-05
3.7659625e-05
2.5524338e-05
1.7516672e-05
1.2308775e-05
8.9885574e-06
6.7559698e-06
5.4395285e-06
4.59849e-06
4.1236082e-06
3.8864972e-06
3.8035563e-06
3.8255364e-06
3.916221e-06
4.0578964e-06
7.7663294e-05
5.9171645e-05
4.5049452e-05
3.4353957e-05
2.6271864e-05
2.0159276e-05
1.5529916e-05
1.2013221e-05
9.324956e-06
7.242436e-06
5.6122552e-06
4.3026271e-06
3.2675161e-06
2.448853e-06
1.7911245e-06
1.2853605e-06
8.5260476e-07
5.4959824e-07
2.7438209e-07
1.1417792e-07
3.9148936e-08
0.00010173476
0.00013304294
0.00017352332
0.00022537799
0.00029098941
0.0003727992
0.00047300993
0.00059121959
0.00071967351
0.00084349984
0.00092428095
0.00098082437
0.00099702481
0.00097021412
0.00090104874
0.00079786683
0.00067395448
0.00054403352
0.0004207981
0.00031297879
0.00022490168
0.00015710701
0.00010747375
7.254975e-05
4.8707086e-05
3.2768292e-05
2.2232253e-05
1.53634e-05
1.0972492e-05
7.9977292e-06
6.2422545e-06
5.0875546e-06
4.413862e-06
4.0493449e-06
3.888751e-06
3.8601216e-06
3.923994e-06
4.0487732e-06
4.2192945e-06
0.00010142559
7.7663282e-05
5.9355992e-05
4.5390223e-05
3.477139e-05
2.6702437e-05
2.0569513e-05
1.5903634e-05
1.2344397e-05
9.5941716e-06
7.4363747e-06
5.7208415e-06
4.3560382e-06
3.2972434e-06
2.4607976e-06
1.7957622e-06
1.2820419e-06
8.5001472e-07
5.3947197e-07
2.7577005e-07
1.0547455e-07
3.7572272e-08
0.00013205738
0.00017148301
0.00022188092
0.0002856045
0.00036503973
0.00046239883
0.0005793111
0.0007138551
0.00085448424
0.000985455
0.0010586422
0.001100256
0.0010933349
0.0010383572
0.00093999127
0.00081087238
0.00066731124
0.00052508729
0.00039628235
0.00028802217
0.0002027646
0.00013927429
9.4070115e-05
6.2975641e-05
4.2108427e-05
2.8298353e-05
1.9286007e-05
1.3518161e-05
9.5960901e-06
7.28581e-06
5.7331067e-06
4.8050364e-06
4.2793339e-06
4.0162771e-06
3.9256783e-06
3.9473669e-06
4.0505688e-06
4.2081149e-06
4.406337e-06
0.00013166697
0.00010142557
7.7903919e-05
5.9811791e-05
4.5957706e-05
3.5365862e-05
2.7278329e-05
2.1102106e-05
1.6381137e-05
1.2735357e-05
9.8879068e-06
7.5965146e-06
5.8063267e-06
4.4092706e-06
3.3249833e-06
2.4758831e-06
1.8032206e-06
1.2813037e-06
8.4953625e-07
5.3147043e-07
2.7754555e-07
9.8940874e-08
3.4950097e-08
0.00017025041
0.00021937597
0.00028141669
0.00035879071
0.00045372903
0.00056795273
0.00070217184
0.00085246386
0.0010026172
0.001136986
0.001196589
0.0012171787
0.0011814172
0.001094219
0.00096497336
0.0008105974
0.00064970943
0.00049821215
0.00036679574
0.0002606171
0.00017998314
0.00012177228
8.1361053e-05
5.411407e-05
3.6067157e-05
2.4290105e-05
1.6755535e-05
1.1624859e-05
8.6220115e-06
6.5659622e-06
5.3191696e-06
4.5886525e-06
4.197605e-06
4.0264664e-06
3.9989865e-06
4.0667945e-06
4.2063571e-06
4.3948602e-06
4.619397e-06
0.00016976746
0.00013166696
0.00010173473
7.850255e-05
6.0569307e-05
4.6763959e-05
3.6158187e-05
2.8023276e-05
2.1778854e-05
1.6939555e-05
1.3165221e-05
1.0124307e-05
7.7248811e-06
5.8923813e-06
4.4590188e-06
3.3586674e-06
2.4963661e-06
1.815127e-06
1.2845163e-06
8.5212846e-07
5.2656353e-07
2.7956415e-07
9.4976878e-08
3.1969109e-08
0.00021785945
0.00027840164
0.00035388814
0.00044668213
0.00055863046
0.00069064073
0.00084211899
0.0010067954
0.0011621723
0.0012949889
0.0013342061
0.0013272687
0.0012572471
0.001134758
0.00097426451
0.00079655002
0.00062154252
0.00046425257
0.00033343915
0.00023186493
0.00015733536
0.00010501185
6.951605e-05
4.5984848e-05
3.0643199e-05
2.0841183e-05
1.4171807e-05
1.0307201e-05
7.6223292e-06
5.9778905e-06
4.9930736e-06
4.4412814e-06
4.1707247e-06
4.0816204e-06
4.1101193e-06
4.2194474e-06
4.3918954e-06
4.6092881e-06
4.8581252e-06
0.00021727355
0.00016976745
0.00013205734
0.00010250903
7.9496141e-05
6.1643887e-05
4.7835023e-05
3.7179491e-05
2.8965733e-05
2.2563363e-05
1.7568151e-05
1.3501896e-05
1.0307652e-05
7.8541616e-06
5.9718175e-06
4.5180632e-06
3.4004697e-06
2.5239233e-06
1.8333204e-06
1.2927577e-06
8.5841779e-07
5.2539756e-07
2.81965e-07
9.3483216e-08
2.9133402e-08
0.00027656945
0.00035033476
0.00044108996
0.00055095894
0.00068111763
0.00083128658
0.00099926402
0.0011754661
0.0013302643
0.0014555934
0.0014668274
0.0014258294
0.0013168918
0.0011573702
0.00096673251
0.00076880052
0.0005835833
0.00042444076
0.00029764579
0.00020285312
0.00013539438
8.9258183e-05
5.8623688e-05
3.8681537e-05
2.59675e-05
1.7338149e-05
1.2407079e-05
8.9390108e-06
6.8057496e-06
5.5072828e-06
4.758271e-06
4.3647322e-06
4.2005011e-06
4.1830719e-06
4.2600474e-06
4.4057122e-06
4.607465e-06
4.8510569e-06
5.121472e-06
0.00027587361
0.00021727353
0.00017025037
0.00013304287
0.00010379201
8.0904474e-05
6.3066698e-05
4.9211045e-05
3.8466111e-05
3.0051067e-05
2.3436411e-05
1.8047687e-05
1.3750271e-05
1.0489549e-05
7.9716547e-06
6.0643726e-06
4.5887919e-06
3.4521824e-06
2.5600536e-06
1.8589717e-06