/*--------------------------------*- C++ -*----------------------------------*\
| =========                 |                                                 |
| \\      /  F ield         | OpenFOAM: The Open Source CFD Toolbox           |
|  \\    /   O peration     | Version:  5.0                                   |
|   \\  /    A nd           | Web:      www.OpenFOAM.org                      |
|    \\/     M anipulation  |                                                 |
\*---------------------------------------------------------------------------*/
FoamFile
{
    version     2.0;
    format      ascii;
    class       volVectorField;
    location    "165";
    object      U;
}
// * * * * * * * * * * * * * * * * * * * * * * * * * * * * * * * * * * * * * //

dimensions      [0 1 -1 0 0 0 0];

internalField   nonuniform List<vector> 
9200
(
(1.0346322 -0.00071442469 -8.148831e-24)
(1.0350617 -0.0021421657 -1.1441013e-20)
(1.036658 -0.00071153938 0)
(1.035659 -0.0034235428 5.8840591e-21)
(1.0370717 -0.0021495409 -8.6689478e-21)
(1.0375708 -0.00070808062 0)
(1.0363761 -0.0046527857 5.8766802e-22)
(1.0376606 -0.0034248206 -4.0889087e-22)
(1.0379791 -0.0021551586 0)
(1.0389027 -0.0007041112 0)
(1.0372272 -0.0057716 -1.1250332e-20)
(1.0383705 -0.0046618814 -6.4477492e-21)
(1.0385662 -0.0034309635 -4.8478953e-21)
(1.0393023 -0.0021654249 -2.9739234e-22)
(1.0399833 -0.00069889486 -1.5196055e-25)
(1.0381571 -0.0068232205 -1.0398512e-20)
(1.0392084 -0.0057829295 7.8841105e-22)
(1.0392718 -0.0046769262 -1.5628785e-20)
(1.0398899 -0.0034408863 -5.9040857e-21)
(1.0403783 -0.0021734728 5.2725977e-23)
(1.0411206 -0.00069176184 1.2096708e-20)
(1.0391403 -0.0077881345 -9.7816246e-21)
(1.0401216 -0.0068425943 -1.0695914e-20)
(1.0401045 -0.0058038147 9.4318709e-21)
(1.0405956 -0.0047007778 5.6168176e-22)
(1.0409679 -0.0034489654 -5.9672117e-21)
(1.0415139 -0.0021799644 -5.7923159e-21)
(1.0421751 -0.00068222182 -8.9768536e-22)
(1.0401411 -0.0086806741 -4.3346808e-21)
(1.0410809 -0.0078144301 -7.4740949e-21)
(1.0410096 -0.0068736742 -1.0273172e-20)
(1.0414275 -0.0058386601 2.1898487e-22)
(1.041675 -0.0047227086 1.4193331e-20)
(1.0421112 -0.0034538363 6.1648243e-21)
(1.0425683 -0.0021814825 7.3701323e-21)
(1.0432058 -0.00066970302 -1.1174688e-20)
(1.0411356 -0.0094984167 1.1861077e-20)
(1.0420517 -0.00871603 -8.6220231e-21)
(1.041958 -0.0078559536 3.0022703e-22)
(1.0423288 -0.0069264862 -5.1818407e-21)
(1.0425081 -0.0058724073 4.2412886e-22)
(1.0428278 -0.0047426575 2.1744448e-20)
(1.0431738 -0.0034512145 -4.1058878e-21)
(1.043604 -0.0021767142 1.2266139e-20)
(1.0441862 -0.0006537672 2.3363253e-20)
(1.0421022 -0.01024695 -8.9689101e-21)
(1.0430097 -0.0095429278 4.2434745e-21)
(1.0429147 -0.0087700402 2.4189248e-22)
(1.0432697 -0.007928116 -9.9915848e-22)
(1.0434079 -0.0069792694 1.7974259e-21)
(1.0436713 -0.0059062649 5.6017623e-22)
(1.0439011 -0.004753496 -7.5795267e-21)
(1.044225 -0.0034382846 -1.306359e-20)
(1.0445913 -0.0021635042 -7.0783823e-21)
(1.0451228 -0.00063383656 -1.7683899e-21)
(1.0430243 -0.010929038 4.1191264e-21)
(1.043934 -0.010301088 -2.7284178e-22)
(1.0438552 -0.0096102601 -6.9303221e-21)
(1.0442144 -0.0088652222 7.0756415e-21)
(1.0443443 -0.0080019675 -9.9591555e-21)
(1.04458 -0.0070361606 2.2056172e-20)
(1.0447564 -0.0059302542 1.2533528e-22)
(1.0449734 -0.0047518571 -2.1136501e-20)
(1.0452293 -0.0034118342 1.0278928e-20)
(1.0455384 -0.0021397972 -2.1299088e-20)
(1.0460098 -0.00060960345 3.1154941e-21)
(1.0438867 -0.011549125 -1.4292482e-22)
(1.0448087 -0.010992404 1.5690657e-21)
(1.0447588 -0.010382767 5.9335846e-21)
(1.0451387 -0.0097303614 0)
(1.0452807 -0.0089641618 -1.3232467e-22)
(1.0455227 -0.0080853793 -3.2528e-22)
(1.0456756 -0.0070831274 4.4762953e-21)
(1.0458525 -0.0059409424 1.0656409e-20)
(1.0459995 -0.0047326703 3.9939896e-22)
(1.0461986 -0.003369051 1.2670827e-20)
(1.0464391 -0.0021041042 8.3676548e-21)
(1.046845 -0.00058077557 -1.8101476e-21)
(1.0446719 -0.012112094 -1.5330641e-22)
(1.0456209 -0.011620753 7.9994158e-22)
(1.0456099 -0.011089088 0)
(1.0460216 -0.010529722 0)
(1.0461926 -0.0098566419 3.573775e-21)
(1.0464619 -0.0090797518 -4.5752637e-21)
(1.0466265 -0.0081595133 9.6706492e-21)
(1.0467959 -0.0071176169 -1.1972565e-20)
(1.0469037 -0.0059312545 -1.0303456e-21)
(1.0470026 -0.0046919959 -8.991807e-24)
(1.047125 -0.003307492 -1.4511594e-20)
(1.0472912 -0.0020548124 1.4967161e-20)
(1.0476252 -0.00054717997 -2.7746574e-20)
(1.0453486 -0.012624102 4.6388624e-22)
(1.0463566 -0.012190061 -1.7579661e-22)
(1.0463959 -0.011733105 3.1794392e-21)
(1.0468481 -0.011264008 -3.5266422e-21)
(1.0470591 -0.010685503 3.7698179e-21)
(1.0473725 -0.010008023 -9.446611e-22)
(1.0475706 -0.0091872631 -3.1633262e-21)
(1.0477696 -0.0082234993 4.4900295e-23)
(1.047873 -0.0071297533 -1.1523002e-20)
(1.0479455 -0.0058961183 -1.0559829e-20)
(1.0479656 -0.0046262182 -4.0099302e-21)
(1.0480069 -0.0032243547 -1.0908556e-20)
(1.0480912 -0.0019908432 -7.1391355e-21)
(1.0483475 -0.00050872741 7.3047396e-21)
(1.0458531 -0.013093976 6.0018099e-21)
(1.0469922 -0.01270555 -3.5094455e-21)
(1.0471044 -0.012318662 1.5581886e-21)
(1.0476067 -0.011936617 4.2799366e-23)
(1.0478654 -0.01145061 3.0274809e-24)
(1.0482334 -0.010876089 8.8995648e-22)
(1.0484822 -0.010152993 -3.0444467e-21)
(1.0487328 -0.0092886067 4.0336236e-21)
(1.0488715 -0.0082641217 -1.762566e-22)
(1.0489554 -0.0071141029 1.1147774e-21)
(1.0489477 -0.005830975 2.4565211e-22)
(1.0488912 -0.0045316387 1.1686714e-21)
(1.0488405 -0.003118091 1.3938617e-20)
(1.0488362 -0.0019113112 -6.5167875e-21)
(1.0490092 -0.00046542507 5.1640121e-21)
(1.0460612 -0.013530627 -2.1287559e-21)
(1.0474766 -0.013175449 3.9671571e-21)
(1.0477145 -0.012850856 -1.4069677e-21)
(1.0482866 -0.012550702 3.2132661e-21)
(1.0486006 -0.012154875 -3.5617389e-21)
(1.0490298 -0.011682755 9.2972415e-21)
(1.0493397 -0.011062254 -8.2260518e-21)
(1.049659 -0.010297433 1.6947299e-22)
(1.0498578 -0.0093664798 2.9687996e-21)
(1.0499939 -0.0082764008 -1.0938832e-22)
(1.0500016 -0.0070645513 2.7347612e-20)
(1.0499274 -0.0057305445 -7.0889751e-21)
(1.049774 -0.0044057417 -4.6117108e-21)
(1.0496225 -0.0029871908 -2.1800324e-21)
(1.0495231 -0.001815683 -7.3339463e-22)
(1.0496082 -0.00041736843 -5.4157471e-21)
(1.0457626 -0.013950224 0)
(1.0477041 -0.013609858 2.7520902e-21)
(1.048181 -0.013337239 -2.7132781e-21)
(1.0488709 -0.013110666 0)
(1.0492551 -0.012800874 0)
(1.0497511 -0.012430193 0)
(1.0501282 -0.01191266 -3.9946262e-23)
(1.0505264 -0.011255176 -7.0132816e-21)
(1.0508041 -0.010419067 1.8213789e-21)
(1.0510178 -0.0094172592 -8.3802334e-21)
(1.0510854 -0.0082518141 -1.2912139e-22)
(1.051039 -0.0069743603 -5.8161334e-21)
(1.050866 -0.005592204 2.0948239e-22)
(1.0506109 -0.0042459442 5.1645884e-21)
(1.0503495 -0.0028308466 1.5832366e-21)
(1.0501494 -0.0017037216 2.8705736e-21)
(1.0501426 -0.00036473867 0)
(1.044633 -0.014364145 6.043829e-22)
(1.0474836 -0.014027479 -6.1029365e-21)
(1.048408 -0.013786871 5.4203866e-21)
(1.0493218 -0.013623171 1.4681885e-21)
(1.0498152 -0.013392465 3.1573403e-21)
(1.0503889 -0.013120077 0)
(1.0508375 -0.012705561 3.3893172e-21)
(1.05132 -0.012158036 -2.5735387e-22)
(1.051687 -0.011426564 -1.2376514e-20)
(1.0519976 -0.010516518 1.7017631e-21)
(1.0521537 -0.0094290845 4.9020897e-21)
(1.0521817 -0.0081830107 -4.0210989e-22)
(1.0520398 -0.006840151 -1.1072873e-20)
(1.0517693 -0.005411435 1.7835421e-20)
(1.0513979 -0.0040509739 4.9140792e-21)
(1.0510186 -0.0026485844 2.0591296e-20)
(1.0507128 -0.0015755118 7.6002525e-21)
(1.0506111 -0.00030779309 5.6455026e-21)
(1.0422501 -0.01478507 1.2799828e-22)
(1.0465047 -0.014446724 -2.3158e-21)
(1.0482164 -0.0142158 -1.9397116e-21)
(1.0495557 -0.014097088 3.5503077e-21)
(1.0502489 -0.013935538 -3.1696956e-22)
(1.0509318 -0.01375535 4.806386e-21)
(1.0514601 -0.01344174 3.0372785e-21)
(1.0520294 -0.013006326 -6.7732316e-21)
(1.052491 -0.012383699 -2.5214652e-21)
(1.0529094 -0.011578327 8.1825597e-21)
(1.0531755 -0.010574032 -2.1870765e-22)
(1.0533082 -0.0093948246 1.1632645e-20)
(1.0532486 -0.0080650623 -4.0427078e-21)
(1.0530181 -0.0066555829 -1.1285771e-21)
(1.0526271 -0.0051869409 -2.1256597e-21)
(1.0521315 -0.0038195912 -3.4622125e-21)
(1.0516269 -0.0024405002 6.3667586e-21)
(1.0512117 -0.0014314304 1.4399963e-22)
(1.0510129 -0.00024685564 4.3676567e-21)
(1.0381339 -0.015218377 1.2674147e-21)
(1.0443426 -0.014889587 2.9906683e-21)
(1.0473084 -0.014639954 -1.3640421e-20)
(1.0494085 -0.014547824 -7.3348402e-22)
(1.0504827 -0.014438306 2.7010469e-21)
(1.0513535 -0.014340771 2.030546e-21)
(1.0519868 -0.014123345 4.9068663e-22)
(1.0526477 -0.013799656 6.920729e-21)
(1.0532056 -0.01328969 -9.9541563e-22)
(1.0537369 -0.012595816 -1.1169721e-20)
(1.0541249 -0.011690241 1.4550358e-20)
(1.0543855 -0.010585302 -2.4140859e-21)
(1.0544423 -0.0093072345 -5.4001429e-21)
(1.0543052 -0.0078903999 4.6716332e-22)
(1.053955 -0.0064194997 -1.2034065e-21)
(1.0534378 -0.0049164874 -1.2212702e-20)
(1.0528081 -0.0035517419 1.2531752e-21)
(1.0521724 -0.0022071346 -1.0391957e-20)
(1.051645 -0.0012721343 -2.4269182e-21)
(1.051348 -0.00018230576 -3.9335409e-21)
(1.0318199 -0.015660337 -3.7719424e-22)
(1.0404906 -0.015372364 3.6065201e-21)
(1.0452653 -0.015077964 -1.6886927e-21)
(1.0485977 -0.014993331 3.4746729e-21)
(1.0503663 -0.01491471 1.7515268e-21)
(1.05159 -0.014883638 -2.4807882e-21)
(1.0523962 -0.014754256 4.4675646e-21)
(1.0531673 -0.014539036 7.3399614e-21)
(1.0538243 -0.014142921 -9.6039641e-21)
(1.0544691 -0.013566984 0)
(1.0549845 -0.012769177 -9.6080951e-21)
(1.0553862 -0.011757443 6.5972767e-22)
(1.0555855 -0.010540261 1.0863031e-20)
(1.055579 -0.0091580259 -5.339419e-21)
(1.0553282 -0.0076569135 5.7456963e-21)
(1.0548563 -0.0061271531 -1.0659112e-20)
(1.0541964 -0.0045995878 -2.5065238e-21)
(1.0534247 -0.0032477471 2.8347157e-21)
(1.0526531 -0.0019494831 -4.854775e-21)
(1.0520119 -0.0010985358 -7.8647573e-22)
(1.0516166 -0.00011457039 -2.844306e-21)
(1.0229411 -0.016096905 -5.3745723e-21)
(1.0344313 -0.015900931 2.6388692e-21)
(1.0415746 -0.015543611 6.7947341e-21)
(1.0467104 -0.015454579 -8.0882958e-21)
(1.0496324 -0.015382168 -4.3826906e-21)
(1.0515056 -0.01539668 2.0141151e-21)
(1.0526332 -0.015341016 0)
(1.053571 -0.015227053 7.1420609e-21)
(1.054341 -0.0149433 1.6697666e-21)
(1.0550997 -0.014488744 -1.3736278e-20)
(1.0557429 -0.013807548 -4.0971547e-21)
(1.0562918 -0.012901037 1.3612742e-21)
(1.0566485 -0.011766636 7.0068255e-24)
(1.0568014 -0.010430297 -4.7040802e-21)
(1.056692 -0.0089434232 5.1088532e-21)
(1.0563261 -0.0073583609 -4.6001729e-21)
(1.0557089 -0.0057792815 1.3661547e-21)
(1.0548992 -0.0042360943 -7.2613496e-21)
(1.0539787 -0.0029086517 -2.6914308e-21)
(1.0530678 -0.0016689104 -5.3359443e-22)
(1.0523124 -0.00091177015 -1.8488394e-21)
(1.0518199 -4.4125628e-05 0)
(1.0112982 -0.016505234 -3.2719174e-21)
(1.0257258 -0.016466798 -1.0366431e-21)
(1.0356973 -0.016041416 3.2039264e-22)
(1.0432236 -0.015949503 -6.9212742e-21)
(1.0478772 -0.015860963 -2.2657397e-21)
(1.0508494 -0.015897467 2.7082174e-21)
(1.0525756 -0.015895237 -5.4402946e-21)
(1.0538121 -0.015869 7.3901423e-21)
(1.0547422 -0.015692247 3.8599096e-21)
(1.0556236 -0.015359645 2.485694e-22)
(1.0563935 -0.014800749 1.2562245e-23)
(1.0570899 -0.014011387 -1.9547257e-21)
(1.0576114 -0.012974507 1.2554232e-21)
(1.057941 -0.011709254 -7.7793523e-21)
(1.0580049 -0.010249489 -1.1490763e-20)
(1.0577913 -0.0086559942 -1.0086326e-20)
(1.0572827 -0.0069948711 1.7129848e-21)
(1.0565139 -0.0053731392 1.3300435e-20)
(1.0555424 -0.0038271979 8.1933371e-23)
(1.0544681 -0.0025359523 -3.1355107e-21)
(1.0534158 -0.0013671204 0)
(1.052547 -0.0007131647 3.0388593e-21)
(1.0519591 2.848948e-05 2.1755339e-22)
(0.99689802 -0.016857379 1.6810405e-20)
(1.0140975 -0.01704656 -2.3602794e-21)
(1.0271594 -0.016563249 7.9630222e-21)
(1.0375673 -0.016486865 4.0325333e-21)
(1.0445735 -0.016369583 -8.8288462e-21)
(1.0492293 -0.016407112 0)
(1.0519889 -0.016434001 -1.1378185e-21)
(1.0537816 -0.016475036 5.371941e-21)
(1.0549885 -0.016393942 3.9013796e-21)
(1.0560301 -0.016179629 -3.9557954e-22)
(1.0569321 -0.015745918 -7.6118118e-21)
(1.0577734 -0.015082262 -4.7384519e-21)
(1.0584604 -0.014157762 6.4114521e-21)
(1.0589756 -0.012981478 -9.1897867e-21)
(1.0592332 -0.011576878 1.3492811e-20)
(1.0592076 -0.0099894009 2.1355632e-20)
(1.0588588 -0.0082945878 -1.6439999e-22)
(1.0581999 -0.0065624618 5.3954841e-21)
(1.0572623 -0.0049111507 -1.2557822e-20)
(1.0561228 -0.0033744946 7.4269379e-22)
(1.0548912 -0.0021318216 5.1285305e-21)
(1.0536972 -0.0010460921 -2.4631212e-21)
(1.052717 -0.00050421032 3.5801815e-22)
(1.0520357 0.00010258845 1.7034525e-22)
(0.97995323 -0.017124899 4.5450034e-21)
(0.9994846 -0.017604867 -1.6520317e-22)
(1.0156407 -0.017087872 1.4839339e-22)
(1.0292189 -0.017061755 -1.6829374e-20)
(1.039129 -0.016918251 6.2244785e-21)
(1.0461164 -0.016946395 -1.0492346e-20)
(1.0504938 -0.016978278 -9.7996006e-22)
(1.0532624 -0.017061508 -9.4433605e-21)
(1.0549833 -0.017057243 4.4864992e-21)
(1.0562867 -0.016951384 2.9883893e-21)
(1.0573503 -0.016641548 -6.973544e-21)
(1.0583383 -0.016109171 4.8775423e-21)
(1.0591879 -0.015308504 -5.8908744e-21)
(1.0598903 -0.014239464 -7.8206653e-23)
(1.0603528 -0.012910764 1.0696614e-20)
(1.0605388 -0.011360219 1.4832392e-21)
(1.0603895 -0.0096471439 -2.1684508e-22)
(1.0598965 -0.0078539904 8.8760268e-21)
(1.0590662 -0.0060631273 0)
(1.0579528 -0.0043930084 1.6922779e-21)
(1.0566381 -0.0028802442 4.2008984e-22)
(1.0552473 -0.0016990361 -6.3450612e-22)
(1.0539128 -0.00070814317 -8.0830761e-22)
(1.0528238 -0.0002866553 -6.9017e-22)
(1.0520522 0.00017622022 6.7215732e-22)
(0.96084669 -0.017282903 -1.5599122e-20)
(0.9820537 -0.018099463 -9.0572633e-22)
(1.0010361 -0.017583901 2.3657568e-21)
(1.0178006 -0.017654067 1.8568098e-21)
(1.0309804 -0.017504072 1.7077919e-20)
(1.0408973 -0.01752845 7.0855475e-23)
(1.0475624 -0.01754976 -9.3844807e-22)
(1.0518903 -0.017649422 7.1175195e-22)
(1.0545264 -0.017697577 7.1361119e-21)
(1.0563088 -0.017682152 -4.2244592e-21)
(1.0576217 -0.01748885 4.9873197e-21)
(1.0587784 -0.017088933 -2.466043e-22)
(1.0597899 -0.016420577 -2.111546e-21)
(1.0606763 -0.015473556 2.7192184e-21)
(1.0613466 -0.014242324 8.5346346e-23)
(1.0617582 -0.012752414 -1.5157654e-20)
(1.061836 -0.011054299 -2.1723978e-20)
(1.0615531 -0.0092162378 -1.3045577e-20)
(1.0608912 -0.0073352053 -1.739781e-20)
(1.05988 -0.0054956154 -4.0147837e-22)
(1.0585792 -0.0038224061 1.4168721e-20)
(1.057086 -0.0023473948 4.3140703e-22)
(1.0555352 -0.0012417071 -1.8746121e-21)
(1.0540633 -0.00035655557 4.9670995e-22)
(1.0528689 -6.3563164e-05 4.9479431e-22)
(1.0520175 0.00024597144 9.8097318e-24)
(0.94007319 -0.017314216 6.9928766e-22)
(0.96217228 -0.018487036 -1.2257015e-21)
(0.98347587 -0.018015208 -1.0226826e-20)
(1.003153 -0.01823113 1.0213792e-20)
(1.0196976 -0.018108701 -1.5140375e-20)
(1.0329672 -0.018153073 8.9191998e-21)
(1.0425633 -0.018163407 3.8358159e-21)
(1.0491418 -0.018261857 9.0851217e-21)
(1.0532696 -0.018335639 -1.0120186e-20)
(1.0559135 -0.018386087 -4.2782789e-21)
(1.0576727 -0.018293477 1.6100713e-21)
(1.0590723 -0.018021008 -1.222612e-20)
(1.0602615 -0.017489067 1.2102214e-20)
(1.0613292 -0.016675882 -1.6541116e-21)
(1.0622048 -0.015560211 3.1755532e-21)
(1.0628469 -0.014155968 -3.879737e-22)
(1.0631692 -0.012499094 -5.6290864e-21)
(1.0631282 -0.010651323 5.5498278e-21)
(1.0626834 -0.0086962499 -6.4392122e-21)
(1.0618406 -0.0067359418 -7.0497047e-22)
(1.0606332 -0.0048634566 0)
(1.0591397 -0.0032011346 4.7115364e-21)
(1.057465 -0.0017796267 1.7633283e-21)
(1.055756 -0.00076162487 0)
(1.0541498 5.2775727e-06 -2.7223012e-22)
(1.0528554 0.00016479981 -5.9442744e-22)
(1.0519245 0.00032679532 -1.8216516e-21)
(0.91817624 -0.017213906 5.3486818e-21)
(0.94034914 -0.018732458 -1.9857854e-22)
(0.96330584 -0.018347599 -8.6977837e-21)
(0.98536439 -0.018752774 1.073949e-21)
(1.0050692 -0.018700258 -2.5872306e-21)
(1.0218399 -0.018803781 -9.9931661e-21)
(1.0348535 -0.018821192 -5.0990671e-22)
(1.0443709 -0.018916261 -7.3212554e-21)
(1.0506961 -0.018995259 -1.3152133e-23)
(1.0547699 -0.019083378 8.5879427e-21)
(1.0573368 -0.019068144 -4.2914979e-21)
(1.0591568 -0.018909202 9.0815488e-22)
(1.0605858 -0.018511646 -3.2201801e-21)
(1.061845 -0.017839616 3.3789844e-21)
(1.0629222 -0.016854766 -1.2618715e-21)
(1.0637933 -0.015557903 4.1232219e-21)
(1.0643677 -0.013970517 3.5991663e-21)
(1.0645896 -0.012141693 2.9204813e-20)
(1.0643987 -0.01014905 1.0044468e-20)
(1.0637776 -0.0080836717 1.0293551e-20)
(1.0627347 -0.0060590839 8.3290917e-21)
(1.0613227 -0.0041680298 -2.7147224e-21)
(1.0596303 -0.0025339425 -5.725339e-22)
(1.0577741 -0.0011805943 0)
(1.0559098 -0.00026277061 0)
(1.0541748 0.00037822203 1.114795e-22)
(1.0527859 0.00040085682 2.9507177e-21)
(1.0517823 0.00040433299 4.3389171e-21)
(0.89571088 -0.016979493 0)
(0.9171444 -0.018825185 -7.3115768e-22)
(0.94104208 -0.018549388 7.6487557e-21)
(0.9647561 -0.01917803 3.6006796e-21)
(0.98713924 -0.019237736 1.0810685e-20)
(1.007241 -0.019448094 4.9217596e-22)
(1.0238942 -0.019508118 -6.5639654e-21)
(1.0368974 -0.019617448 -1.1560693e-20)
(1.0461486 -0.019695699 1.3852348e-20)
(1.0523709 -0.019798547 -4.1291657e-21)
(1.0563013 -0.019832278 5.4650969e-22)
(1.0588816 -0.019764457 4.1974144e-21)
(1.0607089 -0.019490224 -1.1185494e-20)
(1.0622105 -0.018960457 6.1815446e-21)
(1.0634952 -0.018117283 3.9744117e-21)
(1.064591 -0.016946795 -5.1617765e-22)
(1.0654178 -0.015454104 3.962617e-21)
(1.0659138 -0.013675582 -3.4976343e-21)
(1.0660021 -0.011675855 1.5249255e-20)
(1.0656444 -0.0095425514 1.1941542e-21)
(1.0648239 -0.0073802946 7.1664205e-21)
(1.0635692 -0.0053053597 4.4818339e-21)
(1.0619429 -0.003414172 -8.232729e-22)
(1.0600495 -0.0018242722 -8.8611284e-21)
(1.058013 -0.00055450541 -3.7633687e-21)
(1.0559981 0.00025192263 1.3473967e-21)
(1.0541406 0.00075863086 -2.4875245e-21)
(1.0526646 0.00063845362 2.7140032e-21)
(1.0515919 0.00048138223 -8.0848214e-21)
(0.87318712 -0.016614154 -1.6433448e-20)
(0.89316615 -0.018734261 0)
(0.91732437 -0.018581362 0)
(0.94182957 -0.019470468 0)
(0.96620403 -0.019679663 -2.8427544e-21)
(0.98916836 -0.020044503 9.6173703e-21)
(1.0093563 -0.020192998 -1.0671484e-21)
(1.0261268 -0.020352548 -1.5620914e-21)
(1.0389132 -0.020444078 1.8031897e-20)
(1.0480507 -0.02055283 -1.7102087e-20)
(1.0540707 -0.020610687 1.0453266e-20)
(1.0579534 -0.020605153 -3.6291097e-21)
(1.0604961 -0.020433803 1.912971e-21)
(1.0623802 -0.020038212 -8.5565031e-21)
(1.0639133 -0.019341402 4.7196024e-21)
(1.0652364 -0.018311963 5.0148554e-21)
(1.0663119 -0.016936754 3.8571398e-22)
(1.0670847 -0.015237248 -1.0419909e-20)
(1.0674671 -0.013264456 -3.779756e-21)
(1.067403 -0.011095056 -8.5911724e-21)
(1.0668519 -0.0088321182 -8.5620464e-21)
(1.0658169 -0.0065859217 3.0860185e-21)
(1.0643367 -0.0044793479 8.9526172e-21)
(1.0624908 -0.0026054734 -3.5729632e-21)
(1.0603953 -0.0010774424 -1.8255402e-21)
(1.0581823 9.4655119e-05 -4.4041301e-22)
(1.0560229 0.00077925153 -1.7077915e-21)
(1.0540504 0.0011441342 2.2632196e-21)
(1.0524936 0.0008782662 -1.2017609e-20)
(1.0513575 0.00055722301 -5.6002892e-21)
(0.84918328 -0.016077899 -1.3020981e-21)
(0.86906193 -0.018455673 -1.1679285e-21)
(0.89275941 -0.018483352 0)
(0.91719441 -0.019601613 0)
(0.94276436 -0.019987662 0)
(0.96788711 -0.020547512 0)
(0.9911832 -0.020832591 0)
(1.0116662 -0.021090481 3.4306275e-22)
(1.0283423 -0.021229435 -8.8037529e-21)
(1.0410631 -0.021355955 1.9147802e-20)
(1.049974 -0.021426209 -9.8759522e-22)
(1.0558902 -0.021456141 1.1713571e-20)
(1.0596733 -0.021359475 -1.5465669e-20)
(1.0622344 -0.02107966 2.3568082e-21)
(1.0641387 -0.020524737 -1.2143621e-22)
(1.0657212 -0.019644913 5.664165e-21)
(1.0670456 -0.018405848 -1.0669867e-20)
(1.0680927 -0.016812032 -7.5372563e-22)
(1.0687753 -0.01489811 1.4136524e-20)
(1.0690242 -0.012728891 6.3568297e-21)
(1.0687777 -0.010397719 1.1450656e-21)
(1.0680146 -0.008016313 9.7562711e-21)
(1.0667471 -0.0057044619 5.2162869e-22)
(1.0650327 -0.0035844823 -3.3923192e-21)
(1.0629631 -0.0017477509 4.5247551e-21)
(1.0606672 -0.00029809943 5.405158e-21)
(1.0582829 0.00076229349 1.2738901e-21)
(1.0559866 0.001315237 7.307126e-22)
(1.0539071 0.001532178 2.3693984e-22)
(1.0522768 0.001117372 9.8585322e-21)
(1.0510835 0.00063137359 3.7653139e-21)
(0.82324221 -0.015292888 1.8151364e-20)
(0.84333881 -0.017978651 -6.6774006e-22)
(0.86783626 -0.018215249 5.9422802e-21)
(0.89151198 -0.019558201 5.6854164e-21)
(0.91745537 -0.020121065 0)
(0.94388506 -0.020913495 0)
(0.96960375 -0.021379299 -4.4098785e-22)
(0.99340278 -0.021786666 1.0535853e-20)
(1.0139805 -0.022021452 -1.727564e-20)
(1.0307066 -0.022199153 2.0250121e-20)
(1.0432366 -0.022290955 2.4385323e-21)
(1.0520191 -0.022341762 -1.0875083e-20)
(1.0577742 -0.022291791 -3.5310321e-22)
(1.0615186 -0.022100294 -6.9189121e-22)
(1.0640656 -0.021671703 -4.8439834e-21)
(1.0660141 -0.020940916 1.2853374e-21)
(1.0676121 -0.019850745 2.3032063e-21)
(1.0689323 -0.018385446 -5.095997e-22)
(1.0699146 -0.016560812 4.1141138e-21)
(1.0704865 -0.01442665 2.9105237e-20)
(1.0705691 -0.01206512 7.9947177e-21)
(1.0701185 -0.0095808614 -7.5501861e-21)
(1.0691211 -0.0070979497 1.1582711e-20)
(1.0676084 -0.0047388729 9.5938866e-21)
(1.0656518 -0.0026267871 2.7093994e-21)
(1.0633577 -0.00084623872 3.4577617e-21)
(1.0608651 0.00050809233 1.6596012e-21)
(1.0583167 0.0014439726 -1.5011557e-21)
(1.0558919 0.0018566485 2.0577264e-21)
(1.0537142 0.0019200331 -1.0340473e-21)
(1.0520176 0.0013546941 5.9292771e-21)
(1.0507727 0.00070396769 4.2744052e-22)
(0.79723622 -0.014265624 -6.1005953e-21)
(0.815518 -0.01723944 1.8774114e-21)
(0.8413754 -0.017733294 -8.2980872e-21)
(0.86546162 -0.019313148 -5.6907205e-21)
(0.89095793 -0.0201013 0)
(0.91779948 -0.021106105 0)
(0.94509328 -0.021786525 0)
(0.97152563 -0.02239064 -1.8436558e-21)
(0.99565533 -0.022774512 1.3481764e-20)
(1.0164599 -0.023052854 1.4934987e-20)
(1.0331049 -0.023198328 2.5840511e-21)
(1.0455388 -0.023276571 -2.2913294e-21)
(1.0541269 -0.023256295 2.1800719e-20)
(1.059784 -0.023124034 -1.6797681e-20)
(1.063459 -0.02279593 5.1373087e-21)
(1.0660221 -0.022201827 0)
(1.0679854 -0.021264288 1.5165336e-21)
(1.0695975 -0.019944702 1.1216879e-21)
(1.0708784 -0.018236349 1.2693048e-20)
(1.0717756 -0.016171245 -9.8917484e-22)
(1.0722018 -0.013816655 -1.4306806e-20)
(1.0720936 -0.011268336 -4.5571212e-21)
(1.0714124 -0.0086457779 -1.1680876e-20)
(1.0701637 -0.0060791395 -1.1672418e-20)
(1.0683936 -0.0036950094 1.0760343e-21)
(1.0661907 -0.0016118358 2.3797364e-21)
(1.0636732 9.2550616e-05 -1.3964085e-21)
(1.0609898 0.0013357565 -1.4164971e-22)
(1.0582857 0.0021350786 3.3573448e-21)
(1.055742 0.0023998503 6.6928674e-22)
(1.0534751 0.002305598 1.0999673e-21)
(1.0517196 0.0015891174 -1.7990118e-20)
(1.0504297 0.00077452899 6.9290078e-21)
(0.77195002 -0.01299777 -5.5442363e-21)
(0.7874399 -0.016217513 3.9587045e-22)
(0.81278281 -0.016997779 -1.465491e-20)
(0.83774998 -0.018851362 -8.1859955e-21)
(0.86390288 -0.019894228 3.8600351e-21)
(0.89033447 -0.02112228 -3.1318008e-23)
(0.91830062 -0.022008308 1.6711298e-20)
(0.94649256 -0.022851535 -8.8907303e-21)
(0.97351171 -0.023435586 -6.5543758e-23)
(0.99808687 -0.023870331 -3.2636801e-20)
(1.0189912 -0.024119667 1.4557805e-20)
(1.0356439 -0.0242563 1.7756577e-20)
(1.0479069 -0.024269834 -1.7434052e-21)
(1.0563627 -0.024177398 -5.5796878e-21)
(1.0618892 -0.023920384 -7.154134e-21)
(1.0655301 -0.023439062 -4.7448168e-21)
(1.0680849 -0.022645697 6.9659447e-22)
(1.0700668 -0.021480166 1.4862472e-20)
(1.0716603 -0.01990987 -3.7445031e-22)
(1.0728826 -0.017944938 -2.7183712e-21)
(1.0736585 -0.015634496 -3.6445758e-21)
(1.0739123 -0.013061265 -1.9696735e-20)
(1.0735828 -0.010337914 2.8699079e-21)
(1.0726498 -0.0075933455 -2.2665339e-21)
(1.071133 -0.004965152 -1.4724849e-20)
(1.0690972 -0.0025784855 -3.9713902e-21)
(1.0666459 -0.00054677127 -2.50736e-21)
(1.0639091 0.0010623764 -3.2781663e-21)
(1.0610425 0.0021791553 6.9624832e-23)
(1.0581926 0.0028311824 -7.5235739e-22)
(1.0555401 0.0029416869 1.7521849e-21)
(1.0531934 0.0026867509 -1.1068459e-22)
(1.0513867 0.0018193643 7.6421492e-21)
(1.0500574 0.00084303863 -1.3539475e-20)
(0.74820435 -0.011492034 5.7979112e-21)
(0.75994181 -0.014894284 -5.5809066e-22)
(0.78373677 -0.015981976 1.6972345e-20)
(0.80775161 -0.018120277 4.7124058e-21)
(0.83517193 -0.019435475 -1.3096735e-20)
(0.86222567 -0.020946505 -1.6573872e-20)
(0.88996024 -0.022055263 -2.2188437e-21)
(0.91895797 -0.023118975 0)
(0.94798622 -0.02395011 -9.5469083e-21)
(0.97568397 -0.024595749 -3.6011026e-20)
(1.000593 -0.025007269 2.3799427e-21)
(1.0216787 -0.0252533 -6.7039943e-21)
(1.0382592 -0.025330487 0)
(1.0504096 -0.025279475 -3.327192e-21)
(1.0586948 -0.025072251 1.3713276e-20)
(1.0641281 -0.024674298 6.9146914e-21)
(1.0677139 -0.024003897 -6.7802324e-21)
(1.0702703 -0.022988284 0)
(1.0722423 -0.021569286 -7.0929461e-21)
(1.0738006 -0.019730949 -9.2328065e-21)
(1.074928 -0.017499664 -2.0163407e-20)
(1.0755544 -0.014941477 -5.2287474e-21)
(1.075602 -0.012157573 0)
(1.0750259 -0.0092731063 -1.4220971e-20)
(1.0738192 -0.006427801 1.1466266e-21)
(1.0720215 -0.0037612806 6.4721379e-23)
(1.0697139 -0.0013967836 -6.0457657e-21)
(1.0670155 0.00056139829 2.4962861e-21)
(1.0640655 0.0020564587 4.3037036e-22)
(1.0610254 0.0030327969 4.1969624e-21)
(1.0580405 0.0035280275 -7.6856664e-21)
(1.0552899 0.003479168 -3.7314639e-21)
(1.052873 0.0030616885 0)
(1.0510222 0.0020447166 -2.9383662e-22)
(1.0496598 0.00090925186 -4.2206336e-21)
(0.72682778 -0.009760377 4.2213698e-21)
(0.73394323 -0.013264769 8.4373156e-22)
(0.7551491 -0.014669469 1.5710176e-20)
(0.77716009 -0.017084595 1.5217589e-21)
(0.80412892 -0.018699871 -3.7701187e-21)
(0.83234664 -0.020481071 -8.5367515e-22)
(0.86081872 -0.02191358 -1.4548639e-20)
(0.8896832 -0.023205697 5.1634221e-22)
(0.91973648 -0.024262343 0)
(0.94966269 -0.025170379 1.1618623e-20)
(0.97795439 -0.025802573 -1.2499653e-20)
(1.0032703 -0.026218845 3.006386e-21)
(1.0244591 -0.026411724 -6.9595564e-21)
(1.0410212 -0.026430788 9.3061445e-21)
(1.0530138 -0.026272695 3.0927346e-22)
(1.0611646 -0.025935071 1.5051239e-20)
(1.0664841 -0.02535897 -1.0789105e-20)
(1.0700301 -0.024475244 3.515346e-21)
(1.0725644 -0.023208205 1.4855598e-20)
(1.0745141 -0.021514802 -8.2656332e-21)
(1.0760021 -0.019393664 1.4878277e-20)
(1.0770059 -0.016889101 5.8212149e-22)
(1.0774463 -0.014086702 0)
(1.0772585 -0.011102844 -3.8638991e-21)
(1.0764092 -0.0080766577 2.7403468e-22)
(1.074911 -0.0051537063 5.7654097e-21)
(1.0728217 -0.0024749909 4.5358016e-21)
(1.0702401 -0.00015745906 2.3576175e-21)
(1.0672982 0.0017049039 9.5446593e-22)
(1.0641435 0.0030681813 0)
(1.0609408 0.0038912408 -2.6192017e-21)
(1.0578326 0.0042216291 -8.1917374e-21)
(1.0549951 0.0040095697 1.6974162e-20)
(1.0525174 0.0034288607 -5.7675525e-21)
(1.0506299 0.0022642636 4.4911389e-22)
(1.0492401 0.00097307264 1.494396e-20)
(0.70861133 -0.0078256032 -3.9310115e-21)
(0.71039625 -0.011337028 -1.840188e-22)
(0.72801357 -0.013058648 -4.7460815e-21)
(0.7469137 -0.015723138 3.586556e-23)
(0.77225212 -0.017657376 1.5475702e-20)
(0.79998386 -0.019747215 1.2638869e-20)
(0.82981614 -0.021443814 -1.8783625e-22)
(0.85947784 -0.023082005 -1.1699093e-20)
(0.88954761 -0.02438993 5.3615693e-22)
(0.92068148 -0.02553283 -1.0084769e-20)
(0.95145744 -0.02644276 -4.6113098e-22)
(0.98040571 -0.027091413 6.1254341e-21)
(1.0060607 -0.027463856 -1.0033729e-21)
(1.0274022 -0.027606044 1.0969791e-20)
(1.0438962 -0.027524706 -3.2558597e-20)
(1.0557635 -0.027244495 6.6405568e-21)
(1.063756 -0.026738494 1.2515625e-21)
(1.0689795 -0.025959183 6.409557e-21)
(1.0724661 -0.024829891 -3.8107077e-21)
(1.0749715 -0.023287244 -1.1608453e-21)
(1.0768669 -0.021299779 1.1420168e-20)
(1.0782569 -0.018884208 -1.0560537e-20)
(1.0790989 -0.016104964 5.7059179e-21)
(1.079321 -0.013065126 0)
(1.0788665 -0.009897882 1.7178835e-20)
(1.077721 -0.0067519527 1.4247449e-20)
(1.0759156 -0.0037780878 -2.6642372e-21)
(1.0735279 -0.0011140952 7.7479004e-21)
(1.0706726 0.0011308891 5.680117e-22)
(1.0674939 0.0028760642 -8.3536636e-22)
(1.0641449 0.0040908885 4.0896963e-21)
(1.0607918 0.0047493784 -8.4004637e-21)
(1.0575728 0.0049083059 -2.4406543e-22)
(1.0546593 0.0045305112 1.7384176e-20)
(1.0521305 0.0037868762 -1.1705775e-21)
(1.0502133 0.0024774119 -5.270339e-22)
(1.0488015 0.0010343919 5.4594384e-21)
(0.69426053 -0.005720533 4.1210795e-22)
(0.69022668 -0.0091363307 -1.0589911e-21)
(0.70335783 -0.011157094 -6.0417296e-21)
(0.71807459 -0.014032034 -8.435889e-22)
(0.74056004 -0.016270385 -5.5408623e-24)
(0.7666422 -0.018674314 2.1285816e-22)
(0.79625753 -0.020696948 -7.7754291e-21)
(0.82729602 -0.022605672 4.5253943e-21)
(0.85826067 -0.024286008 0)
(0.88955049 -0.025704489 2.1048745e-21)
(0.92175775 -0.026860372 0)
(0.95343401 -0.027803717 0)
(0.98298935 -0.028422338 6.4475781e-21)
(1.00903 -0.028754562 -6.2499962e-22)
(1.0304758 -0.028804328 -5.4716651e-21)
(1.04693 -0.028608086 -7.1658585e-21)
(1.058643 -0.028167364 1.8070257e-20)
(1.066494 -0.027467385 -8.5837945e-21)
(1.0716036 -0.02645023 1.6113286e-21)
(1.0750291 -0.025048456 1.1930497e-21)
(1.0774779 -0.023205946 -1.5045525e-20)
(1.0792939 -0.020908054 -5.0716388e-21)
(1.0805474 -0.018191357 4.5149139e-21)
(1.081193 -0.015139629 1.0590743e-20)
(1.0811612 -0.011875201 2.0853931e-21)
(1.0804122 -0.0085444397 2.046641e-21)
(1.0789492 -0.0053051112 -4.5773799e-21)
(1.0768247 -0.0023086419 -5.2160871e-21)
(1.0741348 0.00031224716 -6.990636e-22)
(1.0710097 0.0024596329 -4.1629202e-21)
(1.0676032 0.0040669507 -5.0168213e-21)
(1.064072 0.0051182256 -2.6374975e-21)
(1.0605818 0.005602376 7.0958005e-22)
(1.0572647 0.0055847369 1.2821589e-20)
(1.0542866 0.0050398673 -3.3615107e-20)
(1.0517157 0.0041346167 -5.5450078e-21)
(1.0497757 0.0026835997 -5.298661e-21)
(1.0483471 0.0010931369 0)
(0.68435103 -0.003486387 3.4258442e-21)
(0.6742713 -0.00670414 -1.6205502e-22)
(0.68218484 -0.0089893792 -1.5681409e-21)
(0.69176383 -0.012015611 -7.273377e-22)
(0.71020596 -0.014537565 -7.2006076e-21)
(0.7333637 -0.017231061 -5.4132842e-21)
(0.76148301 -0.019603493 -6.9300886e-22)