/*--------------------------------*- C++ -*----------------------------------*\
| =========                 |                                                 |
| \\      /  F ield         | OpenFOAM: The Open Source CFD Toolbox           |
|  \\    /   O peration     | Version:  5.0                                   |
|   \\  /    A nd           | Web:      www.OpenFOAM.org                      |
|    \\/     M anipulation  |                                                 |
\*---------------------------------------------------------------------------*/
FoamFile
{
    version     2.0;
    format      ascii;
    class       volVectorField;
    location    "165";
    object      UMean;
}
// * * * * * * * * * * * * * * * * * * * * * * * * * * * * * * * * * * * * * //

dimensions      [0 1 -1 0 0 0 0];

internalField   nonuniform List<vector> 
9200
(
(1.022507 -0.00056918254 -1.5770866e-23)
(1.0228632 -0.001674024 -8.7763101e-21)
(1.0240937 -0.00057540466 0)
(1.0231789 -0.0026854228 4.4903853e-21)
(1.0244343 -0.0016956775 -6.6962861e-21)
(1.0248266 -0.0005794198 0)
(1.0234748 -0.0036332195 4.5020551e-22)
(1.0247356 -0.0027149006 -3.9567549e-22)
(1.0251617 -0.0017141932 0)
(1.0258946 -0.00058644747 0)
(1.0237902 -0.0044964248 -8.420068e-21)
(1.0250124 -0.0036773517 -4.5795608e-21)
(1.0254572 -0.0027434413 -3.7183268e-21)
(1.0262207 -0.0017453659 -2.3184293e-22)
(1.0267757 -0.00059250751 1.1203492e-24)
(1.0241039 -0.0052970602 -7.7493768e-21)
(1.0253053 -0.0045517501 7.0711336e-22)
(1.025725 -0.0037204428 -1.1848067e-20)
(1.0265103 -0.0027897415 -4.368506e-21)
(1.027096 -0.0017761368 1.3952461e-22)
(1.0277214 -0.00059893676 9.694885e-21)
(1.0244028 -0.00602662 -6.9766456e-21)
(1.0255927 -0.0053667409 -8.0818894e-21)
(1.0260082 -0.0046069911 7.1706887e-21)
(1.0267696 -0.0037903087 3.9282631e-22)
(1.0273815 -0.0028361514 -4.6842322e-21)
(1.0280374 -0.0018117514 -4.5009538e-21)
(1.0286063 -0.00060398211 -6.414814e-22)
(1.0246634 -0.0066947757 -2.7488711e-21)
(1.0258604 -0.0061095255 -5.3555636e-21)
(1.0262835 -0.0054365982 -7.5750122e-21)
(1.0270435 -0.0046977408 3.972948e-22)
(1.0276348 -0.0038608368 1.0744634e-20)
(1.028323 -0.0028897388 4.6524233e-21)
(1.0289192 -0.0018456886 6.1264844e-21)
(1.029499 -0.00060780391 -9.2620975e-21)
(1.0248675 -0.0073017696 8.234052e-21)
(1.0260857 -0.006791909 -6.4843502e-21)
(1.026537 -0.0061936192 4.2496991e-22)
(1.0273068 -0.005552339 -3.9284865e-21)
(1.0279023 -0.0047900442 8.6454303e-22)
(1.028576 -0.0039432905 1.6778056e-20)
(1.0292058 -0.0029406722 -4.2028844e-21)
(1.0298121 -0.0018791295 1.029471e-20)
(1.0303561 -0.00060935565 1.958167e-20)
(1.0249971 -0.0078528047 -6.0172783e-21)
(1.026251 -0.0074128334 3.5312145e-21)
(1.026746 -0.0068911325 1.1624686e-22)
(1.0275455 -0.0063344771 -1.4745254e-21)
(1.0281565 -0.0056705966 1.2583323e-21)
(1.0288438 -0.0048995151 1.3762386e-21)
(1.0294599 -0.0040228494 -5.8559607e-21)
(1.030105 -0.0029907755 -1.0477091e-20)
(1.0306705 -0.0019078733 -5.5829637e-21)
(1.0312031 -0.00060846446 -1.3815475e-21)
(1.025036 -0.0083512723 2.7744431e-21)
(1.0263391 -0.0079778862 2.6046258e-22)
(1.0268932 -0.0075272255 -5.2437946e-21)
(1.0277368 -0.0070588869 5.0420066e-21)
(1.028384 -0.0064790347 -8.3409703e-21)
(1.0290964 -0.0058127674 1.7423867e-20)
(1.0297293 -0.0050061821 4.2461835e-22)
(1.0303679 -0.0041031967 -1.7410599e-20)
(1.0309712 -0.0030334095 8.6479642e-21)
(1.0315223 -0.0019316716 -1.7681715e-20)
(1.0320188 -0.00060446532 2.8162061e-21)
(1.0249678 -0.0088016754 -1.6202858e-22)
(1.0263351 -0.0084900664 3.5436847e-22)
(1.026962 -0.0081076522 4.0075361e-21)
(1.0278639 -0.0077223745 0)
(1.0285614 -0.0072315205 -4.8811581e-23)
(1.0293199 -0.0066552266 -1.1896663e-21)
(1.0299818 -0.0059525849 3.5739949e-21)
(1.0306477 -0.0051161529 8.6940456e-21)
(1.031245 -0.004174235 -9.2768263e-22)
(1.0318362 -0.0030682766 1.0674508e-20)
(1.0323447 -0.0019476395 7.2274087e-21)
(1.032813 -0.00059708067 -1.5139815e-21)
(1.0247742 -0.0092084958 -1.1555365e-22)
(1.0262242 -0.0089537947 8.5221287e-22)
(1.0269378 -0.0086351773 0)
(1.0279106 -0.0083307562 0)
(1.0286725 -0.0079235634 2.8899935e-21)
(1.0294907 -0.0074445831 -4.8579465e-21)
(1.0302031 -0.0068298299 8.4964232e-21)
(1.0309096 -0.006099752 -9.3424297e-21)
(1.0315377 -0.0052156575 -7.2586359e-22)
(1.032129 -0.004236186 8.2977389e-24)
(1.0326741 -0.003090801 -1.2953421e-20)
(1.0331488 -0.0019548291 1.4234578e-20)
(1.0335743 -0.00058593007 -2.5553767e-20)
(1.0244298 -0.0095767404 5.4384312e-22)
(1.0259901 -0.0093733418 -1.566882e-22)
(1.0268067 -0.0091142215 2.5563992e-21)
(1.0278631 -0.0088862591 -2.9374002e-21)
(1.0287013 -0.0085609353 3.1891794e-21)
(1.029592 -0.0081746931 -1.172728e-21)
(1.030369 -0.0076570912 -2.3283176e-21)
(1.0311384 -0.0070170865 1.1175904e-22)
(1.0318121 -0.0062359941 -8.1999985e-21)
(1.0324437 -0.0053058549 -7.3900841e-21)
(1.0329892 -0.0042821389 -3.3950904e-21)
(1.0334986 -0.0030995429 -9.232294e-21)
(1.0339222 -0.001951382 -6.1758529e-21)
(1.0343046 -0.00057078539 6.8665387e-21)
(1.0238949 -0.0099120414 3.4031404e-21)
(1.0256115 -0.0097536523 -3.4727133e-21)
(1.0265536 -0.0095489962 8.8975982e-22)
(1.0277083 -0.0093930438 1.1323846e-22)
(1.0286348 -0.0091452851 -8.4104339e-23)
(1.0296086 -0.0088512078 1.2758472e-21)
(1.0304633 -0.0084267128 -2.1918038e-21)
(1.0313087 -0.0078888419 2.9441253e-21)
(1.0320517 -0.007193667 -6.7231755e-22)
(1.0327402 -0.0063641609 6.7626789e-22)
(1.0333297 -0.0053774374 2.0448225e-22)
(1.0338436 -0.0043103559 1.770052e-22)
(1.0342954 -0.003091562 1.2632055e-20)
(1.0346675 -0.0019362659 -6.2895341e-21)
(1.0349979 -0.00055147264 5.1482636e-21)
(1.0231039 -0.01022035 -1.7227557e-21)
(1.0250538 -0.010100616 2.9983612e-21)
(1.0261584 -0.0099443023 -1.4321027e-21)
(1.0274324 -0.0098549556 2.6856275e-21)
(1.0284606 -0.0096805217 -3.0020645e-21)
(1.0295277 -0.009474958 6.962036e-21)
(1.0304704 -0.0091440495 -7.3815286e-21)
(1.0314039 -0.0087054289 2.8495049e-22)
(1.0322306 -0.0081108259 2.3272533e-21)
(1.0330006 -0.0073647818 -1.7281537e-21)
(1.0336535 -0.0064720234 2.2327517e-20)
(1.0342191 -0.0054284917 -7.4245347e-21)
(1.0346747 -0.0043163916 -4.1750374e-21)
(1.0350684 -0.0030651932 -1.6065218e-21)
(1.0353781 -0.0019083767 -1.5168665e-22)
(1.0356526 -0.00052789935 -5.5146826e-21)
(1.0219551 -0.010509054 0)
(1.0242592 -0.010421329 2.5098241e-21)
(1.0255899 -0.010305644 -1.5604366e-21)
(1.0270176 -0.010276538 0)
(1.0281661 -0.010170222 0)
(1.0293378 -0.01004935 0)
(1.0303781 -0.0098090583 2.0161879e-22)
(1.0314087 -0.0094717661 -5.0957295e-21)
(1.0323315 -0.0089760291 3.5853776e-21)
(1.0331974 -0.0083313187 -6.4446911e-21)
(1.0339406 -0.0075149108 5.2333334e-22)
(1.0345799 -0.0065578963 -4.6644487e-21)
(1.03509 -0.0054531281 5.1424766e-22)
(1.0354888 -0.0042978761 4.6123906e-21)
(1.0358099 -0.0030186833 1.0345528e-21)
(1.0360526 -0.0018669891 2.882876e-21)
(1.0362653 -0.00050004701 0)
(1.0203024 -0.010784136 -3.3889798e-22)
(1.0231331 -0.010725297 -4.6585243e-21)
(1.0247943 -0.0106394 5.3413734e-21)
(1.0264361 -0.010663093 2.167122e-21)
(1.0277353 -0.010618646 3.2657275e-21)
(1.0290273 -0.010577369 0)
(1.0301756 -0.010424587 4.070969e-21)
(1.0313111 -0.01018669 -9.6767892e-22)
(1.0323387 -0.0097936955 -1.1129461e-20)
(1.0333128 -0.0092502355 4.324191e-21)
(1.0341619 -0.0085311587 3.7408824e-21)
(1.0349035 -0.0076430586 5.0951402e-22)
(1.0354941 -0.0066140512 -1.0268921e-20)
(1.0359526 -0.0054481542 1.517914e-20)
(1.036276 -0.0042520942 3.1557875e-21)
(1.0365188 -0.0029508032 2.0552697e-20)
(1.0366871 -0.0018115987 7.4825166e-21)
(1.0368339 -0.00046795908 6.2681498e-21)
(1.0179616 -0.011050756 1.5804429e-22)
(1.0215333 -0.011022457 -1.9855063e-21)
(1.0236819 -0.010953774 -1.3495897e-21)
(1.0256392 -0.011020951 3.3651905e-21)
(1.0271432 -0.011030762 -3.746024e-22)
(1.028582 -0.011062793 2.9896573e-21)
(1.029852 -0.010993026 -8.4523732e-22)
(1.0311006 -0.010852279 -8.5658636e-21)
(1.0322405 -0.010561476 -3.3274547e-21)
(1.0333305 -0.010125319 5.5653847e-21)
(1.0342987 -0.0095052113 -9.2406496e-22)
(1.0351594 -0.0087105032 9.3575586e-21)
(1.0358619 -0.0077393788 -4.959056e-21)
(1.0364098 -0.0066366418 -3.7811116e-22)
(1.0367937 -0.0054100031 -9.7845791e-22)
(1.0370366 -0.0041770535 -3.3760997e-21)
(1.0371906 -0.0028607234 6.6193891e-21)
(1.0372793 -0.0017419132 -1.6304851e-22)
(1.037356 -0.00043176313 5.3842287e-21)
(1.0147298 -0.011310517 1.42986e-21)
(1.0192717 -0.011323084 2.371715e-21)
(1.0221157 -0.011257128 -1.1932564e-20)
(1.024544 -0.011358472 -1.1106812e-21)
(1.0263456 -0.011412606 1.9708042e-21)
(1.0279795 -0.01151013 1.2223783e-21)
(1.0293947 -0.011517695 7.0558575e-22)
(1.0307676 -0.011470112 5.1201083e-21)
(1.0320267 -0.011280587 -1.346728e-21)
(1.0332387 -0.010952836 -1.1505033e-20)
(1.0343338 -0.010440183 1.0857675e-20)
(1.0353272 -0.0097425659 -1.107312e-21)
(1.0361607 -0.0088571142 -3.8170153e-21)
(1.0368318 -0.0077996777 3.054241e-22)
(1.0373107 -0.0066209561 -1.6923156e-22)
(1.0376158 -0.0053357127 -1.182764e-20)
(1.0377645 -0.0040713321 2.5961453e-21)
(1.0378227 -0.0027479397 -1.0602934e-20)
(1.0378267 -0.001657932 -2.535519e-21)
(1.0378302 -0.00039164583 -5.1815941e-21)
(1.010417 -0.011560435 -1.2990041e-22)
(1.0161295 -0.01163441 3.0720631e-21)
(1.0199093 -0.011558118 -4.1634372e-22)
(1.023019 -0.011685188 3.1489722e-21)
(1.0252651 -0.01177208 7.0178135e-22)
(1.0271805 -0.011925049 -2.4462537e-21)
(1.0287838 -0.012002634 5.8017731e-21)
(1.0303005 -0.012042838 1.0952146e-20)
(1.0316883 -0.011951719 -6.0134286e-21)
(1.0330275 -0.011732948 0)
(1.0342552 -0.011330872 -6.9934032e-21)
(1.0353891 -0.010741599 2.9626961e-21)
(1.0363686 -0.0099476069 9.8063061e-21)
(1.0371841 -0.0089667452 -7.0115025e-21)
(1.0377955 -0.0078177241 4.3802484e-21)
(1.0382019 -0.0065628941 -9.7277104e-21)
(1.0384105 -0.0052232746 -8.6981613e-22)
(1.0384573 -0.0039338967 3.6329066e-21)
(1.0384121 -0.0026124009 -5.8705154e-21)
(1.0383273 -0.0015598934 -5.9176379e-22)
(1.0382552 -0.00034785114 -4.3418542e-21)
(1.0048818 -0.011792513 -4.1673943e-21)
(1.0118879 -0.011958254 2.2896815e-21)
(1.0168397 -0.011862706 5.7468578e-21)
(1.0208787 -0.01201106 -6.6590682e-21)
(1.023776 -0.012118231 -4.3050067e-21)
(1.0261137 -0.012315184 1.266375e-21)
(1.0279838 -0.012453078 0)
(1.0296821 -0.012573877 4.1668609e-21)
(1.0312151 -0.01257678 -9.3733866e-22)
(1.0326886 -0.012465253 -1.2181815e-20)
(1.0340531 -0.012176292 -2.0276183e-21)
(1.0353324 -0.011700788 2.2165815e-21)
(1.0364663 -0.01101246 -4.7688158e-22)
(1.0374427 -0.010116255 -3.5328312e-21)
(1.0382109 -0.0090313667 5.3507674e-21)
(1.0387592 -0.0077885655 -4.9993669e-21)
(1.0390723 -0.0064598214 1.2315367e-21)
(1.0391763 -0.0050708259 -7.2640987e-21)
(1.039111 -0.0037644162 -1.6002326e-21)
(1.0389564 -0.0024543856 -3.1427301e-22)
(1.0387795 -0.001448272 -2.6480749e-21)
(1.0386303 -0.00030067152 0)
(0.99806093 -0.011994583 -2.2397271e-21)
(1.006368 -0.012289113 -9.9150579e-22)
(1.0126772 -0.012172137 1.2304279e-22)
(1.0178935 -0.012344212 -6.2535661e-21)
(1.0216961 -0.012460992 -2.7411482e-21)
(1.0246601 -0.012689839 2.5205816e-21)
(1.0269294 -0.01287622 -3.0978996e-21)
(1.0288809 -0.013067961 7.6741436e-21)
(1.0305919 -0.013158502 3.1581475e-21)
(1.0322128 -0.013150713 5.6571188e-22)
(1.0337195 -0.012974824 -1.1570249e-22)
(1.0351471 -0.012617836 -4.4268984e-21)
(1.0364403 -0.012043211 9.4707007e-22)
(1.037587 -0.011249052 -1.8369354e-21)
(1.0385307 -0.010238584 -8.3632122e-21)
(1.0392486 -0.0090453022 -8.6015151e-21)
(1.0397108 -0.0077083401 7.7543874e-22)
(1.039922 -0.0063085842 1.2867963e-20)
(1.0399076 -0.0048776739 4.3116436e-22)
(1.0397228 -0.0035629421 -3.6010304e-21)
(1.0394536 -0.0022745702 0)
(1.0391824 -0.001323744 5.1853371e-21)
(1.0389551 -0.00025044326 1.4943514e-22)
(0.98998408 -0.012152126 1.2292046e-20)
(0.99946542 -0.012613941 -2.0776628e-21)
(1.0072241 -0.012481187 6.2655096e-21)
(1.013816 -0.012688061 3.0689245e-21)
(1.0187922 -0.012808661 -7.4850002e-21)
(1.0226415 -0.013059372 0)
(1.025508 -0.013281148 -6.228566e-22)
(1.0278376 -0.013531816 4.0795053e-21)
(1.0297908 -0.013700991 4.9937213e-21)
(1.0315871 -0.013791208 4.2428018e-21)
(1.0332463 -0.013726354 -6.0817026e-21)
(1.0348256 -0.013489719 -5.0790225e-21)
(1.0362805 -0.013036174 6.6594391e-21)
(1.0376023 -0.012354968 -7.3752627e-21)
(1.0387325 -0.011439541 1.1751298e-20)
(1.0396411 -0.010308291 1.6464095e-20)
(1.0402842 -0.0090031706 -3.5059969e-21)
(1.0406508 -0.007572904 5.0591481e-21)
(1.040743 -0.006108188 -1.4193502e-20)
(1.0406014 -0.0046433785 3.0874966e-21)
(1.0402896 -0.0033301333 6.9706379e-21)
(1.039902 -0.0020739437 -5.029194e-21)
(1.0395351 -0.0011871701 2.4618287e-21)
(1.03923 -0.00019754613 1.1966158e-22)
(0.98077134 -0.012250448 2.7517023e-21)
(0.99117326 -0.012913534 -6.9448798e-22)
(1.0003539 -0.012777945 -4.8009927e-22)
(1.0084219 -0.013039115 -1.4151122e-20)
(1.0148055 -0.013165368 4.9140487e-21)
(1.0198221 -0.013433312 -9.0309432e-21)
(1.0235461 -0.013678458 -5.1388003e-22)
(1.0264469 -0.013974404 -9.2047064e-21)
(1.0287582 -0.014210392 3.0609372e-21)
(1.030787 -0.014390099 3.2930147e-21)
(1.0326221 -0.014431772 -4.5475891e-21)
(1.0343605 -0.014315051 7.3036161e-21)
(1.035979 -0.013986783 -4.4946744e-21)
(1.0374778 -0.013428827 -4.0823548e-22)
(1.0388001 -0.012622415 6.6091441e-21)
(1.0399123 -0.011577109 1.5957871e-21)
(1.0407607 -0.010318315 -7.6383719e-22)
(1.0413187 -0.0088997837 8.0816957e-21)
(1.0415701 -0.0073802424 0)
(1.041533 -0.0058570572 1.4256349e-21)
(1.0412534 -0.0043685173 3.8815297e-22)
(1.0408092 -0.0030670815 -6.6085142e-22)
(1.0403004 -0.0018538002 -3.0160601e-22)
(1.0398377 -0.0010395696 -3.4350267e-21)
(1.0394553 -0.00014245136 -9.7649098e-22)
(0.9706131 -0.012277083 -1.0652399e-20)
(0.98158615 -0.013164835 -2.0588402e-22)
(0.99203654 -0.013045316 1.8984735e-21)
(1.0015526 -0.013386083 1.5496858e-21)
(1.0094911 -0.013528544 1.4272196e-20)
(1.0159308 -0.01381722 5.6373037e-22)
(1.0208076 -0.014078234 -4.6939259e-22)
(1.0245411 -0.014406533 6.3870733e-22)
(1.0273957 -0.014695297 7.2275205e-21)
(1.0297645 -0.014952852 -2.2148517e-21)
(1.0318256 -0.015093546 4.8144813e-21)
(1.0337421 -0.015093545 -7.200401e-22)
(1.0355293 -0.014892245 -3.6265444e-21)
(1.0372055 -0.014464378 1.6919491e-21)
(1.0387217 -0.013780515 -1.3735212e-21)
(1.0400444 -0.012838343 -9.1719449e-21)
(1.0411135 -0.011652934 -1.0615721e-20)
(1.0418908 -0.010262384 -1.1551865e-20)
(1.042342 -0.0087317852 -1.6294655e-20)
(1.0424658 -0.007127861 -1.9622516e-22)
(1.0422856 -0.0055556673 1.4672041e-20)
(1.0418608 -0.0040539988 2.0733094e-21)
(1.0412796 -0.0027754189 -4.5527501e-21)
(1.0406483 -0.0016157166 3.3375299e-21)
(1.0400903 -0.00088214366 -1.8142655e-21)
(1.0396326 -8.5973231e-05 1.072376e-22)
(0.95974074 -0.012223981 4.6042408e-22)
(0.97088691 -0.01334462 -6.5725163e-22)
(0.98234601 -0.013264112 -7.4308806e-21)
(0.99314812 -0.013710962 7.9567883e-21)
(1.002663 -0.013887868 -1.1731312e-20)
(1.0107 -0.014210109 7.8191092e-21)
(1.0170119 -0.01448717 4.5709365e-21)
(1.0218848 -0.014839072 7.442702e-21)
(1.0255422 -0.015166536 -1.032204e-20)
(1.0284289 -0.015487612 -4.4874809e-21)
(1.0308142 -0.015716318 7.5610827e-22)
(1.0329522 -0.015826607 -1.2184218e-20)
(1.0349227 -0.015750923 1.1646018e-20)
(1.0367791 -0.01545724 -3.4792336e-21)
(1.038489 -0.014905826 2.2062801e-21)
(1.0400243 -0.014083782 8.345264e-22)
(1.0413229 -0.01299219 -6.1829052e-21)
(1.042338 -0.011659651 6.6611659e-21)
(1.0430211 -0.010135563 -6.6797843e-21)
(1.0433512 -0.0084955694 3.1032213e-22)
(1.0433307 -0.0068154389 0)
(1.0429978 -0.005204192 5.4212312e-21)
(1.0424203 -0.0037015622 1.1228715e-21)
(1.0416993 -0.0024571255 0)
(1.0409454 -0.0013616063 -3.7019575e-21)
(1.0402936 -0.0007163098 -4.2952638e-22)
(1.0397631 -2.7860267e-05 -6.5669153e-23)
(0.94839646 -0.012088783 3.4952974e-21)
(0.95931524 -0.013433653 -9.7593523e-23)
(0.9714498 -0.013415466 -6.1559499e-21)
(0.9832597 -0.013991627 6.9151245e-22)
(0.99423189 -0.014226033 -2.2839463e-21)
(1.0039137 -0.014602682 -8.5765421e-21)
(1.011872 -0.014905443 -4.5978831e-22)
(1.0181887 -0.015279905 -6.6172579e-21)
(1.0229643 -0.015635554 6.4594327e-22)
(1.0266261 -0.01600512 7.8925974e-21)
(1.0295042 -0.016307591 -6.6039482e-21)
(1.0319529 -0.016517907 -1.669004e-21)
(1.0341438 -0.016562987 -4.7520972e-21)
(1.0361913 -0.016404243 2.3378163e-21)
(1.0380957 -0.01599225 -3.7371452e-21)
(1.0398428 -0.015303582 2.9816497e-21)
(1.041374 -0.014326429 -2.9619397e-21)
(1.0426381 -0.013075532 2.426604e-20)
(1.0435753 -0.011590579 8.065916e-21)
(1.0441482 -0.0099329662 4.3404079e-21)
(1.0443379 -0.0081896734 8.3222959e-21)
(1.0441607 -0.0064424521 -1.5335814e-21)
(1.0436647 -0.0048044412 -5.3377295e-22)
(1.0429297 -0.0033132452 0)
(1.0420674 -0.0021144574 0)
(1.0411918 -0.0010932987 3.2364176e-22)
(1.0404488 -0.00054299961 -3.9474295e-22)
(1.0398483 3.159891e-05 9.2142363e-22)
(0.93681349 -0.011873267 0)
(0.9471285 -0.013421761 -5.7823169e-22)
(0.95958797 -0.0134819 5.4059683e-21)
(0.97204229 -0.01420537 2.894274e-21)
(0.98422253 -0.01452092 8.5080912e-21)
(0.99544965 -0.01497744 7.8242278e-22)
(1.0051443 -0.015324771 -5.5270518e-21)
(1.0131462 -0.015730662 -1.046703e-20)
(1.0193663 -0.016111324 1.1861674e-20)
(1.024126 -0.016517323 -2.9309449e-21)
(1.0277494 -0.016877839 6.2829579e-22)
(1.0306682 -0.017174164 2.84839e-21)
(1.0331595 -0.01733096 -1.4209453e-20)
(1.0354289 -0.017304124 4.1568515e-21)
(1.0375353 -0.01703492 3.0280345e-21)
(1.0394936 -0.016489811 -3.3991182e-21)
(1.0412568 -0.015643987 3.0900278e-21)
(1.0427745 -0.014499049 -4.9826419e-21)
(1.0439799 -0.013079861 1.5487191e-20)
(1.0448221 -0.01143941 -2.4002585e-21)
(1.0452631 -0.009651677 6.9148344e-21)
(1.0452972 -0.0078125964 4.4522827e-21)
(1.0449496 -0.0060102037 -4.9043825e-22)
(1.0442831 -0.0043581939 -1.1875889e-20)
(1.0433868 -0.0028917431 -3.7215875e-21)
(1.0423832 -0.0017499554 9.5812443e-22)
(1.0413884 -0.00081266206 1.3381665e-21)
(1.0405574 -0.00036349972 4.2358505e-22)
(1.0398905 9.1826458e-05 -2.8453572e-21)
(0.92518968 -0.011577631 -1.045981e-20)
(0.93458441 -0.013299233 0)
(0.94704452 -0.013446155 0)
(0.95972905 -0.014331424 0)
(0.97277218 -0.01474931 -2.1445508e-21)
(0.98530582 -0.015311558 7.5684847e-21)
(0.99667479 -0.015728325 -5.5181508e-22)
(1.0064844 -0.016184131 -6.821249e-22)
(1.0144245 -0.016596789 1.5914132e-20)
(1.0206278 -0.017034272 -1.6139012e-20)
(1.025324 -0.017439324 8.1442755e-21)
(1.02896 -0.017805418 -2.9692149e-21)
(1.0319008 -0.018060572 3.9774872e-21)
(1.0344632 -0.018158067 -5.5870073e-21)
(1.0367966 -0.018030951 8.4825127e-21)
(1.0389704 -0.017635738 3.8734198e-21)
(1.040964 -0.016935038 -3.3292856e-21)
(1.0427355 -0.015916778 -8.319589e-21)
(1.0442162 -0.014591317 5.3432308e-22)
(1.0453454 -0.012997357 -5.2952152e-21)
(1.0460689 -0.011201511 -8.0070861e-21)
(1.04636 -0.0092889423 1.5317788e-21)
(1.0462216 -0.0073647807 9.8132657e-21)
(1.0456932 -0.005520107 -5.3160002e-21)
(1.0448496 -0.0038683941 -9.4855882e-22)
(1.0437904 -0.0024399349 -1.4075575e-21)
(1.0426469 -0.0013663237 1.8635404e-21)
(1.0415361 -0.00052173667 1.6950929e-21)
(1.0406211 -0.00017911079 -3.2167811e-21)
(1.0398915 0.00015263214 -2.4332177e-21)
(0.91274733 -0.011174318 -6.6966211e-22)
(0.92194012 -0.013057936 -7.9961494e-22)
(0.93409062 -0.01331869 0)
(0.94659677 -0.014352004 0)
(0.96010857 -0.014889232 0)
(0.97360075 -0.015579928 0)
(0.98643046 -0.016092756 0)
(0.99801562 -0.016623883 1.4040965e-22)
(1.0078385 -0.017085988 -6.9482135e-21)
(1.0157912 -0.017560249 1.7651803e-20)
(1.021924 -0.018003042 -5.2203207e-22)
(1.026608 -0.018424095 9.0480774e-21)
(1.030238 -0.018761232 -1.5402625e-20)
(1.0332322 -0.018970625 6.0870116e-21)
(1.0358549 -0.018979989 -5.7474123e-22)
(1.038264 -0.01873667 5.8956838e-21)
(1.0404898 -0.018190866 -9.4988671e-21)
(1.042513 -0.017316972 1.3920311e-21)
(1.0442706 -0.016109899 9.7286732e-21)
(1.0456968 -0.014593868 4.7601331e-21)
(1.0467248 -0.012821479 1.0405166e-21)
(1.0473092 -0.010872612 6.9993736e-21)
(1.0474304 -0.0088439785 2.7977e-22)
(1.0471055 -0.0068469541 -3.7347802e-21)
(1.0463865 -0.0049749553 3.1433095e-21)
(1.0453618 -0.0033381131 8.5297136e-21)
(1.0441393 -0.001961145 2.0415411e-21)
(1.0428587 -0.00096637462 -7.6049122e-22)
(1.0416365 -0.00022257707 1.8081979e-22)
(1.0406421 8.9997668e-06 3.5443732e-21)
(1.0398538 0.00021348846 1.765081e-21)
(0.89926371 -0.010605356 1.1984285e-20)
(0.90837836 -0.012687344 -3.0571437e-22)
(0.92094132 -0.013087855 3.3245014e-21)
(0.9329335 -0.01426393 3.7940415e-21)
(0.94651589 -0.014919572 0)
(0.96055306 -0.015757852 0)
(0.97450612 -0.016391731 -1.4165553e-22)
(0.98767473 -0.017025963 8.6995217e-21)
(0.99938647 -0.01756298 -1.4268289e-20)
(1.0092878 -0.018090462 1.7255055e-20)
(1.0171944 -0.018574644 1.2346056e-21)
(1.0233066 -0.019042053 -1.1049778e-20)
(1.0279576 -0.019445315 1.1627468e-21)
(1.0316151 -0.019750362 -1.0561662e-21)
(1.034655 -0.019885182 -6.9282575e-21)
(1.0373532 -0.019790504 8.7993467e-22)
(1.0398262 -0.019404805 8.6696947e-21)
(1.0421011 -0.018688847 -6.6485869e-22)
(1.0441337 -0.017621995 -3.0715033e-21)
(1.0458606 -0.01621248 2.4871117e-20)
(1.0472068 -0.014498137 1.9066027e-21)
(1.0481114 -0.012546216 -6.7243814e-21)
(1.0485338 -0.010450353 1.3139562e-20)
(1.0484675 -0.0083164851 7.6301308e-21)
(1.0479427 -0.0062614184 1.0515712e-22)
(1.0470258 -0.0043778345 5.0707608e-21)
(1.0458174 -0.0027711688 2.4648171e-21)
(1.0444334 -0.0014588122 -1.1505825e-22)
(1.0430197 -0.0005528648 -1.6085674e-22)
(1.0416913 8.2817572e-05 -7.2894957e-22)
(1.0406225 0.00019951136 2.8005688e-21)
(1.0397799 0.00027410903 2.1937981e-22)
(0.88570408 -0.0098789728 -4.0680748e-21)
(0.89365034 -0.012142092 1.219862e-21)
(0.90688571 -0.012723 -4.6934781e-21)
(0.91902395 -0.014053335 -3.6384717e-21)
(0.93229377 -0.014844963 0)
(0.94644756 -0.015822422 0)
(0.96110906 -0.016598365 0)
(0.97553191 -0.017362578 -1.2506266e-21)
(0.98896891 -0.0180035 1.2467844e-20)
(1.000861 -0.018609604 1.3332935e-20)
(1.0107804 -0.019150619 1.2492382e-21)
(1.0186869 -0.019666248 -2.1301959e-21)
(1.0247535 -0.020125369 2.245229e-20)
(1.0294057 -0.020509392 -1.4757535e-20)
(1.0330847 -0.020754015 3.2323042e-21)
(1.0361891 -0.020798762 0)
(1.0389551 -0.020572799 2.9548399e-21)
(1.0414923 -0.020023616 -1.3296254e-21)
(1.0437988 -0.019114725 7.6965693e-21)
(1.0458256 -0.017837835 2.8787186e-22)
(1.0474966 -0.016213902 -1.1601738e-20)
(1.0487394 -0.014296206 -1.4872238e-21)
(1.0494951 -0.012167323 -1.0240521e-20)
(1.0497345 -0.0099330467 -1.1570383e-20)
(1.0494634 -0.007707887 2.7952913e-21)
(1.0487277 -0.0056109682 1.5497613e-21)
(1.0476075 -0.0037327863 -9.6422483e-22)
(1.0462151 -0.0021715301 -1.179808e-23)
(1.0446726 -0.00093657247 7.4051377e-23)
(1.0431312 -0.00012868502 -7.7674927e-22)
(1.0417026 0.00039244463 8.626956e-22)
(1.0405647 0.00039127351 -9.3855552e-21)
(1.0396725 0.00033427252 4.0012793e-21)
(0.87246812 -0.0089937895 -3.6839225e-21)
(0.87871191 -0.011408737 1.7354484e-22)
(0.8916052 -0.012177408 -8.6962906e-21)
(0.9041113 -0.013681918 -5.2691732e-21)
(0.91771909 -0.014653853 2.3663783e-21)
(0.93159685 -0.015775214 1.5644382e-22)
(0.94652561 -0.016685997 1.261629e-20)
(0.96178012 -0.017604813 -7.0692358e-21)
(0.97662784 -0.018378492 -6.8859981e-22)
(0.99037506 -0.019093058 -2.7899687e-20)
(1.0023898 -0.019716305 1.2417745e-20)
(1.0123679 -0.020294429 1.7030523e-20)
(1.0202453 -0.020809608 -9.3506157e-22)
(1.0262992 -0.021260788 -7.91855e-21)
(1.0309464 -0.021598093 -8.9124082e-21)
(1.0346685 -0.021767588 -3.0642021e-21)
(1.0378335 -0.021694507 1.3409467e-21)
(1.0406714 -0.021315082 1.070123e-20)
(1.043259 -0.020577081 -9.5530861e-22)
(1.0455842 -0.019454985 -1.8403633e-21)
(1.0475811 -0.017951875 1.41004e-22)
(1.0491723 -0.01610425 -1.7452036e-20)
(1.0502843 -0.013981694 1.1344194e-21)
(1.0508669 -0.011681381 1.6747903e-21)
(1.050902 -0.0093208333 -1.4820016e-20)
(1.0504111 -0.0070203268 -4.5637694e-21)
(1.0494555 -0.0048995772 -3.5876815e-21)
(1.0481288 -0.0030441673 -2.3268458e-21)
(1.0465539 -0.001543568 -1.3153893e-21)
(1.0448577 -0.00039808403 -3.2596168e-22)
(1.0431947 0.00030334284 5.7495939e-22)
(1.0416725 0.00070458911 -1.5711446e-22)
(1.0404712 0.00058338973 4.260974e-21)
(1.0395339 0.00039421785 -8.2372477e-21)
(0.85998728 -0.0079490558 3.9706723e-21)
(0.86399955 -0.010471866 -2.5513296e-22)
(0.87597733 -0.011442706 1.0055594e-20)
(0.88786056 -0.013132345 2.767476e-21)
(0.9021167 -0.014293823 -8.0551035e-21)
(0.91631967 -0.015603284 -1.0919317e-20)
(0.93107935 -0.016660358 -1.5952203e-21)
(0.94670381 -0.017722646 0)
(0.96253941 -0.018656614 -7.9502724e-21)
(0.97784188 -0.019510422 -3.0989828e-20)
(0.99184947 -0.0202468 2.9098154e-22)
(1.0040217 -0.020912648 -6.2887713e-21)
(1.0140267 -0.02149711 0)
(1.0219048 -0.022013941 -1.1996916e-21)
(1.0279377 -0.022430798 1.6387498e-20)
(1.0326027 -0.022707825 4.3303612e-21)
(1.036367 -0.022774468 -1.1716075e-20)
(1.0396009 -0.02256081 0)
(1.0425011 -0.022000567 -1.7643223e-21)
(1.0451291 -0.021050656 -1.5926782e-21)
(1.0474508 -0.019695158 -1.6181593e-20)
(1.0493944 -0.017952191 -6.4756243e-22)
(1.0508774 -0.015874833 0)
(1.0518318 -0.013549146 -1.3755946e-20)
(1.0522163 -0.011086841 3.5203607e-21)
(1.0520278 -0.008614796 -1.6733817e-22)
(1.0513038 -0.006257348 -6.0091875e-21)
(1.0501217 -0.0041317435 3.8085982e-21)
(1.0485876 -0.0023169157 3.1321615e-22)
(1.0468336 -0.00089173554 -1.050233e-21)
(1.0449898 0.00015296023 -1.0365899e-21)
(1.0432124 0.00074049053 -9.2206704e-22)
(1.0416035 0.0010174129 0)
(1.0403448 0.00077479735 -1.6782593e-22)
(1.0393668 0.000452943 -2.6991756e-21)
(0.84870634 -0.0067508867 2.8407203e-21)
(0.85001106 -0.0093250712 7.8090974e-22)
(0.86048876 -0.010503752 9.1130249e-21)
(0.8711621 -0.012373032 9.9621822e-22)
(0.885126 -0.01373536 -2.136773e-21)
(0.89991454 -0.015233273 -9.5105625e-22)
(0.91509918 -0.016504649 -1.0032152e-20)
(0.93063754 -0.017723953 1.3701724e-22)
(0.94698403 -0.018804479 0)
(0.96341801 -0.019828198 9.7475675e-21)
(0.97913842 -0.020710464 -1.0498874e-20)
(0.99343579 -0.021495734 1.7694992e-21)
(1.0057337 -0.022174659 -6.772258e-21)
(1.0157919 -0.022769241 9.6888371e-21)
(1.0236593 -0.023262576 3.7833606e-21)
(1.0296934 -0.023632927 1.4542231e-20)
(1.0343765 -0.023822474 -2.2615156e-20)
(1.038195 -0.023763456 -4.5519178e-21)
(1.0414924 -0.023380433 1.3402483e-20)
(1.0444488 -0.022613929 -1.4211716e-20)
(1.047098 -0.021428229 1.4623082e-20)
(1.0493943 -0.019821379 -6.1078016e-21)
(1.0512558 -0.017827702 0)
(1.0526019 -0.015517916 -3.6321027e-21)
(1.0533703 -0.012994945 8.115281e-22)
(1.0535332 -0.0103833 6.3505752e-21)
(1.0531033 -0.007817629 3.034329e-21)
(1.0521355 -0.0054232649 1.5955347e-21)
(1.0507227 -0.0033127676 2.2750296e-21)
(1.0489825 -0.0015561872 0)
(1.0470545 -0.00022062296 1.2874122e-21)
(1.0450703 0.00071295821 -1.1991455e-21)
(1.0431864 0.0011801488 8.73156e-21)
(1.0414983 0.0013292808 -3.5684631e-21)
(1.040188 0.00096448443 2.2464577e-22)
(1.0391739 0.00051041039 9.7742976e-21)
(0.83905769 -0.0054133064 -2.7055873e-21)
(0.83727406 -0.0079715104 -8.7601158e-23)
(0.84568687 -0.0093552402 -2.8012663e-21)
(0.85451737 -0.011386944 -1.8606743e-23)
(0.86751527 -0.012966972 9.6291005e-21)
(0.88198661 -0.014670999 8.4136273e-21)
(0.89792936 -0.016136869 -2.4185492e-23)
(0.91393856 -0.01758353 -7.9312663e-21)
(0.93030384 -0.018832408 1.5713439e-22)
(0.94737758 -0.020009264 -8.204087e-21)
(0.96439086 -0.021071483 -1.796165e-22)
(0.98055389 -0.022010732 5.5378987e-21)
(0.99511314 -0.022816828 -3.4591545e-23)
(1.0075599 -0.023514246 9.1933535e-21)
(1.0176573 -0.024095125 -3.565767e-20)
(1.0255342 -0.024554251 3.1629335e-21)
(1.0315691 -0.024851792 6.4361787e-21)
(1.0362845 -0.024931461 1.0720851e-20)
(1.0401556 -0.024717178 -9.7740746e-21)
(1.043515 -0.02413755 -3.0724829e-21)
(1.0465122 -0.023137681 8.9119586e-21)
(1.049163 -0.021694142 -1.3777257e-20)
(1.0514057 -0.019820188 9.8608941e-21)
(1.0531555 -0.017568227 0)
(1.0543336 -0.01502749 1.2466706e-20)
(1.0548885 -0.012316773 1.4034951e-20)
(1.0548072 -0.0095721424 -4.4113086e-21)
(1.0541204 -0.0069330637 9.8707225e-21)
(1.0529005 -0.004523443 3.9658504e-22)
(1.0512554 -0.0024483571 -2.3901879e-21)
(1.0493126 -0.00076741091 -4.9716918e-22)
(1.0472175 0.00046522382 -4.1057664e-21)
(1.0451013 0.0012784087 -2.8369632e-22)
(1.0431192 0.0016198505 9.4203139e-21)
(1.0413595 0.0016386088 -1.0579669e-21)
(1.0400034 0.0011516031 -3.6404756e-22)
(1.0389578 0.00056639363 3.6829408e-21)
(0.83143278 -0.0039578306 3.2070855e-22)
(0.8263119 -0.0064266416 -7.9781726e-22)
(0.83215175 -0.0079994193 -3.628959e-21)
(0.83852025 -0.010167209 -6.5487925e-22)
(0.84983881 -0.011955165 6.8330903e-23)
(0.86332412 -0.013874758 1.123717e-23)
(0.87915611 -0.015557026 -5.200011e-21)
(0.89595108 -0.017209904 2.7081053e-21)
(0.91287173 -0.018708951 0)
(0.93007021 -0.020066668 1.6714321e-21)
(0.94787205 -0.02128877 0)
(0.96548536 -0.022419431 0)
(0.98207113 -0.02338931 6.0365888e-21)
(0.99691335 -0.024223239 -7.7824675e-22)
(1.0094946 -0.024916813 -5.6474727e-21)
(1.019649 -0.025474765 -9.5204075e-21)
(1.027533 -0.0258745 2.078159e-20)
(1.0335832 -0.026077622 9.3388753e-22)
(1.0383317 -0.026017575 7.3257525e-21)
(1.0422581 -0.025619597 3.4636536e-21)
(1.0456684 -0.024813607 -1.3896812e-20)
(1.0486903 -0.023554588 2.7224605e-21)
(1.0513165 -0.021832659 3.1320514e-21)
(1.053476 -0.019678886 2.5394161e-21)
(1.055081 -0.017165117 8.2347858e-22)
(1.0560601 -0.014398934 2.5141292e-21)
(1.0563743 -0.011514238 -2.7885559e-21)
(1.0560283 -0.0086560595 -6.2096143e-21)
(1.0550716 -0.005966153 -6.5437969e-22)
(1.0535943 -0.0035638992 -7.8130848e-21)
(1.0517178 -0.0015446781 -3.7602074e-21)
(1.049578 4.3930763e-05 -1.7905515e-21)
(1.0473239 0.0011613234 -2.3046977e-21)
(1.0450849 0.0018459905 6.6478637e-21)
(1.0430134 0.002057308 -1.8625577e-20)
(1.0411898 0.0019440174 -3.1566806e-21)
(1.0397938 0.0013353947 -3.4476142e-21)
(1.038721 0.00062080332 0)
(0.82615491 -0.0024124706 2.3812032e-21)
(0.8176054 -0.0047179237 -8.1740695e-23)
(0.82046225 -0.0064511433 -9.5584522e-22)
(0.82381621 -0.008713432 -5.2590696e-22)
(0.83275243 -0.010693217 -4.6888577e-21)
(0.84449443 -0.012814827 -3.5775757e-21)