/*--------------------------------*- C++ -*----------------------------------*\
| =========                 |                                                 |
| \\      /  F ield         | OpenFOAM: The Open Source CFD Toolbox           |
|  \\    /   O peration     | Version:  5.0                                   |
|   \\  /    A nd           | Web:      www.OpenFOAM.org                      |
|    \\/     M anipulation  |                                                 |
\*---------------------------------------------------------------------------*/
FoamFile
{
    version     2.0;
    format      ascii;
    class       volSymmTensorField;
    location    "165";
    object      UPrime2Mean;
}
// * * * * * * * * * * * * * * * * * * * * * * * * * * * * * * * * * * * * * //

dimensions      [0 2 -2 0 0 0 0];

internalField   nonuniform List<symmTensor> 
9200
(
(4.7829608e-05 -6.5061711e-07 1.0126063e-26 1.8495428e-08 -1.3332169e-28 2.7581853e-47)
(4.8094921e-05 -2.0738343e-06 -1.3651806e-23 1.7316589e-07 9.3272501e-25 5.4930232e-42)
(5.1835501e-05 -6.8187182e-07 0 1.8289286e-08 0 0)
(5.1047177e-05 -3.3798084e-06 7.2709149e-24 4.3859667e-07 -7.6697221e-25 1.4604671e-42)
(5.2140264e-05 -2.2170842e-06 -1.1377995e-23 1.7506654e-07 7.0931945e-25 3.2923524e-42)
(5.365676e-05 -6.8732638e-07 0 1.7914831e-08 0 0)
(5.5890523e-05 -4.8234902e-06 7.5744935e-25 8.1459472e-07 -1.0425484e-25 1.456361e-44)
(5.5223696e-05 -3.5866464e-06 -4.0938868e-25 4.4030043e-07 3.8436071e-26 8.705723e-45)
(5.3982517e-05 -2.2739333e-06 0 1.7483914e-07 0 0)
(5.6453994e-05 -6.9416985e-07 0 1.7462984e-08 0 0)
(6.2443227e-05 -6.2772918e-06 -1.5553474e-23 1.2556798e-06 2.5298038e-24 5.4788505e-42)
(6.0246375e-05 -5.1236735e-06 -9.802473e-24 8.2106377e-07 1.2430775e-24 2.0691991e-42)
(5.7136417e-05 -3.669217e-06 -6.7322808e-24 4.3879436e-07 6.3259505e-25 1.0261767e-42)
(5.6812446e-05 -2.3525968e-06 -4.1366701e-25 1.7470404e-07 2.423432e-26 3.8310468e-45)
(5.8760704e-05 -6.9164888e-07 -2.9636715e-27 1.6926331e-08 3.7178792e-29 6.1364801e-49)
(7.0505111e-05 -7.8329493e-06 -1.5280297e-23 1.7594384e-06 2.7833757e-24 4.7246942e-42)
(6.6966396e-05 -6.6489108e-06 1.0115818e-24 1.2664481e-06 -1.4445645e-25 2.9192895e-44)
(6.2236215e-05 -5.2512748e-06 -2.2880459e-23 8.2100854e-07 2.829913e-24 1.0854283e-41)
(6.008124e-05 -3.7811039e-06 -8.9148167e-24 4.3702927e-07 7.9736329e-25 1.6367301e-42)
(5.9155398e-05 -2.4040571e-06 -1.3119827e-25 1.7355957e-07 5.4491006e-27 4.0087463e-45)
(6.1208426e-05 -6.8106051e-07 1.7315234e-23 1.6278626e-08 -2.8307729e-25 6.1424503e-42)
(8.0115895e-05 -9.4334286e-06 -1.5513817e-23 2.2966406e-06 3.0886654e-24 4.4148814e-42)
(7.5189805e-05 -8.2843368e-06 -1.7160612e-23 1.7788411e-06 2.8625669e-24 5.1961484e-42)
(6.9035719e-05 -6.813428e-06 1.4478375e-23 1.2680195e-06 -2.1188542e-24 3.9534264e-42)
(6.5319948e-05 -5.4288503e-06 9.2632114e-25 8.21984e-07 -1.0940154e-25 1.6391736e-44)
(6.2526441e-05 -3.8525561e-06 -8.7639629e-24 4.3323921e-07 7.5956102e-25 1.5358893e-42)
(6.1657181e-05 -2.4412255e-06 -8.6845788e-24 1.7150493e-07 4.6925293e-25 1.4803356e-42)
(6.3522887e-05 -6.6168452e-07 -1.5210592e-24 1.5558043e-08 2.1877895e-26 4.1958478e-44)
(9.1311491e-05 -1.1094051e-05 -7.4330989e-24 2.8574142e-06 1.6271866e-24 1.1179785e-42)
(8.4922377e-05 -9.954145e-06 -1.3152146e-23 2.3262762e-06 2.4032412e-24 2.715214e-42)
(7.7327811e-05 -8.4955103e-06 -1.7042851e-23 1.7853877e-06 2.8187805e-24 4.8913681e-42)
(7.2268107e-05 -7.0488823e-06 -7.6489249e-26 1.2731892e-06 1.0228521e-26 2.6189155e-44)
(6.7886875e-05 -5.5522984e-06 2.257115e-23 8.1926305e-07 -2.5828625e-24 9.2003333e-42)
(6.5158784e-05 -3.9002875e-06 9.8242389e-24 4.273045e-07 -8.0578322e-25 1.765534e-42)
(6.4029178e-05 -2.4558015e-06 1.0485128e-23 1.6846601e-07 -5.5566415e-25 2.1997449e-42)
(6.573903e-05 -6.3085941e-07 -1.6313814e-23 1.4738156e-08 2.3479778e-25 5.0726573e-42)
(0.00010420204 -1.2787898e-05 2.1255719e-23 3.424847e-06 -4.6815258e-24 6.7841388e-42)
(9.6192182e-05 -1.1681879e-05 -1.5721869e-23 2.9005184e-06 2.9742164e-24 3.4716599e-42)
(8.7111156e-05 -1.0212769e-05 2.4334979e-25 2.3400347e-06 -2.5887989e-26 2.5775851e-44)
(8.0703984e-05 -8.8062891e-06 -8.8220434e-24 1.80061e-06 1.4069978e-24 1.2322851e-42)
(7.4966834e-05 -7.2203857e-06 -3.7848927e-25 1.2732559e-06 3.5059884e-26 1.3316375e-43)
(7.068407e-05 -5.6498146e-06 3.5265089e-23 8.1325325e-07 -3.8892284e-24 2.1342079e-41)
(6.766023e-05 -3.9123424e-06 -4.1415321e-24 4.1917671e-07 3.887967e-25 7.7983873e-43)
(6.6328274e-05 -2.4412972e-06 1.7775747e-23 1.6403058e-07 -9.0466109e-25 6.0634645e-42)
(6.7867683e-05 -5.8947497e-07 3.4609956e-23 1.3869917e-08 -4.6080792e-25 2.2046434e-41)
(0.00011892862 -1.4506847e-05 -1.7014089e-23 3.9886108e-06 3.9053569e-24 4.1255229e-42)
(0.00010909002 -1.3433909e-05 7.9549336e-24 3.4834697e-06 -1.4614343e-24 9.1203547e-43)
(9.8402247e-05 -1.1993496e-05 5.2524932e-25 2.9248276e-06 -1.0793287e-25 6.1538468e-45)
(9.0614109e-05 -1.0604326e-05 -6.4041139e-25 2.3701241e-06 7.6054457e-26 2.9987497e-43)
(8.3530883e-05 -9.0454616e-06 3.3639004e-24 1.8094316e-06 -5.1971411e-25 1.6861566e-43)
(7.7950066e-05 -7.3674333e-06 -1.1082072e-24 1.2696148e-06 8.9673373e-26 3.7690508e-43)
(7.3351258e-05 -5.7001594e-06 -1.2724031e-23 8.0318628e-07 1.3453869e-24 2.6278658e-42)
(7.0120275e-05 -3.8779579e-06 -2.0808166e-23 4.0779289e-07 1.5781067e-24 7.4105291e-42)
(6.8543075e-05 -2.3973641e-06 -1.1536609e-23 1.5837873e-07 5.3725562e-25 2.2529538e-42)
(6.9812334e-05 -5.3521095e-07 -2.9865715e-24 1.2965787e-08 3.3539491e-26 1.4544741e-43)
(0.00013568334 -1.6236733e-05 8.259748e-24 4.539092e-06 -1.9289557e-24 8.6668345e-43)
(0.00012374863 -1.5201298e-05 -8.6444221e-25 4.0645445e-06 3.2843162e-25 1.6239709e-43)
(0.00011128224 -1.3801656e-05 -1.3609395e-23 3.5211919e-06 2.6538959e-24 2.2716264e-42)
(0.00010200092 -1.2478157e-05 1.4050307e-23 2.9762917e-06 -2.6161633e-24 2.5217724e-42)
(9.3554948e-05 -1.0920355e-05 -1.7160493e-23 2.3931167e-06 2.904966e-24 4.5235774e-42)
(8.6709535e-05 -9.2688952e-06 3.8907693e-23 1.8154612e-06 -5.8846435e-24 2.20286e-41)
(8.0805476e-05 -7.45804e-06 -5.5619751e-25 1.2601409e-06 4.2424627e-26 4.2520893e-44)
(7.6025929e-05 -5.6910025e-06 -3.4033642e-23 7.8710451e-07 3.5340349e-24 1.903548e-41)
(7.2493071e-05 -3.7953357e-06 1.5810781e-23 3.9357698e-07 -1.1679422e-24 4.3386677e-42)
(7.0595991e-05 -2.3159341e-06 -3.3364167e-23 1.5132241e-07 1.5064799e-24 1.9024619e-41)
(7.1625972e-05 -4.6894409e-07 4.2976204e-24 1.2085064e-08 -5.0993866e-26 3.6221654e-43)
(0.00015469831 -1.797044e-05 -3.1034211e-25 5.0700335e-06 5.6116257e-26 8.1156886e-45)
(0.00014035731 -1.6964506e-05 3.739437e-24 4.6328931e-06 -1.0977606e-24 6.2444423e-43)
(0.00012587364 -1.5629357e-05 1.2784784e-23 4.1185088e-06 -2.667873e-24 1.8719716e-42)
(0.00011493329 -1.438838e-05 0 3.6000739e-06 0 0)
(0.00010502765 -1.2886537e-05 -3.4706858e-25 3.02061e-06 6.4691887e-26 2.624995e-45)
(9.6926701e-05 -1.1236673e-05 1.2850414e-24 2.4162336e-06 -1.7581318e-25 4.1637224e-43)
(8.9765316e-05 -9.4286029e-06 8.0892865e-24 1.8138322e-06 -1.1906015e-24 9.1155415e-43)
(8.3731288e-05 -7.4803488e-06 1.8352327e-23 1.2421098e-06 -2.2837922e-24 5.0084747e-42)
(7.8610923e-05 -5.6150648e-06 4.1035369e-24 7.6520752e-07 -2.5155348e-25 6.0828798e-43)
(7.4736128e-05 -3.6528622e-06 2.0076634e-23 3.7613993e-07 -1.3946448e-24 6.6735754e-42)
(7.2524829e-05 -2.1978101e-06 1.2683756e-23 1.4317835e-07 -5.5261234e-25 2.8051036e-42)
(7.321985e-05 -3.8970031e-07 -2.9346028e-24 1.1276893e-08 2.6943981e-26 1.3966179e-43)
(0.00017621178 -1.970496e-05 -3.2751391e-25 5.5782706e-06 7.9369151e-26 1.4125524e-45)
(0.00015916276 -1.8710344e-05 1.9917682e-24 5.1808445e-06 -2.4877353e-25 9.4058872e-44)
(0.00014235727 -1.7457076e-05 0 4.7053927e-06 0 0)
(0.00012952237 -1.6327863e-05 0 4.23085e-06 0 0)
(0.00011800569 -1.4901557e-05 7.2854055e-24 3.6725432e-06 -1.3644819e-24 6.2787604e-43)
(0.00010857664 -1.332049e-05 -6.7855155e-24 3.0706897e-06 1.2248271e-24 1.6525545e-42)
(0.00010018333 -1.1484361e-05 1.6848891e-23 2.4302511e-06 -2.7981721e-24 4.3419872e-42)
(9.2971209e-05 -9.5171781e-06 -2.2995355e-23 1.8014499e-06 3.244257e-24 6.8300257e-42)
(8.6568361e-05 -7.4188052e-06 -2.1495596e-24 1.2149003e-06 2.3949356e-25 6.0423709e-44)
(8.1123386e-05 -5.4577774e-06 -6.0983358e-26 7.3657981e-07 3.4972483e-27 9.8668084e-47)
(7.6854115e-05 -3.4498548e-06 -2.1523206e-23 3.562333e-07 1.4754913e-24 8.2344041e-42)
(7.4249203e-05 -2.0374922e-06 1.9395664e-23 1.3411365e-07 -8.8474273e-25 8.1825489e-42)
(7.462351e-05 -2.983185e-07 -3.8975121e-23 1.0612556e-08 3.6290341e-25 2.8876964e-41)
(0.00020036049 -2.1441827e-05 6.1387307e-25 6.0645074e-06 -2.1662853e-25 1.1724473e-43)
(0.00018044824 -2.0426845e-05 -4.8281989e-25 5.7032157e-06 7.4174624e-26 2.5442177e-45)
(0.00016097499 -1.9273348e-05 7.6550128e-24 5.2736183e-06 -1.4715552e-24 5.7566698e-43)
(0.00014594122 -1.8275215e-05 -8.0606823e-24 4.8563816e-06 1.5314825e-24 7.074508e-43)
(0.00013258818 -1.6959099e-05 8.088191e-24 4.3383412e-06 -1.5336649e-24 7.7139222e-43)
(0.00012170262 -1.5475625e-05 -1.2735414e-24 3.7597734e-06 2.2858973e-25 1.3750039e-43)
(0.00011202012 -1.3682824e-05 -6.9300268e-24 3.1106301e-06 1.1982496e-24 5.2182308e-43)
(0.00010368437 -1.1664936e-05 -1.010133e-25 2.4325939e-06 6.4250367e-27 2.3157624e-45)
(9.6096264e-05 -9.5060129e-06 -2.5118742e-23 1.7756383e-06 3.2781403e-24 7.4928347e-42)
(8.9404342e-05 -7.2576736e-06 -2.3018504e-23 1.1770834e-06 2.3953673e-24 6.6014663e-42)
(8.3506507e-05 -5.2135348e-06 -6.8162416e-24 7.0214386e-07 6.0961654e-25 6.8796057e-43)
(7.8786343e-05 -3.1785748e-06 -1.8194714e-23 3.3437651e-07 1.0819565e-24 5.0783917e-42)
(7.5790957e-05 -1.836111e-06 -1.1396592e-23 1.2464137e-07 4.1712519e-25 2.1094743e-42)
(7.5783109e-05 -1.9516689e-07 1.0095001e-23 1.0164226e-08 -8.2408635e-26 1.9881016e-42)
(0.0002269404 -2.3183847e-05 1.4545973e-23 6.5350241e-06 -3.780246e-24 2.866826e-42)
(0.00020445444 -2.2105589e-05 -1.1447227e-23 6.1985576e-06 1.3311716e-24 1.6836825e-42)
(0.00018201434 -2.106947e-05 3.9286849e-24 5.817212e-06 -9.2567171e-25 1.7602538e-43)
(0.00016443118 -2.0217445e-05 8.0401733e-26 5.4673397e-06 1.3896524e-26 5.052154e-45)
(0.00014893823 -1.9036652e-05 9.0908313e-26 5.0050097e-06 -3.567643e-26 4.8415732e-45)
(0.00013638917 -1.7697001e-05 1.1416316e-24 4.4732019e-06 -1.8098292e-25 2.2743615e-43)
(0.00012530423 -1.5976365e-05 -7.1842108e-24 3.8360756e-06 1.3171682e-24 5.0714052e-43)
(0.0001158143 -1.3991065e-05 9.2749389e-24 3.1401314e-06 -1.5559099e-24 8.8521344e-43)
(0.00010712107 -1.1732316e-05 1.0979903e-24 2.4170501e-06 -8.0947034e-26 1.0514749e-43)
(9.9303803e-05 -9.3810409e-06 2.8737985e-24 1.7347023e-06 -3.3484887e-25 9.583818e-44)
(9.2105712e-05 -6.9839919e-06 4.5395304e-25 1.1293231e-06 -4.8915258e-26 2.7218363e-45)
(8.574779e-05 -4.872604e-06 4.617532e-24 6.6263976e-07 -2.3967484e-25 3.387861e-43)
(8.0537667e-05 -2.8394195e-06 2.1254974e-23 3.1184396e-07 -1.2529884e-24 7.6477892e-42)
(7.709664e-05 -1.5923498e-06 -8.625948e-24 1.1529375e-07 3.3973206e-25 1.5638998e-42)
(7.6707195e-05 -8.1392247e-08 6.4069896e-24 1.0008577e-08 -5.1947072e-26 9.6896531e-43)
(0.00025498804 -2.4916042e-05 -1.9864148e-24 6.9987148e-06 1.3372425e-24 4.7359246e-43)
(0.00023117671 -2.3740802e-05 1.2695755e-23 6.6711994e-06 -2.1336317e-24 1.0123253e-42)
(0.00020574286 -2.2842666e-05 -4.1620226e-24 6.3338442e-06 5.9294901e-25 2.9031079e-43)
(0.00018529508 -2.2144036e-05 8.6701791e-24 6.0562831e-06 -1.5959939e-24 6.799228e-43)
(0.00016728996 -2.112065e-05 -8.982323e-24 5.662123e-06 1.7120471e-24 7.8325787e-43)
(0.00015278728 -1.9960882e-05 2.3400066e-23 5.1973316e-06 -4.6647463e-24 4.7249437e-42)
(0.00014010555 -1.8361314e-05 -1.7822566e-23 4.5969451e-06 3.4194712e-24 3.9228996e-42)
(0.00012937676 -1.6447167e-05 3.2104889e-26 3.9066219e-06 -2.0438261e-26 1.0731e-44)
(0.00011957655 -1.4175688e-05 6.6707382e-24 3.1472111e-06 -1.1059091e-24 4.5318745e-43)
(0.00011073778 -1.1677565e-05 4.6650034e-24 2.3823045e-06 -3.5568439e-25 9.6859467e-43)
(0.0001023942 -9.118125e-06 5.5244412e-23 1.6777459e-06 -6.904889e-24 3.5740824e-41)
(9.4737623e-05 -6.585622e-06 -8.5567222e-24 1.0724006e-06 1.177974e-24 2.1526169e-42)
(8.7808042e-05 -4.4317165e-06 -7.4265433e-24 6.2013795e-07 6.106202e-25 8.6091064e-43)
(8.2059185e-05 -2.4302781e-06 -4.595969e-24 2.9002337e-07 1.8286353e-25 2.7427597e-43)
(7.8171422e-05 -1.3084186e-06 -2.7393532e-24 1.0678147e-07 3.2154e-26 1.1540485e-43)
(7.7372288e-05 4.1749732e-08 -6.5431042e-24 1.02185e-08 4.6012554e-26 1.0791925e-42)
(0.00028222602 -2.6613916e-05 0 7.4765891e-06 0 0)
(0.000259977 -2.5319548e-05 1.1560231e-23 7.1299432e-06 -1.1989498e-24 1.0018737e-42)
(0.00023222458 -2.4593692e-05 -7.4909301e-24 6.826185e-06 1.7854231e-24 5.284681e-43)
(0.00020884079 -2.4047862e-05 0 6.618657e-06 0 0)
(0.00018794697 -2.3199607e-05 0 6.3005972e-06 0 0)
(0.00017112159 -2.2252635e-05 0 5.9206071e-06 0 0)
(0.00015656209 -2.0812665e-05 -5.0301473e-25 5.3791019e-06 1.1252585e-25 2.8672059e-44)
(0.00014442661 -1.9032e-05 -1.8254577e-23 4.7237588e-06 3.4513825e-24 2.831285e-42)
(0.0001334599 -1.6786628e-05 -1.4012893e-24 3.9504224e-06 -7.3054706e-26 1.8817668e-42)
(0.00012362635 -1.4237143e-05 -1.9916153e-23 3.1320258e-06 3.1627955e-24 3.7863266e-42)
(0.00011427115 -1.1460502e-05 -2.295115e-24 2.3241542e-06 1.7467809e-25 1.4304704e-43)
(0.00010548612 -8.7027494e-06 -1.2409743e-23 1.6056787e-06 1.4301137e-24 1.6938003e-42)
(9.7177192e-05 -6.0542588e-06 -7.3541899e-25 1.0091329e-06 -9.7900751e-27 3.0886295e-44)
(8.9659576e-05 -3.8873942e-06 8.7469753e-24 5.7705379e-07 -6.3641332e-25 1.1130515e-42)
(8.3347818e-05 -1.9540798e-06 3.8358216e-24 2.7074628e-07 -1.092429e-25 1.8428844e-43)
(7.8987505e-05 -9.8638038e-07 3.6419878e-24 9.9839791e-08 -1.2453196e-25 3.0626029e-43)
(7.7779063e-05 1.7260599e-07 0 1.0863299e-08 0 0)
(0.00030450292 -2.8170801e-05 8.2882193e-24 7.9847965e-06 -6.0322281e-25 8.2082246e-43)
(0.00028899386 -2.6833863e-05 -2.4997427e-23 7.5964236e-06 3.4011613e-24 3.0973349e-42)
(0.00026095771 -2.6314886e-05 1.9174178e-23 7.3008757e-06 -2.5775114e-24 4.255131e-42)
(0.0002352365 -2.5925831e-05 5.8685389e-24 7.1543212e-06 -3.0002351e-25 1.2575717e-42)
(0.00021124567 -2.5269107e-05 9.4757993e-24 6.9144414e-06 -1.4355009e-24 1.3360957e-42)
(0.00019169639 -2.4559484e-05 0 6.6322582e-06 0 0)
(0.0001748892 -2.3315229e-05 7.1444693e-24 6.1700378e-06 -1.2597288e-24 1.8458061e-42)
(0.00016108623 -2.1719673e-05 9.3971853e-25 5.577422e-06 -1.6887022e-25 2.8127674e-43)
(0.00014880732 -1.9566584e-05 -2.8020773e-23 4.8201737e-06 5.4483989e-24 8.6235123e-42)
(0.00013795256 -1.701075e-05 -4.6684888e-24 3.9709178e-06 2.0190488e-25 3.2569327e-42)
(0.00012764533 -1.4114099e-05 1.2175075e-23 3.0848575e-06 -1.841948e-24 1.3437911e-42)
(0.00011788937 -1.1066238e-05 -3.7565777e-24 2.2439562e-06 2.7505122e-25 2.6646656e-43)
(0.00010840432 -8.1187448e-06 -1.950644e-23 1.5210648e-06 2.4256054e-24 5.2818345e-42)
(9.9461653e-05 -5.3830472e-06 3.4763276e-23 9.4280455e-07 -2.9432528e-24 1.464562e-41)
(9.127648e-05 -3.2410886e-06 1.2698195e-23 5.3675071e-07 -5.3597824e-25 1.8477749e-42)
(8.4372425e-05 -1.4140047e-06 2.7561714e-23 2.5593783e-07 -1.3912554e-24 1.6068327e-41)
(7.954444e-05 -6.3025375e-07 1.0345334e-23 9.5278284e-08 -2.8286785e-25 2.2050935e-42)
(7.7922771e-05 3.092847e-07 5.6270992e-24 1.2000514e-08 -4.0429421e-26 1.2785536e-42)
(0.00031582848 -2.9395921e-05 -7.9228846e-25 8.5452567e-06 -7.9430467e-26 1.026927e-44)
(0.00031446856 -2.8231888e-05 -1.2510262e-23 8.0932851e-06 1.097844e-24 8.2225511e-43)
(0.00029030258 -2.7995411e-05 -6.3064045e-24 7.7756304e-06 1.273767e-24 2.3314715e-43)
(0.0002641805 -2.7771841e-05 1.336071e-23 7.6684397e-06 -1.7994513e-24 1.5642168e-42)
(0.00023742514 -2.7329883e-05 -1.0936316e-24 7.5017008e-06 1.2676535e-25 2.372837e-44)
(0.00021486865 -2.687536e-05 1.5068509e-23 7.3238522e-06 -3.2954382e-24 1.6076182e-42)
(0.00019538798 -2.5855318e-05 1.2928393e-23 6.9574536e-06 -3.2855211e-24 6.1579475e-42)
(0.00017955577 -2.4493796e-05 -1.2862732e-23 6.4543733e-06 2.479567e-24 7.9336703e-42)
(0.00016572486 -2.2489149e-05 -3.5271105e-24 5.7428936e-06 8.1786212e-25 1.0628675e-42)
(0.00015373569 -2.0004158e-05 2.4287558e-23 4.8952589e-06 -4.3130749e-24 4.4997036e-42)
(0.00014248255 -1.7031897e-05 1.8960041e-24 3.950503e-06 -1.2825708e-25 1.9510066e-43)
(0.00013184986 -1.3793845e-05 2.8275717e-23 3.0078245e-06 -4.174578e-24 7.2287459e-42)
(0.000121375 -1.0466789e-05 -3.3261284e-24 2.1426692e-06 9.0693212e-25 1.1131169e-42)
(0.00011122269 -7.3542941e-06 -4.4590073e-24 1.4282389e-06 2.8254765e-25 2.1430329e-43)
(0.00010149975 -4.5715129e-06 -7.193024e-24 8.7870237e-07 3.1801501e-25 5.6310287e-43)
(9.2630204e-05 -2.4958378e-06 -5.1643651e-24 5.0288338e-07 3.4932882e-25 4.6992263e-43)
(8.5127209e-05 -8.1620559e-07 7.8697532e-24 2.4768793e-07 -3.9299958e-25 1.55102e-42)
(7.9833187e-05 -2.4487521e-07 1.1257455e-24 9.3874982e-08 1.4087924e-26 2.4991784e-44)
(7.780796e-05 4.4978527e-07 2.9622828e-24 1.3672744e-08 -4.3828071e-26 9.5258773e-43)
(0.00030938218 -2.9941936e-05 -6.1432067e-24 9.1741637e-06 -7.5448631e-25 6.1846852e-43)
(0.00033051128 -2.9411714e-05 1.6613447e-23 8.6510236e-06 -1.6347593e-24 1.2334275e-42)
(0.00031677438 -2.9577587e-05 -5.3258994e-23 8.2704027e-06 7.8391565e-24 1.8834266e-41)
(0.00029433207 -2.958109e-05 -4.2979568e-24 8.1774738e-06 1.0963913e-25 3.9785828e-43)
(0.00026632756 -2.9379613e-05 9.2361465e-24 8.0652723e-06 -1.7929078e-24 4.7524728e-43)
(0.00024094223 -2.9199599e-05 6.7187843e-24 7.9903711e-06 -1.500037e-24 3.047894e-43)
(0.00021842831 -2.842617e-05 1.247472e-24 7.7306927e-06 -1.5157312e-25 8.3516321e-44)
(0.00020012732 -2.7338713e-05 2.1557304e-23 7.3406466e-06 -4.4515221e-24 3.0304788e-42)
(0.00018439759 -2.5537346e-05 -1.5702341e-24 6.7051476e-06 3.427819e-25 1.9424271e-43)
(0.00017106293 -2.3191205e-05 -2.3833107e-23 5.8929537e-06 5.0749372e-24 9.0583702e-42)
(0.00015878374 -2.0225146e-05 4.1961159e-23 4.9209197e-06 -7.3865731e-24 1.3019569e-41)
(0.00014731871 -1.6842459e-05 -9.2452781e-24 3.8924566e-06 1.2435844e-24 7.1514111e-43)
(0.00013598255 -1.3231828e-05 -1.5505607e-23 2.8985684e-06 1.9785126e-24 1.9371525e-42)
(0.00012482555 -9.6454803e-06 1.3918713e-24 2.0255908e-06 -1.3385347e-25 1.6601284e-44)
(0.00011379999 -6.4054275e-06 -5.7556727e-24 1.3338898e-06 2.5564563e-25 3.6985372e-43)
(0.00010329332 -3.6206573e-06 -1.9734864e-23 8.2228334e-07 1.6461761e-24 6.0592451e-42)
(9.3702781e-05 -1.6588967e-06 -2.7789753e-24 4.7960648e-07 -2.3093013e-25 5.1906431e-43)
(8.5598996e-05 -1.6818284e-07 -1.3798494e-23 2.4799317e-07 5.254696e-25 4.186763e-42)
(7.9855462e-05 1.6395856e-07 -2.9897303e-24 9.6354661e-08 6.8479464e-26 2.3091525e-43)
(7.744187e-05 5.9202036e-07 -1.903953e-24 1.5904489e-08 4.8452124e-26 9.5433048e-43)
(0.00027985389 -2.9266989e-05 -8.9733683e-25 9.8796743e-06 3.9802345e-25 2.7626132e-44)
(0.00032977517 -3.0139992e-05 2.4823251e-23 9.2983142e-06 -1.8177032e-24 3.0069978e-42)
(0.00033468015 -3.094056e-05 -3.3514432e-24 8.8114274e-06 1.7274901e-24 6.8002178e-43)
(0.00032255943 -3.1307509e-05 1.5889826e-23 8.7018302e-06 -1.9607347e-24 1.5239063e-42)
(0.00029685555 -3.1411595e-05 5.3853143e-24 8.6182239e-06 -1.5728871e-24 4.1424451e-43)
(0.00026990209 -3.153036e-05 -9.1789372e-24 8.6316953e-06 1.3778105e-24 7.5054668e-43)
(0.00024436441 -3.1027556e-05 1.3855553e-23 8.4821264e-06 -1.7584612e-24 5.1973041e-42)
(0.00022317692 -3.0245905e-05 1.6163101e-23 8.2230639e-06 -2.247296e-24 1.8676358e-41)
(0.00020510661 -2.8694111e-05 -3.3545551e-23 7.6917591e-06 6.9552034e-24 7.097992e-42)
(0.00019010029 -2.655478e-05 0 6.9512483e-06 0 0)
(0.00017661665 -2.3668931e-05 -3.010536e-23 5.9864193e-06 5.5932467e-24 6.0477155e-42)
(0.00016427931 -2.0230866e-05 -6.900387e-24 4.9022763e-06 4.5221518e-25 2.0044753e-42)
(0.00015216442 -1.6377135e-05 2.5158022e-23 3.7892353e-06 -4.2295111e-24 6.0753432e-42)
(0.00014016675 -1.2407124e-05 -3.1976526e-24 2.7629137e-06 1.3703009e-24 2.4468609e-42)
(0.00012806802 -8.5906097e-06 1.517721e-23 1.9001606e-06 -1.4430955e-24 1.9661401e-42)
(0.00011616959 -5.2665596e-06 -2.0779733e-23 1.2458342e-06 1.8633059e-24 5.0423949e-42)
(0.00010478989 -2.5377998e-06 -9.7912188e-24 7.8049492e-07 1.4852663e-25 1.0298055e-42)
(9.4474407e-05 -7.3964633e-07 1.4499215e-24 4.7098651e-07 -3.2013745e-25 4.4967247e-43)
(8.5785669e-05 5.2070728e-07 -3.698738e-24 2.5873666e-07 3.1994716e-25 1.1200147e-42)
(7.9615649e-05 5.8990134e-07 -1.646646e-24 1.0331488e-07 -5.7907982e-27 3.5377678e-44)
(7.6836341e-05 7.3391028e-07 8.3073728e-26 1.8700773e-08 6.1186149e-26 8.434874e-43)
(0.00022673041 -2.6635142e-05 1.861379e-24 1.0657647e-05 3.8664067e-24 2.3336592e-42)
(0.00030558658 -2.9970512e-05 2.0027292e-23 1.0059002e-05 -1.4322148e-24 2.1596162e-42)
(0.00033661552 -3.1831448e-05 2.8963674e-23 9.4237885e-06 -4.3352616e-24 4.4361606e-42)
(0.00034342206 -3.2852064e-05 -3.7299584e-23 9.2716008e-06 5.253218e-24 6.5912606e-42)
(0.00032620683 -3.3383439e-05 -2.0102277e-23 9.1805006e-06 2.4001935e-24 2.8008818e-42)
(0.00030090079 -3.3861399e-05 7.454707e-24 9.2575949e-06 -1.6222047e-24 2.9978464e-43)
(0.00027330021 -3.3660892e-05 0 9.2090245e-06 0 0)
(0.00024909834 -3.3213546e-05 2.6775371e-23 9.0905621e-06 -5.9174121e-24 4.2747018e-42)
(0.0002282279 -3.1949471e-05 1.0214277e-23 8.6874249e-06 -2.3611592e-24 2.5886968e-42)
(0.00021111261 -3.0075993e-05 -4.0865248e-23 8.054274e-06 8.5665376e-24 1.265033e-41)
(0.00019612766 -2.7347035e-05 -1.6746427e-23 7.1358897e-06 3.0875541e-24 1.8714306e-42)
(0.00018277865 -2.3937155e-05 -9.2597765e-28 6.0313443e-06 -3.4375971e-25 4.7654262e-43)
(0.00016988738 -1.9931111e-05 1.8980712e-24 4.8244214e-06 -1.4279296e-25 7.8985424e-44)
(0.00015717279 -1.5611284e-05 -1.407488e-23 3.6466194e-06 1.9204666e-24 1.4066417e-42)
(0.0001441974 -1.1295608e-05 8.5170366e-24 2.6080575e-06 -1.4630393e-24 1.26434e-42)
(0.00013114281 -7.2901314e-06 -6.4362146e-24 1.7763996e-06 1.0261615e-24 9.7457952e-43)
(0.00011822706 -3.9472429e-06 2.7735704e-24 1.1739122e-06 -2.0710143e-25 8.4567914e-44)
(0.0001059743 -1.3328912e-06 -1.1326159e-23 7.5995562e-07 7.5777895e-25 2.1240536e-42)
(9.4935542e-05 2.4945781e-07 -7.6657494e-24 4.8102822e-07 -2.5714938e-26 6.3676146e-43)
(8.5686764e-05 1.2400116e-06 -1.4345895e-24 2.8147941e-07 -2.4105539e-26 2.470968e-44)
(7.9123245e-05 1.0262536e-06 -3.5918667e-25 1.1519891e-07 1.087867e-25 2.799601e-43)
(7.6006399e-05 8.7343494e-07 0 2.2046107e-08 0 0)
(0.00015738999 -2.1197515e-05 -8.6845601e-25 1.1488039e-05 2.6247938e-24 7.4543862e-43)
(0.00025537319 -2.8177043e-05 -9.3511682e-24 1.0947832e-05 5.9847306e-25 6.1075411e-43)
(0.00031539833 -3.1794743e-05 6.3516329e-25 1.012779e-05 -3.3085223e-25 1.4707751e-44)
(0.00034940219 -3.3991097e-05 -3.7709779e-23 9.9171758e-06 4.228301e-24 7.0546326e-42)
(0.00034922506 -3.519093e-05 -1.3213869e-23 9.7803779e-06 8.6385742e-25 1.6298543e-42)
(0.00033148059 -3.61525e-05 1.2117655e-23 9.886535e-06 -1.692885e-24 8.4997209e-43)
(0.00030460436 -3.6321595e-05 -2.1166736e-23 9.9180019e-06 4.8345541e-24 2.5387331e-42)
(0.00027810012 -3.6242789e-05 2.630982e-23 9.9363891e-06 -4.4212602e-24 6.5942155e-42)
(0.00025418332 -3.5300706e-05 1.3706878e-23 9.6780699e-06 -2.8273902e-24 1.0637627e-42)
(0.00023446962 -3.3742886e-05 -9.2336923e-26 9.1849507e-06 1.8298351e-26 6.3024397e-44)
(0.00021756315 -3.1239512e-05 4.4134681e-25 8.3537217e-06 -7.0294463e-26 6.3934852e-45)
(0.00020294037 -2.794706e-05 4.1347356e-24 7.2714898e-06 1.473044e-26 2.9704686e-42)
(0.00018917801 -2.3876951e-05 4.1245441e-24 6.0031631e-06 -7.1987845e-25 1.0439793e-43)
(0.0001757958 -1.9298581e-05 -4.1611797e-23 4.692513e-06 4.758703e-24 1.308086e-41)
(0.00016210709 -1.4504099e-05 -3.6595774e-23 3.4700649e-06 4.4512683e-24 8.9987e-42)
(0.00014812261 -9.8777891e-06 -2.5449308e-23 2.4456972e-06 2.8191471e-24 5.3226526e-42)
(0.00013391773 -5.7496402e-06 6.921903e-24 1.6672876e-06 -2.8393302e-25 3.8935932e-43)
(0.00011997881 -2.4511578e-06 2.3989741e-23 1.1283829e-06 -1.7974652e-24 7.470363e-42)
(0.0001068187 -2.1010461e-08 -1.1387288e-24 7.6774203e-07 -7.8116873e-26 3.1801299e-44)
(9.5079336e-05 1.2942002e-06 -3.1785339e-24 5.1323082e-07 2.3743662e-25 4.2505599e-43)
(8.5308436e-05 1.978511e-06 0 3.1739805e-07 0 0)
(7.8391461e-05 1.466179e-06 -1.4904268e-24 1.3226433e-07 -2.8457234e-25 1.4452875e-42)
(7.4970488e-05 1.0086679e-06 4.6301737e-25 2.5903668e-08 6.3716969e-27 2.900897e-45)
(8.8515097e-05 -1.2162641e-05 4.127386e-24 1.2333e-05 -1.269493e-23 1.4086771e-41)
(0.00018438525 -2.37656e-05 -1.7289534e-23 1.196423e-05 2.1280111e-24 3.1489094e-42)
(0.00026745023 -3.0119156e-05 3.1842567e-23 1.0934425e-05 -5.9092049e-24 5.4408201e-42)
(0.000332604 -3.4294755e-05 1.8704466e-23 1.0665768e-05 -3.128673e-24 1.5546192e-42)
(0.00035842166 -3.6606649e-05 -4.3013582e-23 1.0449474e-05 6.0360358e-24 8.0228175e-42)
(0.00035681325 -3.8304386e-05 0 1.054878e-05 0 0)
(0.00033613983 -3.8971814e-05 -4.6062532e-24 1.0625842e-05 1.083866e-24 1.1891604e-43)
(0.00030975864 -3.9330139e-05 2.1934839e-23 1.0762962e-05 -4.3682443e-24 2.1670729e-42)
(0.000283267 -3.8750061e-05 1.2163784e-23 1.0653412e-05 -1.8744098e-24 3.1620763e-42)
(0.00026061162 -3.7550749e-05 -1.2493254e-23 1.0326053e-05 3.0449197e-24 9.3372261e-42)
(0.00024128125 -3.5332733e-05 -2.7067058e-23 9.6218461e-06 5.7336082e-24 4.0052693e-42)
(0.00022498919 -3.2240531e-05 -1.159592e-23 8.6087411e-06 2.7104377e-24 1.8426461e-42)
(0.00021013716 -2.8204381e-05 1.514299e-23 7.321661e-06 -3.4496368e-24 2.8238377e-42)
(0.00019604237 -2.346006e-05 -2.9391385e-23 5.9059561e-06 5.040796e-24 5.3043465e-42)
(0.00018173796 -1.8271711e-05 3.7423349e-23 4.5083219e-06 -5.9061385e-24 1.0140484e-41)
(0.00016702552 -1.3027182e-05 6.5890648e-23 3.2721169e-06 -7.4897952e-24 2.8826805e-41)
(0.00015178136 -8.1506686e-06 1.4343976e-23 2.2917079e-06 1.6991655e-25 3.2547235e-42)
(0.00013639497 -3.9682347e-06 1.1181528e-23 1.5869646e-06 -9.2842758e-25 1.3088106e-42)
(0.00012135488 -8.0000001e-07 -1.4891225e-23 1.1200684e-06 1.8250585e-24 6.8935706e-42)
(0.00010731006 1.379857e-06 -7.2682837e-24 8.0996033e-07 -6.5624488e-25 1.4133568e-42)
(9.4906481e-05 2.3785652e-06 1.7745669e-24 5.7045759e-07 -6.0669479e-25 1.7639379e-42)
(8.4661324e-05 2.7247329e-06 3.8232873e-24 3.6718268e-07 5.7214861e-25 1.7858825e-42)
(7.7436963e-05 1.9029657e-06 -4.9011347e-24 1.545667e-07 -3.0736662e-25 1.0495899e-42)
(7.3748079e-05 1.1376614e-06 3.4691498e-25 3.0209481e-08 5.4669856e-27 1.6577033e-45)
(4.480364e-05 9.8553013e-07 -2.8958675e-24 1.3137778e-05 -4.2653764e-24 1.5945245e-42)
(0.00010806149 -1.5621979e-05 -9.6387461e-24 1.3084365e-05 4.6068707e-25 1.8977933e-42)
(0.00019674993 -2.5854791e-05 -3.3935056e-24 1.1839741e-05 -6.3542311e-25 3.0753182e-43)
(0.00028810394 -3.3049865e-05 -8.8425314e-23 1.1536433e-05 1.2672534e-23 3.8175307e-41)
(0.00034542004 -3.7194405e-05 2.9467963e-23 1.1216765e-05 -4.7667614e-24 3.5465822e-42)
(0.00036949909 -4.0086868e-05 -5.2775632e-23 1.1279123e-05 7.5868543e-24 1.1544821e-41)
(0.00036341576 -4.1505956e-05 -4.0599978e-24 1.1361446e-05 1.0011754e-24 9.4850219e-44)
(0.00034225779 -4.2439111e-05 -4.1521541e-23 1.1584133e-05 6.4730577e-24 1.0122332e-41)
(0.00031523456 -4.2295802e-05 1.9300189e-23 1.1611701e-05 -4.1179668e-24 1.5905194e-42)
(0.00028990474 -4.1501384e-05 9.8648933e-24 1.1463007e-05 -1.8987597e-24 1.0801867e-42)
(0.000267731 -3.9620298e-05 -2.963126e-23 1.0920619e-05 6.3266913e-24 4.0642921e-42)
(0.00024926613 -3.6802361e-05 5.668647e-24 1.0025125e-05 -1.9233713e-24 5.4781894e-42)
(0.00023296542 -3.2894568e-05 -2.1803727e-23 8.7690611e-06 4.3104574e-24 2.4510723e-42)
(0.00021798943 -2.8091945e-05 1.248637e-24 7.2891717e-06 -8.0063258e-26 3.8997752e-44)
(0.00020307878 -2.2600539e-05 4.4375129e-23 5.7355657e-06 -6.2084926e-24 1.0563372e-41)
(0.00018778558 -1.681182e-05 2.7970337e-24 4.2840569e-06 -5.7396001e-25 1.2182318e-43)
(0.00017173756 -1.1164314e-05 2.0886683e-24 3.0706625e-06 6.4996194e-26 9.1646665e-44)
(0.00015516959 -6.1065325e-06 2.0989315e-23 2.1642238e-06 -1.9428616e-24 3.8048909e-42)
(0.00013847909 -1.9675063e-06 0 1.5511365e-06 0 0)
(0.00012235097 9.9149317e-07 3.9529553e-24 1.1594515e-06 -7.8246192e-26 1.4465066e-43)
(0.00010743764 2.8483544e-06 7.8912365e-25 8.9207018e-07 -6.8113068e-27 7.5631272e-45)
(9.442284e-05 3.4855801e-06 -8.741586e-25 6.5464442e-07 1.1777925e-26 1.5926155e-44)
(8.3760971e-05 3.4673359e-06 -2.5718148e-24 4.3099598e-07 -1.4165832e-25 8.9277457e-44)
(7.6279505e-05 2.3301605e-06 5.7815272e-24 1.8194419e-07 4.2899446e-25 1.7942708e-42)
(7.2359784e-05 1.2578657e-06 4.5195956e-24 3.4841019e-08 1.1688432e-25 6.3159012e-43)
(5.5057871e-05 1.8305308e-05 2.1786688e-23 1.3836889e-05 1.363196e-23 1.4043566e-41)
(5.1588533e-05 -2.7856635e-06 4.3975361e-24 1.4252849e-05 5.0055858e-25 6.1218167e-43)
(0.00011771213 -1.7943752e-05 7.3370476e-24 1.2820336e-05 -1.9132364e-24 5.6203056e-43)
(0.00021816085 -2.9250122e-05 9.0607342e-24 1.253426e-05 -1.5266883e-24 4.8807766e-43)
(0.00030417633 -3.6231482e-05 8.4197958e-23 1.2103944e-05 -1.2985179e-23 3.125003e-41)
(0.00036073942 -4.1060145e-05 2.6816559e-24 1.2112472e-05 4.2580333e-25 2.1616606e-43)
(0.00037918758 -4.3688845e-05 -3.8749964e-24 1.2162191e-05 1.0298943e-24 9.3955859e-44)
(0.00037147344 -4.5462045e-05 3.3908428e-24 1.2428046e-05 -5.4845338e-25 5.0147274e-44)
(0.00034856478 -4.5904738e-05 3.073216e-23 1.2563615e-05 -5.0364875e-24 5.913654e-42)
(0.00032226893 -4.559442e-05 -2.0306911e-23 1.2588934e-05 4.6026484e-24 1.9173837e-42)
(0.00029733364 -4.4103779e-05 1.8018922e-23 1.2231709e-05 -3.8208629e-24 2.1398273e-42)
(0.00027622064 -4.1624116e-05 8.846323e-25 1.1499359e-05 -1.1298072e-25 1.0793426e-43)
(0.00025798294 -3.7931944e-05 -1.1508615e-25 1.0329043e-05 6.3219976e-25 1.4741873e-42)
(0.00024181145 -3.3178667e-05 1.214921e-23 8.8363317e-06 -2.1661484e-24 6.8862707e-43)
(0.00022618374 -2.749649e-05 7.1385524e-24 7.1615341e-06 -5.2985578e-25 7.0218042e-43)
(0.00021037672 -2.1248465e-05 -6.6147837e-23 5.5024039e-06 8.2837649e-24 2.2385738e-41)