/*--------------------------------*- C++ -*----------------------------------*\
| =========                 |                                                 |
| \\      /  F ield         | OpenFOAM: The Open Source CFD Toolbox           |
|  \\    /   O peration     | Version:  5.0                                   |
|   \\  /    A nd           | Web:      www.OpenFOAM.org                      |
|    \\/     M anipulation  |                                                 |
\*---------------------------------------------------------------------------*/
FoamFile
{
    version     2.0;
    format      ascii;
    class       volScalarField;
    location    "210";
    object      p;
}
// * * * * * * * * * * * * * * * * * * * * * * * * * * * * * * * * * * * * * //

dimensions      [0 2 -2 0 0 0 0];

internalField   nonuniform List<scalar> 
9200
(
-0.00066690594
-0.00066454512
-0.0015152687
-0.00065999797
-0.0015173725
-0.002584629
-0.00065838913
-0.0015065911
-0.0025846715
-0.0035330647
-0.00065125841
-0.001498991
-0.002569892
-0.003536088
-0.0045072165
-0.0006440612
-0.0014799351
-0.0025585917
-0.0035196999
-0.0045136318
-0.0054308188
-0.00063282553
-0.0014588143
-0.0025308996
-0.0035078587
-0.0044982859
-0.0054441051
-0.0063341129
-0.00061961274
-0.0014288573
-0.0024982882
-0.0034755541
-0.0044898242
-0.0054333791
-0.0063561511
-0.0071982829
-0.00060341542
-0.0013933468
-0.0024519784
-0.0034361434
-0.0044573734
-0.0054335683
-0.0063531865
-0.0072317929
-0.0080267901
-0.00058496259
-0.0013506243
-0.0023958039
-0.0033787614
-0.0044160475
-0.0054070758
-0.0063671806
-0.0072403376
-0.0080752855
-0.008813758
-0.000564472
-0.0013017405
-0.002327728
-0.0033076372
-0.0043525587
-0.0053708987
-0.006352603
-0.0072743876
-0.0081002342
-0.008880103
-0.0095564805
-0.00054270851
-0.0012467764
-0.002249148
-0.0032202111
-0.0042713389
-0.0053089914
-0.0063282187
-0.0072792832
-0.0081600423
-0.0089253806
-0.0096436294
-0.01025127
-0.00052067381
-0.0011862754
-0.0021605044
-0.0031180671
-0.0041691923
-0.0052258777
-0.0062750519
-0.0072753668
-0.0081914886
-0.0090169195
-0.0097138049
-0.010362007
-0.010894719
-0.0004997622
-0.0011205461
-0.0020630392
-0.0030017204
-0.0040478651
-0.0051174274
-0.0061977435
-0.007240117
-0.008216505
-0.0090828211
-0.0098447547
-0.010461357
-0.011031661
-0.011483524
-0.00048134332
-0.0010498228
-0.0019580238
-0.0028726553
-0.0039079858
-0.0049853507
-0.0060907648
-0.007177675
-0.0082084809
-0.0091456073
-0.0099528181
-0.010637522
-0.011164342
-0.011649031
-0.012014697
-0.00046735231
-0.0009740755
-0.0018469416
-0.0027323256
-0.0037514724
-0.0048301544
-0.0059555275
-0.0070812763
-0.0081708839
-0.0091744285
-0.010062783
-0.010795323
-0.011392003
-0.011818868
-0.012210833
-0.012485643
-0.00045795177
-0.00089431455
-0.0017311318
-0.0025823587
-0.0035803587
-0.004653915
-0.0057922769
-0.0069519413
-0.0080952537
-0.009172151
-0.010139017
-0.010961687
-0.011608036
-0.012103521
-0.01242131
-0.012714133
-0.012894254
-0.00045128861
-0.00081134873
-0.0016126065
-0.0024242716
-0.0033970167
-0.0044588701
-0.0056032101
-0.00678945
-0.0079819723
-0.0091281716
-0.01018327
-0.011095758
-0.011840225
-0.012384652
-0.012768237
-0.012968258
-0.013156452
-0.01323898
-0.0004440459
-0.00072661844
-0.0014923773
-0.00226037
-0.0032037697
-0.0042476522
-0.0053908478
-0.0065959154
-0.0078301399
-0.0090419577
-0.010182646
-0.011198019
-0.012042896
-0.012691632
-0.013121884
-0.013381906
-0.013456713
-0.013535815
-0.013518961
-0.00043026843
-0.00064346825
-0.001370791
-0.0020925055
-0.003003488
-0.0040229253
-0.0051582837
-0.0063739131
-0.0076416267
-0.0089116829
-0.01013542
-0.011252922
-0.012214989
-0.012973329
-0.013512364
-0.013814113
-0.013940948
-0.013884057
-0.013850804
-0.013734116
-0.00040260306
-0.00056580444
-0.0012485756
-0.0019225925
-0.0027982771
-0.0037879303
-0.0049087576
-0.0061267519
-0.0074189786
-0.0087387327
-0.010038578
-0.011257283
-0.012338114
-0.013227008
-0.013883284
-0.014295743
-0.014457437
-0.014441814
-0.014248237
-0.014100703
-0.013884651
-0.00035368531
-0.00049810771
-0.0011257389
-0.0017535573
-0.0025898544
-0.0035454776
-0.0046459587
-0.0058580154
-0.0071657089
-0.0085254021
-0.0098928016
-0.011206618
-0.01240736
-0.013431202
-0.014230182
-0.014765386
-0.01503739
-0.015046977
-0.014881931
-0.014548021
-0.014285631
-0.013970032
-0.00027768996
-0.0004447608
-0.001002124
-0.0015881328
-0.0023805083
-0.0032982893
-0.0043731443
-0.0055717361
-0.0068857733
-0.0082752054
-0.0096999396
-0.011100655
-0.01241648
-0.01357902
-0.01452839
-0.015216654
-0.01561456
-0.015731111
-0.015579292
-0.015259239
-0.014783217
-0.014406097
-0.013990345
-0.00017158494
-0.00040926824
-0.00087759799
-0.0014290046
-0.002172259
-0.003049723
-0.0040932832
-0.0052717761
-0.006583609
-0.007992284
-0.0094633887
-0.010940532
-0.012363988
-0.013662178
-0.014768812
-0.01562156
-0.016180753
-0.016423567
-0.01637245
-0.016050571
-0.0155718
-0.014953677
-0.01446199
-0.013951551
-3.5797563e-05
-0.00039360687
-0.00075222457
-0.0012786032
-0.0019671989
-0.0028028391
-0.0038097997
-0.0049617648
-0.0062636304
-0.0076813554
-0.0091874026
-0.010729304
-0.012250053
-0.013677677
-0.014940851
-0.015968608
-0.016704651
-0.017114323
-0.017186816
-0.016956117
-0.016457905
-0.015817885
-0.015058468
-0.014453463
-0.013855774
0.00012565313
-0.00039791657
-0.00062637935
-0.0011389197
-0.0017674376
-0.002560559
-0.0035260369
-0.0046457261
-0.005929999
-0.007347313
-0.0088769642
-0.01047114
-0.012077158
-0.01362446
-0.015039693
-0.016244649
-0.017172213
-0.017768772
-0.018010715
-0.017897667
-0.017478107
-0.01679866
-0.015996477
-0.015097669
-0.01438541
-0.013705797
0.00030579992
-0.00042043439
-0.00050071885
-0.0010113561
-0.0015750151
-0.002325654
-0.0032454171
-0.0043276978
-0.0055871505
-0.0069948932
-0.0085374261
-0.010171128
-0.011849215
-0.013504137
-0.015062755
-0.016442768
-0.017567527
-0.018370238
-0.01880637
-0.018861979
-0.018550752
-0.017934337
-0.017071084
-0.016107905
-0.015074406
-0.0142606
-0.013504188
0.00049753628
-0.00045625166
-0.00037604823
-0.0008967154
-0.0013917207
-0.0021007222
-0.0029713574
-0.0040117075
-0.0052396225
-0.0066291203
-0.0081740801
-0.009834938
-0.01157131
-0.013320112
-0.015010509
-0.01655853
-0.017881302
-0.018899889
-0.019554445
-0.019808288
-0.019661325
-0.019140496
-0.018321897
-0.017274198
-0.016153297
-0.014990851
-0.014082036
-0.013253729
0.00069393099
-0.00049257484
-0.00025479342
-0.00079523518
-0.0012187499
-0.0018882636
-0.0027070542
-0.0037018055
-0.0048920045
-0.0062552249
-0.0077924918
-0.009468342
-0.011249341
-0.013077258
-0.01488556
-0.016590966
-0.018106944
-0.019345816
-0.020233085
-0.020714642
-0.020766362
-0.020401577
-0.019662463
-0.018638354
-0.017407983
-0.016134309
-0.014849992
-0.013852609
-0.012958074
0.0008831138
-0.00051777918
-0.00014664187
-0.00070633064
-0.0010569096
-0.0016904904
-0.0024552753
-0.0034019593
-0.0045490047
-0.0058785146
-0.00739848
-0.0090774517
-0.010889519
-0.012781507
-0.014692353
-0.016541589
-0.018241698
-0.019698972
-0.020827567
-0.021556144
-0.021841426
-0.0216718
-0.021076617
-0.020112614
-0.018882316
-0.017472966
-0.016053069
-0.014654701
-0.013575694
-0.012620855
0.0010620579
-0.00054882745
-5.166184e-05
-0.00062694157
-0.00090793892
-0.0015088581
-0.0022183534
-0.0031158974
-0.0042152789
-0.0055044568
-0.0069979804
-0.0086687401
-0.010498468
-0.012439356
-0.01443668
-0.016414115
-0.018285672
-0.019954487
-0.02132612
-0.022315112
-0.022858632
-0.02292446
-0.022516731
-0.021680605
-0.020487955
-0.019053019
-0.01747042
-0.015912072
-0.01440822
-0.01325472
-0.012245865
0.001249107
-0.0005929334
3.9660894e-05
-0.00054873727
-0.00077569654
-0.0013447198
-0.0019983256
-0.0028467755
-0.003895214
-0.005138534
-0.0065971533
-0.0082488829
-0.010083251
-0.012057854
-0.014125201
-0.016213931
-0.018241556
-0.020110706
-0.021721435
-0.022976829
-0.023797273
-0.024128837
-0.02395414
-0.023293398
-0.022208743
-0.020786154
-0.019150559
-0.017402088
-0.015714201
-0.014113944
-0.01289339
-0.01183693
0.0014368128
-0.00064317811
0.00012585131
-0.00048084233
-0.00065493095
-0.0011982078
-0.0017976735
-0.0025970433
-0.0035926417
-0.0047859971
-0.0062022592
-0.0078248643
-0.00965121
-0.01164461
-0.013765299
-0.015947649
-0.018114071
-0.020168948
-0.02200974
-0.023531252
-0.024639519
-0.025261209
-0.02535553
-0.024920745
-0.023995026
-0.022656891
-0.02100586
-0.019175674
-0.017270277
-0.015462631
-0.013775475
-0.012495442
-0.011397783
0.0016168246
-0.00069382417
0.00021233674
-0.00043831123
-0.00053786801
-0.0010539926
-0.001618527
-0.0023693983
-0.0033107435
-0.0044514786
-0.005819402
-0.0074038499
-0.0092100847
-0.011207663
-0.013365033
-0.015622816
-0.017909527
-0.020132961
-0.022190626
-0.023972137
-0.025372327
-0.02630054
-0.026694267
-0.026527077
-0.025815415
-0.024615448
-0.023021956
-0.021146503
-0.019129812
-0.017077721
-0.015160823
-0.013396529
-0.012064659
-0.010932145
0.0017828281
-0.00074458647
0.00029890979
-0.00039639081
-0.00043674664
-0.00090096265
-0.0014457965
-0.0021652768
-0.0030530758
-0.0041388198
-0.0054541159
-0.0069929135
-0.0087679112
-0.010755559
-0.01293304
-0.015247832
-0.017635465
-0.020008447
-0.022266513
-0.024296969
-0.025986659
-0.027230583
-0.027946098
-0.028083041
-0.027632506
-0.026629783
-0.025149551
-0.02330173
-0.021208374
-0.019015019
-0.01682757
-0.014812439
-0.012980902
-0.011604791
-0.010443559
0.0019296146
-0.00079384254
0.00037975711
-0.00035180386
-0.00034045077
-0.00078537383
-0.0012732381
-0.0019647155
-0.0028219432
-0.003852212
-0.0051111386
-0.0065985591
-0.0083327663
-0.010297272
-0.012478588
-0.014831867
-0.017300468
-0.019802671
-0.022242182
-0.024506459
-0.026477515
-0.028039212
-0.029091437
-0.029561251
-0.029414523
-0.028661151
-0.027356508
-0.025593174
-0.023495022
-0.021192531
-0.018833917
-0.016523304
-0.014421298
-0.012532405
-0.011119501
-0.009935477
0.0020525548
-0.00083891919
0.00045144324
-0.00031172576
-0.0002473226
-0.00069237391
-0.0011366074
-0.0017652638
-0.00259508
-0.0035943112
-0.0047956533
-0.0062264357
-0.0079122464
-0.0098419309
-0.012011521
-0.014384897
-0.016914099
-0.019524206
-0.022124335
-0.024604098
-0.026843505
-0.028718582
-0.030114828
-0.030938728
-0.031131128
-0.030675742
-0.029603278
-0.027989162
-0.025943291
-0.023601566
-0.021100791
-0.018589615
-0.01616867
-0.013991309
-0.012054816
-0.010612348
-0.0094111466
0.002147849
-0.00087749449
0.00051292755
-0.00027916043
-0.00016077328
-0.00059719953
-0.0010098659
-0.0016128629
-0.0023721154
-0.00333925
-0.0045112582
-0.0058826862
-0.0075131024
-0.0093982614
-0.011542017
-0.013917647
-0.016486901
-0.019182842
-0.021921288
-0.024595681
-0.027086431
-0.029264796
-0.031005252
-0.032196512
-0.032755987
-0.032640551
-0.031854481
-0.030449983
-0.028522546
-0.026197947
-0.023622039
-0.020935641
-0.018285644
-0.015767617
-0.013526415
-0.011551837
-0.010086731
-0.0088736562
0.0022126459
-0.00090775558
0.00056329353
-0.00025306531
-8.6136742e-05
-0.00050676741
-0.00088394279
-0.0014678956
-0.0021988065
-0.0030894434
-0.004228806
-0.0055718189
-0.0071426683
-0.0089741426
-0.011080007
-0.013441365
-0.016030369
-0.018789574
-0.021642834
-0.024488967
-0.027210816
-0.029677551
-0.031755917
-0.033320136
-0.034266553
-0.034526037
-0.034074835
-0.032939204
-0.031193566
-0.028952642
-0.026356306
-0.023557991
-0.020700174
-0.017925881
-0.015324225
-0.013030545
-0.011027058
-0.00954589
-0.0083258846
0.0022453823
-0.00092870794
0.00060165768
-0.00023258435
-2.3698543e-05
-0.00042877065
-0.00076503401
-0.0013213905
-0.0020256065
-0.0028969718
-0.0039520379
-0.0052611233
-0.0068067468
-0.0085781442
-0.010634654
-0.012967211
-0.015556744
-0.018356572
-0.021300208
-0.024293487
-0.027223516
-0.029959688
-0.032363994
-0.034299546
-0.035644688
-0.036306069
-0.036231848
-0.035419745
-0.03391949
-0.031827572
-0.029276705
-0.026418613
-0.023411791
-0.020398008
-0.017514467
-0.014842644
-0.01250756
-0.010483919
-0.0089928725
-0.0077705139
-0.00093932496
0.0022453825
0.00062673386
-0.00021733201
2.6656778e-05
-0.00036364088
-0.00066288135
-0.0011835203
-0.0018527623
-0.0026982493
-0.0037361719
-0.0049561896
-0.0064693527
-0.0082174346
-0.01021597
-0.012505673
-0.015078416
-0.017896998
-0.020906067
-0.024020485
-0.027133483
-0.030116772
-0.032830205
-0.035128967
-0.036876767
-0.037958712
-0.038295924
-0.037856519
-0.036662003
-0.03478612
-0.032346956
-0.029493248
-0.026386144
-0.023186535
-0.020033193
-0.017055731
-0.01432703
-0.01196122
-0.0099256996
-0.0084305291
-0.0072100182
0.00063853778
-0.00093932494
0.0022126466
-0.00020792764
6.4789046e-05
-0.00031136939
-0.00057806833
-0.0010653541
-0.0016897696
-0.0024991076
-0.0035051034
-0.0047158977
-0.006137169
-0.0078523958
-0.0098328085
-0.012068249
-0.014607258
-0.017424422
-0.020474334
-0.023682892
-0.026951666
-0.030156813
-0.033158409
-0.035806559
-0.037953674
-0.039466511
-0.040241293
-0.040216702
-0.039383869
-0.037789382
-0.035531353
-0.032748064
-0.029602049
-0.026261145
-0.022885961
-0.019610126
-0.016554114
-0.0137815
-0.011395141
-0.0093554852
-0.0078615057
-0.0066466632
-0.00020386329
0.00063853803
-0.00092870783
0.0021478501
8.9401443e-05
-0.00027229397
-0.00051018955
-0.00096721342
-0.0015501435
-0.0023112536
-0.0032748164
-0.0044501263
-0.0058645525
-0.0074912278
-0.0094419289
-0.011665609
-0.014156383
-0.016952091
-0.020019648
-0.023295204
-0.026690982
-0.030090124
-0.033355267
-0.036334029
-0.038870565
-0.040816657
-0.042046498
-0.042470771
-0.042049375
-0.040798568
-0.038791113
-0.036148954
-0.033028715
-0.029604089
-0.026046735
-0.022514352
-0.019133459
-0.016014107
-0.013210074
-0.01081278
-0.0087761689
-0.0072882372
-0.006082514
0.00010076641
-0.00020386312
0.00062673452
-0.00090775546
0.0020525562
-0.00024809805
-0.00045932597
-0.00088868447
-0.001434348
-0.0021502839
-0.0030574744
-0.0041867148
-0.005553204
-0.0071895043
-0.0090529436
-0.011250842
-0.013738551
-0.016494749
-0.019556597
-0.022872965
-0.026366219
-0.029929272
-0.03343006
-0.036716249
-0.039626533
-0.04200088
-0.043694745
-0.044593187
-0.044625447
-0.043775481
-0.042086547
-0.039657985
-0.036634306
-0.033188165
-0.02950149
-0.025746815
-0.022076425
-0.018608015
-0.015440177
-0.012616649
-0.010217405
-0.0081904301
-0.0067129514
-0.005519435
-0.00023820914
0.00010076664
-0.00020792705
0.0006016588
-0.00087749428
0.0019296163
-0.00042723148
-0.00082989848
-0.0013418359
-0.002016776
-0.0028713097
-0.0039377179
-0.0052522942
-0.0068336763
-0.0087200005
-0.010835497
-0.013303294
-0.016067382
-0.019101575
-0.022431986
-0.025993584
-0.029689012
-0.033394608
-0.036961035
-0.040224199
-0.0430152
-0.045173949
-0.046562953
-0.047082509
-0.046683814
-0.045377601
-0.043235282
-0.040382501
-0.036984443
-0.033227075
-0.029297409
-0.025365941
-0.021577236
-0.018038703
-0.014836729
-0.012004958
-0.009612078
-0.0076007354
-0.0061376717
-0.0049591043
-0.00041323242
-0.00023820882
8.9402229e-05
-0.00021733109
0.00056329502
-0.00083891893
0.0017828301
-0.00079285549
-0.001272688
-0.0019101541
-0.0027170311
-0.0037242594
-0.0049683804
-0.0064905566
-0.0083129804
-0.010469977
-0.012864061
-0.015615961
-0.01867201
-0.021990245
-0.025589929
-0.029385894
-0.033263227
-0.037079013
-0.04066944
-0.04385951
-0.046476621
-0.04836384
-0.049395237
-0.049490118
-0.048625102
-0.046839616
-0.044234009
-0.040958965
-0.037198056
-0.033147429
-0.028995937
-0.024909224
-0.021022074
-0.017430458
-0.014208047
-0.011378539
-0.0089996319
-0.0070093464
-0.0055642449
-0.0044030019
-0.00077675903
-0.00041323207
-0.00024809724
6.4790247e-05
-0.00023258301
0.00051292949
-0.00079384216
0.0016168269
-0.0012290953
-0.0018305276
-0.0025939515
-0.0035473883
-0.0047245482
-0.0061671162
-0.0079216917
-0.01000639
-0.012464241
-0.015156361
-0.018210433
-0.021567704
-0.025174693
-0.029037542
-0.033052406
-0.037083591
-0.040971195
-0.044537257
-0.047599438
-0.049984442
-0.051542998
-0.052164736
-0.051792008
-0.050429561
-0.048147153
-0.045073834
-0.041383562
-0.037275446
-0.032952437
-0.028601959
-0.024382198
-0.020416387
-0.016788168
-0.013558237
-0.010740691
-0.008382713
-0.0064183685
-0.0049942993
-0.0038524324
-0.0012100972
-0.00077675878
-0.00042723065
-0.00027229255
2.6658526e-05
-0.00025306364
0.00045144552
-0.00074458598
0.0014368153
-0.0017803098
-0.0025021505
-0.0034063724
-0.0045224247
-0.005889203
-0.0075533945
-0.0095619781
-0.011937537
-0.014721062
-0.017735343
-0.021103481
-0.024770474
-0.02866463
-0.032780178
-0.03699072
-0.041141427
-0.045055166
-0.04854293
-0.051417753
-0.053510112
-0.054682469
-0.054844443
-0.053964853
-0.05207895
-0.04928774
-0.0457479
-0.041654349
-0.037218443
-0.032646395
-0.028121042
-0.023790739
-0.019765682
-0.016116577
-0.012891174
-0.010094556
-0.0077638409
-0.0058296397
-0.0044291489
-0.0033086156
-0.0017583767
-0.0012100969
-0.00079285454
-0.00045932447
-0.00031136748
-2.3696368e-05
-0.00027915831
0.00037975982
-0.0006938235
0.0012491097
-0.0024442149
-0.0033012865
-0.0043613479
-0.0056587899
-0.007236924
-0.0091441849
-0.011433649
-0.014124884
-0.017263595
-0.020619238
-0.02431306
-0.028292376
-0.032468139
-0.036818373
-0.041194967
-0.045423171
-0.049311051
-0.052660902
-0.055285447
-0.057023076
-0.057752597
-0.057407602
-0.05598649
-0.053556888
-0.050250998
-0.046251448
-0.041771218
-0.037030294
-0.032234578
-0.027559318
-0.023140928
-0.019075381
-0.01542022
-0.012210623
-0.0094432006
-0.0071451687
-0.0052444771
-0.0038700735
-0.002772695
-0.0024188139
-0.0017583763
-0.0012290944
-0.00082989703
-0.00051018757
-0.00036363837
-8.6134011e-05
-0.00031172326
0.00029891283
-0.00064317728
0.0010620608
-0.0032349062
-0.0042414126
-0.0054752368
-0.0069745467
-0.0087850181
-0.010960759
-0.013555659
-0.016591219
-0.020110818
-0.023827672
-0.027853237
-0.03214406
-0.036588629
-0.041149144
-0.045654332
-0.049911082
-0.053714512
-0.056862291
-0.059170875
-0.060491479
-0.060723465
-0.059828256
-0.057836395
-0.054849094
-0.051028794
-0.046581827
-0.041735806
-0.036715551
-0.031723112
-0.026923329
-0.022438858
-0.018350743
-0.014703607
-0.011520354
-0.0087891718
-0.0065279546
-0.0046643424
-0.003319231
-0.0022450691
-0.0032056871
-0.0024188136
-0.001780309
-0.0012726866
-0.00088868231
-0.00057806565
-0.00042876767
-0.00016077011
-0.00035180086
0.00021234021
-0.0005929323
0.00088311684
-0.0041655686
-0.0053386722
-0.0067656242
-0.008487148
-0.010553974
-0.013022299
-0.01594998
-0.01935592
-0.023282908
-0.0273766
-0.031737063
-0.036331616
-0.041025934
-0.045764658
-0.050353597
-0.05458256
-0.058237368
-0.061114957
-0.063040469
-0.063882569
-0.063565491
-0.062081669
-0.059496099
-0.055943581
-0.051615332
-0.046738448
-0.041551417
-0.036279961
-0.031118788
-0.026219764
-0.021690541
-0.017597142
-0.013971371
-0.010823396
-0.0081336635
-0.0059140464
-0.0040929237
-0.0027778051
-0.0016997492
-0.0041320383
-0.003205687
-0.0024442143
-0.0018305261
-0.0013418338
-0.00096721074
-0.00066287816
-0.00050676381
-0.00024731883
-0.0003963874
0.00012585517
-0.00054882598
0.0006939343
-0.0052522108
-0.0066103139
-0.0082500183
-0.010216488
-0.012563064
-0.015350075
-0.018636376
-0.022439297
-0.026796706
-0.031281305
-0.035973006
-0.040857495
-0.045775307
-0.050652491
-0.055272359
-0.05941069
-0.0628476
-0.065384149
-0.066859189
-0.067163401
-0.066249919
-0.064144969
-0.060949386
-0.056830836
-0.052007147
-0.046722754
-0.041222934
-0.035730245
-0.030428725
-0.025455363
-0.020902307
-0.016820241
-0.013227112
-0.01012082
-0.0074790565
-0.0053099108
-0.0035318658
-0.0022117793
-0.0011295985
-0.0052138153
-0.0041320382
-0.0032349054
-0.0025021491
-0.0019101521
-0.0014343454
-0.0010653506
-0.00076503007
-0.00059719541
-0.00034044653
-0.00043830727
3.9665281e-05
-0.00051777725
0.00049753989
-0.0065118731
-0.0080738475
-0.0099478612
-0.012181809
-0.014833049
-0.017963923
-0.021634673
-0.025858774
-0.030668503
-0.035552471
-0.040565845
-0.045720015
-0.050827254
-0.055794817
-0.060385503
-0.064364175
-0.067509947
-0.069632969
-0.070591261
-0.070301458
-0.068749383
-0.065997474
-0.062182551
-0.057503897
-0.052203157
-0.046538169
-0.040756559
-0.035073676
-0.029660284
-0.024637466
-0.020081
-0.016024299
-0.012471702
-0.0094157516
-0.0068352405
-0.0047176178
-0.0029326255
-0.0016238469
-0.00054817383
-0.0064679668
-0.0052138149
-0.0041655679
-0.0033012854
-0.0025939497
-0.0020167732
-0.0015501402
-0.0011835163
-0.00088393832
-0.00069236908
-0.00043674172
-0.0004808377
-5.1656887e-05
-0.00049257265
0.0003058039
-0.0079620485
-0.0097484045
-0.011878321
-0.014403467
-0.01738371
-0.02088338
-0.024962758
-0.029631577
-0.03491018
-0.040196842
-0.045516824
-0.050912573
-0.05616674
-0.061168767
-0.065663072
-0.069407857
-0.072186276
-0.073823125
-0.07420058
-0.073265152
-0.071038562
-0.06762095
-0.063184569
-0.057958469
-0.052204658
-0.046189822
-0.040159323
-0.034318027
-0.02882182
-0.023774229
-0.019231585
-0.015209839
-0.011709171
-0.0087226022
-0.0062047713
-0.0040607177
-0.0023204678
-0.0010203429
4.306435e-05
-0.0079119783
-0.0064679667
-0.0052522105
-0.0042414118
-0.0034063706
-0.0027170284
-0.0021502806
-0.0016897657
-0.0013213857
-0.0010098606
-0.00078536838
-0.00053786243
-0.00054873183
-0.00014663611
-0.0004562491
0.00012565747
-0.0096216762
-0.01165306
-0.014061423
-0.016901126
-0.020234483
-0.024126782
-0.028638012
-0.033769537
-0.039528675
-0.045218693
-0.050822014
-0.056422986
-0.061773443
-0.066746289
-0.071070657
-0.074503063
-0.076836257
-0.077915428
-0.077651475
-0.076024456
-0.073094522
-0.068999854
-0.063947298
-0.058193021
-0.05201504
-0.045683958
-0.039439073
-0.033472586
-0.027922883
-0.022871338
-0.018354126
-0.014381953
-0.010959621
-0.0080444543
-0.0054760313
-0.0034005186
-0.0016866171
-0.00040619366
0.00064419494
-0.009564697
-0.0079119784
-0.0065118725
-0.0053386713
-0.0043613463
-0.0035473861
-0.0028713065
-0.0023112495
-0.0018527575
-0.0014678902
-0.0011366015
-0.00090095633
-0.00065492453
-0.00062693545
-0.00025478699
-0.00042043141
-3.5792877e-05
-0.011509763
-0.0138076
-0.016516696
-0.019694099
-0.023403777
-0.027711475
-0.032672631
-0.038282483
-0.044530042
-0.050616611
-0.05647191
-0.062233592
-0.067621654
-0.072494375
-0.076569685
-0.079608268
-0.08141805
-0.08187071
-0.080909318
-0.078551547
-0.074896916
-0.070121657
-0.064465685
-0.058208467
-0.051639092
-0.045028016
-0.03860584
-0.032548328
-0.026969835
-0.021928216
-0.017455063
-0.013568028
-0.010226624
-0.0072226908
-0.0047569025
-0.0027111549
-0.0010415623
0.00021994636
0.0012544204
-0.011445106
-0.0095646968
-0.007962048
-0.0066103132
-0.0054752357
-0.0045224229
-0.0037242563
-0.0030574703
-0.0024991028
-0.0020256012
-0.0016128565
-0.0012732312
-0.0010539856
-0.00077568936
-0.00070632383
-0.00037604129
-0.00039791322
-0.00017158002
-0.013645933
-0.016231423
-0.019263309
-0.02280073
-0.026908813
-0.031650758
-0.03707934
-0.043178144
-0.049914045
-0.056383784
-0.062451324
-0.068321298
-0.073680329
-0.078375232
-0.082118119
-0.08467962
-0.085889134
-0.085650347
-0.083941659
-0.080821138
-0.076428388
-0.070977162
-0.064737426
-0.05800737
-0.051083224
-0.04423247
-0.037671972
-0.031552145
-0.025961163
-0.020952966
-0.016570387
-0.012772108
-0.009293686
-0.0064250718
-0.0039981798
-0.002010698
-0.00038286337
0.00085625005
0.0018733364
-0.013572756
-0.011445105
-0.009621676
-0.008073847
-0.0067656229
-0.0056587879
-0.0047245454
-0.0039377143
-0.0032748118
-0.0026982436
-0.0021988002
-0.0017652566
-0.0014457888
-0.0011981999
-0.0009079309
-0.00079522783
-0.00050071162
-0.00039360335
-0.00027768496
-0.016049493
-0.018943564
-0.022319501
-0.026238133
-0.030763777
-0.035957521
-0.041866013
-0.048458395
-0.055675517
-0.062507577
-0.068739704
-0.074657503
-0.079912995
-0.084347125
-0.087670813
-0.089671678
-0.090207244
-0.089216636
-0.08671836
-0.082810867
-0.077675097
-0.071560147
-0.064762025
-0.057594345
-0.0503579
-0.043310868
-0.036644606
-0.030481139
-0.024906979
-0.019991819
-0.01570492
-0.011705757
-0.0084017381
-0.0055749864
-0.0032296022
-0.0012955945
0.00028667228
0.0015024435
0.0025002801
-0.015966911
-0.013572756
-0.011509763
-0.0097484038
-0.008250017
-0.006974545
-0.0058892008
-0.0049683773
-0.0041867102
-0.0035050977
-0.0028969654
-0.0023721082
-0.0019647071
-0.0016185182
-0.0013447111
-0.001056901
-0.00089670758
-0.00062637194
-0.00040926468
-0.00035368045
-0.01873938
-0.021962154
-0.025702265
-0.03002094
-0.034981534
-0.04064057
-0.047036391
-0.054120883
-0.061803603
-0.068970261
-0.075311027
-0.081207399
-0.086279001
-0.090364462
-0.093180148
-0.094538495
-0.094330649
-0.092534703
-0.08921196
-0.084501956
-0.078626356
-0.071866225
-0.06454144
-0.056979291
-0.049477592
-0.042270133
-0.035518794
-0.029347793
-0.023865756
-0.019050701
-0.014482319
-0.010699528
-0.0074413537
-0.0047168072
-0.0024452446
-0.00056939283
0.00096699689
0.002157398
0.0031346608
-0.018646469
-0.015966911
-0.013645932
-0.01165306
-0.0099478603
-0.0084871466
-0.0072369214
-0.006167113
-0.00525229
-0.004450121
-0.0037361654
-0.0030894357
-0.0025950715
-0.0021652675
-0.001797664
-0.0015088487
-0.0012187408
-0.0010113481
-0.00075221727
-0.0004447574
-0.00040259855
-0.02173364
-0.025304068
-0.029426436
-0.034162088
-0.039571587
-0.04570497
-0.052590224
-0.06015761
-0.068282897
-0.075749018
-0.082131844
-0.08793214
-0.09273328
-0.096378143
-0.098597209
-0.099234631
-0.09821862
-0.095572059
-0.091398201
-0.085878906
-0.079273184
-0.071893806
-0.064084343
-0.056177178
-0.048448304
-0.041102305
-0.034309758
-0.028225287
-0.022844911
-0.017645988
-0.01334119
-0.0096056748
-0.0064754194
-0.0038429716
-0.0016494282
0.000167865
0.0016565818
0.0028203054
0.003775835
-0.021629442
-0.018646468
-0.016049492
-0.0138076
-0.01187832
-0.010216486
-0.0087850157
-0.0075533914
-0.0064905528
-0.0055531991
-0.0047158912
-0.00395203
-0.0033392414
-0.0028219338
-0.0023693881
-0.0019983153
-0.0016904807
-0.0013917115
-0.0011389117
-0.00087759094
-0.00049810453
-0.00043026447
-0.025049062
-0.02898421
-0.033504969
-0.038671466
-0.0445399
-0.051151967
-0.058521905
-0.066556173
-0.075094101
-0.082811821
-0.089165359
-0.09478832
-0.099225961
-0.10233699
-0.10387292
-0.10371523
-0.10183396
-0.098298862
-0.093256279
-0.086927518
-0.079609582
-0.071649643
-0.063405709
-0.055192131
-0.047257744
-0.039825714
-0.03310843
-0.027122983
-0.021229878
-0.016346837
-0.012089409
-0.0085100036
-0.0054942129
-0.0029580621
-0.00084282243
0.00091443301
0.0023544538
0.0034901174
0.0044232406
-0.024932578
-0.021629442
-0.01873938
-0.016231422
-0.014061422
-0.012181807
-0.010553972
-0.0091441821
-0.0079216874
-0.0068336712
-0.0058645463
-0.0049561822
-0.0042287973
-0.0035943014
-0.0030530654
-0.0025970325
-0.0022183429
-0.0018882537
-0.0015750059
-0.0012785955
-0.0010021174
-0.00056580159
-0.00044404261
-0.028700553
-0.033015499
-0.037947934
-0.043555599
-0.049888748
-0.056977945
-0.064821289
-0.073304142
-0.082205808
-0.090125125
-0.096370633
-0.1017262
-0.10570417
-0.10818905
-0.10895859
-0.10793681
-0.10514472
-0.10069
-0.094766575
-0.08763653
-0.07963973
-0.07114822
-0.062506505
-0.054005731
-0.045927698
-0.038552775
-0.031926618
-0.025266574
-0.019747504
-0.014909509
-0.010840834
-0.0073999307
-0.0045026737
-0.0020626933
-2.6916035e-05
0.0016691271
0.0030592402
0.0041664119
0.0050760608
-0.028570779
-0.024932577
-0.02173364
-0.018943563
-0.016516694
-0.014403465
-0.012563062
-0.010960756
-0.0095619739
-0.0083129754
-0.0071894984
-0.0061371618
-0.0052611145
-0.0045112482
-0.0038522013
-0.0033107325
-0.0028467641
-0.0024552645
-0.0021007124
-0.0017674287
-0.0014289973
-0.0011257329
-0.00064346569
-0.00045128603
-0.032700987
-0.03740807
-0.04276218
-0.048817416
-0.055615904
-0.063174883
-0.071476894
-0.080375036
-0.089586981
-0.097652063
-0.10369854
-0.10869173
-0.11211413
-0.11388207
-0.11380693
-0.11185986
-0.10811924
-0.10272152
-0.09591224
-0.088007015
-0.079377185
-0.070385852
-0.061359804
-0.052643571
-0.044596609
-0.037298302
-0.029795026
-0.023573687
-0.018094059
-0.013482044
-0.0095791578
-0.0062807697
-0.0035012913
-0.0011584677
0.00079645673
0.0024302976
0.0037709437
0.0048479537
0.0057335783
-0.032556904
-0.028570779
-0.025049061
-0.021962153
-0.019263308
-0.016901125
-0.014833047
-0.013022296
-0.011433645
-0.010006385
-0.0087199939
-0.0074912202
-0.006469344
-0.0055718091
-0.0047956425
-0.0041388083
-0.00359263
-0.0031158859
-0.0027070437
-0.0023256445
-0.0019671905
-0.001588126
-0.0012485703
-0.00072661616
-0.00045794985
-0.037060514
-0.042168919
-0.047950992
-0.054455597
-0.061714928
-0.069731858
-0.078466601
-0.087735177
-0.097206155
-0.10534567
-0.11109303
-0.11563076
-0.11840081
-0.11936455
-0.11837229
-0.11544974
-0.11072506
-0.10436957
-0.096691271
-0.088051578
-0.078811956
-0.069323953
-0.059995428
-0.051275653
-0.043282891
-0.034855234
-0.027862274
-0.021670269
-0.016459089
-0.012043293
-0.0083101455
-0.0051527841
-0.0024917673
-0.00024764942
0.0016257946
0.0031988159
0.004487266
0.0055339602
0.0063950678
-0.036901107
-0.032556904
-0.028700552
-0.025304067
-0.0223195
-0.019694097
-0.017383707
-0.015350071
-0.013555655
-0.011937531
-0.010469971
-0.0090529358
-0.0078523873
-0.0068067372
-0.0058826753
-0.0051111269
-0.0044514668
-0.0038952024
-0.0034019479
-0.0029713471
-0.00256055
-0.0021722512
-0.0017535511
-0.0013707863
-0.00081134665
-0.00046735092
-0.041786178
-0.047301517
-0.053513617
-0.060464703
-0.068175473
-0.07663044
-0.085758874
-0.095362323
-0.10502239
-0.11314698
-0.11850091
-0.12248671
-0.1245091
-0.12458761
-0.12261467
-0.11867212
-0.11293203
-0.10562711
-0.09711593
-0.087752436
-0.077890176
-0.067996558
-0.058622069
-0.049924497
-0.040490027
-0.032651701
-0.025671561
-0.019796309
-0.014815178
-0.010599553
-0.0070337267
-0.0040177011
-0.0014767432
0.00066811906
0.0024633919
0.0039713773
0.0052073046
0.0062232712
0.0070598336
-0.041610449
-0.036901107
-0.032700987
-0.028984209
-0.025702263
-0.022800728
-0.020234481
-0.017963919
-0.015949975
-0.014124879
-0.012464235
-0.010835489
-0.0094419196
-0.0082174247
-0.0071426575
-0.0062264242
-0.005454104
-0.0047859851
-0.0042152672
-0.0037017945
-0.0032454075
-0.0028028307
-0.0023805011
-0.0019225868
-0.0014923732
-0.00089431266
-0.00048134233
-0.046881525
-0.052805398
-0.059445179
-0.066835068
-0.074980848
-0.083847561