/*--------------------------------*- C++ -*----------------------------------*\
| =========                 |                                                 |
| \\      /  F ield         | OpenFOAM: The Open Source CFD Toolbox           |
|  \\    /   O peration     | Version:  5.0                                   |
|   \\  /    A nd           | Web:      www.OpenFOAM.org                      |
|    \\/     M anipulation  |                                                 |
\*---------------------------------------------------------------------------*/
FoamFile
{
    version     2.0;
    format      ascii;
    class       surfaceScalarField;
    location    "210";
    object      phi;
}
// * * * * * * * * * * * * * * * * * * * * * * * * * * * * * * * * * * * * * //

dimensions      [0 3 -1 0 0 0 0];

internalField   nonuniform List<scalar> 
18180
(
0.0014366081
-1.3949514
0.0027777354
-1.3048491
0.0013903061
-1.3963417
0.004024544
-1.2208643
0.0026822833
-1.3061411
0.0013417682
-1.3976835
0.0051854667
-1.1424476
0.0038890022
-1.222071
0.0025923883
-1.3073917
0.0012976442
-1.3989811
0.0062604268
-1.0692145
0.0050131643
-1.1435718
0.0037619357
-1.2232405
0.0025086206
-1.3086027
0.0012527585
-1.4002339
0.0072542624
-1.0007518
0.0060572345
-1.0702586
0.0048528044
-1.1446626
0.0036446005
-1.2243765
0.0024251619
-1.3097751
0.0012077332
-1.4014416
0.0081680871
-0.93671631
0.0070239619
-1.0017185
0.0058688633
-1.0712746
0.004708403
-1.1457264
0.0035282004
-1.2254796
0.0023412588
-1.3109086
0.0011606169
-1.4026022
0.0090050597
-0.876789
0.0079151685
-0.93760751
0.0068119252
-1.0026616
0.0057037306
-1.0722699
0.0045655945
-1.1467638
0.0034120514
-1.2265504
0.0022538493
-1.3120018
0.0011109858
-1.4037132
0.0097677581
-0.82068648
0.0087330867
-0.87760692
0.0076839949
-0.93847958
0.0066323145
-1.0035902
0.0055410887
-1.0732454
0.0044249239
-1.1477767
0.0032912838
-1.2275878
0.0021615533
-1.3130524
0.0010581771
-1.4047714
0.010459624
-0.76814735
0.009479994
-0.82143339
0.0084867632
-0.87840969
0.0074957006
-0.93934297
0.0064562017
-1.0045053
0.0053835754
-1.0742041
0.0042787285
-1.1487641
0.0031637916
-1.22859
0.0020631133
-1.3140573
0.0010014199
-1.4057728
0.011084633
-0.71893749
0.010158516
-0.76882588
0.0092222651
-0.82216889
0.0082951036
-0.87920909
0.0073120372
-0.94019881
0.0062895068
-1.0054112
0.0052198897
-1.0751452
0.0041247281
-1.1497251
0.0030269648
-1.2295539
0.0019571205
-1.315013
0.00094053099
-1.4067133
0.011647888
-0.67283754
0.010771605
-0.71955058
0.0098928158
-0.76949643
0.009031935
-0.82290572
0.0081092397
-0.88000629
0.0071433517
-0.94105265
0.0061161686
-1.0063075
0.0050482561
-1.0760688
0.0039589892
-1.1506571
0.002879277
-1.230476
0.0018430749
-1.3159156
0.00087540385
-1.4075887
0.012156273
-0.62964339
0.011322851
-0.67338879
0.01050123
-0.72015899
0.0097078419
-0.77017233
0.0088485574
-0.82364504
0.0079451238
-0.88080806
0.0069677303
-0.94190421
0.0059357035
-1.007195
0.0048627456
-1.0769725
0.0037793728
-1.1515572
0.0027201812
-1.2313531
0.0017206487
-1.3167608
0.0008061817
-1.4083949
0.012619512
-0.58915617
0.011817153
-0.63013769
0.011051069
-0.67393863
0.010324897
-0.72077605
0.0095309443
-0.77085472
0.008694825
-0.82439474
0.0077737473
-0.88161408
0.0067867007
-0.94275521
0.0057394238
-1.0080716
0.004660635
-1.0778538
0.0035844917
-1.1524215
0.0025485252
-1.232181
0.0015900675
-1.3175447
0.00073316015
-1.4091281
0.01305114
-0.55117148
0.012262158
-0.58960117
0.011547179
-0.6306338
0.010885778
-0.67449951
0.010157819
-0.72140292
0.0093926008
-0.7715525
0.0085334601
-0.82515445
0.0076000512
-0.88242743
0.0065882308
-0.94360402
0.0055248046
-1.0089358
0.0044402127
-1.0787095
0.0033730026
-1.153246
0.0023646611
-1.2329556
0.0014518109
-1.3182633
0.00065678471
-1.4097849
0.013469079
-0.51546947
0.012670372
-0.5515797
0.011996768
-0.59005076
0.011394221
-0.63114224
0.010731226
-0.67507291
0.010039
-0.72204932
0.0092461255
-0.77226516
0.0083740918
-0.82592849
0.0074073782
-0.88324658
0.006370679
-0.94444989
0.005288743
-1.0097843
0.0041990699
-1.0795356
0.0031456218
-1.1540269
0.0021690644
-1.2336729
0.0013066824
-1.3189132
0.00057761568
-1.4103625
0.013893657
-0.48180677
0.013060873
-0.51585997
0.012410964
-0.55199389
0.011856044
-0.59051259
0.011254254
-0.63166527
0.010635102
-0.67566902
0.0099113914
-0.72271459
0.0091071223
-0.77299819
0.0081943236
-0.82671544
0.0071957659
-0.88407167
0.0061285798
-0.94528973
0.0050283512
-1.0106136
0.0039380495
-1.080328
0.0029019152
-1.1547598
0.0019628526
-1.234329
0.0011557028
-1.3194913
0.00049630989
-1.4108588
0.014344073
-0.44991662
0.013459142
-0.48220504
0.012806111
-0.51625511
0.012280836
-0.55241868
0.011731908
-0.59099024
0.011182873
-0.63221304
0.010529466
-0.67628709
0.009797774
-0.72340524
0.0089464192
-0.77375029
0.0079967437
-0.82751642
0.0069567954
-0.88489988
0.0058592433
-0.94612062
0.0047440932
-1.0114197
0.0036560168
-1.0810821
0.0026437874
-1.1554407
0.0017473399
-1.2349207
0.001000096
-1.3199951
0.0004135823
-1.4112724
0.014833474
-0.4195301
0.013894302
-0.45035178
0.013203595
-0.48260253
0.012683747
-0.51665802
0.012172587
-0.55285936
0.011685938
-0.5914933
0.011101468
-0.63278504
0.010445192
-0.67693451
0.0096612862
-0.72412011
0.0087700229
-0.77452357
0.0077693039
-0.82832893
0.0066883586
-0.885729
0.0055619654
-0.94693849
0.0044341424
-1.0121978
0.0033554313
-1.0817938
0.0023722188
-1.1560656
0.0015242553
-1.2354448
0.0008412091
-1.3204227
0.00033017254
-1.4116026
0.015363744
-0.39040563
0.014392605
-0.42002841
0.013627742
-0.45077593
0.013086043
-0.48300482
0.012589741
-0.51707518
0.012151027
-0.55332445
0.011630113
-0.59202195
0.011049347
-0.6333892
0.010337058
-0.67761028
0.0095121635
-0.72486225
0.0085616147
-0.77531588
0.0075109307
-0.8291515
0.0063880556
-0.88655509
0.0052346523
-0.947739
0.0041011996
-1.0129436
0.003036632
-1.0824582
0.002089742
-1.1566311
0.0012954702
-1.2358991
0.00068047188
-1.320773
0.00024683896
-1.4118494
0.015922688
-0.36236119
0.014969551
-0.39098257
0.014100342
-0.42050101
0.013513644
-0.45120353
0.013002575
-0.48341766
0.012589842
-0.51751399
0.012121014
-0.55381535
0.011611641
-0.59258424
0.010972694
-0.63402483
0.010220196
-0.67831831
0.0093292714
-0.7256299
0.0083216299
-0.77612658
0.0072170579
-0.8299805
0.0060537558
-0.88737419
0.004879569
-0.94851737
0.003745008
-1.0136519
0.0027031126
-1.0830715
0.001798262
-1.1571339
0.0010630939
-1.2362817
0.00051936404
-1.3210456
0.0001643926
-1.4120138
0.016484646
-0.33529825
0.015623404
-0.36301504
0.014634008
-0.39151624
0.013991783
-0.42097914
0.013435099
-0.45163606
0.013020268
-0.48384808
0.012584441
-0.51797742
0.012136111
-0.55433982
0.011568523
-0.59318007
0.010891906
-0.63469654
0.010068242
-0.67905728
0.0091150205
-0.72642329
0.008042913
-0.77695243
0.0068857188
-0.83081246
0.0056868172
-0.88818144
0.0044961108
-0.94926847
0.0033695609
-1.0143184
0.0023564447
-1.0836297
0.001500695
-1.1575715
0.00082929551
-1.2365916
0.00035941099
-1.3212406
8.3743515e-05
-1.4120975
0.01701441
-0.30920751
0.016332651
-0.3360075
0.015226611
-0.36360764
0.014537703
-0.39206216
0.0139116
-0.42145564
0.013465989
-0.45208178
0.013036672
-0.48430031
0.012631216
-0.51847252
0.012127335
-0.55489863
0.011526342
-0.59381451
0.010775212
-0.63540351
0.0098859784
-0.67982824
0.0088592938
-0.72723967
0.0077238782
-0.77779059
0.0065169951
-0.83164264
0.0052863915
-0.88897172
0.0040882479
-0.94998716
0.0029761504
-1.0149381
0.0020005352
-1.0841296
0.0011994749
-1.1579417
0.00059642212
-1.2368287
0.00020218055
-1.321359
5.9800645e-06
-1.4121035
0.017473134
-0.2841557
0.017058286
-0.30993314
0.01585906
-0.33663995
0.015153918
-0.36422386
0.014449947
-0.39260051
0.013952382
-0.42194204
0.013500015
-0.45254512
0.013111509
-0.48478061
0.012656079
-0.51900127
0.01212481
-0.5554971
0.011448072
-0.59448737
0.010630044
-0.63614758
0.0096600633
-0.68062901
0.0085611077
-0.7280769
0.0073630091
-0.77863661
0.0061098375
-0.83246609
0.0048560369
-0.88973951
0.0036571047
-0.95066812
0.0025693219
-1.0155069
0.0016378538
-1.0845679
0.00089797729
-1.1582432
0.00036628076
-1.2369928
4.9650156e-05
-1.3214027
-6.7412304e-05
-1.4120361
0.017824561
-0.26025999
0.017749952
-0.28484737
0.016497346
-0.31057143
0.01582471
-0.33731074
0.015054807
-0.36482872
0.014499725
-0.39314785
0.013999328
-0.42244135
0.013598109
-0.45303172
0.013167649
-0.48529218
0.012692525
-0.51956898
0.012086806
-0.55613584
0.011343848
-0.59520117
0.010439675
-0.63692719
0.0093903346
-0.68145824
0.0082170842
-0.72893098
0.0069590998
-0.77948587
0.0056670835
-0.83327713
0.0043967079
-0.89047911
0.0032074727
-0.95130627
0.0021515843
-1.0160206
0.0012723837
-1.0849423
0.00059840977
-1.1584754
0.00014159922
-1.2370847
-9.7744828e-05
-1.3213724
-0.00014133206
-1.4118948
0.018040225
-0.2376563
0.018353914
-0.26086395
0.017098133
-0.28544815
0.016517217
-0.31126394
0.015713469
-0.3379694
0.015115777
-0.36544477
0.014555693
-0.39370421
0.014115795
-0.42295904
0.013681698
-0.45354577
0.013240544
-0.4858402
0.012695054
-0.52017723
0.012025949
-0.55681794
0.011193582
-0.59595508
0.010204936
-0.63774179
0.0090713269
-0.68231248
0.0078259161
-0.72979779
0.0065139975
-0.78033278
0.00518946
-0.83406989
0.0039131371
-0.89118477
0.0027419517
-0.95189663
0.0017275677
-1.0164758
0.00090690221
-1.0852508
0.00030369522
-1.1586374
-7.7093413e-05
-1.2371054
-0.0002403339
-1.3212734
-0.00021050671
-1.4116843
0.018102759
-0.21646937
0.018820888
-0.23812327
0.017615839
-0.26138166
0.01718677
-0.2861177
0.01639596
-0.31194643
0.015790739
-0.33864436
0.015178908
-0.36606798
0.014687004
-0.39427542
0.014222353
-0.42349969
0.013786933
-0.45409216
0.013282084
-0.48642723
0.012678298
-0.52082958
0.011919003
-0.55754336
0.010999189
-0.59674933
0.00991815
-0.63858861
0.0087017058
-0.68318827
0.0073882262
-0.73067202
0.0060281345
-0.78117146
0.004681379
-0.83483813
0.003407964
-0.89185079
0.0022656144
-0.95243468
0.0013004286
-1.0168693
0.00054497544
-1.0854921
1.5766918e-05
-1.1587303
-0.00028794781
-1.2370577
-0.00037597668
-1.3211079
-0.00027587171
-1.4114084
0.018006391
-0.19679221
0.019112434
-0.21676092
0.018009204
-0.23851663
0.017784439
-0.26197933
0.017059258
-0.286781
0.016496683
-0.31265237
0.015861766
-0.33932722
0.015324078
-0.36670506
0.014812619
-0.39486569
0.014355084
-0.42406784
0.01386425
-0.45467432
0.013308262
-0.48705719
0.012616298
-0.52152687
0.011768951
-0.55831312
0.010750727
-0.59758191
0.0095780177
-0.63946493
0.0082806794
-0.68408072
0.0069040932
-0.73154798
0.0055053581
-0.78199543
0.0041454129
-0.83557558
0.0028864931
-0.89247167
0.0017819851
-0.95291624
0.00087448683
-1.0171988
0.00018931081
-1.0856657
-0.00026306993
-1.1587552
-0.00048954509
-1.2369442
-0.00050431841
-1.3208794
-0.00033648498
-1.4110719
0.017752119
-0.1786704
0.019205635
-0.19688541
0.018246432
-0.21699815
0.018264364
-0.23899656
0.017654634
-0.2625747
0.017191524
-0.28747584
0.016578562
-0.31336917
0.016022785
-0.34002593
0.015466591
-0.36735903
0.014968555
-0.39547916
0.014463886
-0.42466748
0.01393035
-0.45529641
0.013290978
-0.48773187
0.01251296
-0.52227088
0.011563643
-0.55912604
0.010446993
-0.59845088
0.009182188
-0.64036643
0.0078079269
-0.68498456
0.0063765777
-0.7324192
0.0049480476
-0.78279807
0.0035868867
-0.83627597
0.0023525431
-0.89304222
0.0012960058
-0.95333775
0.00045306427
-1.0174626
-0.00015703796
-1.0857717
-0.00053084319
-1.1587139
-0.00068059839
-1.2367679
-0.00062420919
-1.3205917
-0.00039242306
-1.4106795
0.017354011
-0.16212005
0.019098459
-0.17856322
0.018309177
-0.19694815
0.018589279
-0.21732306
0.018135894
-0.23947782
0.017826057
-0.26320924
0.017288526
-0.28818581
0.016759851
-0.31410623
0.016182425
-0.34074176
0.015643262
-0.36803374
0.015104666
-0.39611994
0.014565676
-0.4253028
0.013955637
-0.45596107
0.013234817
-0.48845373
0.012354092
-0.52306133
0.011301993
-0.55998104
0.010083989
-0.59935268
0.0087299154
-0.64128842
0.0072855255
-0.6858935
0.0058077343
-0.73327889
0.0043613298
-0.78357251
0.0030097938
-0.83693322
0.0018115366
-0.89355775
0.00081158384
-0.95369627
3.9973971e-05
-1.0176596
-0.00049156896
-1.085811
-0.000785775
-1.1586087
-0.00085997522
-1.2365321
-0.00073534484
-1.3202488
-0.00044351089
-1.410236
0.015152308
-0.17242238
0.018790852
-0.16181244
0.01819504
-0.17844908
0.018732235
-0.19709111
0.018465538
-0.2176527
0.018351892
-0.24000365
0.017942529
-0.26386324
0.017495492
-0.28892145
0.016939067
-0.31486287
0.016379875
-0.34147838
0.015803893
-0.36873296
0.015237846
-0.39679211
0.014629963
-0.42597713
0.013945108
-0.45667136
0.013123819
-0.48922345
0.012138704
-0.52389804
0.010978322
-0.56087537
0.0096605262
-0.60028329
0.0082221271
-0.64222502
0.0067150828
-0.68680085
0.005202276
-0.73411983
0.0037492268
-0.78431194
0.0024198769
-0.83754156
0.0012679057
-0.89401408
0.00033325041
-0.95398955
-0.00036165881
-1.0177895
-0.00081184242
-1.0857849
-0.001026346
-1.1584423
-0.0010269015
-1.2362406
-0.00083729718
-1.319855
-0.00048973735
-1.4097462
0.013233955
-0.16675324
0.016731296
-0.17036282
0.017904059
-0.16152146
0.01867508
-0.17839193
0.018618866
-0.19724444
0.01872799
-0.2180288
0.018490874
-0.240552
0.018180028
-0.26454778
0.017698109
-0.28968049
0.017159633
-0.31564263
0.016564456
-0.34223894
0.015965431
-0.36946055
0.015337189
-0.39749934
0.014661918
-0.42669394
0.013881378
-0.45742892
0.01295703
-0.49004178
0.011859472
-0.52477919
0.010590995
-0.56180584
0.0091762574
-0.60123742
0.0076598794
-0.64316982
0.0061006915
-0.68769927
0.0045640903
-0.7349347
0.0031176175
-0.78500969
0.0018219954
-0.83809565
0.00072683614
-0.89440766
-0.00013520072
-0.95421601
-0.00074869229
-1.0178527
-0.001115869
-1.0856954
-0.001251365
-1.1582179
-0.0011807677
-1.2358971
-0.00092995069
-1.3194148
-0.00053114311
-1.4092151
0.011509521
-0.16105241
0.014911176
-0.16493312
0.015924006
-0.16838277
0.018423937
-0.16127031
0.018584918
-0.17835798
0.018924722
-0.19744117
0.018890778
-0.21842871
0.018762215
-0.24113419
0.018409998
-0.26525967
0.017945418
-0.29046628
0.017369809
-0.31644799
0.016753482
-0.34302699
0.016096834
-0.37022019
0.015407889
-0.39824531
0.014643115
-0.42745568
0.01376345
-0.45823534
0.012725577
-0.49090788
0.0115143
-0.5257025
0.010138303
-0.56276788
0.0086315973
-0.60220914
0.0070464533
-0.64411558
0.0054459372
-0.68858112
0.0038989944
-0.73571607
0.0024716601
-0.78565935
0.0012218956
-0.83859071
0.00019279448
-0.89473566
-0.00058988992
-0.95437481
-0.0011185363
-1.01785
-0.0014019287
-1.0855448
-0.001459919
-1.1579387
-0.0013212491
-1.2355058
-0.0010132715
-1.3189327
-0.00056779468
-1.4086473
0.0098962255
-0.15549562
0.013221114
-0.15936235
0.014177196
-0.16318631
0.016522584
-0.16648142
0.01836237
-0.16104777
0.018925209
-0.17835847
0.019111532
-0.19766192
0.019196827
-0.21886332
0.019022389
-0.24174658
0.018687631
-0.26600188
0.01818425
-0.29128072
0.017587669
-0.31728217
0.016915898
-0.34384605
0.016203282
-0.37101559
0.01543084
-0.39903303
0.014572437
-0.42826466
0.01358106
-0.45909082
0.012426885
-0.49182047
0.011100076
-0.52666427
0.009619948
-0.56375623
0.0080288536
-0.60319154
0.0063849729
-0.64505462
0.004756369
-0.68943849
0.0032122866
-0.7364567
0.0018175307
-0.78625498
0.0006246742
-0.83902259
-0.00032959096
-0.89499595
-0.0010275369
-0.95446581
-0.0014688554
-1.0177831
-0.0016687033
-1.085336
-0.0016514034
-1.1576086
-0.0014481973
-1.2350709
-0.0010873599
-1.3184131
-0.00059983287
-1.4080475
0.0083258677
-0.15026889
0.011568129
-0.15384264
0.012561554
-0.15774671
0.014829789
-0.16149352
0.01653701
-0.16465606
0.018728607
-0.16085116
0.019136898
-0.17838383
0.019450015
-0.19791511
0.019488196
-0.21932913
0.019332679
-0.24239163
0.018958342
-0.26677597
0.018433686
-0.29212673
0.017782193
-0.31814847
0.017056921
-0.34469969
0.016265306
-0.37185005
0.015404767
-0.39986536
0.014438432
-0.42912204
0.013331141
-0.45999508
0.012056447
-0.49277684
0.010615734
-0.52766006
0.0090371311
-0.56476451
0.0073705404
-0.60417711
0.0056805147
-0.64597876
0.0040372491
-0.69026345
0.0025104146
-0.73714958
0.0011608724
-0.78679118
3.5692347e-05
-0.83938787
-0.00083629173
-0.8951872
-0.0014451004
-0.95448957
-0.0017978
-1.017654
-0.0019152026
-1.0850722
-0.0018254767
-1.1572313
-0.0015616661
-1.2345966
-0.0011524191
-1.3178605
-0.00062741066
-1.40742
0.0067479526
-0.14555865
0.0098788931
-0.14857965
0.010987279
-0.15226836
0.013238939
-0.15615586
0.014902592
-0.1598591
0.01696399
-0.16289144
0.018963563
-0.16067783
0.019501979
-0.1784358
0.019771536
-0.19819845
0.019831406
-0.21982785
0.01963744
-0.24307072
0.019242205
-0.26758449
0.018662839
-0.29300738
0.017958708
-0.31905025
0.017156978
-0.34559136
0.01628147
-0.37272675
0.015317244
-0.40074417
0.014237539
-0.43002843
0.013007834
-0.46094647
0.011612389
-0.49377349
0.010061269
-0.52868419
0.0083916249
-0.5657856
0.0066610677
-0.60515766
0.0049381189
-0.64687963
0.0032951117
-0.69104815
0.0017994445
-0.73778816
0.0005077163
-0.78726321
-0.00054026676
-0.8396839
-0.0013234943
-0.89530881
-0.0018400854
-0.95444728
-0.0021038809
-1.0174653
-0.0021407892
-1.0847569
-0.0019820552
-1.1568109
-0.0016618615
-1.2340871
-0.001208727
-1.3172792
-0.00065073127
-1.4067693
0.0051313567
-0.14154185
0.0081035493
-0.1437833
0.0093824136
-0.14697479
0.011656813
-0.15068624
0.013354257
-0.15460752
0.015368662
-0.15826377
0.017259107
-0.16118698
0.019348067
-0.16052392
0.019850854
-0.17851512
0.020145522
-0.19851257
0.020170513
-0.22036093
0.019957435
-0.24378595
0.019508679
-0.26843033
0.018877184
-0.29392585
0.018097799
-0.31999107
0.017214516
-0.34652441
0.016238578
-0.37364809
0.015164237
-0.40167087
0.013962646
-0.43098325
0.012608448
-0.46194253
0.011093436
-0.49480566
0.0094376009
-0.52973017
0.007687
-0.56681153
0.0059050695
-0.60612461
0.0041642069
-0.64774873
0.0025362918
-0.691785
0.0010859724
-0.73836641
-0.00013641376
-0.78766706
-0.0010985692
-0.83990882
-0.0017879567
-0.89536093
-0.002210385
-0.95434078
-0.0023860423
-1.01722
-0.0023451394
-1.0843938
-0.0021212738
-1.1563515
-0.0017491271
-1.2335467
-0.0012566403
-1.3166733
-0.00067000997
-1.4060993
0.0034636258
-0.13837521
0.0062178311
-0.13965613
0.0076978351
-0.14209872
0.010009893
-0.14532787
0.011798921
-0.1491309
0.013836955
-0.15307581
0.015708919
-0.15671358
0.017692873
-0.15953179
0.019719159
-0.16039222
0.020251169
-0.17862076
0.020517082
-0.19885914
0.020526369
-0.22092986
0.020262814
-0.24454009
0.019763307
-0.26931645
0.019057752
-0.29488581
0.018197847
-0.32097441
0.017215746
-0.34750158
0.016132168
-0.37461602
0.014937506
-0.40264573
0.013610245
-0.43198504
0.012130411
-0.4629795
0.010499568
-0.49586763
0.0087473099
-0.53079048
0.0069273071
-0.56783377
0.0051086495
-0.60706906
0.0033652032
-0.64857764
0.001767809
-0.69246683
0.00037620008
-0.73887903
-0.0007660678
-0.78799956
-0.0016351544
-0.84006162
-0.0022268462
-0.89534447
-0.0025543961
-0.95417242
-0.0026436016
-1.0169216
-0.0025282211
-1.0839869
-0.0022434624
-1.1558572
-0.0018239219
-1.2329794
-0.0012965626
-1.3160467
-0.0006854872
-1.4054138
0.0017482557
-0.13618567
0.0042218971
-0.13637927
0.0059085635
-0.13786686
0.0082490932
-0.14033792
0.010162614
-0.14369156
0.012275288
-0.14756923
0.014205323
-0.15157222
0.016173795
-0.1551945
0.018114527
-0.15792716
0.02013995
-0.160281
0.020651187
-0.17875487
0.020906235
-0.199239
0.020870271
-0.22153732
0.020558957
-0.24533574
0.019987957
-0.27024666
0.019202905
-0.29589087
0.01824464
-0.3220033
0.017155852
-0.34852526
0.01595301
-0.37563152
0.014632757
-0.40366824
0.013176491
-0.43303112
0.011572704
-0.46405264
0.0098322522
-0.49695257
0.0079937006
-0.53185687
0.0061181302
-0.56884325
0.004278127
-0.60798198
0.0025483801
-0.64935821
0.00099643316
-0.69308707
-0.00032364491
-0.73932145
-0.0013763285
-0.78825839
-0.0021463703
-0.8401421
-0.002637884
-0.89526099
-0.0028709479
-0.95394508
-0.0028762451
-1.0165735
-0.0026902599
-1.0835401
-0.0023491181
-1.155332
-0.0018867946
-1.2323892
-0.0013289422
-1.3154033
-0.00069741203
-1.4047164
-0.13506252
3.3780125e-08
0.0021370419
-0.13410081
0.0040136995
-0.13448441
0.006352304
-0.13597007
0.0083963882
-0.1385717
0.010609658
-0.14202593
0.012651068
-0.14601498
0.01468233
-0.15008075
0.01662975
-0.15370973
0.018579228
-0.15636644
0.020562475
-0.16019229
0.021068909
-0.17891754
0.021286042
-0.19965477
0.021207019
-0.22218538
0.020829048
-0.24617683
0.020180949
-0.2712247
0.019298196
-0.29694442
0.018233109
-0.32308056
0.017024741
-0.34959699
0.015696069
-0.37669483
0.014244922
-0.40473667
0.012659337
-0.43411776
0.010935596
-0.46515598
0.0090939061
-0.49805278
0.0071816504
-0.53292039
0.005265486
-0.56983061
0.0034208353
-0.60885444
0.0017209279
-0.65008271
0.00022909703
-0.69363981
-0.0010077901
-0.73968999
-0.0019626572
-0.7884421
-0.0026291504
-0.84015083
-0.0030192788
-0.89511265
-0.003159315
-0.95366201
-0.0030839848
-1.0161798
-0.0028317102
-1.0830575
-0.0024388747
-1.1547799
-0.0019383648
-1.2317798
-0.0013542545
-1.3147464
-0.00070604213
-1.4040104
-0.13292551
3.1599867e-08
-0.13506251
-0.0017481885
0.0020327817
-0.13211989
0.0043239168
-0.13245602
0.0064790618
-0.13405275
0.0087909705
-0.13675301
0.010970082
-0.14034494
0.013120077
-0.14445273
0.015153006
-0.14860401
0.01712086
-0.15225136
0.019045615
-0.15484958
0.021002377
-0.16012576
0.021480013
-0.17911151
0.021660075
-0.20010783
0.021521678
-0.22287801
0.021071259
-0.24706714
0.02032783
-0.27225433
0.019338429
-0.29804974
0.01815244
-0.32420826
0.016816708
-0.35071763
0.015355129
-0.37780504
0.013770935
-0.40584827
0.012057807
-0.43523997
0.010220502
-0.46628258
0.0082885282
-0.49915965
0.0063166735
-0.53397158
0.0043765617
-0.57078633
0.0025442103
-0.60967772
0.00089036296
-0.65074397
-0.00052762682
-0.69411997
-0.0016707851
-0.73998186
-0.00252111
-0.78855014
-0.0030809539
-0.84008916
-0.0033697554
-0.89490221
-0.0034191711
-0.95332682
-0.0032671325
-1.0157444
-0.0029532183
-1.0825432
-0.0025134743
-1.1542048
-0.0019793047
-1.2311547
-0.0013729932
-1.3140795
-0.00071163691
-1.4032987
-0.13089275
2.7419167e-08
-0.1329255
-0.0021369792
-0.13618566
-0.0034635595
0.0021915839
-0.12998756
0.0044169285
-0.13039389
0.0067991683
-0.13206094
0.0091130519
-0.13489598
0.011409009
-0.13863387
0.013583963
-0.14288368
0.015652435
-0.14713558
0.017614508
-0.15082025
0.019525886
-0.15337308
0.021438579
-0.16008433
0.021885913
-0.17933735
0.022015851
-0.200602
0.02181207
-0.22361882
0.021271404
-0.24801071
0.020423415
-0.27333932
0.019312233
-0.29920953
0.017996345
-0.32538789
0.016524468
-0.35188697
0.014926126
-0.37896023
0.013208558
-0.40699902
0.011372237
-0.4363917
0.0094304004
-0.46742445
0.0074209462
-0.50026393
0.005405605
-0.53500062
0.0034588459
-0.57170097
0.0016561908
-0.61044355
6.3980918e-05
-0.65133558
-0.0012673849
-0.69452337
-0.002307746
-0.74019522
-0.0030482845
-0.78858281
-0.0034998186
-0.83995909
-0.0036885121
-0.89463287
-0.0036505674
-0.95294339
-0.003426257
-1.0152714
-0.0030555874
-1.082001
-0.0025737446
-1.1536103
-0.0020103201
-1.2305174
-0.0013856603
-1.3134055
-0.00071445435
-1.4025843
-0.12870119
2.4456167e-08
-0.13089275
-0.0020327271
-0.1341008
-0.0042218354
-0.13837519
-0.0051312919
0.0022408039
-0.12781144
0.0046434777
-0.1282382
0.0070613023
-0.13000919
0.0094990916
-0.13298606
0.011843475
-0.13689339
0.014071565
-0.14130281
0.016154516
-0.14567559
0.018118882
-0.14941325
0.020003795
-0.1519383
0.021869623
-0.16006803
0.022277024
-0.17959852
0.022350609
-0.20114054
0.022064568
-0.22441198
0.021424421
-0.24901172
0.020455988
-0.27448308
0.019212868
-0.30042606
0.017756564
-0.32661999
0.016142994
-0.35310384
0.014405577
-0.38015725
0.012557009
-0.40818379
0.010604476
-0.43756578
0.0085692673
-0.46857277
0.0064974399
-0.50135576
0.0044557783
-0.53599756
0.0025205145
-0.57256529
0.00076466804
-0.61114423
-0.00075103654
-0.65185193
-0.001984336
-0.69484678
-0.0029143251
-0.74032918
-0.0035414018
-0.78854123
-0.0038843229
-0.83976328
-0.0039752053
-0.89430824
-0.0038538864
-0.95251576
-0.0035621441
-1.0147648
-0.0031397497
-1.081435
-0.002620572
-1.1530001
-0.0020321375
-1.2298709
-0.0013927573
-1.3127272
-0.00071474741
-1.4018695
-0.12646041
2.0999813e-08
-0.12870119
-0.0021915354
-0.13211988
-0.004013646
-0.13637926
-0.0062177713
-0.14154183
-0.0067478895
0.0023590326
-0.12552699
0.0048278461
-0.12600474
0.0073730965
-0.1278832
0.0098815298
-0.13102412
0.012297449
-0.13511927
0.014561471
-0.13970977
0.016664876
-0.14422158
0.018620944
-0.1480304
0.020475106
-0.15054378
0.022288568
-0.16007958
0.022649873
-0.17989779
0.022651563
-0.20172754
0.022274283
-0.22526185
0.021518496
-0.25007423
0.020418526
-0.27568873
0.019031236
-0.30170073
0.017427164
-0.32790416
0.015667579
-0.35436584
0.013791557
-0.3813918
0.011816935
-0.40939625
0.0097575183
-0.43875403
0.0076426405
-0.46971797
0.0055249776
-0.50242496
0.0034754048
-0.53695245
0.0015698869
-0.57337051
-0.00012243594
-0.61177283
-0.0015479062
-0.65228836
-0.0026731341
-0.69508797
-0.0034868158
-0.74038377
-0.0039982803
-0.78842727
-0.0042335849
-0.8395049
-0.0042299045
-0.89393222
-0.0040297987
-0.9520481
-0.0036757629
-1.0142288
-0.0032067309
-1.0808489
-0.0026548829
-1.1523773
-0.002045489
-1.2292182
-0.0013947791
-1.3120471
-0.0007127618
-1.4011568
-0.1241014
1.7917435e-08
-0.12646041
-0.0022407624
-0.12998755
-0.0043238692
-0.13448439
-0.0059085114
-0.13965611
-0.0081034916
-0.14555863
-0.0083258067
0.0024535359
-0.12315268
0.0050469451
-0.12367859
0.0076819734
-0.12568364
0.010279369
-0.12900604
0.012753278
-0.13331108
0.015057798
-0.13810269
0.017172755
-0.14277339
0.019115938
-0.14667123
0.020934302
-0.14918952
0.022691569
-0.16012127
0.022992727
-0.18023895
0.022913959
-0.20236721
0.022429575
-0.22617292
0.021546514
-0.25120221
0.020301289
-0.27695879
0.018760599
-0.30303416
0.017002252
-0.32923883
0.015095142
-0.35566943
0.013083467
-0.38265833
0.010990253
-0.41062898
0.0088360009
-0.43994739
0.0066569243
-0.47084992
0.0045115943
-0.50346115
0.0024730408
-0.5378556
0.00061549072
-0.57410844
-0.00099747976
-0.61232326
-0.0023202749
-0.65264122
-0.0033290658
-0.69524572
-0.0040221483
-0.7403599
-0.0044173503
-0.7882435
-0.0045472184
-0.83918759
-0.0044530482
-0.89350897
-0.0041792255
-0.95154464
-0.0037682234
-1.0136673
-0.0032576261
-1.0802461
-0.0026776232
-1.1517452
-0.0020511025
-1.2285619
-0.0013922084
-1.3113677
-0.00070873324
-1.400448
-0.12164787
1.5139188e-08
-0.12410139
-0.0023589968
-0.12781142
-0.0044168877
-0.132456
-0.0063522581
-0.13786684
-0.007697785
-0.14378328
-0.0098788379
-0.15026887
-0.0098961664
0.0025665395
-0.12067228
0.005264021
-0.12126064
0.0080024774
-0.12340675
0.010678834
-0.12693159
0.013214044
-0.13146732
0.015551443
-0.13648138
0.017673659
-0.14133112
0.019599373
-0.1453363
0.021378513
-0.14787646
0.023067896
-0.16019644
0.023300859
-0.18062585
0.023126594
-0.20306423
0.022523404
-0.22714981
0.021498351
-0.25239928
0.020096904
-0.27829509
0.018393956
-0.30442587
0.016477582
-0.33062127
0.0144238
-0.35700976
0.012282076
-0.38395015
0.010080575
-0.41187356
0.0078455875
-0.44113605
0.005619766
-0.47195809
0.0034658768
-0.50445399
0.0014576439
-0.53869775
-0.00033427957
-0.57477164
-0.0018531334
-0.6127904
-0.0030623799
-0.6529079
-0.0039480665
-0.69531981
-0.0045179221
-0.74025933
-0.0047976202
-0.7879931
-0.0048252953
-0.83881534
-0.0046454032
-0.89304279
-0.004303288
-0.95100957
-0.0038407453
-1.0130842
-0.0032935723
-1.0796302
-0.0026897432
-1.1511066
-0.0020496923
-1.2279044
-0.0013855096
-1.3106909
-0.00070288553
-1.3997451
-0.11908135
1.2774555e-08
-0.12164787
-0.0024535056
-0.12552698
-0.0046434429
-0.13039387
-0.0064790225
-0.13597005
-0.0082490489
-0.1420987
-0.0093823653
-0.14857963
-0.011568076
-0.1554956
-0.011509464
0.0026784873
-0.11808674
0.0054888656
-0.11874703
0.0083241824
-0.1210521
0.011081773
-0.12479932
0.013672071
-0.12958795
0.016038788
-0.13484651
0.018163784
-0.13989553
0.020068447
-0.14402623
0.021798182
-0.14660675
0.023412856
-0.16030844
0.023563731
-0.18106299
0.023282601
-0.20382343
0.022545539
-0.228197
0.021366227
-0.2536686
0.019797431
-0.27969857
0.017925939
-0.30587422
0.015849951
-0.33204742
0.013653103
-0.35838079
0.01138987
-0.38525945
0.0090926784
-0.41312065
0.0067933449
-0.44230963
0.0045395713
-0.47303178
0.0023970131
-0.50539336
0.00043822544
-0.53947026
-0.001271202
-0.57535357
-0.0026825834
-0.6131702
-0.0037690889
-0.65308688
-0.0045267786
-0.69531095
-0.0049723882
-0.74008456
-0.0051386449
-0.78767975
-0.0050683019
-0.83839244
-0.00480801
-0.89253807
-0.0044032715
-0.95044705
-0.0038946243
-1.0124831
-0.0033157284
-1.0790042
-0.0026921835
-1.1504641
-0.0020419482
-1.227248
-0.0013751253
-1.3100187
-0.00069543371
-1.3990497
-0.11640287
1.0659025e-08
-0.11908134
-0.0025665144
-0.12315267
-0.0048278168
-0.12823818
-0.0067991346
-0.13405272
-0.0083963503
-0.1403379
-0.010009851
-0.14697476
-0.010987233
-0.15384262
-0.013221064
-0.1610524
-0.013233899
0.0027943541
-0.11539223
0.0057145548
-0.1161374
0.0086483452
-0.11861867
0.011482495
-0.12260975
0.014124635
-0.1276738
0.016516163
-0.13319888
0.018640316
-0.13846739
0.02051555
-0.1427436
0.022189092
-0.14538298
0.023716627
-0.16046134
0.02377466
-0.18155505
0.023371923
-0.20464981
0.022488053
-0.22931883
0.021141517
-0.25501268
0.019396497
-0.28116912
0.017352021
-0.30737629
0.015117621
-0.33351194
0.012784316
-0.35977523
0.010410621
-0.38657739
0.0080328834
-0.41436019
0.0056872974
-0.44345736
0.0034255485
-0.47406032
0.0013144498
-0.50626958
-0.00057622873
-0.54016523
-0.0021874581
-0.57584869
-0.003479598
-0.61345969
-0.0044359863
-0.65317767
-0.005062552
-0.69522079
-0.0053844281
-0.73983878
-0.0054404875
-0.78730757
-0.0052770837
-0.83792337
-0.0049421395
-0.8919992
-0.0044805831
-0.94986109
-0.0039312051
-1.0118676
-0.0033252538
-1.0783711
-0.0026858578
-1.1498202
-0.0020285314
-1.2265946
-0.0013614839
-1.3093526
-0.00068657576
-1.3983631
-0.11360853
8.683204e-09
-0.11640286
-0.0026784666
-0.12067226
-0.0050469205
-0.12600472
-0.0070612739
-0.13206092
-0.0087909384
-0.13857167
-0.010162578
-0.14532784
-0.011656772
-0.15226834
-0.01256151
-0.15936233
-0.014911127
-0.16675323
-0.015152254
0.0029106466
-0.11258832
0.0059418036
-0.11343086
0.0089707341
-0.11610691
0.011878405
-0.12036352
0.014568271
-0.12572591
0.01698102