/*--------------------------------*- C++ -*----------------------------------*\
| =========                 |                                                 |
| \\      /  F ield         | OpenFOAM: The Open Source CFD Toolbox           |
|  \\    /   O peration     | Version:  5.0                                   |
|   \\  /    A nd           | Web:      www.OpenFOAM.org                      |
|    \\/     M anipulation  |                                                 |
\*---------------------------------------------------------------------------*/
FoamFile
{
    version     2.0;
    format      ascii;
    class       volVectorField;
    location    "210";
    object      U;
}
// * * * * * * * * * * * * * * * * * * * * * * * * * * * * * * * * * * * * * //

dimensions      [0 1 -1 0 0 0 0];

internalField   nonuniform List<vector> 
9200
(
(1.0406464 -0.00058749224 -5.3247063e-24)
(1.040991 -0.0017815906 -9.9804262e-21)
(1.0423272 -0.00058407067 0)
(1.0415912 -0.0028424467 5.1324395e-21)
(1.0426632 -0.0017893776 -7.6470296e-21)
(1.0430851 -0.0005805096 0)
(1.0423417 -0.0038692536 5.1318577e-22)
(1.0432573 -0.002844812 -3.5689677e-22)
(1.0434189 -0.0017952903 0)
(1.0441909 -0.00057598576 0)
(1.0432381 -0.0047968883 -9.8229101e-21)
(1.0440013 -0.0038802998 -5.7089402e-21)
(1.0440124 -0.0028508292 -4.2671047e-21)
(1.0445209 -0.0018049941 -2.620543e-22)
(1.0450883 -0.00057027921 -3.1007667e-25)
(1.0442174 -0.0056705608 -9.0869937e-21)
(1.0448839 -0.0048106094 6.9497498e-22)
(1.0447524 -0.0038951617 -1.3773672e-20)
(1.0451164 -0.0028597287 -5.2222893e-21)
(1.0454178 -0.0018122655 3.7163469e-23)
(1.046032 -0.00056249375 1.0642148e-20)
(1.0452517 -0.0064680799 -8.5243101e-21)
(1.0458459 -0.0056929073 -9.464797e-21)
(1.0456299 -0.0048311809 8.3182704e-21)
(1.0458567 -0.0039176953 4.98638e-22)
(1.0460165 -0.0028662605 -5.2614631e-21)
(1.046364 -0.001817449 -5.1187775e-21)
(1.046907 -0.00055227969 -8.0583613e-22)
(1.0463031 -0.0072039435 -3.7313783e-21)
(1.0468552 -0.006497842 -6.6171331e-21)
(1.0465838 -0.0057236224 -9.0713288e-21)
(1.0467332 -0.0048643008 1.8431563e-22)
(1.0467585 -0.0039374841 1.2565403e-20)
(1.0469716 -0.0028688506 5.4688165e-21)
(1.0472427 -0.00181741 6.4699098e-21)
(1.0477599 -0.00053905786 -9.8073935e-21)
(1.0473469 -0.0078744775 1.0319826e-20)
(1.0478755 -0.0072433475 -7.6534193e-21)
(1.0475821 -0.0065389386 2.7044326e-22)
(1.0476828 -0.0057744068 -4.5920093e-21)
(1.047636 -0.0048952665 3.4384863e-22)
(1.0477233 -0.0039542962 1.9278603e-20)
(1.0478596 -0.0028635477 -3.5012799e-21)
(1.0481043 -0.0018108501 1.0763191e-20)
(1.0485697 -0.00052242899 2.0484322e-20)
(1.0483605 -0.0084847955 -7.7700743e-21)
(1.0488812 -0.0079236203 3.7986639e-21)
(1.048588 -0.0072969161 2.1115208e-22)
(1.048673 -0.0066088019 -8.8660129e-22)
(1.0485839 -0.0058238439 1.5999782e-21)
(1.0486109 -0.0049251044 4.1926362e-22)
(1.0486222 -0.0039614222 -6.7360595e-21)
(1.0487375 -0.0028475726 -1.156093e-20)
(1.0489246 -0.0017957757 -6.28561e-21)
(1.0493403 -0.00050182076 -1.5799001e-21)
(1.0493267 -0.0090369355 3.5743507e-21)
(1.0498506 -0.0085441521 -2.005668e-22)
(1.049576 -0.0079905296 -6.1571258e-21)
(1.0496664 -0.0073896414 6.289007e-21)
(1.0495694 -0.0066787675 -8.8442499e-21)
(1.0495675 -0.0058759257 1.9604377e-20)
(1.0495214 -0.0049443362 7.6789289e-23)
(1.0495212 -0.0039554497 -1.8684107e-20)
(1.0495759 -0.0028179254 9.0438295e-21)
(1.0497091 -0.0017700135 -1.8780206e-20)
(1.0500666 -0.00047694224 2.6858057e-21)
(1.050229 -0.0095349237 -1.3823123e-22)
(1.0507672 -0.0091059848 1.3073825e-21)
(1.0505242 -0.008625514 5.2398789e-21)
(1.0506372 -0.0081081127 0)
(1.0505542 -0.0074842158 -1.1791201e-22)
(1.050559 -0.0067566536 -2.4827703e-22)
(1.0504883 -0.0059171122 3.98524e-21)
(1.050444 -0.0049494344 9.4616502e-21)
(1.0503816 -0.0039316206 5.7373573e-22)
(1.050383 -0.0027717353 1.1164621e-20)
(1.0504523 -0.0017321805 7.3257481e-21)
(1.050746 -0.00044752579 -1.6003858e-21)
(1.0510461 -0.0099834631 -1.3483408e-22)
(1.0516169 -0.0096123348 7.562535e-22)
(1.0514166 -0.0092025972 0)
(1.0515639 -0.0087700196 0)
(1.0515124 -0.0082295995 3.2004934e-21)
(1.0515462 -0.0075936668 -4.0618944e-21)
(1.0514879 -0.0068240172 8.5847453e-21)
(1.0514348 -0.0059447482 -1.0717225e-20)
(1.0513292 -0.0049337473 -9.3495528e-22)
(1.0512221 -0.0038860086 -1.1109079e-23)
(1.0511524 -0.0027066794 -1.2640549e-20)
(1.0511516 -0.0016808066 1.2769849e-20)
(1.0513751 -0.00041341508 -2.3836854e-20)
(1.0517381 -0.010389037 4.1641306e-22)
(1.0523835 -0.010066552 -1.6350734e-22)
(1.0522395 -0.0097251247 2.8752744e-21)
(1.0524305 -0.0093752461 -3.1909357e-21)
(1.0524221 -0.0089206664 3.3973719e-21)
(1.0525027 -0.0083743388 -8.4607038e-22)
(1.0524799 -0.0076934724 -2.8467866e-21)
(1.0524566 -0.0068799229 3.3081377e-23)
(1.0523457 -0.0059495193 -1.0462339e-20)
(1.052208 -0.004892135 -9.6462169e-21)
(1.0520281 -0.0038152461 -3.5512835e-21)
(1.0518819 -0.0026201281 -9.6480306e-21)
(1.0518034 -0.0016148335 -6.275676e-21)
(1.0519511 -0.00037453791 6.2388288e-21)
(1.0522211 -0.010761832 5.1068636e-21)
(1.0530367 -0.010473599 -3.3915393e-21)
(1.0529781 -0.010196524 1.3563634e-21)
(1.0532246 -0.0099266172 4.7479237e-23)
(1.053268 -0.0095564626 -2.8351501e-24)
(1.0534063 -0.0091042804 8.1004302e-22)
(1.0534373 -0.0085107161 -2.7489808e-21)
(1.0534669 -0.0077856433 3.6501599e-21)
(1.0533923 -0.0069118602 -9.5733175e-23)
(1.0532644 -0.0059258377 1.0369395e-21)
(1.0530529 -0.0048205134 2.192395e-22)
(1.0528009 -0.0037156751 1.2387203e-21)
(1.0525675 -0.0025105968 1.2128332e-20)
(1.0524046 -0.0015334478 -5.534907e-21)
(1.0524712 -0.00033091498 4.3095631e-21)
(1.0523342 -0.011112721 -1.687085e-21)
(1.0535096 -0.010842455 3.6649341e-21)
(1.0536058 -0.010621807 -1.3386316e-21)
(1.0539337 -0.010426751 2.9434965e-21)
(1.054038 -0.010139367 -3.2453917e-21)
(1.0542416 -0.0097814693 8.4094421e-21)
(1.0543373 -0.0092810381 -7.427336e-21)
(1.0544386 -0.0086450713 1.4442356e-22)
(1.0544263 -0.0078535701 2.6850481e-21)
(1.0543506 -0.0069146277 1.3334251e-22)
(1.0541533 -0.0058681449 2.4600517e-20)
(1.0538789 -0.0047134464 -6.0064e-21)
(1.0535353 -0.0035849273 -4.0376936e-21)
(1.0532059 -0.0023766965 -2.0153125e-21)
(1.0529522 -0.001436166 -8.1677983e-22)
(1.0529331 -0.00028265213 -4.4811951e-21)
(1.051808 -0.011461449 0)
(1.0536658 -0.011184611 2.7229548e-21)
(1.0540633 -0.011009405 -2.368563e-21)
(1.0545362 -0.010879762 0)
(1.0547214 -0.01067145 0)
(1.0549971 -0.010407534 0)
(1.0551644 -0.010001233 -3.5772951e-23)
(1.0553483 -0.0094630575 -6.3843069e-21)
(1.0554179 -0.0087555294 1.4751758e-21)
(1.0554213 -0.0078933307 -7.6267692e-21)
(1.0552845 -0.0068802844 -2.1913967e-22)
(1.055036 -0.0057695767 -5.2698081e-21)
(1.0546684 -0.0045687623 1.0494658e-22)
(1.054228 -0.0034205745 4.551862e-21)
(1.0537936 -0.0022176928 1.5170702e-21)
(1.0534437 -0.0013227974 2.4047383e-21)
(1.0533349 -0.00022993542 0)
(1.0502363 -0.011822969 7.9822534e-22)
(1.0532615 -0.011522374 -5.8337415e-21)
(1.0542261 -0.011369687 5.168866e-21)
(1.0549825 -0.011292873 1.5259868e-21)
(1.0553 -0.011156328 2.978029e-21)
(1.0556631 -0.010983572 0)
(1.0559076 -0.010672127 3.1156365e-21)
(1.0561802 -0.010235021 -2.1452857e-22)
(1.056343 -0.0096221253 -1.1187096e-20)
(1.0564463 -0.0088405161 1.2353126e-21)
(1.0563998 -0.0078937813 4.4870761e-21)
(1.0562254 -0.0068013763 -5.1823085e-22)
(1.0558875 -0.0056272298 -9.7684801e-21)
(1.0554267 -0.0043818148 1.6015106e-20)
(1.054875 -0.0032214219 4.7272731e-21)
(1.0543276 -0.0020332117 1.7411249e-20)
(1.0538766 -0.0011934672 6.4377159e-21)
(1.0536754 -0.00017302344 4.4691522e-21)
(1.0471028 -0.012213522 6.3534623e-23)
(1.0519097 -0.011878136 -2.3589044e-21)
(1.0538659 -0.011722303 -1.7455158e-21)
(1.0551639 -0.011675745 3.3954554e-21)
(1.055732 -0.011600433 -3.0693831e-22)
(1.0562248 -0.011512158 4.352473e-21)
(1.0565582 -0.011293938 2.6856844e-21)
(1.056923 -0.010960763 -6.1594213e-21)
(1.0571852 -0.010447321 -2.2371117e-21)
(1.0574 -0.0097600771 7.5672459e-21)
(1.0574666 -0.0088850856 -1.0492264e-22)
(1.0573983 -0.0078476301 1.0623547e-20)
(1.0571426 -0.0066735179 -3.3493678e-21)
(1.0567193 -0.0054347858 -1.1597676e-21)
(1.056143 -0.0041518546 -2.1520449e-21)
(1.0554727 -0.0029864218 -2.9813746e-21)
(1.0548052 -0.0018234255 5.2987774e-21)
(1.0542494 -0.0010485886 2.4600485e-22)
(1.0539537 -0.00011224631 3.2279697e-21)
(1.0418387 -0.012640568 7.3156063e-22)
(1.0490925 -0.012278665 3.013514e-21)
(1.0526113 -0.012086636 -1.2763863e-20)
(1.0548722 -0.012047497 -7.9469457e-22)
(1.0559216 -0.012012674 2.4718984e-21)
(1.0566472 -0.011998317 1.839692e-21)
(1.0571041 -0.01186847 4.6465219e-22)
(1.0575689 -0.011639306 6.362107e-21)
(1.0579332 -0.011229837 -8.9222361e-22)
(1.0582655 -0.010644402 -1.0056492e-20)
(1.0584578 -0.009857518 1.3439059e-20)
(1.0585202 -0.0088826742 -2.3354767e-21)
(1.0583824 -0.007748259 -5.0493489e-21)
(1.0580518 -0.0064891661 4.4413636e-22)
(1.0575146 -0.0051914124 -1.3119361e-21)
(1.0568172 -0.0038761755 -1.0641498e-20)
(1.0560175 -0.0027155259 6.1083889e-22)
(1.055224 -0.0015889068 -8.7453249e-21)
(1.0545607 -0.00088886511 -2.0086827e-21)
(1.0541697 -4.8016151e-05 -2.7634203e-21)
(1.0339155 -0.013100478 -3.3080454e-22)
(1.04421 -0.012743692 3.8190035e-21)
(1.0499521 -0.01248598 -1.3864821e-21)
(1.0537556 -0.012429055 3.345765e-21)
(1.0556779 -0.012410639 1.5276096e-21)
(1.0568471 -0.012449789 -2.3464569e-21)
(1.0575165 -0.012399797 4.2413869e-21)
(1.0581079 -0.012271245 6.8244656e-21)
(1.0585795 -0.01196749 -8.9038497e-21)
(1.0590309 -0.011490984 0)
(1.0593554 -0.010801842 -8.9198687e-21)
(1.0595625 -0.0099092743 2.9263743e-22)
(1.0595698 -0.0088239756 9.8332905e-21)
(1.0593709 -0.0075873974 -4.3877709e-21)
(1.0589325 -0.0062465831 5.3567757e-21)
(1.0582773 -0.0048924483 -9.5345521e-21)
(1.0574422 -0.0035553775 -2.6789293e-21)
(1.0565065 -0.0024090925 2.1487994e-21)
(1.0555821 -0.0013306878 -3.7352621e-21)
(1.0548099 -0.00071526724 -7.5322681e-22)
(1.0543238 1.9161922e-05 -1.7160145e-21)
(1.0229449 -0.013577161 -4.2737035e-21)
(1.0366721 -0.013280433 2.8567259e-21)
(1.0452816 -0.012937373 6.3262527e-21)
(1.0513122 -0.012846743 -7.6720171e-21)
(1.0546681 -0.012814299 -4.2027896e-21)
(1.056652 -0.012882659 1.8394594e-21)
(1.0577236 -0.012894931 0)
(1.0585163 -0.012859176 6.5909538e-21)
(1.0591159 -0.012659777 1.5903051e-21)
(1.059689 -0.012296189 -1.2644208e-20)
(1.0601471 -0.011714291 -3.895836e-21)
(1.0605059 -0.01091655 1.1292731e-21)
(1.0606742 -0.009902912 7.6698948e-23)
(1.0606369 -0.0087003238 -4.3971374e-21)
(1.0603407 -0.0073616921 4.4713833e-21)
(1.0597905 -0.005939699 -3.9477456e-21)
(1.0589958 -0.0045388514 1.231582e-21)
(1.058016 -0.0031885863 -6.2998348e-21)
(1.056937 -0.0020683037 -2.7238364e-21)
(1.0558785 -0.0010501032 -5.4749759e-22)
(1.0549971 -0.0005289884 -1.2292516e-21)
(1.0544162 8.8644948e-05 0)
(1.0087567 -0.01404405 -2.7655845e-21)
(1.0260077 -0.013879052 -1.1850393e-21)
(1.0379844 -0.013446765 2.7370139e-22)
(1.0469229 -0.013322204 -6.7180486e-21)
(1.0524021 -0.013249245 -2.2555951e-21)
(1.0557502 -0.013316948 2.571114e-21)
(1.0575697 -0.013368463 -4.9882844e-21)
(1.0587329 -0.013408796 6.917686e-21)
(1.0595236 -0.01330806 3.5851415e-21)
(1.0602328 -0.013058122 2.1443291e-22)
(1.0608253 -0.012589729 2.1062489e-23)
(1.0613371 -0.011899372 -1.5196232e-21)
(1.0616748 -0.0109726 1.1735934e-21)
(1.0618174 -0.0098297431 -7.9298829e-21)
(1.0616966 -0.0085063256 -1.084854e-20)
(1.0612992 -0.0070639165 -9.2802426e-21)
(1.0606117 -0.0055688284 1.7510134e-21)
(1.05967 -0.0041281662 1.1788288e-20)
(1.0585338 -0.0027777545 -4.554352e-23)
(1.057307 -0.0016949336 -2.5457218e-21)
(1.0561128 -0.00074891455 0)
(1.0551228 -0.00033143161 1.643928e-21)
(1.0544483 0.00015910627 2.2267342e-22)
(0.99143461 -0.014468634 1.4636302e-20)
(1.0119589 -0.014512507 -2.5524262e-21)
(1.0275484 -0.014004893 7.3327772e-21)
(1.0399362 -0.013866238 3.7816437e-21)
(1.0482564 -0.013737677 -8.3357953e-21)
(1.053666 -0.01377931 0)
(1.0567637 -0.013839922 -1.0440442e-21)
(1.0586189 -0.013932696 5.0072939e-21)
(1.0597504 -0.013916899 3.6241952e-21)
(1.060647 -0.013776566 -5.3983535e-22)
(1.0613842 -0.013424873 -7.0908335e-21)
(1.0620482 -0.01285097 -4.2948114e-21)
(1.0625569 -0.012026525 5.7945147e-21)
(1.0628895 -0.01096168 -8.5682939e-21)
(1.0629653 -0.0096819833 1.2434544e-20)
(1.0627574 -0.0082337272 2.0089827e-20)
(1.06223 -0.0066931362 6.244611e-22)
(1.0613964 -0.0051302845 4.8666384e-21)
(1.0602917 -0.0036627797 -1.0561161e-20)
(1.0589934 -0.0023237927 -1.5298246e-22)
(1.0576144 -0.0012922381 3.7628924e-21)
(1.0562847 -0.00042975939 -1.0525257e-21)
(1.0551873 -0.00012492272 -6.8177583e-22)
(1.0544275 0.00022551255 1.7323635e-22)
(0.97130447 -0.014818007 4.0643334e-21)
(0.99453385 -0.015140563 -4.6728579e-22)
(1.0136666 -0.014587086 4.8530564e-23)
(1.0297835 -0.014473278 -1.6095008e-20)
(1.041553 -0.014292216 5.8295941e-21)
(1.0497746 -0.01429471 -9.9163303e-21)
(1.0548463 -0.014335563 -8.9958749e-22)
(1.0579048 -0.014449906 -8.8964642e-21)
(1.0596732 -0.014497203 4.1958486e-21)
(1.0608883 -0.014454517 2.7638219e-21)
(1.0618117 -0.014218005 -6.577429e-21)
(1.0626338 -0.01376646 4.2713013e-21)
(1.0633122 -0.013056288 -5.5318059e-21)
(1.0638371 -0.012088242 -2.7744593e-23)
(1.0641218 -0.010873344 1.0322316e-20)
(1.0641281 -0.0094504903 1.3172588e-21)
(1.0638014 -0.0078799266 -8.083755e-23)
(1.0631336 -0.0062444553 8.1210989e-21)
(1.0621342 -0.0046260556 0)
(1.0608589 -0.0031426078 1.5791925e-21)
(1.0593912 -0.0018299528 3.8057253e-22)
(1.0578589 -0.00086155869 -5.4455447e-22)
(1.056394 -9.6671981e-05 -9.2449401e-22)
(1.0551923 8.8057732e-05 6.9925318e-22)
(1.0543485 0.00030390215 1.3453805e-21)
(0.94888408 -0.015063652 -1.4114184e-20)
(0.97400952 -0.01571623 -6.7524826e-22)
(0.99629993 -0.015156982 2.1765124e-21)
(1.0160918 -0.015120064 1.76754e-21)
(1.0316762 -0.014909801 1.608768e-20)
(1.0433733 -0.014879225 1.210346e-22)
(1.0511942 -0.014881366 -8.6163267e-22)
(1.0561501 -0.014986464 6.7025356e-22)
(1.0590434 -0.015067108 6.6905883e-21)
(1.0608485 -0.01510092 -3.9911975e-21)
(1.0620717 -0.014970592 4.628418e-21)
(1.0630842 -0.014642394 -1.9056784e-22)
(1.0639353 -0.014055351 -1.7873898e-21)
(1.0646509 -0.013199348 2.6104072e-21)
(1.0651485 -0.012071237 2.8501229e-22)
(1.0653838 -0.010697745 -1.4745273e-20)
(1.0652865 -0.009130659 -2.1744687e-20)
(1.0648295 -0.0074387703 -1.2075245e-20)
(1.063998 -0.0057189189 -1.5878781e-20)
(1.0628227 -0.004055173 -4.1558888e-22)
(1.0613661 -0.0025712708 1.2433005e-20)
(1.0597258 -0.0012985674 -2.0068971e-22)
(1.0580393 -0.00040671322 -5.7919011e-22)
(1.0564422 0.00025187318 -8.2299837e-22)
(1.0551407 0.00031218374 1.4882005e-21)
(1.0542174 0.00038018407 -3.7140125e-23)
(0.92480974 -0.015184676 6.3608753e-22)
(0.95088849 -0.016192342 -1.2184945e-21)
(0.97568795 -0.015672864 -9.2789091e-21)
(0.99876034 -0.015768908 9.542585e-21)
(1.0181937 -0.015569359 -1.4109641e-20)
(1.0337987 -0.015532924 8.4305491e-21)
(1.0450838 -0.015495508 3.6968062e-21)
(1.0527369 -0.015570097 8.5435371e-21)
(1.0574402 -0.0156521 -9.5094688e-21)
(1.0603003 -0.015732636 -3.9919263e-21)
(1.0620698 -0.015689709 1.5392604e-21)
(1.0633699 -0.015478419 -1.1314664e-20)
(1.0644184 -0.015018531 1.1197196e-20)
(1.0653251 -0.014286711 -1.3155827e-21)
(1.0660344 -0.013263907 3.035356e-21)
(1.0665049 -0.011965153 -5.3846625e-22)
(1.0666551 -0.010428018 -5.0299293e-21)
(1.0664418 -0.0087150236 4.8202421e-21)
(1.0658278 -0.0069099324 -5.7707981e-21)
(1.06482 -0.0051145533 -8.8882914e-22)
(1.0634543 -0.003421086 0)
(1.0618107 -0.0019507172 3.9823391e-21)
(1.0599949 -0.00073344842 1.7969071e-21)
(1.058156 7.0136319e-05 0)
(1.0564307 0.00061236378 1.2489308e-21)
(1.0550352 0.00054070773 -5.997985e-22)
(1.0540351 0.00045687229 -2.4429838e-21)
(0.89975841 -0.015173454 4.8659076e-21)
(0.92582619 -0.016527778 -1.8552271e-22)
(0.95231166 -0.01609505 -7.9214892e-21)
(0.97798394 -0.016374222 9.6540294e-22)
(1.0009465 -0.016234172 -2.427198e-21)
(1.0205546 -0.016236705 -9.3978069e-21)
(1.0358069 -0.016180703 -4.8107599e-22)
(1.0469248 -0.016221913 -6.9068641e-21)
(1.0542542 -0.016280842 -1.2472642e-23)
(1.0588444 -0.016374442 8.0568149e-21)
(1.0615992 -0.016390686 -3.8870618e-21)
(1.0634094 -0.016279517 1.0193959e-21)
(1.0647376 -0.015943624 -2.8449142e-21)
(1.0658533 -0.015343259 3.225678e-21)
(1.0667734 -0.014441362 -8.5984423e-22)
(1.0674788 -0.013239383 3.9432422e-21)
(1.0678854 -0.011760694 4.3284472e-21)
(1.0679376 -0.010055371 2.7551359e-20)
(1.0675788 -0.0082015247 9.5446751e-21)
(1.0667926 -0.0062902513 1.0686643e-20)
(1.0655903 -0.0044341925 7.5405011e-21)
(1.0640256 -0.0027253791 -2.7849205e-21)
(1.0621893 -0.0012854402 -5.2668689e-22)
(1.0601981 -0.00013776616 0)
(1.05821 0.00056573639 0)
(1.0563618 0.00098264438 9.2021609e-24)
(1.0548774 0.00077437433 4.1126407e-21)
(1.053806 0.00053276429 5.4825428e-21)
(0.87438408 -0.015031029 0)
(0.89954088 -0.016703261 -8.0119674e-22)
(0.92682641 -0.016391268 7.114333e-21)
(0.95422062 -0.016889861 3.2959211e-21)
(0.98008269 -0.016858027 9.9697457e-21)
(1.0034142 -0.01695392 4.8837765e-22)
(1.0228072 -0.016919824 -6.1504307e-21)
(1.0379631 -0.016947968 -1.0892302e-20)
(1.0487322 -0.016976577 1.3032056e-20)
(1.0558832 -0.01705588 -3.9002785e-21)
(1.0602826 -0.017097314 5.0619827e-22)
(1.0630161 -0.017059138 3.994291e-21)
(1.0648228 -0.016833507 -1.0124259e-20)
(1.0662162 -0.016364751 5.9215276e-21)
(1.0673595 -0.015594604 3.7789147e-21)
(1.0682981 -0.014508692 -1.0254959e-22)
(1.0689627 -0.013113921 3.7731998e-21)
(1.0692927 -0.011447771 -2.9709412e-21)
(1.0692152 -0.0095757164 1.3933827e-20)
(1.0686933 -0.0075856083 1.8224014e-21)
(1.0677129 -0.0055815255 6.5937865e-21)
(1.0663042 -0.0036788138 4.0834467e-21)
(1.0645313 -0.0019727306 -8.4170646e-22)
(1.0625001 -0.00057898178 -7.0373729e-21)
(1.0603351 0.00048415172 -3.4039801e-21)
(1.0582025 0.0010764517 1.3632986e-21)
(1.0562378 0.0013597574 -3.8356127e-21)
(1.0546711 0.0010096525 3.4457408e-21)
(1.0535334 0.00060777204 -9.7089771e-21)
(0.84929878 -0.01475487 -1.4951999e-20)
(0.87271165 -0.016710771 0)
(0.89998874 -0.01652475 0)
(0.92812239 -0.017275086 0)
(0.95603338 -0.01739333 -2.6042116e-21)
(0.98247004 -0.017636645 8.8818669e-21)
(1.005795 -0.017677021 -9.8316321e-22)
(1.0252323 -0.017733693 -1.4566758e-21)
(1.0400844 -0.017748097 1.6937991e-20)
(1.0506536 -0.01780252 -1.6046175e-20)
(1.0575366 -0.017839527 9.8773619e-21)
(1.0618358 -0.01783983 -3.425058e-21)
(1.0645067 -0.017699544 1.6116019e-21)
(1.0663543 -0.017351788 -8.2225697e-21)
(1.0677774 -0.016717312 3.9652386e-21)
(1.0689574 -0.01576215 4.779102e-21)
(1.0698783 -0.014474314 8.5949605e-22)
(1.07049 -0.012876227 -9.9311563e-21)
(1.0707099 -0.011020037 -4.2007186e-21)
(1.0704832 -0.0089829293 -8.5122989e-21)
(1.0697727 -0.0068676396 -7.9759807e-21)
(1.0685828 -0.0047838427 3.1837523e-21)
(1.0669546 -0.0028529008 7.9611852e-21)
(1.0649683 -0.0011668596 -2.7567627e-21)
(1.0627415 0.00016346925 -1.93947e-21)
(1.0604063 0.0011281711 -5.7776271e-23)
(1.0581356 0.0015988011 -2.9167776e-21)
(1.0560616 0.0017409334 2.2808465e-21)
(1.0544188 0.0012457954 -1.470494e-20)
(1.0532207 0.00068164329 -6.5171492e-21)
(0.82294383 -0.014317878 -1.1871547e-21)
(0.84609614 -0.016519571 -1.0379428e-21)
(0.87260197 -0.01650386 0)
(0.90044672 -0.017499713 0)
(0.929449 -0.017797936 0)
(0.95812319 -0.01823439 0)
(0.98480819 -0.018403554 0)
(1.0083719 -0.018543819 3.2016978e-22)
(1.027631 -0.01858312 -8.2617255e-21)
(1.042329 -0.018626237 1.7949836e-20)
(1.0525927 -0.018644785 -9.4657655e-22)
(1.0593018 -0.018651652 1.1100742e-20)
(1.0634584 -0.018562776 -1.4406027e-20)
(1.0661184 -0.018313346 1.8481446e-21)
(1.0679767 -0.017807765 -6.5682067e-23)
(1.0694437 -0.016991253 5.2304615e-21)
(1.0706262 -0.015829025 -1.0043867e-20)
(1.0715192 -0.014325834 -9.9832476e-22)
(1.0720436 -0.012517539 1.3763108e-20)
(1.0721325 -0.010469663 6.1481073e-21)
(1.0717278 -0.0082755834 1.0770296e-21)
(1.0708099 -0.0060465034 9.5662423e-21)
(1.0693933 -0.0039010748 5.3569219e-22)
(1.0675369 -0.00196005 -3.0281726e-21)
(1.0653334 -0.00031348996 4.5405173e-21)
(1.0629128 0.00093710923 3.9508772e-21)
(1.0604129 0.0017896334 8.9500661e-22)
(1.0580114 0.0021289882 1.2289155e-21)
(1.055836 0.0021237218 2.3845615e-22)
(1.0541241 0.0014810053 1.1687666e-20)
(1.0528717 0.00075402765 4.3257598e-21)
(0.79483408 -0.013648602 1.6453066e-20)
(0.81812385 -0.01614361 -5.4763231e-22)
(0.84523988 -0.016331419 4.8882845e-21)
(0.87197166 -0.017557298 4.9700257e-21)
(0.90111094 -0.018034296 0)
(0.93101528 -0.018699236 0)
(0.96020888 -0.019046056 -4.0378356e-22)
(0.98735753 -0.019328001 9.779872e-21)
(1.0109416 -0.019447299 -1.6130041e-20)
(1.0301683 -0.019517362 1.898616e-20)
(1.0445911 -0.019527781 2.3430828e-21)
(1.0546434 -0.019523856 -1.0124757e-20)
(1.0611301 -0.019452988 -4.5151637e-22)
(1.0652016 -0.019268663 -6.113201e-22)
(1.0678253 -0.018872378 -4.299084e-21)
(1.0697151 -0.018191827 1.2408722e-21)
(1.0711957 -0.017167379 1.37345e-21)
(1.0723731 -0.015781902 -4.5341552e-22)
(1.0732035 -0.014051999 4.8491933e-21)
(1.0736192 -0.012028244 2.7692606e-20)
(1.0735456 -0.0097931207 8.4572165e-21)
(1.0729408 -0.0074510551 -7.1555986e-21)
(1.071794 -0.0051250374 1.0404983e-20)
(1.0701381 -0.0029363701 9.321931e-21)
(1.068046 -0.0010062165 3.1641829e-21)
(1.0656247 0.00058204048 2.728863e-21)
(1.0630141 0.0017362913 1.273968e-21)
(1.0603565 0.0024640108 -1.8521797e-21)
(1.0578327 0.0026635699 2.7105174e-21)
(1.0555644 0.0025056776 -1.0690284e-21)
(1.0537906 0.0017141461 6.7528859e-21)
(1.0524899 0.00082474693 4.8275285e-22)
(0.76699948 -0.012751326 -5.515173e-21)
(0.78826964 -0.01551897 1.8108986e-21)
(0.81656053 -0.015952276 -7.0900484e-21)
(0.84347624 -0.017407556 -4.9011011e-21)
(0.87184249 -0.018099298 0)
(0.9019374 -0.018988878 0)
(0.93262617 -0.019553276 0)
(0.9625099 -0.020029757 -1.7052198e-21)
(0.98992738 -0.020289328 1.2442096e-20)
(1.013668 -0.02044253 1.3907234e-20)
(1.0327319 -0.020481442 2.4892734e-21)
(1.0469704 -0.020474037 -2.1440523e-21)
(1.0567526 -0.020400882 2.0250269e-20)
(1.0630769 -0.020246894 -1.5841025e-20)
(1.06704 -0.019928334 4.9779462e-21)
(1.0696555 -0.019367533 0)
(1.0715517 -0.018482717 1.2475274e-21)
(1.0730424 -0.017231599 1.3508873e-21)
(1.0741814 -0.015607037 1.2503878e-20)
(1.0749278 -0.013641397 -1.1068077e-21)
(1.0752009 -0.011402465 -1.3758741e-20)
(1.07494 -0.0089859976 -4.7700246e-21)
(1.0741096 -0.0065107319 -1.1144717e-20)
(1.0727172 -0.0041055745 -1.0878163e-20)
(1.0708102 -0.0018955451 6.0811312e-22)
(1.0684784 2.9325477e-06 2.4168384e-21)
(1.0658406 0.0015132883 -1.4126968e-21)
(1.0630459 0.0025555915 -1.7079938e-22)
(1.0602391 0.0031467266 4.2033014e-21)
(1.0576023 0.0031991074 1.1441875e-21)
(1.0552502 0.0028847058 1.1066941e-21)
(1.0534217 0.0019440479 -2.0137276e-20)
(1.052079 0.00089350791 7.6381474e-21)
(0.74023457 -0.011629687 -4.9969489e-21)
(0.75850399 -0.014624919 3.1740209e-22)
(0.78595611 -0.015329347 -1.2791753e-20)
(0.81360385 -0.017044721 -6.7653607e-21)
(0.84239751 -0.017989175 3.2410526e-21)
(0.87173373 -0.019102075 -2.3033424e-23)
(0.90286448 -0.019878175 1.5046705e-20)
(0.93444203 -0.020593323 -8.110319e-21)
(0.96486242 -0.021050031 -1.6439594e-23)
(0.99266984 -0.021349306 -3.0270795e-20)
(1.0164379 -0.021473578 1.3604988e-20)
(1.0354247 -0.021497905 1.652372e-20)
(1.0494094 -0.021426778 -1.692857e-21)
(1.0589799 -0.02127994 -4.980716e-21)
(1.0651164 -0.021003787 -6.5003807e-21)
(1.069005 -0.020533186 -4.6065648e-21)
(1.0715927 -0.019775838 5.7854206e-22)
(1.0734977 -0.018665713 1.4384734e-20)
(1.074968 -0.017167758 -2.7644696e-22)
(1.0760483 -0.015291251 -2.6611201e-21)
(1.0766758 -0.013085626 -3.9592911e-21)
(1.0767794 -0.010633771 -1.8776464e-20)
(1.0763018 -0.0080478394 2.9798442e-21)
(1.0752247 -0.0054557463 -2.8530136e-21)
(1.0735703 -0.0029933864 -1.3736177e-20)
(1.0714041 -0.00078431217 -3.5728515e-21)
(1.0688309 0.0010603173 -2.0665642e-21)
(1.0659807 0.0024739689 -3.310423e-21)
(1.0630097 0.0033893251 4.8224786e-22)
(1.0600634 0.0038334005 -8.3907351e-22)
(1.0573237 0.0037324912 2.0458975e-21)
(1.0548968 0.0032588352 -8.4813447e-23)
(1.0530211 0.0021696778 8.4475471e-21)
(1.0516424 0.00096015771 -1.4756752e-20)
(0.71534918 -0.010288571 5.2074269e-21)
(0.7296825 -0.013447882 -4.527464e-22)
(0.75526432 -0.014439491 1.4725487e-20)
(0.78169394 -0.016426206 3.8076096e-21)
(0.81153935 -0.017636118 -1.1165053e-20)
(0.84124883 -0.019031848 -1.5452715e-20)
(0.87180163 -0.020023635 -1.9293372e-21)
(0.90396724 -0.020966236 0)
(0.93633866 -0.021669694 -8.6953735e-21)
(0.96739697 -0.022175532 -3.3102821e-20)
(0.99547832 -0.022450831 2.3754886e-21)
(1.0193528 -0.022564578 -6.2212408e-21)
(1.038186 -0.022529197 0)
(1.051971 -0.022390787 -3.3031416e-21)
(1.0612982 -0.022131507 1.2524298e-20)
(1.0672831 -0.021715574 6.7306768e-21)
(1.0710817 -0.021058916 -5.8013436e-21)
(1.0736508 -0.020082112 0)
(1.0755386 -0.018722432 -7.2908394e-21)
(1.0769712 -0.016960988 -9.6343078e-21)
(1.0779579 -0.014823526 -1.9457619e-20)
(1.078438 -0.012376067 -5.5730689e-21)
(1.0783393 -0.0097195173 0)
(1.0776197 -0.0069781929 -1.342939e-20)
(1.0762748 -0.0042903882 6.3769107e-22)
(1.0743458 -0.0017938796 1.0770217e-22)
(1.0719149 0.00038989641 -5.6740512e-21)
(1.0691016 0.0021589193 2.0136954e-21)
(1.0660451 0.0034573369 4.3394994e-22)
(1.0629072 0.0042320431 5.4720814e-21)
(1.0598323 0.0045198468 -9.3196556e-21)
(1.0570001 0.0042608059 -4.4615107e-21)
(1.054508 0.0036263475 0)
(1.0525924 0.0023901756 -3.2328622e-22)
(1.0511837 0.0010245002 -4.5490409e-21)
(0.69314043 -0.008740931 3.7759882e-21)
(0.70270916 -0.011985599 9.5845579e-22)
(0.72541192 -0.013271439 1.3481224e-20)
(0.74955315 -0.015515845 1.2021076e-21)
(0.77861449 -0.017012961 -3.2423726e-21)
(0.80927292 -0.018656467 -7.6693311e-22)
(0.8403049 -0.019967435 -1.2295881e-20)
(0.87199378 -0.021155278 4.8556581e-22)
(0.90517472 -0.022090542 0)
(0.93841674 -0.022857077 1.0599369e-20)
(0.97002078 -0.023348175 -1.1544461e-20)
(0.99844803 -0.02361974 2.8864282e-21)
(1.0223527 -0.023678697 -6.4376945e-21)
(1.0410808 -0.02358087 8.5953047e-21)
(1.0546265 -0.023336982 -7.181471e-23)
(1.0637451 -0.022948013 1.4116748e-20)
(1.0695633 -0.022357035 -8.8173252e-21)
(1.0732869 -0.021490034 4.2004593e-21)
(1.0758172 -0.020265943 1.4112475e-20)
(1.0776752 -0.018636443 -7.0410761e-21)
(1.0790367 -0.016597639 1.4025116e-20)
(1.0799007 -0.014192944 1.4549744e-21)
(1.080198 -0.011507589 0)
(1.079868 -0.0086573038 -3.6764339e-21)
(1.0788806 -0.0057799198 1.6804033e-22)
(1.0772504 -0.003019354 5.3259655e-21)
(1.0750367 -0.0005144928 4.5728736e-21)
(1.0723388 0.0016195328 2.3840414e-21)
(1.0692892 0.0032910069 5.7938621e-22)
(1.066035 0.0044568453 0)
(1.0627411 0.0050783923 -3.5897173e-21)
(1.059549 0.0052021648 -9.8911393e-21)
(1.0566353 0.004781443 1.8722592e-20)
(1.0540873 0.0039857259 -6.2056579e-21)
(1.0521391 0.0026047484 5.0595471e-22)
(1.0507058 0.0010864232 1.602703e-20)
(0.6743528 -0.0070090479 -3.506773e-21)
(0.67849658 -0.010248085 -1.5050407e-22)
(0.69736986 -0.011824472 -4.0543402e-21)
(0.71814416 -0.01429875 3.0263104e-23)
(0.74523988 -0.016095168 1.3174976e-20)
(0.77510664 -0.018037302 1.0704082e-20)
(0.80724615 -0.019613119 -1.7904065e-22)
(0.83944833 -0.021121292 -1.0053945e-20)
(0.87230579 -0.022322006 5.1378337e-22)
(0.90655104 -0.023330252 -9.0962509e-21)
(0.94060333 -0.024097112 -4.4905959e-22)
(0.9728174 -0.024595276 5.6237475e-21)
(1.0015229 -0.02482009 -1.0350575e-21)
(1.0255018 -0.02482233 1.0335309e-20)
(1.0440797 -0.024624623 -2.9936349e-20)
(1.0574165 -0.024258368 6.5760128e-21)
(1.0663074 -0.023703702 6.0755616e-22)
(1.0719767 -0.022912516 5.5361476e-21)
(1.0756099 -0.021804409 -2.904058e-21)
(1.0780948 -0.020309501 -8.6832308e-22)
(1.0798931 -0.018391524 1.1067253e-20)
(1.0811555 -0.016064456 -9.5523561e-21)
(1.0818599 -0.013391672 4.8288598e-21)
(1.0819422 -0.010475531 0)
(1.0813504 -0.0074481272 1.6966362e-20)
(1.0800727 -0.0044565672 1.3511312e-20)
(1.078142 -0.001649678 -2.205541e-21)
(1.0756369 0.00083695937 6.9052774e-21)
(1.0726727 0.0028960655 5.7319533e-22)
(1.0693935 0.0044489522 -4.2187402e-22)
(1.0659519 0.0054659238 5.0462181e-21)
(1.0625141 0.0059233425 -9.13828e-21)
(1.0592172 0.0058767647 -2.1776238e-22)
(1.056233 0.0052920706 1.9020773e-20)
(1.0536384 0.0043356611 -1.1424486e-21)
(1.0516645 0.0028127769 -5.5659405e-22)
(1.0502122 0.001145816 5.8143943e-21)
(0.65963845 -0.0051236841 3.6961692e-22)
(0.65791249 -0.0082604531 -1.061467e-21)
(0.67212081 -0.010107981 -5.1393306e-21)
(0.68850674 -0.012771885 -6.2752249e-22)
(0.71245545 -0.014852647 -1.7104607e-24)
(0.74034627 -0.017089215 1.901983e-22)
(0.77192848 -0.01897807 -6.9388354e-21)
(0.80525674 -0.020761986 4.0152693e-21)
(0.83869792 -0.022313288 0)
(0.8727629 -0.02360784 1.8594461e-21)
(0.90804726 -0.02462772 0)
(0.94296585 -0.025417982 0)
(0.97573869 -0.025882102 5.9047336e-21)
(1.0047636 -0.02605909 -5.5489028e-22)
(1.0287718 -0.02596831 -5.0490386e-21)
(1.0472253 -0.025654115 -6.4111614e-21)
(1.0603276 -0.025128969 1.660688e-20)
(1.0690074 -0.024382894 -9.1074073e-21)
(1.0745142 -0.02335849 8.7764435e-22)
(1.0780562 -0.021983004 8.6580857e-22)
(1.0804708 -0.020194132 -1.4334316e-20)
(1.0821847 -0.017972104 -5.7370418e-21)
(1.0833108 -0.01535076 4.4475036e-21)
(1.0838212 -0.01241253 1.1104625e-20)
(1.083654 -0.0092786226 2.1556982e-21)
(1.0827731 -0.0060939397 1.8712654e-21)
(1.0811843 -0.0030143077 -4.6371064e-21)
(1.0789415 -0.0001890702 -4.7755472e-21)
(1.0761416 0.0022514027 -6.7130538e-22)
(1.0729149 0.004210871 -3.1770162e-21)
(1.0694151 0.0056249425 -5.0466291e-21)
(1.0657983 0.0064783127 -2.7138981e-21)
(1.0622298 0.0067621634 1.5060829e-21)
(1.0588406 0.0065404066 1.3991887e-20)
(1.0557968 0.0057906532 -3.6651475e-20)
(1.0531648 0.0046750589 -6.0652703e-21)
(1.0511718 0.003013723 -5.6732311e-21)
(1.0497055 0.0012026163 0)
(0.64952184 -0.0031225334 3.0402088e-21)
(0.64172712 -0.0060619048 -1.3493565e-22)
(0.6506032 -0.0081464873 -1.3285958e-21)
(0.66171333 -0.010942134 -5.3376182e-22)
(0.68138702 -0.013283852 -6.0038263e-21)
(0.70605704 -0.015791655 -4.5493881e-21)
(0.73579225 -0.018011278 -6.4009872e-22)