/*--------------------------------*- C++ -*----------------------------------*\
| =========                 |                                                 |
| \\      /  F ield         | OpenFOAM: The Open Source CFD Toolbox           |
|  \\    /   O peration     | Version:  5.0                                   |
|   \\  /    A nd           | Web:      www.OpenFOAM.org                      |
|    \\/     M anipulation  |                                                 |
\*---------------------------------------------------------------------------*/
FoamFile
{
    version     2.0;
    format      ascii;
    class       volScalarField;
    location    "60";
    object      ddt0(nuTilda);
}
// * * * * * * * * * * * * * * * * * * * * * * * * * * * * * * * * * * * * * //

dimensions      [0 2 -2 0 0 0 0];

internalField   nonuniform List<scalar> 
9520
(
-4.1802616e-33
-4.4681498e-31
-4.5591559e-33
-2.3341572e-29
-4.8018497e-31
-4.6182639e-33
-7.8993695e-28
-2.4733933e-29
-4.8100655e-31
-4.4182695e-33
-1.9459502e-26
-8.2582965e-28
-2.4507243e-29
-4.5598912e-31
-4.035638e-33
-3.7200814e-25
-2.008078e-26
-8.0962791e-28
-2.3023985e-29
-4.1336153e-31
-3.5513475e-33
-5.7471271e-24
-3.790708e-25
-1.9484677e-26
-7.5397457e-28
-2.0717017e-29
-3.6162282e-31
-3.0404166e-33
-7.3779554e-23
-5.7843896e-24
-3.6412343e-25
-1.7990929e-26
-6.7359429e-28
-1.8021723e-29
-3.0845307e-31
-2.5628203e-33
-8.0336297e-22
-7.33601e-23
-5.5013176e-24
-3.3341644e-25
-1.596332e-26
-5.8289742e-28
-1.5320858e-29
-2.5976672e-31
-2.1569129e-33
-7.5352818e-21
-7.8916031e-22
-6.908483e-23
-4.9962546e-24
-2.9390853e-25
-1.374786e-26
-4.941822e-28
-1.2896839e-29
-2.1907858e-31
-1.836751e-33
-6.1627464e-20
-7.3121995e-21
-7.3582894e-22
-6.2234151e-23
-4.3765093e-24
-2.5202349e-25
-1.16305e-26
-4.1609177e-28
-1.090277e-29
-1.8731875e-31
-1.5941368e-33
-4.4379604e-19
-5.9065665e-20
-6.7496189e-21
-6.5744708e-22
-5.4180028e-23
-3.7380659e-24
-2.1288665e-25
-9.801244e-27
-3.5278496e-28
-9.358513e-30
-1.6316581e-31
-1.4051012e-33
-2.8367415e-18
-4.1993907e-19
-5.3958487e-20
-5.9802326e-21
-5.6886243e-22
-4.6109444e-23
-3.1545804e-24
-1.7968597e-25
-8.337734e-27
-3.0400552e-28
-8.1742044e-30
-1.4383654e-31
-1.2393042e-33
-1.620323e-17
-2.6486369e-18
-3.7946795e-19
-4.7389686e-20
-5.1422083e-21
-4.8247788e-22
-3.8894849e-23
-2.6683231e-24
-1.5343867e-25
-7.2121387e-27
-2.6608355e-28
-7.1962339e-30
-1.2613917e-31
-1.0699944e-33
-8.3154396e-17
-1.4916973e-17
-2.3657902e-18
-3.301151e-19
-4.0478355e-20
-4.3467896e-21
-4.0698423e-22
-3.2988775e-23
-2.287874e-24
-1.3322429e-25
-6.3207855e-27
-2.3363973e-28
-6.2640836e-30
-1.0752071e-31
-8.8202982e-34
-3.8516487e-16
-7.5397876e-17
-1.31585e-17
-2.036589e-18
-2.7985554e-19
-3.4092497e-20
-3.6679268e-21
-3.4632419e-22
-2.8411328e-23
-1.9933394e-24
-1.1684293e-25
-5.5293561e-27
-2.0154964e-28
-5.2631852e-30
-8.6842285e-32
-6.7605088e-34
-1.6169773e-15
-3.4346747e-16
-6.5594292e-17
-1.1192925e-17
-1.7113229e-18
-2.3465671e-19
-2.8778273e-20
-3.1333821e-21
-2.9974257e-22
-2.483817e-23
-1.7479238e-24
-1.0173336e-25
-4.7215837e-27
-1.6664326e-28
-4.1601815e-30
-6.4696941e-32
-4.6798845e-34
-6.1669106e-15
-1.4154972e-15
-2.9418182e-16
-5.5010046e-17
-9.3017118e-18
-1.4264407e-18
-1.9807245e-19
-2.468927e-20
-2.7269474e-21
-2.6297726e-22
-2.1766777e-23
-1.5128461e-24
-8.5900002e-26
-3.8381754e-27
-1.2869733e-28
-3.0122238e-30
-4.3215131e-32
-2.8434438e-34
-2.1430417e-14
-5.2845363e-15
-1.1907979e-15
-2.4248156e-16
-4.5045471e-17
-7.6851877e-18
-1.2027357e-18
-1.706985e-19
-2.1617981e-20
-2.4017766e-21
-2.302708e-22
-1.8716171e-23
-1.2614344e-24
-6.8590626e-26
-2.8958316e-27
-9.049346e-29
-1.9494647e-30
-2.5441152e-32
-1.5472234e-34
-6.7901462e-14
-1.7910111e-14
-4.3511444e-15
-9.6029149e-16
-1.9453641e-16
-3.6706037e-17
-6.4578118e-18
-1.0413009e-18
-1.5051425e-19
-1.9122774e-20
-2.1013124e-21
-1.9662648e-22
-1.5403222e-23
-9.8835128e-25
-5.0547706e-26
-1.9822565e-27
-5.6981201e-29
-1.1369028e-30
-1.446703e-32
-1.0364652e-34
-1.9655575e-13
-5.5037977e-14
-1.4360432e-14
-3.4093468e-15
-7.4789273e-16
-1.5500521e-16
-3.0614268e-17
-5.61704e-18
-9.2636012e-19
-1.3393986e-19
-1.6721834e-20
-1.7813638e-21
-1.5965935e-22
-1.1842752e-23
-7.1154567e-25
-3.3786626e-26
-1.2297863e-27
-3.3813597e-29
-7.2667399e-31
-1.2557478e-32
-1.4370581e-34
-5.1811481e-13
-1.5307916e-13
-4.2617091e-14
-1.0805015e-14
-2.5382743e-15
-5.7366589e-16
-1.2731157e-16
-2.676401e-17
-5.0589831e-18
-8.3231677e-19
-1.1736665e-19
-1.4084201e-20
-1.4269186e-21
-1.2049216e-22
-8.3459077e-24
-4.6683347e-25
-2.0985546e-26
-7.756747e-28
-2.5677439e-29
-8.1359815e-31
-2.0482861e-32
-2.7156958e-34
-1.2392558e-12
-3.8186755e-13
-1.1258076e-13
-3.0097335e-14
-7.4440014e-15
-1.8185168e-15
-4.5626738e-16
-1.1183433e-16
-2.456291e-17
-4.6169047e-18
-7.3409284e-19
-9.853939e-20
-1.115045e-20
-1.0585393e-21
-8.3377974e-23
-5.4249485e-24
-2.9696339e-25
-1.4666989e-26
-7.2045002e-28
-3.4865283e-29
-1.40495e-30
-3.7208897e-32
-4.6760988e-34
-2.645498e-12
-8.3729593e-13
-2.5819449e-13
-7.0648156e-14
-1.7634674e-14
-4.5529028e-15
-1.3475587e-15
-4.0150813e-16
-1.0572693e-16
-2.300566e-17
-4.1255568e-18
-6.1681606e-19
-7.7364388e-20
-8.1612852e-21
-7.2293235e-22
-5.4365655e-23
-3.6355415e-24
-2.3827696e-25
-1.6406923e-26
-1.0954613e-27
-6.0438585e-29
-2.4110457e-30
-5.9993825e-32
-6.9897715e-34
-4.5765437e-12
-1.5193323e-12
-4.7762495e-13
-1.2391813e-13
-2.5310268e-14
-5.9238517e-15
-2.53693e-15
-1.1754802e-15
-3.9867106e-16
-1.0333846e-16
-2.1054206e-17
-3.4892689e-18
-4.8167912e-19
-5.604713e-20
-5.5420775e-21
-4.8017556e-22
-3.9471981e-23
-3.3992221e-24
-3.0882754e-25
-2.6282189e-26
-1.847494e-27
-9.8158599e-29
-3.657693e-30
-8.4845709e-32
-9.2522806e-34
9.1601322e-12
-5.6081745e-13
-4.650809e-13
-6.0846202e-14
3.6123375e-14
2.2099335e-14
3.4764521e-15
-1.6066088e-15
-1.2654713e-15
-4.1829838e-16
-9.8453903e-17
-1.8097057e-17
-2.7237054e-18
-3.4638937e-19
-3.8129953e-20
-3.8156558e-21
-3.8611976e-22
-4.2693222e-23
-4.8573776e-24
-5.0112891e-25
-4.2688858e-26
-2.8435228e-27
-1.4116154e-28
-4.9163701e-30
-1.0721634e-31
-1.1051388e-33
4.9552814e-10
6.0680227e-11
5.9855795e-12
1.0084418e-12
4.9446297e-13
2.2136124e-13
6.5415195e-14
9.0992004e-15
-1.5628215e-15
-1.4268443e-15
-4.2483671e-16
-8.7188942e-17
-1.4235262e-17
-1.9538873e-18
-2.378063e-19
-2.7655758e-20
-3.4407653e-21
-4.7205433e-22
-6.4482575e-23
-7.7969291e-24
-7.8124695e-25
-6.2561966e-26
-3.8934772e-27
-1.8118054e-28
-5.9443561e-30
-1.2276883e-31
-1.2032507e-33
1.0925383e-08
1.7542346e-09
2.177281e-10
2.2839709e-11
3.6286745e-12
1.2167653e-12
4.0862854e-13
9.6811642e-14
1.0616809e-14
-1.9540962e-15
-1.6226024e-15
-3.9417036e-16
-6.9841065e-17
-1.025136e-17
-1.36214e-18
-1.8374935e-19
-2.7938257e-20
-4.6121401e-21
-7.30831e-22
-1.011764e-22
-1.1665027e-23
-1.0942303e-24
-8.1924465e-26
-4.7847557e-27
-2.1001035e-28
-6.5256559e-30
-1.2806012e-31
-1.1949458e-33
2.0971632e-07
3.6108642e-08
5.7674112e-09
7.1153182e-10
7.1329756e-11
8.7293681e-12
2.0768359e-12
5.5954358e-13
1.1570901e-13
3.1906818e-15
-5.9296965e-15
-1.7166072e-15
-3.2487978e-16
-5.0803335e-17
-7.2731039e-18
-1.1250528e-18
-2.0525826e-19
-3.9851411e-20
-7.1644902e-21
-1.1146711e-21
-1.4548076e-22
-1.5665552e-23
-1.3742679e-24
-9.6619905e-26
-5.3201205e-27
-2.2088901e-28
-6.5045674e-30
-1.2101997e-31
-1.069332e-33
1.4579421e-05
6.6841851e-07
1.1318787e-07
1.7995101e-08
2.204812e-09
2.0999834e-10
1.966307e-11
3.0435467e-12
6.4074762e-13
4.6729005e-14
-2.2769787e-14
-8.5263065e-15
-1.4615743e-15
-2.3920715e-16
-3.6565628e-17
-6.3574762e-18
-1.3612329e-18
-3.041127e-19
-6.1324216e-20
-1.059087e-20
-1.5432735e-21
-1.8782045e-22
-1.8909883e-23
-1.5569543e-24
-1.0305554e-25
-5.3507733e-27
-2.0953228e-28
-5.806492e-30
-1.0116828e-31
-8.2978922e-34
0.00030835883
3.2103491e-05
2.0263393e-06
3.3738459e-07
5.3384062e-08
6.4911464e-09
5.9497159e-10
4.5423587e-11
4.2831781e-12
2.9688289e-13
-9.0001295e-14
-3.9591003e-14
-6.7066946e-15
-1.0849828e-15
-1.7218423e-16
-3.3070437e-17
-8.1167454e-18
-2.0569018e-18
-4.6102513e-19
-8.7831075e-20
-1.4139186e-20
-1.9191215e-21
-2.1818327e-22
-2.0584041e-23
-1.5908317e-24
-9.8800301e-26
-4.798618e-27
-1.7467067e-28
-4.4441297e-30
-6.9576858e-32
-4.9250766e-34
0.00090399407
0.00043414551
6.4550403e-05
5.8219354e-06
9.5749104e-07
1.5027659e-07
1.8102815e-08
1.6114639e-09
1.0780932e-10
3.7559106e-12
-3.365999e-13
-1.8029673e-13
-3.3112298e-14
-4.7910797e-15
-7.6032643e-16
-1.5574435e-16
-4.3381032e-17
-1.2354333e-17
-3.0669911e-18
-6.4117989e-19
-1.1326999e-19
-1.6955444e-20
-2.1464655e-21
-2.2801741e-22
-2.0094672e-23
-1.4458803e-24
-8.2937313e-26
-3.664993e-27
-1.1806937e-28
-2.5105151e-30
-2.8629283e-32
-8.364747e-35
0.0010967072
0.00094668358
0.0005531739
0.00012370617
1.5778941e-05
2.5806131e-06
3.9964099e-07
4.735352e-08
4.0731462e-09
1.5309621e-10
7.4621385e-14
-7.6778111e-13
-1.5761923e-13
-2.1258983e-14
-3.1709722e-15
-6.5335006e-16
-2.0570677e-16
-6.6112549e-17
-1.8146597e-17
-4.1563481e-18
-8.0091478e-19
-1.3109859e-19
-1.8251322e-20
-2.1496134e-21
-2.1176463e-22
-1.7165815e-23
-1.1176695e-24
-5.6139896e-26
-2.0264978e-27
-4.41197e-29
-1.6251604e-31
1.834258e-32
3.6416813e-34
0.001147972
0.0010314209
0.00090414722
0.00068740969
0.0002327402
3.9768981e-05
6.5514397e-06
9.9167484e-07
1.1355859e-07
5.7026007e-09
7.1378716e-11
-3.2364535e-12
-6.9272316e-13
-9.3778426e-14
-1.2377423e-14
-2.4428735e-15
-8.5132117e-16
-3.154677e-16
-9.6162254e-17
-2.4078819e-17
-5.0441984e-18
-8.9571221e-19
-1.3566515e-19
-1.7458467e-20
-1.886531e-21
-1.6775269e-22
-1.1873979e-23
-6.2703902e-25
-2.0504093e-26
-2.0977307e-29
4.0848299e-29
2.4007819e-30
6.7467406e-32
8.1542097e-34
0.0011345041
0.0010509109
0.00089956677
0.00088530162
0.00089776526
0.00042061096
9.0766296e-05
1.5325819e-05
2.2319466e-06
1.4730924e-07
2.6531564e-09
-2.6718002e-11
-2.941883e-12
-3.936421e-13
-4.6555239e-14
-7.7559726e-15
-3.0746299e-15
-1.333563e-15
-4.5941939e-16
-1.2570745e-16
-2.8494181e-17
-5.4574812e-18
-8.8982784e-19
-1.233459e-19
-1.4329771e-20
-1.3553949e-21
-9.8360954e-23
-4.6245579e-24
-1.6139482e-26
2.0789286e-26
2.1721729e-27
1.293729e-28
4.9608183e-30
1.1472786e-31
1.2349032e-33
0.0010843804
0.001038853
0.00089408558
0.00082938022
0.0010144982
0.0012084647
0.00069238019
0.00017955679
3.1520094e-05
2.6250747e-06
6.1256845e-08
-8.1703961e-10
-2.2034378e-11
-1.557483e-12
-1.6734712e-13
-1.9668734e-14
-9.0554941e-15
-5.0166387e-15
-1.9753053e-15
-5.9679646e-16
-1.4568999e-16
-2.9865603e-17
-5.1952945e-18
-7.638768e-19
-9.3180844e-20
-8.9759781e-21
-5.939722e-22
-9.546009e-24
3.9159103e-24
6.578335e-25
6.3897743e-26
4.3534197e-27
2.1365799e-28
7.3005674e-30
1.5630191e-31
1.5903764e-33
0.0010195303
0.0010119621
0.00089418306
0.00080723158
0.00093949138
0.0013026564
0.001526574
0.00096418446
0.00028520404
3.1635014e-05
9.1949006e-07
-2.592275e-08
-6.0489622e-10
-6.9917181e-12
-5.7130302e-13
-2.9880246e-14
-1.8511704e-14
-1.6243575e-14
-7.7013044e-15
-2.5822569e-15
-6.8161062e-16
-1.4824482e-16
-2.7183796e-17
-4.1730469e-18
-5.1782756e-19
-4.6977165e-20
-1.8410846e-21
3.2692607e-22
9.0077004e-23
1.2912551e-23
1.3298234e-24
1.0475145e-25
6.3233027e-27
2.8627946e-28
9.2222062e-30
1.8883755e-31
1.8546133e-33
0.00095864231
0.00098135614
0.0009103904
0.00081405402
0.00089454395
0.0012114162
0.0015598168
0.0016192667
0.0010174701
0.00021481936
8.1940911e-06
-5.7590745e-07
-1.8350423e-08
-9.9522752e-11
-1.9054172e-12
5.7715713e-14
3.3960922e-16
-4.3068275e-14
-2.6942866e-14
-1.0281463e-14
-2.9354872e-15
-6.7607512e-16
-1.2877997e-16
-2.0174991e-17
-2.4313533e-18
-1.7054334e-19
1.1012207e-20
6.3686102e-21
1.3137355e-21
1.9037303e-22
2.1462059e-23
1.9339221e-24
1.3944906e-25
7.8997988e-27
3.4076352e-28
1.0560903e-29
2.0966009e-31
2.0068936e-33
0.00093658424
0.00097319924
0.00094566926
0.00085431486
0.00087674295
0.0011179118
0.001434317
0.001497789
0.0011773138
0.00048262956
2.2604415e-05
-8.7006566e-06
-3.9855098e-07
-3.0664151e-09
-1.4290958e-11
8.4738886e-13
2.9228097e-13
-7.6586045e-14
-8.4067818e-14
-3.7625866e-14
-1.1770698e-14
-2.8597021e-15
-5.6070018e-16
-8.6922709e-17
-9.298147e-18
-1.2589217e-19
2.4332574e-19
7.4734643e-20
1.4782547e-20
2.2619838e-21
2.8085241e-22
2.8686773e-23
2.4095399e-24
1.645892e-25
8.9322051e-27
3.7202993e-28
1.1194806e-29
2.1691617e-31
2.0339196e-33
0.00097073433
0.00098630521
0.00099779719
0.00092610918
0.00089117467
0.0010353451
0.0012842866
0.0013383805
0.00083781477
0.00015340667
-0.00016266281
-8.4328453e-05
-5.9595455e-06
-7.6000959e-08
-4.1882803e-10
4.1936627e-12
2.2065194e-12
1.8711777e-13
-2.2266916e-13
-1.2721269e-13
-4.4083172e-14
-1.1373832e-14
-2.2744146e-15
-3.3842539e-16
-2.622232e-17
4.3574881e-18
2.4969814e-18
6.7842085e-19
1.3714679e-19
2.2472299e-20
3.0679326e-21
3.5173482e-22
3.3815659e-23
2.706446e-24
1.7752886e-25
9.3114667e-27
3.7670356e-28
1.1051495e-29
2.0965432e-31
1.9257744e-33
0.0010439956
0.0010443785
0.0010435471
0.0010125633
0.0009340419
0.00097208427
0.0011212563
0.0011090748
0.00055396715
-0.00031419464
-0.00076182438
-0.00044721952
-5.8772234e-05
-1.3167409e-06
-1.1806674e-08
-2.0101223e-11
1.100523e-11
2.4231577e-12
-4.2337148e-14
-3.7460678e-13
-1.5552977e-13
-4.2835905e-14
-8.7564108e-15
-1.2106152e-15
-3.1843956e-17
4.6627508e-17
1.9237621e-17
5.1357063e-18
1.0845673e-18
1.9104968e-19
2.8552618e-20
3.638933e-21
3.9484416e-22
3.6249095e-23
2.7886009e-24
1.7656722e-25
8.9769704e-27
3.532962e-28
1.0111042e-29
1.8743209e-31
1.6872935e-33
0.0010397673
0.0010920083
0.0010633925
0.0010716457
0.00099030656
0.0009287901
0.0009567549
0.00086548949
0.00031470277
-0.00062363716
-0.0013395145
-0.0011530946
-0.00032914952
-1.6059387e-05
-2.3112374e-07
-1.2127997e-09
5.2449204e-11
1.3395882e-11
1.7875244e-12
-8.5728016e-13
-5.2220467e-13
-1.5436728e-13
-3.2441441e-14
-4.1188845e-15
2.0624968e-16
3.2202361e-16
1.2281606e-16
3.3546814e-17
7.471892e-18
1.4125857e-18
2.2986107e-19
3.2269381e-20
3.9019515e-21
4.0430573e-22
3.5606026e-23
2.6367608e-24
1.6105323e-25
7.9197159e-27
3.0225506e-28
8.4058246e-30
1.5132522e-31
1.3298117e-33
0.0010384358
0.0010449729
0.001133864
0.0010619717
0.0010284733
0.00090176422
0.00080331153
0.00062028575
0.00010234052
-0.00079597034
-0.0017003275
-0.0018599814
-0.00096447376
-0.00012166646
-3.2061038e-06
-2.3930893e-08
8.0957546e-10
9.8295113e-11
1.218753e-11
-1.7234477e-12
-1.7199367e-12
-5.3666294e-13
-1.1745996e-13
-1.3895749e-14
1.9155782e-15
1.7894492e-15
6.7775026e-16
1.9269228e-16
4.5472814e-17
9.2063062e-18
1.6195025e-18
2.482709e-19
3.3070156e-20
3.8099826e-21
3.7702595e-22
3.1752288e-23
2.2497672e-24
1.3141325e-25
6.181691e-27
2.2586602e-28
5.9915166e-30
1.0317222e-31
8.7157201e-34
0.0010040386
0.00091983704
0.0010978551
0.0011826168
0.0010627617
0.00087495205
0.00067185628
0.000392269
-8.4816317e-05
-0.00087011811
-0.0018380353
-0.0023336799
-0.001699831
-0.00046873357
-2.9603653e-05
-2.7320595e-07
2.8582282e-08
2.7999079e-09
1.6488771e-10
-6.4350174e-13
-5.5192196e-12
-1.8169838e-12
-4.1826857e-13
-4.8860515e-14
9.9563176e-15
8.4818774e-15
3.3238329e-15
9.8806644e-16
2.4694199e-16
5.3387776e-17
1.0090694e-17
1.6728971e-18
2.4275369e-19
3.0654834e-20
3.3460982e-21
3.1293525e-22
2.480825e-23
1.6443884e-24
8.9094387e-26
3.8513378e-27
1.2741207e-28
3.0090843e-30
4.5514123e-32
3.3609372e-34
0.00081868749
0.00084090287
0.0009137217
0.0011972725
0.0012458036
0.0010758702
0.0005680128
0.00020303918
-0.00023190369
-0.00087200532
-0.0017955299
-0.0024900055
-0.0022188998
-0.00099136299
-0.00014296217
-1.458734e-06
7.0973838e-07
9.4913049e-08
6.6489e-09
1.4906624e-10
-1.6625516e-11
-6.5824365e-12
-1.4614124e-12
-1.8194916e-13
3.9348774e-14
3.5401241e-14
1.4637199e-14
4.5947463e-15
1.2092514e-15
2.7759189e-16
5.6022628e-17
9.9534758e-18
1.5541356e-18
2.1190901e-19
2.5003341e-20
2.524854e-21
2.149692e-22
1.5134504e-23
8.5362122e-25
3.6424318e-26
1.0558172e-27
1.2544329e-29
-3.7945422e-31
-1.8629785e-32
-2.4978928e-34
0.00049030151
0.00069442804
0.00070831524
0.001012381
0.0013300343
0.0013212503
0.0011024105
7.7658953e-05
-0.00032310701
-0.00081211734
-0.0016219453
-0.0024030509
-0.0023474203
-0.0013316688
-0.00028839911
1.0693593e-05
1.1246787e-05
2.0951703e-06
2.1154602e-07
7.6337429e-09
-2.2889148e-12
-2.3970469e-11
-5.0249481e-12
-6.9698592e-13
1.2585014e-13
1.3231758e-13
5.859727e-14
1.9475037e-14
5.4113337e-15
1.305838e-15
2.7889438e-16
5.2602184e-17
8.7177948e-18
1.2603068e-18
1.5660599e-19
1.6377609e-20
1.3908072e-21
8.8775716e-23
3.2962411e-24
-7.6473138e-26
-2.3602827e-26
-2.0653772e-27
-1.123483e-28
-3.9937624e-30
-8.6017131e-32
-8.5808269e-34
2.6368831e-05
0.00042812988
0.000515366
0.00070144665
0.0011879962
0.0014724895
0.0013978463
0.0011316143
-0.00032793931
-0.00069254811
-0.0013664614
-0.0021560678
-0.0023013563
-0.0013809414
-0.00010955922
0.00024668248
0.00011635463
2.9629777e-05
4.240496e-06
2.3101152e-07
2.3906078e-09
-8.7148419e-11
-1.7405402e-11
-2.6214842e-12
3.201747e-13
4.4803131e-13
2.1527634e-13
7.595219e-14
2.2220444e-14
5.6282745e-15
1.2547381e-15
2.4795919e-16
4.2928923e-17
6.4104224e-18
8.0464161e-19
7.9906422e-20
5.2959883e-21
1.4108855e-23
-5.7836245e-23
-9.9904888e-24
-1.0910822e-24
-8.7583944e-26
-5.3278498e-27
-2.4053604e-28
-7.6499976e-30
-1.534289e-31
-1.4615875e-33
-0.00020226904
5.1722815e-05
0.00029021977
0.00040448111
0.00078172714
0.0013812667
0.0016048235
0.0014547082
0.0011355747
-0.00050305468
-0.0010623104
-0.0017832319
-0.0021159841
-0.0013533589
0.00021198291
0.0011012316
0.00074045428
0.00026170138
5.3629688e-05
4.2967458e-06
7.3012209e-08
-9.8354766e-10
-6.0334544e-11
-9.5012597e-12
5.8185772e-13
1.3852817e-12
7.3151621e-13
2.7478573e-13
8.4496339e-14
2.232259e-14
5.1631379e-15
1.0479211e-15
1.8507122e-16
2.7410279e-17
3.1600576e-18
2.1526759e-19
-1.3239597e-20
-7.5188589e-21
-1.5164645e-21
-2.1565787e-22
-2.3924677e-23
-2.1316217e-24
-1.5218123e-25
-8.5545141e-27
-3.6549603e-28
-1.1174804e-29
-2.1789688e-31
-2.0356869e-33
-0.00025334554
-3.8127326e-05
3.5580682e-05
9.758442e-05
0.00032952477
0.00091703049
0.0015521007
0.0016987877
0.0014544332
0.00096892893
-0.00071692955
-0.0013854807
-0.0017984561
-0.0012547001
0.00028059972
0.0018126103
0.0021263305
0.0012538235
0.00040450836
4.9368671e-05
1.2586776e-06
-3.0671267e-08
-3.6183904e-10
-3.2966971e-11
2.1698095e-13
3.9466485e-12
2.3174783e-12
9.2943469e-13
3.0012722e-13
8.2272906e-14
1.9523886e-14
4.0066446e-15
6.9326543e-16
9.3684422e-17
7.0231534e-18
-8.1562714e-19
-4.6766976e-19
-1.1650295e-19
-2.1213317e-20
-3.1023125e-21
-3.749581e-22
-3.769193e-23
-3.1406804e-24
-2.1372044e-25
-1.1582352e-26
-4.813985e-28
-1.4416862e-29
-2.768809e-31
-2.5596247e-33
-0.00043266127
-8.9885785e-05
-4.2890784e-05
-0.00016007246
-0.0001081502
0.00029798983
0.0010735185
0.0016890624
0.0017151135
0.0012911522
0.00054079852
-0.0011007441
-0.0014223854
-0.0010836042
0.00022790424
0.0018942373
0.0029036719
0.0027254189
0.0014880705
0.00032220729
1.2611751e-05
-7.4738105e-07
-1.0896043e-08
-1.1832143e-10
-3.8703273e-12
1.0377222e-11
6.8918976e-12
2.9604247e-12
1.0043917e-12
2.8465249e-13
6.8589648e-14
1.389479e-14
2.223605e-15
2.1365434e-16
-1.9918444e-17
-1.6787133e-17
-5.2333258e-18
-1.1962378e-18
-2.2283129e-19
-3.4888659e-20
-4.6444748e-21
-5.2637197e-22
-5.0533694e-23
-4.0667169e-24
-2.6914341e-25
-1.4274045e-26
-5.8346588e-28
-1.7255109e-29
-3.2838758e-31
-3.0173663e-33
-0.00079795288
-0.00018167564
-7.9632601e-07
-0.00018761731
-0.00041492962
-0.00029881583
0.00030167474
0.0012237509
0.0017465695
0.0015858401
0.00085339982
0.00016636255
-0.0010962468
-0.00087718412
0.00013306399
0.0016659696
0.0028667579
0.0031221505
0.0023473673
0.00089347285
6.6392117e-05
-1.1507194e-05
-3.4935529e-07
-1.2926952e-09
-2.3715852e-11
2.5634273e-11
1.9335707e-11
8.9344907e-12
3.1902987e-12
9.3418773e-13
2.2675859e-13
4.4125319e-14
5.8262118e-15
-5.677054e-17
-3.5550821e-16
-1.4730547e-16
-4.2263349e-17
-9.7748714e-18
-1.9197616e-18
-3.2516401e-19
-4.7687438e-20
-6.0525746e-21
-6.61678e-22
-6.1807776e-23
-4.8628123e-24
-3.160482e-25
-1.6525384e-26
-6.6819171e-28
-1.9603161e-29
-3.7102578e-31
-3.3978725e-33
-0.00097261586
-0.00052524953
4.4249162e-05
1.5837431e-05
-0.00040669905
-0.00067547297
-0.00044567547
0.00032557822
0.0013416478
0.001681603
0.0012009335
0.00033006714
2.0267898e-05
-0.00070195583
1.0967586e-05
0.0012807435
0.0024421793
0.0028183384
0.0020920375
0.00089006868
-3.3522868e-06
-9.7423965e-05
-6.9337309e-06
-4.5659422e-08
-1.5698155e-10
5.8756379e-11
5.1693448e-11
2.5665499e-11
9.6820615e-12
2.9344081e-12
7.1571513e-13
1.3030182e-13
1.086153e-14
-4.0367388e-15
-2.6561891e-15
-9.7015956e-16
-2.788361e-16
-6.7528789e-17
-1.4121117e-17
-2.589966e-18
-4.171058e-19
-5.8869148e-20
-7.2519982e-21
-7.743884e-22
-7.0987653e-23
-5.49678e-24
-3.5278806e-25
-1.8268796e-26
-7.3341062e-28
-2.1409968e-29
-4.040008e-31
-4.057166e-35
-0.00061636014
-0.00084864304
-0.00019244718
0.00025404661
-2.4996864e-05
-0.00063848959
-0.00092463837
-0.00054147485
0.00037462793
0.0013672193
0.0014243204
0.00058026692
4.8876989e-05
1.0217704e-06
-9.5164107e-05
0.00082881969
0.0017949835
0.0021657939
0.0015620154
0.00030901957
-0.00062132876
-0.00050232137
-8.8160341e-05
-1.2013588e-06
-4.5556844e-09
1.2436379e-10
1.3107184e-10
7.0566775e-11
2.8183025e-11
8.8965621e-12
2.1868477e-12
3.6644282e-13
4.159167e-15
-2.8291578e-14
-1.4881105e-14
-5.366193e-15
-1.5826661e-15
-4.0472345e-16
-9.0788312e-17
-1.7983811e-17
-3.1654829e-18
-4.9346696e-19
-6.7865106e-20
-8.1886166e-21
-8.602658e-22
-7.7724936e-23
-5.9497524e-24
-3.784993e-25
-1.9472617e-26
-7.7823413e-28
-2.2657356e-29
-5.3912147e-33
-2.4398509e-37
-0.00023988788
-0.00066273687
-0.00062901665
0.00020006503
0.00044866698
-8.7844834e-05
-0.00083796939
-0.0010962853
-0.00058710673
0.00045398182
0.0012728359
0.00085354338
0.00010712979
2.6241379e-06
4.3309279e-08
0.00036254525
0.0010653083
0.0013151985
0.00092576191
-0.00013747627
-0.0013728832
-0.0014435825
-0.00047693012
-2.3210772e-05
-1.5443788e-07
-3.0717004e-11
3.1991593e-10
1.8505776e-10
7.8924796e-11
2.6121678e-11
6.5621769e-12
1.018773e-12
-7.6654017e-14
-1.3957573e-13
-6.9949297e-14
-2.5808911e-14
-7.9725087e-15
-2.1471336e-15
-5.1605939e-16
-1.1050787e-16
-2.1130998e-17
-3.6151094e-18
-5.506064e-19
-7.4307811e-20
-8.8305736e-21
-9.1600913e-22
-8.1874872e-23
-6.2157992e-24
-3.9303053e-25
-2.0137323e-26
-8.0289093e-28
-3.3670715e-31
-3.7001096e-35
-6.233971e-40
-0.00010525434
-0.000441052
-0.00078048987
-0.00028395819
0.00062159141
0.00062119582
-0.00015268685
-0.00099016467
-0.0012012186
-0.00056172819
0.00056258167
0.00095909487
0.00020258198
6.3720509e-06
1.1266405e-07
1.356964e-09
0.00027007922
0.00040814909
0.00024131725
-0.00043637603
-0.0017311527
-0.0024498827
-0.0014562743
-0.00020385292
-4.2583217e-06
-1.4106849e-08
7.3019804e-10
4.6791293e-10
2.1211494e-10
7.438895e-11
1.9395549e-11
2.9201793e-12
-4.3215352e-13
-5.6801147e-13
-2.8808984e-13
-1.1056043e-13
-3.5939029e-14
-1.0279154e-14
-2.6240995e-15
-6.0565041e-16
-1.2554573e-16
-2.3402962e-17
-3.9194899e-18
-5.8655352e-19
-7.8033729e-20
-9.1678102e-21
-9.4120912e-22
-8.3463238e-23
-6.2999603e-24
-3.9683372e-25
-2.0289729e-26
-1.3258042e-29
-2.6221457e-33
-1.1076511e-37
-5.6418651e-43
-0.00047067395
-0.00056881244
-0.00071728347
-0.00075237651
0.00015580299
0.00098030296
0.00076178798
-0.00021884257
-0.0011107834
-0.0012212883
-0.00040100566
0.00065170087
0.00030625896
1.4209251e-05
2.7734191e-07
3.6847965e-09
2.2151231e-11
-0.00041316271
-0.0003669278
-0.00065091639
-0.0016759434
-0.0029818399
-0.0027007623
-0.00088623181
-5.3517327e-05
-5.8796419e-07
6.8073168e-10
1.1252227e-09
5.5020158e-10
2.0499127e-10
5.6466025e-11
8.7526533e-12
-1.5582628e-12
-2.0108298e-12
-1.0639574e-12
-4.283067e-13
-1.4678303e-13
-4.4510566e-14
-1.2127606e-14
-2.9839994e-15
-6.6855732e-16
-1.3521887e-16
-2.4717659e-17
-4.0711839e-18
-6.0092439e-19
-7.9065973e-20
-9.2010598e-21
-9.3730203e-22
-8.2651402e-23
-6.2160293e-24
-3.9081752e-25
-3.7171138e-28
-1.1671255e-31
-9.1060077e-36
-1.2032383e-40
-1.6894984e-46
-0.001027799
-0.001078186
-0.0010253031
-0.0010868977
-0.00056152297
0.00062681002
0.0013132566
0.00085609631
-0.00030516081
-0.001223793
-0.0010356928
-5.587591e-05
0.00032365183
2.7798363e-05
6.3902107e-07
9.3327668e-09
8.190899e-11
-2.7190296e-12
-0.00077178535
-0.00071966511
-0.0013894783
-0.0028842864
-0.0036026924
-0.0021068411
-0.00034134807
-1.0305739e-05
-4.653747e-08
2.6303534e-09
1.361932e-09
5.4630073e-10
1.608826e-10
2.709731e-11
-4.3682419e-12
-6.3767694e-12
-3.5790306e-12
-1.5178366e-12
-5.4830548e-13
-1.7590582e-13
-5.0952995e-14
-1.3409209e-14
-3.2089518e-15
-7.0229607e-16
-1.3930105e-16
-2.506648e-17
-4.0733785e-18
-5.9468117e-19
-7.7555121e-20
-8.9547264e-21
-9.0708226e-22
-7.9700242e-23
-5.9837841e-24
-7.9356504e-27
-3.6893684e-30
-4.6744177e-34
-1.1671062e-38
-4.4022567e-44
-1.8992614e-50
-0.00088857892
-0.0014491067
-0.0015593638
-0.0014926628
-0.0012233497
-0.00028169902
0.0010706481
0.0015634987
0.00085229937
-0.0005029381
-0.0010988002
-0.00056010134
9.5656354e-05
4.385666e-05
1.359866e-06
2.2057897e-08
2.1803256e-10
1.3850214e-12
-1.4099321e-12
-0.00050945125
-0.0009514908
-0.0023082649
-0.0038227893
-0.0033106999
-0.0011404404
-9.4103292e-05
-1.3973513e-06
2.6734511e-08
3.4198886e-09
1.401314e-09
4.4561878e-10
8.4142091e-11
-9.5897613e-12
-1.8383986e-11
-1.1101925e-11
-4.9676061e-12
-1.8887648e-12
-6.3914492e-13
-1.9609014e-13
-5.4921329e-14
-1.4069603e-14
-3.2928347e-15
-7.0672356e-16
-1.3796438e-16
-2.4502454e-17
-3.9376738e-18
-5.6983192e-19
-7.3739524e-20
-8.4643607e-21
-8.5424177e-22
-7.4930768e-23
-1.3460693e-25
-8.8638531e-29
-1.6977025e-32
-7.0125372e-37
-5.0140404e-42
-6.7316118e-48
-1.7982528e-55
-0.00042052557
-0.0010936704
-0.0018547517
-0.0020375065
-0.0019206088
-0.0012759913
3.8531456e-05
0.0014456821
0.0016793273
0.00053292741
-0.00060057256
-0.00058700269
-0.00012801528
2.2625146e-05
2.5724272e-06
4.8564072e-08
5.1953038e-10
6.6109109e-12
-2.9244632e-13
-5.7711016e-13
-0.0004465552
-0.0016049713
-0.0033313303
-0.0040393062
-0.0023044973
-0.00043758539
-1.7765274e-05
1.4292991e-07
5.1651172e-08
4.0158633e-09
1.1983014e-09
2.5553809e-10
-1.3958409e-11
-4.8686161e-11
-3.1961977e-11
-1.5147592e-11
-6.045095e-12
-2.1496232e-12
-6.955989e-13
-2.0642486e-13
-5.6297387e-14
-1.4105629e-14
-3.2399297e-15
-6.8367039e-16
-1.3168568e-16
-2.3123971e-17
-3.6814276e-18
-5.286978e-19
-6.7981605e-20
-7.7718642e-21
-7.8291671e-22
-1.867496e-24
-1.6896547e-27
-4.674273e-31
-2.9692878e-35
-3.4890442e-40
-9.0454855e-46
-4.6940311e-52
2.0289843e-58
-5.0382926e-05
-0.00046497038
-0.0014825032
-0.0023838232
-0.0025782684
-0.0022516543
-0.001228987
0.00038831764
0.0017284744
0.0014034138
-5.3307358e-06
-0.00030769215
-0.00014618824
-1.2061985e-05
1.7674134e-06
9.8253485e-08
1.157081e-09
1.3518122e-11
8.3202412e-13
-2.3997982e-13
-2.1234095e-13
-0.00089340892
-0.0025640674
-0.0040710463
-0.0033105419
-0.0010864173
-8.7926626e-05
2.3261353e-06
7.0762208e-07
8.9164424e-08
5.2272768e-09
7.7299401e-10
4.1091753e-12
-1.1940759e-10
-8.6723892e-11
-4.3327668e-11
-1.8106807e-11
-6.7357515e-12
-2.2880602e-12
-7.1595863e-13
-2.0685679e-13
-5.5162252e-14
-1.3556623e-14
-3.0625964e-15
-6.3640578e-16
-1.2114165e-16
-2.1057061e-17
-3.3255156e-18
-4.7414359e-19
-6.0677042e-20
-6.921131e-21
-2.1634787e-23
-2.6319977e-26
-1.0191917e-29
-9.5106865e-34
-1.703943e-38
-7.1090611e-44
-8.4868905e-50
-1.745393e-57
3.0155056e-62
-0.00017225268
0.00026194087
-0.0005703634
-0.0019260622
-0.0028901797
-0.0030171499
-0.002377933
-0.0010155201
0.00079699034
0.0017612739
0.00050325502
-7.9124214e-05
-5.9811743e-05
-1.5911712e-05
-6.4770095e-07
8.1342366e-08
2.4554148e-09
2.3437628e-11
1.7328245e-12
8.7377075e-14
-1.1602306e-13
-7.1375931e-14
-0.0018393639
-0.0034474062
-0.003763636
-0.0017937071
-9.4504172e-05
8.7895296e-05
1.4665059e-05
1.8043157e-06
1.8644785e-07
9.9633595e-09
3.029264e-10
-2.7030171e-10
-2.2054066e-10
-1.1738933e-10
-5.1080531e-11
-1.9786973e-11
-7.0195279e-12
-2.3038459e-12
-7.0144632e-13
-1.9802899e-13
-5.1750141e-14
-1.2492451e-14
-2.7785244e-15
-5.6902853e-16
-1.0711057e-16
-1.8439037e-17
-2.8885591e-18
-4.0935148e-19
-5.2219467e-20
-2.1243347e-22
-3.4220738e-25
-1.8135133e-28
-2.4096446e-32
-6.2971431e-37
-3.8571266e-42
-7.717563e-48
-4.0775019e-54
2.9367128e-60
2.9661959e-66
-0.0010274872
0.00060570677
0.0005657686
-0.00068009802
-0.0022514754
-0.003147146
-0.0031137095
-0.0021979345
-0.00058221194
0.0011963677
0.00089659143
5.4693589e-05
-1.4541659e-05
-4.9878238e-06
-9.6014666e-07
-2.1362761e-08
2.3899398e-09
4.1362217e-11
2.1019933e-12
3.3468519e-13
-2.437931e-14
-4.5351936e-14
-2.2060032e-14
-0.0026769023
-0.0035288424
-0.0023428415
-6.5617592e-05
0.0007200897
0.00027604911
4.023872e-05
4.8540314e-06
4.720405e-07
2.6094199e-08
-2.7861135e-10
-5.3536388e-10
-3.0181025e-10
-1.3679056e-10
-5.483136e-11
-2.0201656e-11
-6.9147036e-12
-2.2057751e-12
-6.5545606e-13
-1.8107315e-13
-4.6395091e-14
-1.1000757e-14
-2.4080658e-15
-4.8589549e-16
-9.0390132e-17
-1.5408325e-17
-2.3925612e-18
-3.373626e-19
-1.7863533e-21
-3.7720469e-24
-2.6910164e-27
-4.9788828e-31
-1.8452655e-35
-1.5750333e-40
-4.6212295e-46
-4.98727e-52
5.3730957e-62
3.886125e-64
2.5510334e-70
-0.0018935201
0.00013044604
0.0013987095
0.00089691597
-0.00069071849
-0.0023322245
-0.0030453573
-0.0028076774
-0.0016662269
3.8992946e-05
0.00086836915
0.00016777222
3.2192523e-06
-1.0707917e-06
-2.6216068e-07
-3.716726e-08
-4.3907834e-10
4.3940707e-11
1.766255e-12
4.1727377e-13
4.2685837e-14
-2.0678536e-14
-1.5542927e-14
-6.250842e-15
-0.002829555
-0.0024767177
-0.00027805973
0.0016019985
0.0016410123
0.00061142176
0.00010151919
1.2959212e-05
1.2669174e-06
3.0437889e-08
-1.1800861e-09
-7.4491537e-10
-3.4857875e-10
-1.4417869e-10
-5.485623e-11
-1.9462895e-11
-6.4635356e-12
-2.0085812e-12
-5.8273324e-13
-1.5739875e-13
-3.9479348e-14
-9.175466e-15
-1.9720002e-15
-3.9118408e-16
-7.1735103e-17
-1.2072733e-17
-1.8580648e-18
-1.2942767e-20
-3.5651232e-23
-3.384071e-26
-8.5763819e-30
-4.4243987e-34
-5.1008763e-39
-2.042349e-44
-3.4200749e-50
-1.768945e-56
1.9067945e-62
3.7641371e-68
2.0285517e-74
-0.0020790323
-0.0010257438
0.0014018854