/*--------------------------------*- C++ -*----------------------------------*\
| =========                 |                                                 |
| \\      /  F ield         | OpenFOAM: The Open Source CFD Toolbox           |
|  \\    /   O peration     | Version:  5.0                                   |
|   \\  /    A nd           | Web:      www.OpenFOAM.org                      |
|    \\/     M anipulation  |                                                 |
\*---------------------------------------------------------------------------*/
FoamFile
{
    version     2.0;
    format      ascii;
    class       volVectorField;
    location    "60";
    object      ddtCorrDdt0(U);
}
// * * * * * * * * * * * * * * * * * * * * * * * * * * * * * * * * * * * * * //

dimensions      [0 1 -2 0 0 0 0];

internalField   nonuniform List<vector> 
9520
(
(0.00031765448 5.0418008e-06 0)
(0.00032500473 1.4745511e-05 0)
(0.00030073889 8.7850678e-06 0)
(0.0003384215 2.369733e-05 0)
(0.00030807042 2.6091762e-05 0)
(0.00028648278 1.0371531e-05 0)
(0.00035723523 3.1742252e-05 0)
(0.00032157686 4.2970088e-05 0)
(0.00029318634 3.0950169e-05 0)
(0.00026588387 1.2584487e-05 0)
(0.00038093256 3.8738791e-05 0)
(0.00034076862 5.9611744e-05 0)
(0.00030560895 5.1388836e-05 0)
(0.00027156336 3.7715249e-05 0)
(0.00024588806 1.3952474e-05 0)
(0.00040907076 4.4430269e-05 0)
(0.00036533332 7.6096179e-05 0)
(0.000323382 7.2175823e-05 0)
(0.00028208363 6.3031283e-05 0)
(0.00025042104 4.1909947e-05 0)
(0.00022247297 1.5004269e-05 0)
(0.00044125686 4.8597148e-05 0)
(0.00039505155 9.2202142e-05 0)
(0.00034638617 9.3600125e-05 0)
(0.00029718873 8.9408856e-05 0)
(0.00025880593 7.0317973e-05 0)
(0.00022549024 4.5082557e-05 0)
(0.00020001519 1.5491237e-05 0)
(0.00047718671 5.1020651e-05 0)
(0.00042966631 0.00010768819 0)
(0.00037458243 0.00011559969 0)
(0.00031696747 0.00011738017 0)
(0.00027084163 0.00010040835 0)
(0.00023094014 7.5733507e-05 0)
(0.000201609 4.6524766e-05 0)
(0.00017764248 1.5479978e-05 0)
(0.0005164255 5.1482069e-05 0)
(0.00046905255 0.00012225676 0)
(0.00040778624 0.00013794052 0)
(0.00034170622 0.00014729925 0)
(0.0002866496 0.00013288934 0)
(0.00023870816 0.00010836984 0)
(0.00020429624 7.821198e-05 0)
(0.00017780442 4.6422597e-05 0)
(0.00015655472 1.501902e-05 0)
(0.00055848998 4.9978488e-05 0)
(0.00051289809 0.00013536297 0)
(0.0004461606 0.00016035032 0)
(0.0003714015 0.00017914534 0)
(0.00030661266 0.00016863878 0)
(0.00024880271 0.00014380536 0)
(0.00020801643 0.00011191054 0)
(0.00017778922 7.7930655e-05 0)
(0.00015547756 4.495798e-05 0)
(0.00013710873 1.4218837e-05 0)
(0.0006027128 4.6268391e-05 0)
(0.00056069929 0.00014647119 0)
(0.0004897999 0.00018212222 0)
(0.00040689597 0.00021299393 0)
(0.00033078514 0.0002081543 0)
(0.00026132956 0.00018329876 0)
(0.00021255822 0.00014863934 0)
(0.00017751187 0.00011108282 0)
(0.00015320054 7.5166254e-05 0)
(0.00013505514 4.2438107e-05 0)
(0.00011961942 1.3192524e-05 0)
(0.00064860524 4.1268351e-05 0)
(0.00061145364 0.00015477601 0)
(0.00053862216 0.0002024426 0)
(0.0004488239 0.00024845004 0)
(0.00035977896 0.00025166031 0)
(0.00027653561 0.00022798786 0)
(0.00021747982 0.00018980153 0)
(0.00017646781 0.00014714763 0)
(0.00014947152 0.00010643751 0)
(0.00013101108 7.0459494e-05 0)
(0.00011688637 3.9163368e-05 0)
(0.00010416973 1.2020026e-05 0)
(0.00069531717 3.4373537e-05 0)
(0.00066414433 0.00015994171 0)
(0.00059226517 0.00022015077 0)
(0.00049719389 0.00028430318 0)
(0.0003948919 0.00029926921 0)
(0.00029512702 0.00027855197 0)
(0.00022292594 0.00023687442 0)
(0.00017370948 0.00018735554 0)
(0.00014353008 0.00014017085 0)
(0.00012452429 9.8986591e-05 0)
(0.00011164586 6.4519841e-05 0)
(0.00010109163 3.5506358e-05 0)
(9.0827258e-05 1.0823551e-05 0)
(0.00074232663 2.8523153e-05 0)
(0.00071656609 0.00016056493 0)
(0.00064992316 0.00023385301 0)
(0.00055384439 0.000319903 0)
(0.00043813681 0.00035103072 0)
(0.0003182672 0.0003360114 0)
(0.00022908226 0.00029088927 0)
(0.00016915341 0.00023305574 0)
(0.000134225 0.00017714473 0)
(0.00011475858 0.0001292082 0)
(0.00010330808 9.000175e-05 0)
(9.5202537e-05 5.8241071e-05 0)
(8.7569466e-05 3.1952691e-05 0)
(7.9203036e-05 9.7241607e-06 0)
(0.00078962988 2.1683639e-05 0)
(0.00076787538 0.00015800238 0)
(0.00071040379 0.00024113443 0)
(0.0006193872 0.0003533779 0)
(0.00049024702 0.00040558121 0)
(0.00034757235 0.00040120324 0)
(0.00023663947 0.00035358746 0)
(0.00016243252 0.00028554168 0)
(0.00012115461 0.00021825202 0)
(0.00010072579 0.00016135499 0)
(9.118507e-05 0.00011619741 0)
(8.5778115e-05 8.0778142e-05 0)
(8.0891513e-05 5.2287907e-05 0)
(7.561562e-05 2.8673471e-05 0)
(6.9130093e-05 8.7024083e-06 0)
(0.00083560386 1.9285824e-05 0)
(0.00081563205 0.00014858412 0)
(0.00077242865 0.0002408708 0)
(0.00069574581 0.00038113392 0)
(0.00055523983 0.00046169381 0)
(0.00038623751 0.00047476527 0)
(0.00024659273 0.00042663749 0)
(0.00015315817 0.00034651953 0)
(0.00010344045 0.00026460149 0)
(8.1751432e-05 0.00019577891 0)
(7.4661657e-05 0.00014294174 0)
(7.2514035e-05 0.00010304001 0)
(7.0624682e-05 7.1961727e-05 0)
(6.8700808e-05 4.6616505e-05 0)
(6.558167e-05 2.554801e-05 0)
(6.0567616e-05 7.7337858e-06 0)
(0.0008838827 1.7596222e-05 0)
(0.00085910288 0.00013858731 0)
(0.00083376151 0.00022881333 0)
(0.00078154371 0.00040171864 0)
(0.00063628556 0.00051643023 0)
(0.00043818361 0.00055636923 0)
(0.000262421 0.00051160041 0)
(0.00014136202 0.00041812738 0)
(7.9230633e-05 0.00031712019 0)
(5.6337602e-05 0.00023274937 0)
(5.2922965e-05 0.0001699933 0)
(5.5095047e-05 0.00012479989 0)
(5.6626293e-05 9.0649972e-05 0)
(5.8457138e-05 6.3448566e-05 0)
(5.8815119e-05 4.1134292e-05 0)
(5.7133309e-05 2.2630419e-05 0)
(5.3225011e-05 6.8648081e-06 0)
(0.00092631129 2.3125439e-05 0)
(0.00089690451 0.00011827684 0)
(0.0008935075 0.00020954529 0)
(0.00087613586 0.0004080636 0)
(0.000733456 0.00057192014 0)
(0.00050362117 0.00064804866 0)
(0.0002827488 0.00061210373 0)
(0.00012702138 0.00050256527 0)
(4.8753516e-05 0.00037795777 0)
(2.2198754e-05 0.00027324316 0)
(2.4201306e-05 0.00019706952 0)
(3.2680739e-05 0.00014554776 0)
(3.862031e-05 0.00010827622 0)
(4.4688537e-05 7.8888896e-05 0)
(4.8897542e-05 5.5350411e-05 0)
(5.0598903e-05 3.6133626e-05 0)
(4.9968853e-05 2.0035476e-05 0)
(4.6952201e-05 6.109578e-06 0)
(0.00097570105 3.5234981e-05 0)
(0.00092186386 0.00010440477 0)
(0.00094742583 0.00017278816 0)
(0.00097590084 0.0004063615 0)
(0.00084715456 0.00061743393 0)
(0.00058604911 0.00075577977 0)
(0.00030486654 0.00073574592 0)
(0.00010038315 0.00061122541 0)
(9.8449427e-07 0.00045060351 0)
(-2.1455779e-05 0.00031848054 0)
(-1.2612895e-05 0.00022584637 0)
(3.9283419e-06 0.00016556623 0)
(1.5677615e-05 0.00012458626 0)
(2.7160279e-05 9.2822635e-05 0)
(3.5679044e-05 6.7871257e-05 0)
(4.1117947e-05 4.8113547e-05 0)
(4.3808942e-05 3.1735846e-05 0)
(4.3922304e-05 1.7761552e-05 0)
(4.1618703e-05 5.4549585e-06 0)
(0.0010098125 5.2749645e-05 0)
(0.0009409317 7.578407e-05 0)
(0.00099292392 0.00013527708 0)
(0.0010804231 0.00037811806 0)
(0.00097411403 0.00066385915 0)
(0.00069243153 0.00086997447 0)
(0.00033493283 0.00088790574 0)
(6.1816096e-05 0.00074751589 0)
(-7.2150441e-05 0.00054959755 0)
(-9.8612108e-05 0.00037449846 0)
(-6.7494805e-05 0.00025437483 0)
(-3.3212743e-05 0.00018423369 0)
(-1.3764329e-05 0.00013980667 0)
(5.0535123e-06 0.00010483477 0)
(1.9167281e-05 7.8367725e-05 0)
(2.8712397e-05 5.8140294e-05 0)
(3.5000016e-05 4.1786571e-05 0)
(3.8256959e-05 2.7901887e-05 0)
(3.8770105e-05 1.5785105e-05 0)
(3.6979804e-05 4.8789301e-06 0)
(0.0010626278 9.0895378e-05 0)
(0.00093097027 6.1114346e-05 0)
(0.0010261176 6.7255689e-05 0)
(0.0011892602 0.0003474134 0)
(0.0011151253 0.00067806098 0)
(0.00082253461 0.0010042468 0)
(0.00038229587 0.0010618623 0)
(1.8763814e-05 0.00091596962 0)
(-0.00016364549 0.00066417159 0)
(-0.00019605776 0.00044072993 0)
(-0.00015382294 0.00029121173 0)
(-9.6817857e-05 0.0001995353 0)
(-5.5551678e-05 0.00015158235 0)
(-2.3103888e-05 0.00011369077 0)
(-7.9689196e-07 8.5982772e-05 0)
(1.3696652e-05 6.5791522e-05 0)
(2.369219e-05 4.9710992e-05 0)
(3.0235608e-05 3.6319519e-05 0)
(3.367004e-05 2.4609238e-05 0)
(3.4498865e-05 1.4073123e-05 0)
(3.2999854e-05 4.3742504e-06 0)
(0.0010932046 0.00012495605 0)
(0.00092050466 3.8075335e-05 0)
(0.0010357115 1.3930204e-05 0)
(0.0012961775 0.00026959913 0)
(0.0012724108 0.00070242659 0)
(0.00099533336 0.0011260106 0)
(0.00045619035 0.0012851139 0)
(-3.1065679e-05 0.0011105695 0)
(-0.00027326364 0.00080027385 0)
(-0.00031029121 0.00050376786 0)
(-0.00024591889 0.00030810584 0)
(-0.0001566477 0.00021064475 0)
(-0.00010592133 0.0001637216 0)
(-5.7825417e-05 0.00011687394 0)
(-2.3458142e-05 8.8781982e-05 0)
(-3.3516323e-06 7.0179447e-05 0)
(1.0352874e-05 5.5162887e-05 0)
(2.0077465e-05 4.2544507e-05 0)
(2.6462121e-05 3.1683572e-05 0)
(2.9867055e-05 2.1800909e-05 0)
(3.0774409e-05 1.2581526e-05 0)
(2.9561362e-05 3.9354533e-06 0)
(0.0011297113 0.00019471351 0)
(0.00087612347 1.4088413e-05 0)
(0.0010342881 -8.8264078e-05 0)
(0.0014029075 0.0002016271 0)
(0.0014530607 0.00067044619 0)
(0.0011859826 0.0012723148 0)
(0.00056886733 0.0015109384 0)
(-7.9254349e-05 0.0013735117 0)
(-0.00041188941 0.00095719148 0)
(-0.00045485064 0.0005698102 0)
(-0.00035188897 0.00031133104 0)
(-0.00021974804 0.00018442315 0)
(-0.00013401691 0.00014692869 0)
(-8.1049418e-05 0.00010337646 0)
(-4.2543469e-05 8.2571817e-05 0)
(-2.0150854e-05 6.9959427e-05 0)
(-4.278725e-06 5.7648516e-05 0)
(8.2416639e-06 4.6336675e-05 0)
(1.7440068e-05 3.656228e-05 0)
(2.3503542e-05 2.7762911e-05 0)
(2.6707445e-05 1.9386087e-05 0)
(2.7598127e-05 1.1271819e-05 0)
(2.6585706e-05 3.5481201e-06 0)
(0.0011575203 0.00025190348 0)
(0.00082333183 3.2660824e-05 0)
(0.00099534562 -0.00016040219 0)
(0.0015003927 5.1537347e-05 0)
(0.0016530279 0.00065463434 0)
(0.0014453685 0.0013668357 0)
(0.00070469395 0.0018092352 0)
(-0.00012402007 0.0016458446 0)
(-0.00057752388 0.0011660855 0)
(-0.00064384687 0.00064400895 0)
(-0.00048943358 0.0002982166 0)
(-0.00029809893 0.00014277384 0)
(-0.00015556525 0.000105044 0)
(-9.4929451e-05 6.3187568e-05 0)
(-4.9109727e-05 6.2272785e-05 0)
(-3.2013367e-05 6.4107934e-05 0)
(-1.8614377e-05 5.7182877e-05 0)
(-4.7877491e-06 4.7571863e-05 0)
(6.9990174e-06 3.9039323e-05 0)
(1.5645761e-05 3.1559324e-05 0)
(2.117617e-05 2.4437555e-05 0)
(2.4028722e-05 1.7290296e-05 0)
(2.4861384e-05 1.0110142e-05 0)
(2.4006102e-05 3.2040767e-06 0)
(0.0011922082 0.00036191875 0)
(0.00075436221 -2.1664395e-05 0)
(0.00092664908 -0.00027191227 0)
(0.0015660134 -5.4881738e-05 0)
(0.0018676263 0.00054029387 0)
(0.0017398063 0.0015005996 0)
(0.000918372 0.0020876958 0)
(-0.00015635371 0.002075349 0)
(-0.00079616767 0.0013708059 0)
(-0.00087899139 0.00073540211 0)
(-0.00067033181 0.00027149356 0)
(-0.00039407323 7.4512572e-05 0)
(-0.00018955063 4.262145e-05 0)
(-0.00010725062 3.130797e-05 0)
(-5.266208e-05 3.8486308e-05 0)
(-3.9214359e-05 5.7054105e-05 0)
(-3.1847069e-05 5.5796778e-05 0)
(-1.8581413e-05 4.6929586e-05 0)
(-4.642831e-06 3.9086304e-05 0)
(6.6362701e-06 3.2945905e-05 0)
(1.4468901e-05 2.7387086e-05 0)
(1.9318847e-05 2.1614196e-05 0)
(2.1851771e-05 1.5467891e-05 0)
(2.2506944e-05 9.0814782e-06 0)
(2.1765944e-05 2.8981574e-06 0)
(0.0011993788 0.00042931959 0)
(0.0005993347 6.3924842e-05 0)
(0.00084579673 -0.00037598997 0)
(0.0016275195 -0.00030886077 0)
(0.0021010462 0.00048781264 0)
(0.0021007279 0.0015430713 0)
(0.0011678965 0.0024691439 0)
(-0.00017622221 0.0024548855 0)
(-0.0010295015 0.001706981 0)
(-0.0011978578 0.00082436735 0)
(-0.00089935004 0.0002119475 0)
(-0.00050825495 -2.8395664e-05 0)
(-0.00022831418 -5.0826378e-05 0)
(-0.00010684515 -1.4304825e-05 0)
(-5.8933064e-05 1.6250038e-05 0)
(-4.9573497e-05 5.9996413e-05 0)
(-4.7110947e-05 5.9336113e-05 0)
(-3.38348e-05 4.6467715e-05 0)
(-1.7556658e-05 3.7193606e-05 0)
(-3.4371359e-06 3.1804646e-05 0)
(6.9189499e-06 2.7927312e-05 0)
(1.3719865e-05 2.3932025e-05 0)
(1.7820258e-05 1.9214088e-05 0)
(1.9921379e-05 1.3861965e-05 0)
(2.0474666e-05 8.1773229e-06 0)
(1.9815857e-05 2.628093e-06 0)
(0.0012201655 0.00059346016 0)
(0.000516406 4.0531231e-06 0)
(0.00065893881 -0.00048656956 0)
(0.0016561724 -0.00048309943 0)
(0.0024009687 0.00022226407 0)
(0.0025355137 0.0016175909 0)
(0.0015294155 0.0028089248 0)
(-0.00018588684 0.0031046868 0)
(-0.0013662328 0.0020137032 0)
(-0.0015516907 0.00091146386 0)
(-0.0012011018 0.00014765817 0)
(-0.00066676709 -0.00019804514 0)
(-0.00025373846 -0.00018263201 0)
(-8.8073982e-05 -8.6499565e-05 0)
(-5.0541028e-05 -8.1664476e-06 0)
(-5.2884808e-05 6.3376949e-05 0)
(-6.1823773e-05 6.6475489e-05 0)
(-5.0813375e-05 4.7422641e-05 0)
(-3.2241731e-05 3.4075333e-05 0)
(-1.4789428e-05 2.8225612e-05 0)
(-1.3929439e-06 2.5803178e-05 0)
(7.6304004e-06 2.3893571e-05 0)
(1.3263599e-05 2.1086318e-05 0)
(1.6581567e-05 1.7165627e-05 0)
(1.8286717e-05 1.2460265e-05 0)
(1.8713204e-05 7.3908048e-06 0)
(1.8110733e-05 2.3939369e-06 0)
(0.0011546413 0.00073480407 0)
(0.00019069818 0.00013936252 0)
(0.00057715056 -0.000600003 0)
(0.0016189657 -0.00078888751 0)
(0.002599618 0.00010641607 0)
(0.0030037308 0.0016038656 0)
(0.0019503119 0.0032397894 0)
(-5.1051961e-05 0.0036680019 0)
(-0.001688088 0.0028294531 0)
(-0.0020824544 0.0011283351 0)
(-0.0015575484 -4.1166017e-06 0)
(-0.00082407466 -0.00039122542 0)
(-0.00027034769 -0.00037329646 0)
(-4.8764983e-05 -0.000186518 0)
(-1.3229556e-05 -3.1151148e-05 0)
(-4.0429572e-05 6.5622517e-05 0)
(-7.0330336e-05 7.9173629e-05 0)
(-6.8260518e-05 5.0635046e-05 0)
(-4.9237496e-05 3.0303842e-05 0)
(-2.8156632e-05 2.2368292e-05 0)
(-1.0731691e-05 2.078287e-05 0)
(1.2137576e-06 2.1133903e-05 0)
(8.5752149e-06 2.0739626e-05 0)
(1.2949419e-05 1.8759129e-05 0)
(1.5522374e-05 1.5417744e-05 0)
(1.6859769e-05 1.1252753e-05 0)
(1.7175982e-05 6.7233818e-06 0)
(1.6608671e-05 2.1969632e-06 0)
(0.0011128854 0.00085474786 0)
(7.3265523e-05 3.421699e-05 0)
(0.00023287171 -0.00072284567 0)
(0.0016299295 -0.0010841022 0)
(0.0028871736 -0.00017817152 0)
(0.0035619167 0.0016401089 0)
(0.0024377917 0.0036634042 0)
(2.9403121e-05 0.0044436618 0)
(-0.0021501407 0.0034149771 0)
(-0.0025962291 0.001286382 0)
(-0.0020453463 -0.00012445703 0)
(-0.0010422788 -0.00073428612 0)
(-0.00028008463 -0.00061584663 0)
(3.9304722e-05 -0.00032058099 0)
(6.9565472e-05 -6.7956992e-05 0)
(-1.5505024e-07 7.1493231e-05 0)
(-6.3565762e-05 9.605397e-05 0)
(-8.2465284e-05 5.6825268e-05 0)
(-6.9376715e-05 2.7461657e-05 0)
(-4.5334464e-05 1.489922e-05 0)
(-2.2074389e-05 1.2578437e-05 0)
(-5.6203162e-06 1.5138075e-05 0)
(4.0806149e-06 1.7768468e-05 0)
(9.5157256e-06 1.835874e-05 0)
(1.267482e-05 1.6870651e-05 0)
(1.458535e-05 1.394158e-05 0)
(1.5608675e-05 1.0237451e-05 0)
(1.5821223e-05 6.1767461e-06 0)
(1.5271034e-05 2.0384793e-06 0)
(0.00089863026 0.0011162342 0)
(-0.00026312128 0.00027824969 0)
(0.00014649521 -0.00087007191 0)
(0.0015951245 -0.0014492777 0)
(0.0032661706 -0.00054339716 0)
(0.0044826877 0.0013090895 0)
(0.0031258208 0.0041119082 0)
(9.9547653e-05 0.0052610153 0)
(-0.002606004 0.0038191324 0)
(-0.0034996575 0.0015585212 0)
(-0.0026155918 -0.000347757 0)
(-0.0012961997 -0.0011117429 0)
(-0.00027896522 -0.001001276 0)
(0.00018609109 -0.0005077642 0)
(0.00021661701 -0.00011587038 0)
(8.0860243e-05 8.8068324e-05 0)
(-4.1408615e-05 0.00012904455 0)
(-0.0001004897 8.3073845e-05 0)
(-9.9645065e-05 3.355807e-05 0)
(-7.0594929e-05 8.0248528e-06 0)
(-3.7578519e-05 9.2656059e-07 0)
(-1.3469636e-05 4.9840854e-06 0)
(4.0486046e-08 1.149328e-05 0)
(6.7865895e-06 1.5617612e-05 0)
(1.0282658e-05 1.6625115e-05 0)
(1.2371017e-05 1.5351256e-05 0)
(1.3733791e-05 1.272069e-05 0)
(1.4494595e-05 9.4112488e-06 0)
(1.4611982e-05 5.7505944e-06 0)
(1.4062831e-05 1.918774e-06 0)
(0.0002350674 0.0011805462 1.4760593e-24)
(-0.00043015398 4.8760125e-05 0)
(-0.00020921405 -0.0010027771 0)
(0.0015937823 -0.001826111 0)
(0.0037680556 -0.0010421827 0)
(0.0049223952 0.0014419246 0)
(0.0037365985 0.0046647802 0)
(0.00029292195 0.0062916965 0)
(-0.0031848243 0.0046867601 0)
(-0.0043015758 0.0017595772 0)
(-0.0033603347 -0.00057399039 0)
(-0.0015995099 -0.0016395692 0)
(-0.00020502867 -0.0013948628 0)
(0.00038659068 -0.00076350241 0)
(0.00042896304 -0.00018022024 0)
(0.00020893639 0.0001367517 0)
(-1.2090172e-05 0.00019388467 0)
(-0.00012924867 0.00014106137 0)
(-0.00014760887 5.4764492e-05 0)
(-0.00011084238 4.4318914e-06 0)
(-6.1439226e-05 -1.4585622e-05 0)
(-2.377572e-05 -1.0858856e-05 0)
(-3.4804585e-06 6.4176712e-07 0)
(5.3835174e-06 9.891744e-06 0)
(8.9790279e-06 1.4481618e-05 0)
(1.0761588e-05 1.540038e-05 0)
(1.1995187e-05 1.4144416e-05 0)
(1.2929011e-05 1.1744727e-05 0)
(1.3486792e-05 8.7692915e-06 0)
(1.3515224e-05 5.4416244e-06 0)
(1.2952793e-05 1.8367817e-06 0)
(-0.0013260795 0.0014946054 -9.3980743e-24)
(-0.0013359818 0.00033811219 -1.541331e-24)
(-0.00015603899 -0.0011030507 0)
(0.0015745769 -0.0023935202 0)
(0.0041271344 -0.0014637875 0)
(0.0060672467 0.0010709944 0)
(0.004701477 0.0050941071 0)
(0.00039592145 0.007448948 0)
(-0.0038569591 0.0057135945 0)
(-0.0053563784 0.0020508271 0)
(-0.0041913225 -0.00090876558 0)
(-0.0020138526 -0.0022577549 0)
(-0.00014972387 -0.0020568444 0)
(0.0007033587 -0.0010423248 0)
(0.00070550906 -0.0002282817 0)
(0.00036148391 0.00021816026 0)
(5.7470093e-06 0.00031995977 0)
(-0.00018291173 0.00024694403 0)
(-0.00022632883 0.00010247552 0)
(-0.000175186 6.1137459e-06 0)
(-9.8033907e-05 -3.7192446e-05 0)
(-3.790262e-05 -3.6019857e-05 0)
(-6.3702891e-06 -1.7095791e-05 0)
(6.0810403e-06 -4.5227847e-08 0)
(9.7116152e-06 1.0004324e-05 0)
(1.0468876e-05 1.408722e-05 0)
(1.0914257e-05 1.4554633e-05 0)
(1.1541124e-05 1.3210134e-05 0)
(1.218852e-05 1.1016718e-05 0)
(1.2562051e-05 8.3106803e-06 0)
(1.2501526e-05 5.2445908e-06 0)
(1.191337e-05 1.7902556e-06 0)
(-0.0058241275 0.0019681019 9.4101967e-24)
(-0.0048916324 0.00031742092 2.1779102e-26)
(-0.00079946815 -0.0013764602 0)
(0.0016548107 -0.0027295057 0)
(0.004660903 -0.0020164225 0)
(0.0066749303 0.0010120527 0)
(0.0054944753 0.005775328 0)
(0.00062235881 0.0086435186 0)
(-0.0045872006 0.0069209336 0)
(-0.0065270789 0.0024436031 0)
(-0.0052392308 -0.0012717742 0)
(-0.0024214673 -0.0030696396 0)
(-2.2062927e-05 -0.0026988647 0)
(0.0010444729 -0.0014837739 0)
(0.001103562 -0.00028373867 0)
(0.00056039133 0.00038786491 0)
(8.1520307e-06 0.00052768103 0)
(-0.00026360677 0.00041277492 0)
(-0.00034001305 0.00018520568 0)
(-0.00026939193 8.4115897e-06 0)
(-0.00015318127 -7.0967498e-05 0)
(-5.9576867e-05 -7.4552311e-05 0)
(-9.3099676e-06 -4.5134999e-05 0)
(9.8314231e-06 -1.6187642e-05 0)
(1.3751772e-05 2.3471668e-06 0)
(1.2591803e-05 1.1298812e-05 0)
(1.1183867e-05 1.4151226e-05 0)
(1.0750715e-05 1.3978328e-05 0)
(1.1019409e-05 1.2520074e-05 0)
(1.1475713e-05 1.0501334e-05 0)
(1.1700507e-05 8.03117e-06 0)
(1.1545325e-05 5.1504938e-06 0)
(1.0921688e-05 1.7760149e-06 0)
(-0.010416882 0.0021868996 0)
(-0.008179326 0.00014107588 -2.193205e-26)
(-0.0022851578 -0.0017618902 0)
(0.0017160966 -0.0034088386 0)
(0.0048827421 -0.0026934104 0)
(0.008124854 0.00068205275 0)
(0.006701037 0.0061315024 0)
(0.00066345567 0.010206016 0)
(-0.0053475841 0.0082817226 0)
(-0.007856155 0.0027273648 0)
(-0.0063597468 -0.0016624402 0)
(-0.0030507302 -0.0040098054 0)
(0.00013091106 -0.0037027711 0)
(0.0016311427 -0.0018857374 0)
(0.0016065398 -0.00033842588 0)
(0.00089589556 0.00055788744 0)
(9.366792e-05 0.00081651639 0)
(-0.00031357897 0.00063356934 0)
(-0.00047795262 0.0002916652 0)
(-0.00039985418 9.8126325e-06 0)
(-0.00023348273 -0.00012245067 0)
(-9.0190673e-05 -0.00013566252 0)
(-1.0920368e-05 -9.0016899e-05 0)
(1.8729165e-05 -4.2170992e-05 0)
(2.3174009e-05 -9.9750116e-06 0)
(1.8744455e-05 6.7356266e-06 0)
(1.3923002e-05 1.3184769e-05 0)
(1.1165728e-05 1.4424644e-05 0)
(1.0335835e-05 1.35916e-05 0)
(1.0453215e-05 1.2050063e-05 0)
(1.0765097e-05 1.0171164e-05 0)
(1.0880709e-05 7.9105674e-06 0)
(1.0625698e-05 5.1453738e-06 0)
(9.9615144e-06 1.7898034e-06 0)
(-0.014287168 0.0021544088 -1.3879645e-24)
(-0.010167609 -0.00039746491 0)
(-0.0027253256 -0.0023184282 1.4483959e-24)
(0.00096825054 -0.0039456595 0)
(0.0056035631 -0.0033176362 0)
(0.0083070113 0.00011608361 0)
(0.0071209106 0.006928648 0)
(0.0013582494 0.011775644 0)
(-0.0063399536 0.0099192147 0)
(-0.0094297162 0.003343028 0)
(-0.0077937089 -0.002227328 0)
(-0.0035769676 -0.0052015156 0)
(0.0003045062 -0.0047085643 0)
(0.0021955449 -0.0025991819 0)
(0.0023371735 -0.00044047408 0)
(0.0013575256 0.00088215683 0)
(0.00021004578 0.0011435174 0)
(-0.00035751287 0.0009081378 0)
(-0.00065638599 0.00043191906 0)
(-0.00057561142 1.5037002e-05 0)
(-0.00034819026 -0.00019697981 0)
(-0.00013698324 -0.00022485509 0)
(-1.4202764e-05 -0.00015681095 0)
(3.3592338e-05 -8.1979124e-05 0)
(4.0567521e-05 -2.9224305e-05 0)
(3.1414583e-05 -1.3755898e-07 0)
(2.0764937e-05 1.1985028e-05 0)
(1.377136e-05 1.5135643e-05 0)
(1.0600511e-05 1.4727039e-05 0)
(9.7486516e-06 1.334212e-05 0)
(9.8652912e-06 1.1778888e-05 0)
(1.0095129e-05 1.0047772e-05 0)
(1.0088301e-05 7.9244531e-06 0)
(9.7284782e-06 5.2136243e-06 0)
(9.0224745e-06 1.8261617e-06 0)
(-0.01699462 0.0019184963 2.2250758e-23)
(-0.011801867 -0.0015921017 7.4179134e-24)
(-0.0021017508 -0.0035595758 -1.4439824e-24)
(0.0020267631 -0.0047244141 -5.0363258e-24)
(0.0049146963 -0.0041237713 -8.446521e-24)
(0.0082732878 0.0009718321 0)
(0.0067705931 0.0076202238 0)
(0.0010076931 0.013594925 0)
(-0.0074952802 0.011323203 0)
(-0.011051851 0.003598926 0)
(-0.009283057 -0.0025968173 0)
(-0.0045001244 -0.0064448752 0)
(0.00060228904 -0.0061340361 0)
(0.0031220828 -0.0031851668 0)
(0.0031286188 -0.00049989702 0)
(0.0019779758 0.0011484506 0)
(0.00039539444 0.0016788427 0)
(-0.00048161349 0.001270627 0)
(-0.00089687763 0.00065965014 0)
(-0.00082345896 3.7537729e-05 0)
(-0.00051486591 -0.00029795312 0)
(-0.00020683959 -0.00035173449 0)
(-1.7066709e-05 -0.00025834954 0)
(6.0458009e-05 -0.00014483515 0)
(7.1610989e-05 -5.9656821e-05 0)
(5.465359e-05 -1.0423914e-05 0)
(3.4321209e-05 1.1015732e-05 0)
(1.9993339e-05 1.7026438e-05 0)
(1.2509997e-05 1.676215e-05 0)
(9.6350325e-06 1.4931404e-05 0)
(9.0709003e-06 1.3199401e-05 0)
(9.2690233e-06 1.1689544e-05 0)
(9.443249e-06 1.0097379e-05 0)
(9.3158319e-06 8.0522363e-06 0)
(8.8468329e-06 5.3401767e-06 0)
(8.0924868e-06 1.8789277e-06 0)
(-0.018156513 0.0015976648 -3.0853371e-23)
(-0.013105795 -0.0030700651 -1.0473781e-23)
(-0.00095355069 -0.0050179806 0)
(0.0040683821 -0.0056688278 2.8483282e-23)
(0.0041719804 -0.0038021985 8.3795651e-24)
(0.003536656 0.0011955675 7.4144676e-24)
(0.00082726922 0.007920396 4.4201028e-24)
(0.00035965433 0.0153004 0)
(-0.0070508086 0.013478267 0)
(-0.012928875 0.0042635506 0)
(-0.010914281 -0.0033825078 0)
(-0.0051619044 -0.0080215503 0)
(0.00082102451 -0.0076564466 0)
(0.0039992507 -0.0042364682 0)
(0.0043172111 -0.00063027871 0)
(0.0027234244 0.0017088503 0)
(0.00066464648 0.0022724787 0)
(-0.00065169295 0.0018324229 0)
(-0.0012140554 0.00097869091 0)
(-0.001183398 8.0435179e-05 0)
(-0.00075413875 -0.00041855784 0)
(-0.00031148181 -0.00053071931 0)
(-2.1866248e-05 -0.000407713 0)
(0.00010093541 -0.00023815395 0)
(0.00012061184 -0.00010543992 0)
(9.3511013e-05 -2.5346134e-05 0)
(5.8402079e-05 1.0936606e-05 0)
(3.2076307e-05 2.149877e-05 0)
(1.7091319e-05 2.1065394e-05 0)
(1.0498492e-05 1.78274e-05 0)
(8.5111473e-06 1.5011258e-05 0)
(8.3863934e-06 1.315722e-05 0)
(8.6932643e-06 1.1777092e-05 0)
(8.7898593e-06 1.02848e-05 0)
(8.5474365e-06 8.2686621e-06 0)
(7.9746949e-06 5.5085025e-06 0)
(7.1550058e-06 1.9408579e-06 0)
(-0.017490727 0.0013108948 9.0853916e-25)
(-0.014120441 -0.004784168 3.9124422e-24)
(-0.00026389885 -0.007063773 7.3360936e-24)
(0.006503979 -0.0061256603 -1.6204309e-23)
(0.0044816752 -0.0029972055 -2.4323519e-23)
(-0.00082996399 0.0019013906 3.2565001e-23)
(-0.0033945458 0.0095013706 -4.3126427e-23)
(-0.006360016 0.016941091 6.5348121e-24)
(-0.0097872404 0.015226661 0)
(-0.016184557 0.0049097012 0)
(-0.013042164 -0.0037474038 0)
(-0.006408241 -0.0096919439 0)
(0.0011940807 -0.0095843551 0)
(0.0053259843 -0.0050647494 0)
(0.0054769182 -0.0007661859 0)
(0.0037487859 0.0020418914 0)
(0.0010091303 0.0031803613 0)
(-0.00085251947 0.0024432046 0)
(-0.0016639425 0.0014299552 0)
(-0.0016576869 0.00018387842 0)
(-0.0010956192 -0.00057955768 0)
(-0.00046573641 -0.00077425831 0)
(-3.1677931e-05 -0.00061949575 0)
(0.00016239674 -0.00037676956 0)
(0.00019845495 -0.00017552819 0)
(0.00015713864 -4.7808194e-05 0)
(9.9123838e-05 1.2493672e-05 0)
(5.3372498e-05 3.0620813e-05 0)
(2.59423e-05 2.9724048e-05 0)
(1.2857976e-05 2.3642418e-05 0)
(8.1642007e-06 1.8263794e-05 0)
(7.368099e-06 1.4966328e-05 0)
(7.7405785e-06 1.3211784e-05 0)
(8.1382213e-06 1.2013009e-05 0)
(8.1484661e-06 1.0612088e-05 0)
(7.7504155e-06 8.5280286e-06 0)
(7.096266e-06 5.6946822e-06 0)
(6.2164039e-06 1.994702e-06 0)
(-0.015060518 0.0012044712 9.8837051e-24)
(-0.0145764 -0.0065253534 1.853663e-24)
(-0.00059522705 -0.0094536076 0)
(0.0087352078 -0.0069782099 -9.3821512e-24)
(0.006060802 -0.0021638055 -7.289117e-24)
(-0.002562836 0.0029593026 0)
(-0.0075556324 0.010967432 -1.9179992e-23)
(-0.015264536 0.019542655 -1.1205021e-23)
(-0.019566905 0.018918295 0)
(-0.020987589 0.0059172239 0)
(-0.015173057 -0.004487456 0)
(-0.0073276514 -0.011474057 0)
(0.0014973752 -0.011700168 0)
(0.0065687456 -0.0065201045 0)
(0.007237627 -0.00081900613 0)
(0.0048451998 0.0029185796 0)
(0.0015190612 0.0041639995 0)
(-0.0011072795 0.0035198412 0)
(-0.0022819422 0.0018840015 0)
(-0.0022355649 0.00034337105 0)
(-0.0015850629 -0.00078627254 0)
(-0.00069113731 -0.0011119938 0)
(-5.049683e-05 -0.00092043751 0)
(0.00024983369 -0.00057699503 0)
(0.00031277578 -0.00027710242 0)
(0.00025399024 -7.9205017e-05 0)
(0.00016378673 1.7398638e-05 0)
(8.8934458e-05 4.7461423e-05 0)
(4.1503688e-05 4.5930006e-05 0)
(1.7443145e-05 3.4849374e-05 0)
(8.0214308e-06 2.4604509e-05 0)
(5.8958088e-06 1.8126182e-05 0)
(6.3613302e-06 1.486015e-05 0)
(7.1821324e-06 1.3384643e-05 0)
(7.6067225e-06 1.2377895e-05 0)
(7.5007532e-06 1.1027097e-05 0)
(6.966011e-06 8.9020899e-06 0)
(6.1945769e-06 5.8541027e-06 0)
(5.3543849e-06 1.9816439e-06 0)
(-0.01167188 0.001300819 0)
(-0.014147638 -0.0078187729 0)
(-0.002307446 -0.011797876 -1.9107197e-24)
(0.0099434787 -0.0079764497 0)
(0.0082585979 -0.0015024732 3.9734726e-25)
(-0.002320374 0.0043282788 1.8997192e-23)
(-0.01061565 0.013181689 4.9179429e-24)
(-0.022072631 0.022046818 -1.3848679e-22)
(-0.024235768 0.019502884 0)
(-0.01937147 0.0055528543 0)
(-0.016786093 -0.0058635174 0)
(-0.0085031395 -0.013755991 0)
(0.0019469692 -0.013943 0)
(0.0083579054 -0.0076381291 0)
(0.0088547981 -0.0011593139 0)
(0.006394518 0.0033047467 0)
(0.0020907954 0.0054688724 0)
(-0.0013297169 0.0045844673 0)
(-0.0030586708 0.0027506733 0)
(-0.0031381872 0.00051364313 0)
(-0.0021890899 -0.0010229292 0)
(-0.00099787792 -0.0015359238 0)
(-8.7832497e-05 -0.0013386521 0)
(0.00036781985 -0.00085948225 0)
(0.00047602305 -0.00042314807 0)
(0.00039888925 -0.00012566009 0)
(0.00026438311 2.6316715e-05 0)
(0.00014565906 7.6246664e-05 0)
(6.7056952e-05 7.4267442e-05 0)
(2.5257296e-05 5.5239082e-05 0)
(7.9658512e-06 3.6603205e-05 0)
(3.4687663e-06 2.4120571e-05 0)
(3.9346492e-06 1.7522924e-05 0)
(5.5689786e-06 1.4747531e-05 0)
(6.7128506e-06 1.3672375e-05 0)
(7.1027473e-06 1.2862897e-05 0)
(6.8535364e-06 1.1511461e-05 0)
(6.158016e-06 9.2634517e-06 0)
(5.2958807e-06 6.1096882e-06 0)
(4.3957475e-06 2.1776086e-06 0)
(-0.013208591 -0.0083484285 -4.0654117e-25)
(-0.0084300445 0.0016254315 0)
(-0.0058117438 -0.01407492 -1.2396179e-23)
(0.009068861 -0.0092690522 5.8468977e-25)
(0.010300255 -0.00035483748 1.1503363e-24)
(-0.00069086525 0.0066443298 -2.0963538e-23)
(-0.011792046 0.015569748 -5.0490254e-24)
(-0.026776305 0.024079517 -8.4611198e-23)
(-0.026457703 0.018721197 1.5499226e-22)
(-0.01614748 0.0049607516 0)
(-0.013295675 -0.0066028393 2.7384514e-22)
(-0.00857381 -0.015602115 0)
(0.0020356148 -0.017475852 0)
(0.010069097 -0.0094640843 0)
(0.011186974 -0.001149237 0)
(0.0079527505 0.0044864664 0)
(0.0028922107 0.0069858955 0)
(-0.0016132106 0.0061560442 0)
(-0.0040490627 0.003670943 0)
(-0.004098351 0.00065305094 0)
(-0.0029863746 -0.0013017853 0)
(-0.0014516879 -0.0021660845 0)
(-0.00014479067 -0.0018803533 0)
(0.00052227793 -0.0012381796 0)
(0.0007001737 -0.00062483191 0)
(0.00060518744 -0.00019024348 0)
(0.00041343769 4.1665231e-05 0)
(0.00023365287 0.00012270397 0)
(0.00010804232 0.00012147519 0)
(3.8196816e-05 9.0350761e-05 0)
(7.8220896e-06 5.8174665e-05 0)
(-9.3458589e-07 3.5301539e-05 0)
(-4.6641775e-07 2.2410292e-05 0)
(2.5204371e-06 1.6650203e-05 0)
(5.046184e-06 1.4688842e-05 0)
(6.3513274e-06 1.4091877e-05 0)
(6.6112166e-06 1.3433433e-05 0)
(6.1859987e-06 1.2032675e-05 0)
(5.3746956e-06 9.6653887e-06 0)
(4.3934095e-06 6.3286123e-06 0)
(3.4777322e-06 2.2566099e-06 0)
(-0.011141159 -0.015832457 1.1949333e-23)
(-0.011972251 -0.0081770162 0)
(-0.0061276775 0.0020714563 3.1303933e-24)
(0.0053330069 -0.010703296 -5.8641434e-25)
(0.011144813 0.00033273103 -4.4510493e-24)
(0.0016014043 0.0084545336 4.4442936e-23)
(-0.011011956 0.018274431 -2.2938363e-23)
(-0.02879346 0.025939626 6.7465646e-26)
(-0.027309072 0.017281254 1.8201374e-22)
(-0.012435958 0.0031960575 9.1632304e-23)
(-0.0074317947 -0.0067050348 2.9253112e-22)
(-0.0070960755 -0.018513373 -2.8699157e-22)
(0.0033822364 -0.019256694 0)
(0.012174541 -0.011126697 0)
(0.013374733 -0.0017201586 0)
(0.010020793 0.0051236985 0)
(0.00384025 0.0086828343 0)
(-0.0019687459 0.007932478 0)
(-0.0052110406 0.0048089371 0)
(-0.0057204694 0.0010570591 0)
(-0.0039207579 -0.0017394886 0)
(-0.0019919828 -0.0028227579 0)
(-0.00023580701 -0.0026509778 0)
(0.00072604905 -0.0017787364 0)
(0.0010093862 -0.00091183662 0)
(0.00089820316 -0.00028567853 0)
(0.00063197476 6.3155958e-05 0)
(0.00036601829 0.00019381307 0)
(0.0001703644 0.00019647512 0)
(5.7430495e-05 0.00014809264 0)
(6.7415464e-06 9.4866802e-05 0)
(-8.8306041e-06 5.5208196e-05 0)
(-8.447395e-06 3.1497454e-05 0)
(-3.2064706e-06 1.9968732e-05 0)
(1.706717e-06 1.5658718e-05 0)