/*--------------------------------*- C++ -*----------------------------------*\
| =========                 |                                                 |
| \\      /  F ield         | OpenFOAM: The Open Source CFD Toolbox           |
|  \\    /   O peration     | Version:  5.0                                   |
|   \\  /    A nd           | Web:      www.OpenFOAM.org                      |
|    \\/     M anipulation  |                                                 |
\*---------------------------------------------------------------------------*/
FoamFile
{
    version     2.0;
    format      ascii;
    class       surfaceScalarField;
    location    "60";
    object      ddtCorrDdt0(phi);
}
// * * * * * * * * * * * * * * * * * * * * * * * * * * * * * * * * * * * * * //

dimensions      [0 3 -2 0 0 0 0];

internalField   nonuniform List<scalar> 
18820
(
-1.2001956e-05
-0.00041343917
-2.311696e-05
-0.00039591731
-2.0395834e-05
-0.00039304334
-3.3239577e-05
-0.0003861995
-4.0048069e-05
-0.00037626514
-2.3301416e-05
-0.00036974198
-4.2190084e-05
-0.00038224307
-5.9326299e-05
-0.00036692135
-4.6044393e-05
-0.0003535223
-2.7343157e-05
-0.00034239888
-4.9729869e-05
-0.00038252014
-7.8374905e-05
-0.0003631946
-6.8915028e-05
-0.00034405087
-5.431429e-05
-0.00032655135
-2.9271711e-05
-0.00031312726
-5.5573471e-05
-0.0003858313
-9.7110349e-05
-0.00036378488
-9.2336055e-05
-0.0003397738
-8.1968162e-05
-0.00031639723
-5.8326974e-05
-0.00029749633
-3.0351026e-05
-0.00028277632
-5.9452947e-05
-0.00039117994
-0.00011527087
-0.00036767098
-0.00011642752
-0.00033969372
-0.00011105454
-0.00031068777
-8.8503723e-05
-0.00028622079
-6.0529453e-05
-0.00026731824
-3.0195392e-05
-0.00025258107
-6.1122598e-05
-0.00039781903
-0.00013254285
-0.00037390811
-0.00014102147
-0.0003430773
-0.0001420457
-0.00030870297
-0.00012079884
-0.00027839309
-9.2002051e-05
-0.00025474861
-6.0241866e-05
-0.00023727226
-2.9054425e-05
-0.00022352684
-6.0407784e-05
-0.00040498757
-0.00014843673
-0.00038192511
-0.00016585799
-0.00034907166
-0.00017511205
-0.00031001127
-0.00015603172
-0.00027347059
-0.00012586935
-0.00024452638
-9.1582486e-05
-0.00022340858
-5.7891722e-05
-0.00020843567
-2.7137123e-05
-0.00019639005
-5.72645e-05
-0.00041197027
-0.00016231246
-0.00039111145
-0.00019034614
-0.0003574366
-0.00021027076
-0.0003139129
-0.00019489507
-0.00027114821
-0.00016316217
-0.00023617839
-0.00012535846
-0.00021075121
-8.7760222e-05
-0.00019354093
-5.3903949e-05
-0.00018166984
-2.4709106e-05
-0.0001716814
-5.1921304e-05
-0.00041791822
-0.00017347012
-0.00040081173
-0.00021362596
-0.00036783056
-0.0002473045
-0.00032040211
-0.00023774025
-0.00027106748
-0.00020507716
-0.00022923358
-0.00016272666
-0.00019881105
-0.00011975546
-0.00017875713
-8.1273931e-05
-0.00016617216
-4.8834472e-05
-0.00015754583
-2.2014247e-05
-0.00014966782
-4.486433e-05
-0.00042225461
-0.00018107485
-0.00041031198
-0.00023471673
-0.00037971899
-0.00028551074
-0.00032962257
-0.00028482415
-0.00027331708
-0.00025251946
-0.00022362489
-0.00020508071
-0.00018688008
-0.00015501763
-0.00016355012
-0.00011023139
-0.00014980128
-7.3098536e-05
-0.00014190972
-4.3241432e-05
-0.00013632038
-1.9280726e-05
-0.00013038792
-3.7077992e-05
-0.00042404062
-0.00018445108
-0.00041887621
-0.00025197525
-0.00039305048
-0.0003237048
-0.00034152206
-0.0003361505
-0.00027829395
-0.00030635328
-0.00021948199
-0.00025361729
-0.00017508819
-0.00019476392
-0.00014713478
-0.00014173272
-0.0001320506
-9.8315023e-05
-0.00012458694
-6.426226e-05
-0.00012089097
-3.7690948e-05
-0.00011791227
-1.6727255e-05
-0.00011366169
-2.9567465e-05
-0.00042312645
-0.00018299527
-0.00042549361
-0.00026361496
-0.00040723254
-0.00036053832
-0.00035621302
-0.00039097588
-0.00028669329
-0.00036738705
-0.00021725787
-0.00030967061
-0.00016342768
-0.00024018234
-0.00012967021
-0.0001765366
-0.00011233258
-0.00012508757
-0.00010528051
-8.5637544e-05
-0.00010321438
-5.5739268e-05
-0.00010284515
-3.2649207e-05
-0.00010199277
-1.4466811e-05
-9.9196058e-05
-2.3925727e-05
-0.00041913312
-0.00017632884
-0.00042978953
-0.00026704261
-0.00042206124
-0.00039333598
-0.00037443016
-0.00044804661
-0.00029913811
-0.0004365647
-0.00021751257
-0.00037484447
-0.00015208226
-0.00029263698
-0.00011097285
-0.00021547623
-9.0731899e-05
-0.00015363464
-8.3787995e-05
-0.0001075305
-8.339068e-05
-7.3598003e-05
-8.5358826e-05
-4.803057e-05
-8.7466625e-05
-2.8138664e-05
-8.8323651e-05
-1.2447682e-05
-8.6749709e-05
-2.1335896e-05
-0.00041186428
-0.00016461898
-0.00043083926
-0.00026047157
-0.0004363554
-0.00041870836
-0.00039668377
-0.00050533445
-0.00031713786
-0.00051370497
-0.00022199458
-0.00045079427
-0.00014156084
-0.00035407689
-9.0641898e-05
-0.00025954698
-6.6903177e-05
-0.00018428307
-6.008584e-05
-0.00012974613
-6.1575642e-05
-9.1145047e-05
-6.5847257e-05
-6.2764201e-05
-7.0628712e-05
-4.1019945e-05
-7.4588418e-05
-2.4031085e-05
-7.6743194e-05
-1.0643484e-05
-7.6107652e-05
-2.3987422e-05
-0.00040230673
-0.00014769552
-0.0004287838
-0.00024220584
-0.00044909964
-0.0004335589
-0.00042149983
-0.00056160229
-0.00034041181
-0.00060024381
-0.00023059629
-0.00053978141
-0.00013300609
-0.00042629453
-6.9343188e-05
-0.00031023614
-3.9954095e-05
-0.00021767328
-3.3515459e-05
-0.00015222535
-3.7609965e-05
-0.00010811434
-4.4610182e-05
-7.6712979e-05
-5.1902377e-05
-5.2957837e-05
-5.869447e-05
-3.466615e-05
-6.3956543e-05
-2.0419443e-05
-6.6970312e-05
-9.0895916e-06
-6.7019575e-05
-3.3667271e-05
-0.00038734142
-0.00012721221
-0.000422786
-0.0002118703
-0.0004591141
-0.00043462762
-0.00044802622
-0.00061442245
-0.00036867638
-0.00069898849
-0.00024166548
-0.00064794735
-0.00012243031
-0.00051587344
-4.3428411e-05
-0.00036941791
-1.0163825e-05
-0.00025429031
-3.3402765e-06
-0.00017511163
-1.0632942e-05
-0.00012432594
-2.1402375e-05
-8.9716544e-05
-3.1610653e-05
-6.3817839e-05
-4.1046246e-05
-4.419534e-05
-4.9168865e-05
-2.91832e-05
-5.519595e-05
-1.7347899e-05
-5.8715134e-05
-7.7751753e-06
-5.9245954e-05
-5.2879522e-05
-0.0003720275
-0.00010299339
-0.00041155619
-0.00016909018
-0.00046556114
-0.00041983475
-0.00047390274
-0.00065987487
-0.00040257158
-0.00081053665
-0.00025712792
-0.00078003473
-0.00010957977
-0.00062963464
-8.6720548e-06
-0.00044656347
3.3713057e-05
-0.00029775777
3.3299026e-05
-0.00019824922
1.9792575e-05
-0.00013915485
4.191436e-06
-0.00010158311
-9.5399773e-06
-7.3364146e-05
-2.2068214e-05
-5.2392495e-05
-3.2852673e-05
-3.6744353e-05
-4.161102e-05
-2.4557825e-05
-4.798905e-05
-1.4756373e-05
-5.1737062e-05
-6.6785523e-06
-5.2568977e-05
-8.3957005e-05
-0.000347801
-7.8361458e-05
-0.00039665547
-0.00011226438
-0.00046837745
-0.00038609546
-0.00049929667
-0.00069396943
-0.00043980694
-0.00093321351
-0.00027989564
-0.00093839099
-9.8774934e-05
-0.0007699827
3.0763614e-05
-0.0005416
8.6358588e-05
-0.00035044712
8.6396061e-05
-0.00022679908
6.1842679e-05
-0.00015316381
3.3795993e-05
-0.00011228453
1.488821e-05
-8.1109472e-05
-1.7985164e-06
-5.8842761e-05
-1.5621296e-05
-4.2818536e-05
-2.67815e-05
-3.0510276e-05
-3.5661452e-05
-2.0685922e-05
-4.2062299e-05
-1.2582e-05
-4.5836653e-05
-5.7525141e-06
-4.6818025e-05
-0.00012948726
-0.00032752446
-5.383066e-05
-0.00037232801
-4.2941472e-05
-0.00046597432
-0.00033056381
-0.00052390571
-0.00071034248
-0.00048292306
-0.0010628487
-0.0003101735
-0.0011263166
-9.1974346e-05
-0.00094010332
7.1339779e-05
-0.00065316263
0.0001423191
-0.0004053024
0.00014120612
-0.00024767411
0.00010726351
-0.00016404911
7.272121e-05
-0.00012251638
4.4022356e-05
-8.5924069e-05
1.9698609e-05
-6.264726e-05
2.0028154e-06
-4.6968939e-05
-1.1473445e-05
-3.4940403e-05
-2.2353677e-05
-2.5356608e-05
-3.099312e-05
-1.7486378e-05
-3.7160408e-05
-1.0772668e-05
-4.0819428e-05
-4.9614031e-06
-4.1858145e-05
-0.00018997112
-0.00029869459
-3.3683562e-05
-0.00034766807
4.2131612e-05
-0.0004573976
-0.0002489007
-0.00054763437
-0.00070915021
-0.00052509769
-0.0011920207
-0.00035375337
-0.0013435114
-9.2983173e-05
-0.0011480941
0.00011601007
-0.00078561177
0.0002037815
-0.00046094912
0.00019795752
-0.00025557908
0.0001491029
-0.0001568151
0.00010002187
-0.00011842264
6.8621186e-05
-8.162751e-05
3.9721002e-05
-6.1464669e-05
1.8512657e-05
-4.8429776e-05
3.4614013e-06
-3.7567643e-05
-8.847848e-06
-2.854659e-05
-1.9165196e-05
-2.1157764e-05
-2.7323494e-05
-1.4847037e-05
-3.3088175e-05
-9.2620666e-06
-3.6521515e-05
-4.2893537e-06
-3.7570261e-05
-0.00026674927
-0.00027059234
-1.964536e-05
-0.00031272967
0.0001386287
-0.00044416221
-0.0001361869
-0.00057010867
-0.00067883332
-0.00057795092
-0.0013165902
-0.00040053072
-0.0015935072
-0.00010376165
-0.0014024342
0.00016135061
-0.00094514731
0.00027553889
-0.00052134962
0.00026417417
-0.00025147649
0.00019384728
-0.00013014395
0.0001224243
-9.579176e-05
7.7384554e-05
-6.1215135e-05
4.8203629e-05
-5.1284772e-05
2.9537342e-05
-4.6174384e-05
1.6254897e-05
-3.8201506e-05
4.0939777e-06
-3.0129715e-05
-7.2654643e-06
-2.3405948e-05
-1.6917733e-05
-1.7734441e-05
-2.4437238e-05
-1.2658046e-05
-2.9693933e-05
-7.987197e-06
-3.2826264e-05
-3.7149824e-06
-3.3856669e-05
-0.0003587563
-0.00024120249
-1.5154968e-05
-0.00027508005
0.00024495849
-0.00041905708
9.0328073e-06
-0.00058937954
-0.00061778439
-0.00063115689
-0.0014256563
-0.00046888752
-0.0018742457
-0.00011979551
-0.0017187348
0.00021253293
-0.0011379981
0.00035419589
-0.00058995285
0.00034413549
-0.0002340239
0.00024671544
-8.5242394e-05
0.00014893964
-5.6127957e-05
8.2755051e-05
-3.5013797e-05
5.1178421e-05
-3.5582724e-05
3.2497694e-05
-4.1526741e-05
2.488697e-05
-3.7481609e-05
1.5533496e-05
-3.026631e-05
4.2300575e-06
-2.4151532e-05
-6.5198509e-06
-1.9252258e-05
-1.539989e-05
-1.4940696e-05
-2.2155134e-05
-1.0833302e-05
-2.684918e-05
-6.9005343e-06
-2.9643101e-05
-3.2235901e-06
-3.0634396e-05
-0.00047811297
-0.00020183627
-1.9503281e-05
-0.00023685188
0.00036014029
-0.00039025989
0.00019268123
-0.00060270347
-0.00051892614
-0.00068823663
-0.0015171482
-0.00053966809
-0.0021896204
-0.00015351552
-0.0020974681
0.00025893193
-0.0013766886
0.00045121878
-0.0006715781
0.00043581587
-0.00019808454
0.00030819175
-1.5482285e-05
0.00017695137
4.264448e-06
8.8543718e-05
-5.2846132e-06
5.3022606e-05
-1.9704904e-05
3.5297397e-05
-4.0448157e-05
3.1416352e-05
-3.8147203e-05
2.5550551e-05
-2.9837777e-05
1.5103992e-05
-2.3532255e-05
3.6107966e-06
-1.9292453e-05
-6.4790139e-06
-1.5918261e-05
-1.4421665e-05
-1.2664564e-05
-2.0323873e-05
-9.3137756e-06
-2.4436894e-05
-5.967882e-06
-2.6901049e-05
-2.8029992e-06
-2.7832621e-05
-0.00061053236
-0.00017038356
-4.3253379e-05
-0.0001780842
0.00047963765
-0.0003563476
0.00042641358
-0.00062399052
-0.00037229854
-0.00074932937
-0.0015763972
-0.00062899111
-0.0025344747
-0.00019481633
-0.0025707522
0.00031976267
-0.0016608525
0.00054309128
-0.00077069091
0.00055032741
-0.00014539197
0.00038312004
9.0949278e-05
0.00020175839
9.1967719e-05
8.9246721e-05
3.8089881e-05
4.5168267e-05
-3.2775508e-06
3.6593671e-05
-4.2723242e-05
3.757049e-05
-4.2164138e-05
3.5431094e-05
-3.0112081e-05
2.5823079e-05
-2.1960363e-05
1.3531252e-05
-1.7846964e-05
2.1655367e-06
-1.5433642e-05
-6.9625928e-06
-1.3273872e-05
-1.381117e-05
-1.0808432e-05
-1.8828728e-05
-8.0396932e-06
-2.2365682e-05
-5.1767533e-06
-2.452936e-05
-2.4454904e-06
-2.538828e-05
-0.00078570525
-0.00011337741
-6.5364818e-05
-0.00014827033
0.00060424357
-0.00030268854
0.00069138012
-0.00062131266
-0.00018522975
-0.00081105711
-0.0015986972
-0.00072703334
-0.0029093885
-0.00025408028
-0.0031455921
0.00038001752
-0.002019782
0.00067868679
-0.00089467905
0.00066707602
-5.9233329e-05
0.00046416564
0.00024277093
0.00023129823
0.00021370936
8.0016896e-05
0.00010154068
2.5797194e-05
1.3552445e-05
2.8338711e-05
-4.4972087e-05
3.884214e-05
-4.8828997e-05
4.4233763e-05
-3.1431858e-05
3.6748704e-05
-1.9815331e-05
2.3676002e-05
-1.5000479e-05
1.0683668e-05
-1.3345096e-05
7.717622e-08
-1.2473393e-05
-7.7618201e-06
-1.1198534e-05
-1.3419495e-05
-9.2931652e-06
-1.757437e-05
-6.9685161e-06
-2.0574173e-05
-4.5099003e-06
-2.2466917e-05
-2.1461352e-06
-2.3243209e-05
-0.00096394974
-7.7978807e-05
-0.00011564125
-6.309927e-05
0.00073055991
-0.00027458496
0.0010032211
-0.0006145282
5.3340861e-05
-0.00085988062
-0.0015837716
-0.00082598697
-0.0033116477
-0.00032477795
-0.0037577073
0.00035802899
-0.0024080233
0.00076825192
-0.0010384883
0.00082249349
5.1305316e-05
0.00055653376
0.00045208674
0.00025485067
0.00038742905
5.757936e-05
0.00018884402
-7.2837951e-06
3.4739974e-05
4.611697e-06
-4.8018839e-05
3.1386856e-05
-5.8289323e-05
4.830226e-05
-3.444684e-05
4.7247051e-05
-1.7750367e-05
3.4681073e-05
-1.0983168e-05
1.9656029e-05
-9.4991779e-06
6.8361298e-06
-1.0015775e-05
-2.3805453e-06
-1.029326e-05
-8.6658211e-06
-9.5887484e-06
-1.3122059e-05
-8.0574923e-06
-1.6484176e-05
-6.0748613e-06
-1.900917e-05
-3.9566072e-06
-2.0658305e-05
-1.9006253e-06
-2.1343582e-05
-0.0011712905
-2.4650325e-05
-0.00015594331
-3.7675027e-05
0.0008792435
-0.00021178081
0.0013513501
-0.00062271288
0.00040951665
-0.00097070114
-0.0014929689
-0.00095068781
-0.00374409
-0.00039354969
-0.0044884581
0.00040596757
-0.0030631429
0.0010131404
-0.001247916
0.0009776782
0.00020319523
0.00067059993
0.00072274072
0.00028588125
0.00062095257
2.1328409e-05
0.00030961799
-6.319179e-05
6.6105017e-05
-3.864603e-05
-5.6182022e-05
1.2777252e-05
-7.4562801e-05
4.7661623e-05
-4.4837213e-05
5.8692207e-05
-1.8545313e-05
4.8039818e-05
-6.5948147e-06
3.0289364e-05
-3.7348955e-06
1.3888338e-05
-5.5037901e-06
2.3218382e-06
-7.7999805e-06
-4.8743503e-06
-8.767077e-06
-9.486319e-06
-8.349591e-06
-1.2827934e-05
-7.0518472e-06
-1.5505739e-05
-5.3392629e-06
-1.7626207e-05
-3.5062841e-06
-1.905448e-05
-1.7044648e-06
-1.9640038e-05
-0.0013661043
1.8542064e-05
-0.00021643549
3.5843571e-05
0.0010292142
-0.0001876434
0.0017816088
-0.00064203867
0.00079925836
-0.0010124518
-0.0013820642
-0.0010816102
-0.0041987285
-0.00049605558
-0.0053458241
0.00046381218
-0.0038012157
0.001144032
-0.0014178986
0.0011831232
0.00038332336
0.00079754777
0.0010867854
0.0003065571
0.00093015216
-2.3315862e-05
0.00047026734
-0.00013931883
0.00010558174
-0.00010266548
-7.7561642e-05
-1.7264363e-05
-0.00010729974
4.5516326e-05
-7.1707042e-05
7.4532312e-05
-2.7114656e-05
6.726085e-05
-3.5655672e-06
4.5007917e-05
4.1148011e-06
2.2435737e-05
1.7517804e-06
6.6286144e-06
-3.1964249e-06
-2.2847257e-06
-6.5723557e-06
-7.0700947e-06
-7.7503061e-06
-1.0084628e-05
-7.396523e-06
-1.2481117e-05
-6.2386072e-06
-1.4604773e-05
-4.7457222e-06
-1.6386245e-05
-3.1490668e-06
-1.7611685e-05
-1.5527223e-06
-1.8088166e-05
-0.001610135
0.00018879478
-0.00024579159
4.7899972e-05
0.0012051483
-0.00014008775
0.0022381209
-0.00064415497
0.0012940015
-0.0011367796
-0.0012169284
-0.0011775918
-0.0047133736
-0.00056697266
-0.0063429885
0.000501106
-0.0046547442
0.0013173331
-0.0016462424
0.0013723771
0.00062248308
0.0009439642
0.0015573165
0.00032701871
0.0013381133
-0.00010139913
0.00067763826
-0.00023068578
0.00014492135
-0.0001786551
-0.00012522347
-5.5002903e-05
-0.00017249529
4.7933239e-05
-0.00012532575
9.9136389e-05
-4.934466e-05
9.6763261e-05
-3.0304679e-06
6.6724982e-05
1.5117724e-05
3.4002353e-05
1.3148666e-05
1.1034593e-05
4.4647846e-06
-1.0372684e-06
-2.5251915e-06
-6.3355221e-06
-6.1003929e-06
-8.7215171e-06
-7.0934474e-06
-1.0386934e-05
-6.6599312e-06
-1.2057604e-05
-5.5884514e-06
-1.376036e-05
-4.2800221e-06
-1.5254592e-05
-2.8756522e-06
-1.6290599e-05
-1.4400072e-06
-1.6648926e-05
-0.0020802282
0.00074554247
-0.00027946718
0.00022247225
0.0014001365
-0.00014708532
0.0027546576
-0.0006566244
0.0018167984
-0.0011669505
-0.0010374975
-0.0013162143
-0.0052005758
-0.00069039805
-0.0074616206
0.00055165788
-0.0056554586
0.0015018149
-0.0019273808
0.0015984734
0.00090625232
0.0010886123
0.0021372102
0.0003640717
0.0018330038
-0.00016786439
0.00093483582
-0.00035859678
0.00018285414
-0.00026861486
-0.00021232881
-9.155037e-05
-0.00028792205
6.0425096e-05
-0.0002145171
0.00013712561
-8.9953344e-05
0.0001397469
-4.3428951e-06
9.8077031e-05
3.1289335e-05
5.0553361e-05
3.0884116e-05
1.6264708e-05
1.6763222e-05
-1.2679655e-06
4.2182565e-06
-7.785655e-06
-3.0825568e-06
-9.3574777e-06
-6.1122089e-06
-9.7046484e-06
-6.664916e-06
-1.0381397e-05
-6.0861712e-06
-1.1557683e-05
-5.0822307e-06
-1.2956468e-05
-3.9219131e-06
-1.4207487e-05
-2.6756014e-06
-1.5056879e-05
-1.3602121e-06
-1.5289386e-05
-0.002423234
0.00157262
-0.00027613104
0.00074220848
0.0016752182
-5.2606688e-05
0.0032507649
-0.0006431926
0.0024581873
-0.0012980128
-0.00078642594
-0.0014180252
-0.0057583951
-0.00075840368
-0.0087392286
0.00058720933
-0.006792504
0.0016887003
-0.0022378706
0.001812306
0.0012309203
0.0012738129
0.0028452507
0.00038057146
0.0024819146
-0.0002848308
0.0012590484
-0.00049207801
0.00022111365
-0.00039685326
-0.0003317511
-0.00014919356
-0.00044950439
7.0031889e-05
-0.0003376667
0.00018357528
-0.00014775074
0.00019492461
-5.2619447e-06
0.00014066872
5.6191639e-05
7.3177399e-05
5.8765972e-05
2.267274e-05
3.633026e-05
-3.3034882e-06
1.5088318e-05
-1.2141615e-05
1.878031e-06
-1.2751168e-05
-4.3595455e-06
-1.1114504e-05
-6.35474e-06
-1.0016977e-05
-6.3628604e-06
-1.0104326e-05
-5.6370429e-06
-1.1000717e-05
-4.6959241e-06
-1.2180875e-05
-3.6573012e-06
-1.3224835e-05
-2.5365447e-06
-1.3882486e-05
-1.3070357e-06
-1.3982922e-05
-0.0024867914
0.0022667766
0.00016224245
0.0011342488
0.0022267419
0.00019068787
0.0038925744
-0.00069441619
0.0030744476
-0.0012594535
-0.00058925122
-0.0014951899
-0.0062460336
-0.00093039497
-0.010165273
0.00066764062
-0.0080865765
0.0018812817
-0.0026001153
0.0020509452
0.0016153509
0.001427884
0.0036840328
0.00043502875
0.0032447281
-0.00038223653
0.0016660421
-0.00069182602
0.00027819583
-0.00054916044
-0.00049845184
-0.00023015275
-0.00065694628
5.8246296e-05
-0.00049236929
0.0002247355
-0.00022290652
0.00025873166
-6.1181589e-06
0.00019578417
9.3099521e-05
0.00010376497
0.00010065243
3.1295404e-05
6.6335473e-05
-7.3295482e-06
3.2133734e-05
-2.0348642e-05
9.7459484e-06
-2.0012336e-05
-1.6297504e-06
-1.548558e-05
-5.8692137e-06
-1.1604413e-05
-6.6289846e-06
-9.7530846e-06
-6.1182957e-06
-9.6228733e-06
-5.2846015e-06
-1.0409972e-05
-4.4064531e-06
-1.1430272e-05
-3.4778624e-06
-1.2282442e-05
-2.4456176e-06
-1.2745899e-05
-1.2745445e-06
-1.2708821e-05
-0.0023089005
0.0028461217
0.0011365978
0.0012924236
0.0032250739
0.00013592019
0.0046498231
-0.00056656123
0.0037351506
-0.0013551195
-0.00049239206
-0.0013563143
-0.0068451696
-0.00089606072
-0.011770772
0.00067510425
-0.0094928695
0.0020739358
-0.0030020717
0.0022832369
0.002017029
0.0016492743
0.0046712027
0.00044071101
0.0042106315
-0.00053087505
0.0021536746
-0.00086987074
0.0003328955
-0.00074653184
-0.0007102731
-0.0003373382
-0.00094107809
5.3974346e-05
-0.00070495923
0.00027083857
-0.00033681624
0.00033864467
-1.366384e-05
0.0002662809
0.00014383987
0.00014504783
0.00016112002
4.3303412e-05
0.00011168903
-1.4052095e-05
5.8682704e-05
-3.3873716e-05
2.2077608e-05
-3.267865e-05
2.4528333e-06
-2.4096728e-05
-5.3940125e-06
-1.5964838e-05
-7.2275034e-06
-1.1010017e-05
-6.808334e-06
-9.0652679e-06
-5.8894548e-06
-9.0179778e-06
-5.0106993e-06
-9.8037839e-06
-4.2051564e-06
-1.0701721e-05
-3.3632565e-06
-1.1363643e-05
-2.3909562e-06
-1.1631542e-05
-1.2568482e-06
-1.1452301e-05
-0.0019789641
0.0032693334
0.0026213368
0.0013613851
0.0046662601
-0.00014875902
0.005407228
-0.00062148517
0.0039235974
-0.00075500928
-0.0008548831
-0.00099262946
-0.0074366354
-0.00076485353
-0.013280304
0.00061347128
-0.011109039
0.0022912771
-0.0034253816
0.0024972439
0.0024905561
0.0018097141
0.0058028186
0.00051765606
0.0053125286
-0.00066119269
0.0027605382
-0.0011377395
0.00040679913
-0.00094378636
-0.00098592421
-0.0004708794
-0.00132381
4.5386495e-05
-0.00099316359
0.00034218203
-0.00051016558
0.00044418679
-3.51203e-05
0.00036010473
0.00020808956
0.00020203412
0.00024625674
5.9916674e-05
0.00017891947
-2.3920429e-05
9.9030448e-05
-5.4392189e-05
4.1075893e-05
-5.2865934e-05
8.489747e-06
-3.8712577e-05
-5.1786893e-06
-2.4312819e-05
-8.6725039e-06
-1.4523117e-05
-8.189871e-06
-9.6321954e-06
-6.8268222e-06
-8.1299967e-06
-5.6638391e-06
-8.3649913e-06
-4.8037473e-06
-9.2033739e-06
-4.0776989e-06
-9.9861951e-06
-3.2979207e-06
-1.0455386e-05
-2.362147e-06
-1.0528357e-05
-1.2477797e-06
-1.0204693e-05
-0.0016368584
0.0035038693
0.0044494389
0.0014412333
0.0065727268
-0.00054507786
0.006121906
-0.0008634377
0.0035149372
-0.00021282698
-0.0014691973
-0.00014069562
-0.0083235657
-0.00010570443
-0.014945452
0.00090029341
-0.012963667
0.0024681037
-0.0038806946
0.0027465877
0.0029598492
0.0020279516
0.0070790214
0.0005335109
0.0066612099
-0.00083103502
0.0034582492
-0.0013589034
0.00048633088
-0.0012172847
-0.0013081035
-0.00062160698
-0.0018208341
2.613742e-05
-0.0013843036
0.0004365287
-0.00074230646
0.00057432234
-7.835426e-05
0.00048742376
0.00028914635
0.00027904972
0.000364162
8.4132469e-05
0.00027592931
-3.7088782e-05
0.00015909791
-8.39807e-05
6.9912548e-05
-8.3221088e-05
1.7382489e-05
-6.1751716e-05
-5.591555e-06
-3.8295774e-05
-1.1746878e-05
-2.1238141e-05
-1.100255e-05
-1.1712809e-05
-8.6493622e-06
-7.8128134e-06
-6.6824494e-06
-7.1133925e-06
-5.4407606e-06
-7.7282813e-06
-4.6554427e-06
-8.6239174e-06
-4.004683e-06
-9.2785634e-06
-3.2732472e-06
-9.5429144e-06
-2.3476853e-06
-9.430606e-06
-1.2413045e-06
-8.9634348e-06
-0.0014166421
0.0034845738
0.0063655557
0.0015877541
0.0088791551
-0.00086519119
0.0068525847
-0.0012757571
0.0027492896
-9.7792912e-05
-0.0023823024
0.00070027769
-0.0096720522
0.0012077866
-0.016801964
0.0017508055
-0.015121661
0.0030582892
-0.0044922595
0.0030796659
0.0034778785
0.0022285561
0.0084852647
0.00062170991
0.0081797699
-0.00098505655
0.0043100873
-0.0016828719
0.00058000703
-0.0014525877
-0.0017110989
-0.00081429165
-0.0024486419
6.1976176e-06
-0.0019116695
0.0005535022
-0.0010347305
0.0007289541
-0.00015172044
0.00064768943
0.00039455199
0.00038201933
0.00052469291
0.00011851973
0.00041375965
-5.3697277e-05
0.00024671842
-0.00012470561
0.00011262649
-0.00012668928
3.0270733e-05
-9.6101832e-05
-7.1287434e-06
-6.0207583e-05
-1.758441e-05
-3.2453647e-05
-1.6383863e-05
-1.5855544e-05
-1.2199812e-05
-8.163776e-06
-8.6138233e-06
-5.8841125e-06
-6.4040957e-06
-6.1519178e-06
-5.2322181e-06
-7.1519375e-06
-4.5592064e-06
-8.0677541e-06
-3.9773242e-06
-8.5737923e-06
-3.2670755e-06
-8.6220078e-06
-2.3536848e-06
-8.3204301e-06
-1.2234623e-06
-7.7398414e-06
-0.0014076149
0.0031805511
0.0080365132
0.0018136176
0.011431514
-0.00096460083
0.0077386119
-0.0017512186
0.0018235102
-0.00034998133
-0.0036703376
0.0011902421
-0.0113474
0.002375622
-0.018849373
0.0032551929
-0.016640527
0.0032696733
-0.0048798326
0.0034458612
0.0041285989
0.0024289413
0.010062584
0.00065123855
0.0099723359
-0.0011708578
0.0052572796
-0.001932248
0.00069645634
-0.0017993198
-0.0021603823
-0.0010033083
-0.0032235758
-3.9354127e-05
-0.0026009351
0.00069545839
-0.0014264368
0.00094521272
-0.00025046649
0.00082769776
0.00052483603
0.00051740648
0.00073973151
0.00016697879
0.00060542724
-7.3151115e-05
0.00037111924
-0.00017809923
0.00017422231
-0.00018630156
4.8841756e-05
-0.00014525649
-1.0486768e-05
-9.2737888e-05
-2.7869297e-05
-4.9916329e-05
-2.602223e-05
-2.2810314e-05
-1.8782034e-05
-9.2711652e-06
-1.2295931e-05
-4.4822144e-06
-8.1776504e-06
-4.1128061e-06
-6.0381371e-06
-5.3477189e-06
-5.0507591e-06
-6.6608422e-06
-4.5058488e-06
-7.5376406e-06
-3.9816058e-06
-7.8587884e-06
-3.2851186e-06
-7.6889848e-06
-2.3466216e-06
-7.1994859e-06
-1.2255914e-06
-6.513994e-06
0.0027181881
-0.0016546473
0.0090881163
0.0021289489
0.013938487
-0.00069335212
0.0088972515
-0.0021232403
0.00087208127
-0.00079979375
-0.0053303531
0.0013100342
-0.01340835
0.003251191
-0.020816843
0.004343088
-0.016826899
0.0034415644
-0.0046844927
0.0030743337
0.0051351813
0.0024392775
0.011762413
0.00072911369
0.011962192
-0.0013386138
0.0063784136
-0.0022919931
0.00083783196
-0.002073616
-0.0027131381
-0.0012465677
-0.0041471834
-7.9692267e-05
-0.0034588984
0.00081860404
-0.0018851984
0.0011542262
-0.00037904759
0.001073789
0.00067216323
0.00068037147
0.0010280315
0.00022910227
0.00086527834
-9.2878383e-05
0.00054273789
-0.00024477498
0.00026081938
-0.00026470247
7.5343665e-05
-0.00021280577
-1.6262647e-05
-0.00013947955
-4.475556e-05
-7.5847919e-05
-4.2330087e-05
-3.3602844e-05
-3.0326642e-05
-1.1260763e-05
-1.9027811e-05
-2.5363652e-06
-1.1499256e-05
-1.1606014e-06
-7.4460611e-06
-2.7068263e-06
-5.6409121e-06
-4.7589678e-06
-4.9045026e-06
-6.2626506e-06
-4.49211e-06
-7.0255974e-06
-4.0058158e-06
-7.1377892e-06
-3.3018443e-06
-6.7320161e-06
-2.370052e-06
-6.0572754e-06
-1.2392079e-06
-5.2743415e-06
0.0025730285
0.0092332763
0.0022312499
-0.0021016957
0.015984603
8.2835584e-05
0.01035144
-0.0021475398
2.3215935e-05
-0.0012743796
-0.0071864139
0.0010562664
-0.015756875
0.0036585579
-0.022655158
0.005089502
-0.015876333
0.0033925198
-0.0035581294
0.0023152005
0.0053754081
0.0028341091
0.013610892
0.00059079902
0.014171312
-0.0014800002
0.0076154762
-0.002575681
0.00099193551
-0.0024460929
-0.0033082382
-0.0014785177
-0.0052477509
-0.00014599451
-0.0045094824
0.00097089066
-0.0025721674
0.0015055785
-0.00054588857
0.0013210633
0.00087641255
0.00086953989
0.0013915644
0.0003168337
0.001211819
-0.00011744577
0.00077877535
-0.00032892282
0.00038207107
-0.00036603688
0.00011357385
-0.00030294038
-2.4897134e-05
-0.00020417605
-7.1212946e-05
-0.00011302451
-6.8750278e-05
-4.9425548e-05
-4.9641746e-05
-1.4283558e-05
-3.0700306e-05
4.1677446e-07
-1.7502466e-05
3.4701163e-06
-1.0050315e-05
1.4438894e-06
-6.5766626e-06
-1.7725519e-06
-5.2525604e-06
-4.4119606e-06
-4.798242e-06
-5.9569589e-06
-4.5032987e-06
-6.5266198e-06
-4.0373428e-06
-6.402209e-06
-3.271365e-06
-5.8288856e-06
-2.3614309e-06
-4.9372799e-06
-1.2342193e-06
-4.0395623e-06
0.0012617782
0.017295856
0.0028562873
0.0086082389
0.0019162481
-0.0027212651
0.012102822
-0.0016685452
-0.0004878637
-0.0016364647
-0.0089946863
0.00053389145
-0.018257728
0.0035571177
-0.024466294
0.0054696902
-0.014158993
0.0033721603
-0.0017266484
0.0015610403
0.00588242
0.0018081908
0.014606126
0.0018388729
0.016511845
-0.0017497292
0.0090516924
-0.0029162231
0.0011643797
-0.0027481349
-0.0040068576
-0.001747474
-0.0064973893
-0.00022888356
-0.005816022
0.0011605496
-0.0033990364
0.0017977614
-0.00073104589
0.0016907369
0.001114092
0.0010833829
0.001848093
0.00041300914
0.0016708871
-0.00014224184
0.0010933929
-0.0004320689
0.00055149974
-0.00049836263
0.00017160371
-0.00042407665
-3.571911e-05
-0.00029212636
-0.00011056614
-0.00016483116
-0.00010980446
-7.1973601e-05
-8.0573816e-05
-1.8493856e-05
-5.0049437e-05
5.0689457e-06
-2.7856615e-05
1.0775859e-05
-1.4734225e-05
8.1568935e-06
-8.2626301e-06
3.1303287e-06
-5.6675261e-06
-1.3584993e-06
-4.9091048e-06
-4.3017439e-06
-4.7345787e-06
-5.7261471e-06
-4.5317755e-06
-6.0307566e-06
-4.0658424e-06
-5.6078012e-06
-3.338692e-06
-4.8496347e-06
-2.3597237e-06
-3.81402e-06
-1.2261704e-06
-2.8126448e-06
-0.00067744657
0.014042049
0.0027106656
0.017441479
0.0031573646
0.0073671221
0.0017746307
-0.0033832848
-0.00043754102
-0.0017188717
-0.010491466
-0.00013968658
-0.020689453
0.0029656166
-0.02618355
0.0052743712
-0.012001592
0.0033122877
0.00065859686
0.00098691641
0.0071844488
0.0002590207
0.015312715
0.0011015954
0.019066198
-0.0007154837
0.010504679
-0.0032027169
0.0013791796
-0.0031310447
-0.0047325085
-0.0020224854
-0.0079521016
-0.00029277343
-0.0073786386
0.0013337384
-0.0044091437
0.0021706556
-0.00095313162
0.0020198537
0.0014521968
0.0013526296
0.0023935995
0.00053787996
0.0022609235
-0.0001770335
0.0015092101
-0.0005580597
0.00078010306
-0.00066068157
0.00025109146
-0.00057785851
-5.0735239e-05
-0.00040906738
-0.00016711792
-0.00023558522
-0.00017156438
-0.00010307803
-0.00012853551
-2.4017602e-05
-8.084739e-05
1.2302374e-05
-4.4896614e-05
2.2112112e-05
-2.2746742e-05
1.8792129e-05
-1.1261643e-05
1.1158224e-05
-6.3707444e-06
3.8345589e-06
-4.8344736e-06
-1.4334274e-06
-4.6473525e-06
-4.3893509e-06
-4.7038107e-06
-5.5546259e-06
-4.5704701e-06
-5.5247413e-06
-4.1167846e-06
-4.8299716e-06
-3.3446247e-06
-3.8626716e-06
-2.3484949e-06
-2.6938852e-06
-1.2150774e-06
-1.5967302e-06
-0.0013730277
0.0002580376
0.00079211538
0.015960601
0.004024617
0.016574227
0.003321556
0.0058201962
0.0017228756
-0.0040529032
-0.011404885
-0.0008054556
-0.022712123
0.0018829816
-0.027628199
0.004410265
-0.009720262
0.0029930417
0.003527859
0.00044302401
0.0097920322
-0.0016206574
0.016324834
-0.0007531033
0.021018704
-0.00085092729
0.012956233
-0.0031670382
0.0016469749
-0.0034705257
-0.0055600428
-0.0023035121
-0.0095653775
-0.00040921271
-0.0092050144
0.0015336023
-0.0056372254
0.002561821
-0.001269671
0.0024872028
0.0018571477
0.001614899
0.0031076186
0.00063861957
0.0029886737
-0.00018987491
0.0020387489
-0.00070656616
0.0010784137
-0.00085637629
0.0003571095
-0.00076670301
-7.3481279e-05
-0.00055511501
-0.00024881828
-0.00032737552
-0.00026150473
-0.00014565053
-0.0002005429
-3.1078357e-05
-0.00012818266
2.3310912e-05
-7.1851704e-05
3.9256438e-05
-3.5883365e-05
3.5250549e-05
-1.6393864e-05
2.3926383e-05
-7.6000274e-06
1.2389756e-05
-4.5898531e-06
3.5915748e-06
-4.1494135e-06
-1.9312628e-06
-4.4593881e-06
-4.6339374e-06
-4.7190906e-06
-5.4065954e-06
-4.6052793e-06
-5.034926e-06
-4.1254676e-06
-4.0494932e-06
-3.3327103e-06
-2.8762138e-06
-2.323557e-06
-1.5875988e-06
-1.1943338e-06
-4.0138681e-07
-0.0013368396
-0.011441075
-0.0007666544
0.0018168062
0.00246992
0.017515301
0.0049376719
0.014958111
0.0033256698
0.0042174015
0.0016248684
-0.00467934
-0.023930572
0.00041299183
-0.028655406
0.0029101881
-0.0075933567
0.0022833617
0.006459941
6.0955102e-05
0.013516108
-0.0032810473
0.018461495
-0.0037573182
0.022687802
-0.0024222211
0.015749508
-0.0036442043
0.0029275047
-0.004447569
-0.006492341
-0.0025382259
-0.011332014
-0.00053684951
-0.011332332
0.0017180997
-0.0070862035
0.0029825895
-0.0016158469
0.0029080019
0.002342432
0.0020019142
0.0039144571
0.00080807034
0.003876914
-0.0002496241
0.0027197735
-0.00087088851
0.00145074
-0.0010788941
0.00049389727
-0.00099316209
-0.0001018184
-0.00073836346