/*--------------------------------*- C++ -*----------------------------------*\
| =========                 |                                                 |
| \\      /  F ield         | OpenFOAM: The Open Source CFD Toolbox           |
|  \\    /   O peration     | Version:  5.0                                   |
|   \\  /    A nd           | Web:      www.OpenFOAM.org                      |
|    \\/     M anipulation  |                                                 |
\*---------------------------------------------------------------------------*/
FoamFile
{
    version     2.0;
    format      ascii;
    class       volScalarField;
    location    "60";
    object      nut;
}
// * * * * * * * * * * * * * * * * * * * * * * * * * * * * * * * * * * * * * //

dimensions      [0 2 -1 0 0 0 0];

internalField   nonuniform List<scalar> 
9520
(
9.0281994e-113
1.040819e-104
6.8439486e-113
6.9436441e-98
7.8566663e-105
5.0074069e-113
8.2614727e-92
5.2172054e-98
5.741793e-105
3.6002432e-113
2.7938598e-86
6.1824237e-92
3.8071942e-98
4.1367596e-105
2.5882394e-113
3.4692325e-81
2.0842257e-86
4.5080852e-92
2.747776e-98
2.9891506e-105
1.8892202e-113
1.8603905e-76
2.5826477e-81
1.5201312e-86
3.2617906e-92
1.994958e-98
2.1985954e-105
1.4164777e-113
4.8196412e-72
1.383667e-76
1.886301e-81
1.1037794e-86
2.3810577e-92
1.4778868e-98
1.6638648e-105
1.0981518e-113
6.5495057e-68
3.5858972e-72
1.0133281e-76
1.3761547e-81
8.1090706e-87
1.7775003e-92
1.1281313e-98
1.3027927e-105
8.814975e-114
4.9717559e-64
4.8814082e-68
2.6370104e-72
7.4376361e-77
1.0186058e-81
6.104808e-87
1.3689517e-92
8.9130194e-99
1.055742e-105
7.3045041e-114
2.2159618e-60
3.7175197e-64
3.6101373e-68
1.9500953e-72
5.5532864e-77
7.7401495e-82
4.7459458e-87
1.0913413e-92
7.2838676e-99
8.8222476e-106
6.2150177e-114
6.0403672e-57
1.6650317e-60
2.7696407e-64
2.6940536e-68
1.4707033e-72
4.2634615e-77
6.0775532e-82
3.8185448e-87
8.992124e-93
6.131137e-99
7.5602302e-106
5.3996852e-114
1.0417826e-53
4.5688761e-57
1.2518893e-60
2.0891876e-64
2.0552107e-68
1.1420364e-72
3.3835314e-77
4.9367378e-82
3.1722985e-87
7.6219591e-93
5.2860826e-99
6.6091545e-106
4.7712361e-114
1.170346e-50
7.9475397e-54
3.473547e-57
9.5625632e-61
1.614669e-64
1.61613e-68
9.1676851e-73
2.7758582e-77
4.1355588e-82
2.7075623e-87
6.6095723e-93
4.6454482e-99
5.8739103e-106
4.2805952e-114
8.7834222e-48
9.0229835e-51
6.1222246e-54
2.6920799e-57
7.5000029e-61
1.2874652e-64
1.3134679e-68
7.6001852e-73
2.3453394e-77
3.5541887e-82
2.3614904e-87
5.8380981e-93
4.1495485e-99
5.3017595e-106
3.9009971e-114
4.5043155e-45
6.8585502e-48
7.0577088e-51
4.8240445e-54
2.1466428e-57
6.0725527e-61
1.0604139e-64
1.101003e-68
6.4785928e-73
2.0299112e-77
3.1178336e-82
2.0965969e-87
5.2409773e-93
3.7656382e-99
4.8638611e-106
3.616598e-114
1.610577e-42
3.5706892e-45
5.4598463e-48
5.6656297e-51
3.9182408e-54
1.7678561e-57
5.0747284e-61
8.9940397e-65
9.4725015e-69
5.6481444e-73
1.7912946e-77
2.7825404e-82
1.8918441e-87
4.7819514e-93
3.4755127e-99
4.5421715e-106
3.4150185e-114
4.0923054e-40
1.2992638e-42
2.8998414e-45
4.4751663e-48
4.696533e-51
3.2877575e-54
1.501069e-57
4.3590435e-61
7.813639e-65
8.3206341e-69
5.0147561e-73
1.6073765e-77
2.524016e-82
1.7357927e-87
4.4402415e-93
3.2668733e-99
4.3210692e-106
3.2830701e-114
7.5204329e-38
3.3686757e-40
1.0789475e-42
2.4322873e-45
3.79408e-48
4.0225487e-51
2.8406436e-54
1.3073027e-57
3.826486e-61
6.9174085e-65
7.4342581e-69
4.5252e-73
1.4661223e-77
2.3289942e-82
1.6215764e-87
4.200443e-93
3.1279624e-99
4.1827216e-106
3.2047667e-114
1.0160017e-35
6.3338591e-38
2.8680223e-40
9.2801998e-43
2.1134615e-45
3.3238975e-48
3.5426011e-51
2.5115325e-54
1.1605907e-57
3.4158392e-61
6.220848e-65
6.7472535e-69
4.1509975e-73
1.3608659e-77
2.1889809e-82
1.543553e-87
4.0464421e-93
3.0447277e-99
4.1051347e-106
3.1609632e-114
1.0240065e-33
8.7797797e-36
5.5417873e-38
2.5354528e-40
8.2807295e-43
1.8978911e-45
2.9898664e-48
3.1845338e-51
2.2570996e-54
1.0453094e-57
3.0929665e-61
5.6793239e-65
6.2250044e-69
3.8759572e-73
1.2869554e-77
2.096197e-82
1.4953584e-87
3.95839e-93
2.9998294e-99
4.0622559e-106
3.1304076e-114
7.8208772e-32
9.1012819e-34
7.9137496e-36
5.0454907e-38
2.328192e-40
7.637782e-43
1.7474244e-45
2.7375884e-48
2.9003765e-51
2.0521896e-54
9.5326213e-58
2.8409215e-61
5.2701798e-65
5.8469495e-69
3.6874969e-73
1.2396451e-77
2.0413157e-82
1.4690221e-87
3.9119985e-93
2.9731799e-99
4.026012e-106
3.0921674e-114
4.5948578e-30
7.1688407e-32
8.4688048e-34
7.434826e-36
4.7769665e-38
2.2105319e-40
7.2143205e-43
1.6330282e-45
2.5300956e-48
2.6635977e-51
1.8849379e-54
8.8083489e-58
2.6514627e-61
4.9787712e-65
5.5947953e-69
3.5714018e-73
1.2129822e-77
2.0125826e-82
1.4549391e-87
3.8799207e-93
2.9439827e-99
3.9701478e-106
3.0290437e-114
2.1075078e-28
4.3548747e-30
6.9019491e-32
8.2256964e-34
7.2729373e-36
4.6800581e-38
2.14735e-40
6.8970071e-43
1.5338061e-45
2.3481968e-48
2.4640137e-51
1.7515476e-54
8.2650686e-58
2.5186087e-61
4.7899134e-65
5.4459188e-69
3.5092554e-73
1.1994835e-77
1.9961255e-82
1.4426576e-87
3.8351648e-93
2.8940295e-99
3.8750357e-106
2.9309482e-114
7.6826264e-27
2.0718367e-28
4.3488609e-30
6.9450686e-32
8.3364059e-34
7.3766117e-36
4.6925993e-38
2.1053905e-40
6.5952846e-43
1.4394955e-45
2.1871606e-48
2.3013546e-51
1.6513653e-54
7.889651e-58
2.4349869e-61
4.6834846e-65
5.3703752e-69
3.478099e-73
1.1905459e-77
1.9774371e-82
1.4224244e-87
3.7559405e-93
2.8113584e-99
3.7317886e-106
2.79688e-114
2.3649047e-25
7.9127533e-27
2.1532862e-28
4.5453048e-30
7.3132443e-32
8.7950117e-34
7.6793544e-36
4.7461788e-38
2.0540924e-40
6.2641711e-43
1.3494159e-45
2.0512785e-48
2.1783639e-51
1.5831142e-54
7.6604921e-58
2.3901717e-61
4.6322628e-65
5.3312579e-69
3.4523206e-73
1.1775762e-77
1.9438435e-82
1.3871286e-87
3.630375e-93
2.6928491e-99
3.5438705e-106
2.6345561e-114
1.1140825e-23
2.9134672e-25
8.8158037e-27
2.3518045e-28
4.9924734e-30
8.0642908e-32
9.5798649e-34
8.0864918e-36
4.771013e-38
1.9774851e-40
5.9074579e-43
1.2692494e-45
1.9468612e-48
2.0954844e-51
1.5427956e-54
7.5438909e-58
2.3695045e-61
4.6030273e-65
5.2887661e-69
3.4076432e-73
1.1536389e-77
1.8872589e-82
1.3339285e-87
3.4590786e-93
2.5445288e-99
3.3253657e-106
2.4577938e-114
1.1507634e-20
5.0450761e-23
5.2029922e-25
1.1032685e-26
2.7402734e-28
5.794696e-30
9.2584136e-32
1.0611258e-33
8.470847e-36
4.7328899e-38
1.878435e-40
5.5644376e-43
1.2058476e-45
1.8767532e-48
2.0480792e-51
1.5233173e-54
7.4910734e-58
2.355316e-61
4.5613413e-65
5.2074085e-69
3.3262807e-73
1.1150749e-77
1.8060979e-82
1.2648083e-87
3.254259e-93
2.3793711e-99
3.0966297e-106
2.2827519e-114
5.0189731e-16
5.9983686e-19
8.478707e-22
2.013146e-24
1.7851209e-26
3.5130907e-28
7.1036391e-30
1.0889645e-31
1.1721904e-33
8.713805e-36
4.5330681e-38
1.7609126e-40
5.2814515e-43
1.1630154e-45
1.837743e-48
2.0262956e-51
1.5143357e-54
7.4442138e-58
2.3302006e-61
4.4786981e-65
5.0642279e-69
3.2013325e-73
1.062371e-77
1.7054039e-82
1.1857549e-87
3.0357184e-93
2.2135584e-99
2.8791576e-106
2.1244774e-114
2.7091723e-08
5.1328222e-14
4.7952989e-17
3.7740531e-20
2.4344014e-23
4.9446772e-26
5.2313318e-28
9.0852349e-30
1.2805396e-31
1.251389e-33
8.3618471e-36
4.16845e-38
1.6643321e-40
5.0874351e-43
1.1396176e-45
1.8206229e-48
2.0156301e-51
1.5038336e-54
7.3496424e-58
2.2810035e-61
4.3395484e-65
4.854691e-69
3.0383268e-73
9.9982559e-78
1.5950723e-82
1.1049235e-87
2.825518e-93
2.0627483e-99
2.6915316e-106
1.9947542e-114
0.00041179569
8.1034827e-07
4.7237047e-12
3.9266775e-15
2.4445075e-18
7.572425e-22
3.21811e-25
9.9919732e-28
1.1918438e-29
1.4237176e-31
1.1980545e-33
7.4899599e-36
3.8459415e-38
1.5971092e-40
4.9830071e-43
1.1297822e-45
1.8115703e-48
1.9997435e-51
1.4813417e-54
7.1712681e-58
2.2022002e-61
4.1453547e-65
4.593335e-69
2.8530498e-73
9.341463e-78
1.4869969e-82
1.0306018e-87
2.6434117e-93
1.9395701e-99
2.5473919e-106
1.9014668e-114
0.0023870917
0.00067488897
1.3007725e-05
3.6632349e-10
2.8525098e-13
1.6037884e-16
3.5597153e-20
5.0414265e-24
2.9116512e-27
1.4837931e-29
1.3560347e-31
1.0348213e-33
6.6479241e-36
3.6549474e-38
1.5614995e-40
4.9421301e-43
1.124355e-45
1.7954952e-48
1.9652302e-51
1.4407445e-54
6.8996797e-58
2.0972818e-61
3.9135485e-65
4.3086958e-69
2.6666834e-73
8.7263778e-78
1.3923602e-82
9.697166e-88
2.5043278e-93
1.8527277e-99
2.4553025e-106
1.8490542e-114
0.004988881
0.0031709226
0.00098796619
7.5295213e-05
2.3306326e-08
1.7424323e-11
9.1544876e-15
1.7301128e-18
1.3458729e-22
9.6266492e-27
1.4264949e-29
1.1159832e-31
8.7352062e-34
6.1781158e-36
3.5600593e-38
1.5492188e-40
4.9212398e-43
1.1135185e-45
1.7606951e-48
1.9054561e-51
1.3817899e-54
6.5544454e-58
1.9774431e-61
3.6718318e-65
4.0349954e-69
2.5004981e-73
8.2171612e-78
1.319954e-82
9.2720064e-88
2.4179415e-93
1.807336e-99
2.4197175e-106
1.8394052e-114
0.0073131252
0.0060308113
0.0038836296
0.001331711
0.00019243988
1.1294184e-06
8.6546398e-10
4.2439453e-13
7.2077801e-17
1.6749306e-21
1.0977569e-26
1.0270462e-29
8.8319887e-32
7.8457017e-34
5.971624e-36
3.5329342e-38
1.544994e-40
4.873524e-43
1.0899626e-45
1.7023421e-48
1.8222359e-51
1.3100884e-54
6.1774326e-58
1.8580817e-61
3.4505772e-65
3.804317e-69
2.3721068e-73
7.8615681e-78
1.2757153e-82
9.060727e-88
2.3895471e-93
1.8057892e-99
2.44217e-106
1.8726545e-114
0.0092091451
0.0084981084
0.0069144259
0.0044597699
0.0017498669
0.00038660489
2.6378889e-05
3.3328691e-08
1.5134333e-11
9.1700279e-16
2.1748749e-21
2.8840496e-27
7.0689471e-30
7.5778203e-32
7.4820315e-34
5.9299565e-36
3.5324344e-38
1.5319307e-40
4.7647003e-43
1.0511883e-45
1.6238875e-48
1.7251748e-51
1.2353018e-54
5.8202852e-58
1.754863e-61
3.2766296e-65
3.6419147e-69
2.2940223e-73
7.6903693e-78
1.2630907e-82
9.0785848e-88
2.4212435e-93
1.8485429e-99
2.522071e-106
1.9475838e-114
0.010613972
0.01046913
0.0095007485
0.0075933789
0.0050079649
0.0023382455
0.00071680513
0.00012904332
8.9672892e-07
1.5585156e-10
1.1046589e-15
1.6485214e-22
6.1425105e-28
5.6572496e-30
7.090386e-32
7.4325213e-34
5.9573419e-36
3.5120081e-38
1.4976736e-40
4.584928e-43
1.0004237e-45
1.5358998e-48
1.6286432e-51
1.1683435e-54
5.5322304e-58
1.6809519e-61
3.1702496e-65
3.5650706e-69
2.274004e-73
7.7205094e-78
1.283651e-82
9.329876e-88
2.5127121e-93
1.9344577e-99
2.6568758e-106
2.0615578e-114
0.01151885
0.011896439
0.011560964
0.010288431
0.00821072
0.0057087233
0.0031637441
0.0012058505
0.00027817961
5.8972309e-06
1.6462059e-10
7.6547819e-17
1.1119508e-24
3.4293758e-28
5.1554482e-30
7.0475131e-32
7.5228407e-34
5.9546343e-36
3.4373234e-38
1.4389134e-40
4.3530911e-43
9.454706e-46
1.4526272e-48
1.5477004e-51
1.1190252e-54
5.3528784e-58
1.6459609e-61
3.1449296e-65
3.5841873e-69
2.3160883e-73
7.9584658e-78
1.3374978e-82
9.8094878e-88
2.6612789e-93
2.0606336e-99
2.841667e-106
2.2101252e-114
0.011959286
0.012784198
0.013055296
0.012463022
0.011002382
0.0089669642
0.0066577452
0.0041362574
0.0017569253
0.00038975465
5.1066131e-06
1.2312717e-11
2.3472075e-19
3.5775241e-26
2.9186546e-28
5.1283794e-30
7.2133315e-32
7.586187e-34
5.8468951e-36
3.298619e-38
1.3628553e-40
4.1092906e-43
8.9606917e-46
1.3880984e-48
1.495222e-51
1.094974e-54
5.3104937e-58
1.6561877e-61
3.208601e-65
3.704282e-69
2.4213185e-73
8.4014698e-78
1.4232485e-82
1.0501516e-87
2.8613222e-93
2.2218773e-99
3.0684201e-106
2.3865298e-114
0.012067109
0.013189991
0.013991635
0.014077865
0.013292086
0.011826675
0.0099501676
0.0076972506
0.0049130302
0.0019914594
0.00034025493
4.6323861e-07
5.0628555e-14
2.641345e-22
1.4387533e-26
2.9037631e-28
5.3349745e-30
7.3731289e-32
7.4935238e-34
5.6099753e-36
3.1147736e-38
1.2842484e-40
3.9009054e-43
8.6130868e-46
1.3537901e-48
1.4809392e-51
1.1015469e-54
5.4234336e-58
1.7152439e-61
3.364628e-65
3.925522e-69
2.5876468e-73
9.0358862e-78
1.5376199e-82
1.1375788e-87
3.1033508e-93
2.410082e-99
3.3253306e-106
2.5813425e-114
0.012038672
0.013283317
0.014442418
0.015137
0.015037465
0.01419242
0.012829586
0.01098487
0.0083823618
0.0049258049
0.0016409934
0.00017687773
2.9427038e-09
4.7397507e-17
2.2285475e-24
1.3147784e-26
3.1004672e-28
5.577202e-30
7.354899e-32
7.1965867e-34
5.2789676e-36
2.9254595e-38
1.2199356e-40
3.7702258e-43
8.4834263e-46
1.3581954e-48
1.5116492e-51
1.1422158e-54
5.701846e-58
1.8243074e-61
3.611604e-65
4.24227e-69
2.8089953e-73
9.8335051e-78
1.6748229e-82
1.2384088e-87
3.3732456e-93
2.6138693e-99
3.596615e-106
2.7751812e-114
0.013312318
0.012063239
0.014570693
0.015699674
0.016234546
0.016019214
0.015202454
0.013830889
0.011583266
0.0081266879
0.004027342
0.00096312939
2.4077438e-05
4.219162e-12
3.4249192e-20
5.7490006e-25
1.4458494e-26
3.3665377e-28
5.7066572e-30
7.0885679e-32
6.7430994e-34
4.9332047e-36
2.7754319e-38
1.1844473e-40
3.7493661e-43
8.6237914e-46
1.4072521e-48
1.5917322e-51
1.2187608e-54
6.1472998e-58
1.9816033e-61
3.9417706e-65
4.6409516e-69
3.0739016e-73
1.0747593e-77
1.8260942e-82
1.3458344e-87
3.6521898e-93
2.8188159e-99
3.8573617e-106
2.9496447e-114
0.014636902
0.013420507
0.012020671
0.015895679
0.016923361
0.017298138
0.017022537
0.016135014
0.014345126
0.01118698
0.0068184576
0.0026191316
0.00038247924
1.0490693e-07
3.2069294e-15
1.4202092e-22
5.6840126e-25
1.6558028e-26
3.5929618e-28
5.5774099e-30
6.5937624e-32
6.2541793e-34
4.6626304e-36
2.7020383e-38
1.1884657e-40
3.8612979e-43
9.0706199e-46
1.5047245e-48
1.7231382e-51
1.3309175e-54
6.7496862e-58
2.1812015e-61
4.3386608e-65
5.0977465e-69
3.3644777e-73
1.1711153e-77
1.9797259e-82
1.4512854e-87
3.9176868e-93
3.0085501e-99
4.076531e-106
3.089203e-114
0.015927404
0.014789701
0.013409276
0.011715408
0.017197083
0.01805729
0.018283164
0.017853806
0.01655132
0.013900688
0.0096889741
0.0048302716
0.0012930608
8.8083393e-05
1.2653925e-10
2.8913947e-18
3.9322017e-23
7.1838236e-25
1.8717937e-26
3.5714313e-28
5.0959242e-30
6.0477386e-32
5.8681178e-34
4.5406104e-36
2.731743e-38
1.2394834e-40
4.1220254e-43
9.8462102e-46
1.6518741e-48
1.9044618e-51
1.4754239e-54
7.4822185e-58
2.4116252e-61
4.775166e-65
5.5775231e-69
3.6565113e-73
1.2639666e-77
2.1218545e-82
1.5451634e-87
4.1457681e-93
3.1555328e-99
4.2329008e-106
3.1802802e-114
0.017207349
0.016037923
0.014838901
0.013104033
0.011017816
0.018366704
0.019014889
0.018993394
0.018152476
0.016104127
0.012404931
0.0073822331
0.0027856212
0.00047747961
1.1302229e-06
1.8856171e-13
2.6285634e-19
1.0956055e-22
9.8408725e-25
1.9102717e-26
3.2029609e-28
4.5304086e-30
5.6069601e-32
5.6961078e-34
4.6169057e-36
2.8827744e-38
1.3427383e-40
4.5408213e-43
1.0954226e-45
1.8461527e-48
2.1292234e-51
1.6448094e-54
8.2968606e-58
2.6550761e-61
5.2134941e-65
6.0353859e-69
3.9213173e-73
1.3439442e-77
2.238045e-82
1.618029e-87
4.3095969e-93
3.2432257e-99
4.31009e-106
3.2134124e-114
0.01834206
0.017149466
0.016134449
0.014607051
0.012392858
0.0098740195
0.019285324
0.019603009
0.019165927
0.0177176
0.014735824
0.010074333
0.0048566647
0.0012960312
0.00013245038
4.8796631e-09
4.7168851e-14
5.1883114e-18
8.1147931e-22
1.1902656e-24
1.6733941e-26
2.7049628e-28
4.1222171e-30
5.4001224e-32
5.8099827e-34
4.924888e-36
3.1678952e-38
1.5010733e-40
5.1168756e-43
1.2368296e-45
2.0792728e-48
2.3840778e-51
1.82655e-54
9.1232811e-58
2.8881109e-61
5.6081666e-65
6.4215318e-69
4.1293929e-73
1.4020722e-77
2.3154028e-82
1.6620844e-87
4.3793584e-93
3.261761e-99
4.2992124e-106
3.1844224e-114
0.019200074
0.018139849
0.017186492
0.016021377
0.013973956
0.011231935
0.0082950124
0.019770475
0.019664348
0.018750491
0.016542894
0.012603104
0.007450896
0.0028402123
0.0005564725
2.0073975e-05
3.5284263e-09
1.3820531e-12
1.9188501e-16
3.2030014e-21
9.5722569e-25
1.3249658e-26
2.3640763e-28
3.9159864e-30
5.5069693e-32
6.2561675e-34
5.4883774e-36
3.5935992e-38
1.7133267e-40
5.8326698e-43
1.4017793e-45
2.3355468e-48
2.6479882e-51
2.0033164e-54
9.874056e-58
3.0842499e-61
5.9122367e-65
6.6888683e-69
4.255194e-73
1.4312582e-77
2.3446995e-82
1.6686869e-87
4.3466074e-93
3.2083434e-99
4.1999925e-106
3.0949977e-114
0.019616395
0.018895466
0.018006287
0.017134855
0.015540447
0.01288393
0.009633939
0.0063491638
0.019766928
0.019291356
0.017793775
0.014732403
0.010171871
0.0052853436
0.001781787
0.00037211758
3.2368212e-05
9.101192e-08
4.640423e-11
1.2802828e-15
1.7779e-21
5.7838432e-25
1.080367e-26
2.1967292e-28
3.9756593e-30
5.9766688e-32
7.0691782e-34
6.3192606e-36
4.1548463e-38
1.9716671e-40
6.646986e-43
1.5778415e-45
2.591656e-48
2.893455e-51
2.1548227e-54
1.0456919e-57
3.2182728e-61
6.0855269e-65
6.801572e-69
4.2817697e-73
1.4275511e-77
2.3222091e-82
1.6337878e-87
4.2138622e-93
3.0874267e-99
4.0205022e-106
2.9520056e-114
0.019620343
0.019283348
0.01860048
0.017896721
0.016788907
0.014594031
0.01133461
0.00766072
0.0041836303
0.019492849
0.018562164
0.01635811
0.012641199
0.0081227733
0.0041918933
0.0016991201
0.00054494971
0.00013221778
2.0556964e-06
2.7506806e-10
6.6708829e-16
1.3070499e-22
4.0200368e-25
9.6630573e-27
2.2093506e-28
4.3403609e-30
6.8474994e-32
8.2669513e-34
7.4049593e-36
4.8273316e-38
2.2591738e-40
7.4917328e-43
1.7475565e-45
2.8188019e-48
3.0902685e-51
2.2611886e-54
1.0791798e-57
3.2711334e-61
6.1025695e-65
6.7420276e-69
4.2038557e-73
1.3907909e-77
2.2428158e-82
1.5609491e-87
3.9936643e-93
2.9096253e-99
3.7753397e-106
2.7662653e-114
0.019510927
0.019369893
0.018875156
0.018309714
0.017548719
0.016005457
0.013154073
0.0093676733
0.005438246
0.0021512639
0.01903709
0.017498598
0.014673969
0.010852334
0.0071309929
0.0043652881
0.0023832082
0.00097884881
0.00028530594
8.6159995e-06
1.5640241e-10
1.4875482e-17
1.5811446e-23
3.3759862e-25
9.557835e-27
2.4216686e-28
5.0435655e-30
8.1427798e-32
9.8293414e-34
8.6917928e-36
5.5614979e-38
2.5493305e-40
8.2764411e-43
1.8905931e-45
2.9874007e-48
3.2112212e-51
2.3069958e-54
1.0827698e-57
3.2339477e-61
5.9576829e-65
6.5139294e-69
4.0284981e-73
1.3247509e-77
2.1124879e-82
1.4573652e-87
3.7058647e-93
2.6895979e-99
3.4830817e-106
2.5506962e-114
0.019301032
0.019388891
0.018934768
0.01837256
0.017794466
0.016788212
0.014703959
0.011235549
0.0070794778
0.0032175834
0.00077989192
0.018288813
0.016221601
0.013228171
0.010010706
0.007439576
0.005534905
0.0035253428
0.0015613069
0.00039004237
5.5718854e-06
5.1995329e-12
2.0040444e-20
9.6615747e-24
3.2509025e-25
1.0489385e-26
2.8561089e-28
6.1102845e-30
9.8421603e-32
1.1670745e-33
1.0074091e-35
6.2831232e-38
2.8087766e-40
8.9020879e-43
1.9875411e-45
3.0732528e-48
3.2380974e-51
2.2847212e-54
1.0553684e-57
3.1096988e-61
5.6655124e-65
6.1406261e-69
3.77308e-73
1.2310347e-77
1.9442984e-82
1.3323926e-87
3.3739355e-93
2.4436285e-99
3.1634253e-106
2.3185908e-114
0.018818555
0.01934694
0.01894533
0.018214347
0.017574348
0.016869358
0.015511074
0.012865079
0.0089032409
0.0046453274
0.0014155313
0.00016034472
0.017322983
0.015133444
0.012558761
0.010342167
0.0087524083
0.0071348151
0.0046427838
0.0018770613
0.00034360058
3.5088595e-07
6.0239103e-15
4.1068409e-22
8.7978372e-24
3.5638874e-25
1.2566214e-26
3.5342041e-28
7.5282598e-30
1.184548e-31
1.3624219e-33
1.1399272e-35
6.9035974e-38
3.0033164e-40
9.2815996e-43
2.024273e-45
3.0631686e-48
3.1658437e-51
2.196319e-54
1.0000128e-57
2.9121098e-61
5.2570068e-65
5.659428e-69
3.4625665e-73
1.1181932e-77
1.7532024e-82
1.1959161e-87
3.0213536e-93
2.1873579e-99
2.8347641e-106
2.0820565e-114
0.018066824
0.019098028
0.01899505
0.018089796
0.017102082
0.01633682
0.015434729
0.013684007
0.010528202
0.006287476
0.0023818831
0.00037740598
1.8249438e-07
0.016531468
0.014628047
0.012843683
0.011561585
0.01042291
0.0084125568
0.0050165848
0.0016359236
0.00018535225
1.0747819e-09
2.3322577e-18
2.0004716e-22
9.582311e-24
4.3459851e-25
1.5935473e-26
4.4546256e-28
9.2109691e-30
1.3953868e-31
1.5454676e-33
1.2494078e-35
7.3382938e-38
3.1055964e-40
9.3605365e-43
1.9953205e-45
2.9579704e-48
3.0033826e-51
2.0524087e-54
9.2300606e-58
2.6621927e-61
4.7723473e-65
5.1138784e-69
3.1088381e-73
9.9595507e-78
1.5535952e-82
1.0569689e-87
2.6687374e-93
1.9341297e-99
2.5124224e-106
6.0192626e-122
0.017439194
0.018525396
0.018969608
0.018161697
0.016753202
0.015519027
0.014597444
0.013464134
0.011343475
0.0077995054
0.003624752
0.00076765642
6.7459414e-06
9.8278748e-13
0.016143645
0.014822521
0.013815027
0.013023798
0.011619866
0.0086694433
0.0043750379
0.0010297861
2.9567645e-05
5.7515168e-13
1.141269e-20
2.0699751e-22
1.1906118e-23
5.6736597e-25
2.0643826e-26
5.562476e-28
1.0977692e-29
1.5890644e-31
1.6907322e-33
1.3205283e-35
7.5268929e-38
3.1018519e-40
9.1300943e-43
1.9049811e-45
2.7717646e-48
2.7708703e-51
1.8694558e-54
8.3241045e-58
2.38371e-61
4.2531761e-65
4.5474854e-69
2.7403731e-73
8.7294504e-78
1.3575792e-82
9.2281591e-88
2.3321306e-93
1.6940591e-99
1.0247091e-113
1.1742932e-130
0.017086611
0.017905775
0.018635648
0.018343732
0.016789581
0.01489955
0.01343522
0.012363252
0.011011263
0.0085936996
0.0048802658
0.0013795131
7.3516952e-05
4.9772434e-11
3.1476286e-18
0.016207896
0.01545408
0.014863207
0.013939615
0.011788388
0.0077489864
0.003070869
0.0004491501
1.040947e-07
1.6268996e-16
3.9670183e-21
2.6241437e-22
1.6072713e-23
7.5970513e-25
2.6438381e-26
6.7311173e-28
1.2575866e-29
1.7368163e-31
1.7774942e-33
1.3438374e-35
7.4483265e-38
2.9950113e-40
8.6273727e-43
1.765795e-45
2.5279092e-48
2.4945788e-51
1.666025e-54
7.364167e-58
2.0989629e-61
3.7362609e-65
3.976387e-69
2.3811309e-73
7.5583921e-78
1.1740248e-82
7.985682e-88
2.0224471e-93
9.7273115e-107
2.9940537e-122
9.2513532e-141
0.016975737
0.017503377
0.01805511
0.018305122
0.017146342
0.014853787
0.012534406
0.010884144
0.0097156977
0.0082197555
0.0056260207
0.0021301067
0.00021077892
2.1049311e-09
1.5948456e-16
1.1820216e-23
0.016449392
0.01596733
0.015351558
0.013986629
0.010861705
0.0059676513
0.0016791027
0.0001157704
7.4305875e-11
3.2143704e-19
4.7428882e-21
3.6892312e-22
2.238565e-23
1.0036749e-24
3.2627479e-26
7.7787976e-28
1.3751207e-29
1.8172775e-31
1.7951431e-33
1.3180251e-35
7.1245455e-38
2.8029967e-40
7.9235061e-43
1.5951112e-45
2.2533254e-48
2.2012748e-51
1.4593265e-54
6.4205054e-58
1.8258782e-61
3.2497805e-65
3.4343679e-69
2.0481454e-73
6.4905397e-78
1.0084694e-82
6.872479e-88
1.6310857e-100
4.248038e-115
3.7142718e-132
1.5727507e-152
0.01680794
0.017163865
0.017499872
0.017878496
0.017419263
0.015334375
0.012370336
0.009717049
0.0079874799
0.006854793
0.0053443196
0.0027124631
0.00040403489
6.7949482e-08
7.0254721e-15
2.7340671e-22
8.4010549e-27
0.016409205
0.015979368
0.015213253
0.013207829
0.009016174
0.0038567284
0.0006749307
2.1623302e-06
3.3127613e-14
8.3459444e-20
6.9456418e-21
5.3900055e-22
3.072432e-23
1.26981e-24
3.8165217e-26
8.5247157e-28
1.4330549e-29
1.8217691e-31
1.7455174e-33
1.2497739e-35
6.6116812e-38
2.5532298e-40
7.1049115e-43
1.4110926e-45
1.9731397e-48
1.9137732e-51
1.2629003e-54
5.5445474e-58
1.5768364e-61
2.7984393e-65
2.9433116e-69
1.7513949e-73
5.5493599e-78
8.6355181e-83
7.7586275e-95
1.0613195e-108
8.3100516e-125
9.9878921e-144
5.8610471e-166
0.016283945
0.016592319
0.016887451
0.01718567
0.017218063
0.01588559
0.012912557
0.0094031445
0.0065914108
0.0050349452
0.0041630925
0.0026599729
0.0006192223
1.4607199e-06
2.481137e-13
9.3533281e-21
1.5113947e-26
1.7184542e-28
0.016007775
0.015664683
0.014595284
0.011649059
0.0065953067
0.0020029132
0.00019853306
2.4031321e-09
1.5069946e-16
1.1413773e-19
1.0700096e-20
7.7483142e-22
4.0114061e-23
1.5095185e-24
4.2003739e-26
8.854607e-28
1.4260695e-29
1.7561638e-31
1.6414901e-33
1.1512836e-35
5.9833023e-38
2.2757256e-40
6.2546949e-43
1.2294474e-45
1.7070741e-48
1.6485213e-51
1.085702e-54
4.767452e-58
1.3583656e-61
2.397357e-65
2.5141798e-69
1.494993e-73
4.7420353e-78
1.3594917e-89
7.4939051e-103
3.2726308e-118
3.5793065e-136
5.1740673e-157
1.3860311e-180
0.015614721
0.015693712
0.015965561
0.016240419
0.016503289
0.015915725
0.013661817
0.0099308709
0.0060964565
0.0035207793
0.002624651
0.0019515421
0.00067809601
1.5127932e-05
6.709274e-12
3.1845252e-19
5.786773e-26
1.7441765e-28
3.7759903e-30
0.015652092
0.015212118
0.01347448
0.0094005788
0.0041465035
0.00082439663
1.4599506e-05
3.6451311e-12
8.6629658e-17
1.8715531e-19
1.6225646e-20
1.0513427e-21
4.8711605e-23
1.6723421e-24
4.3509687e-26
8.7441185e-28
1.3623001e-29
1.6380291e-31
1.5022824e-33
1.0367134e-35
5.3128659e-38
1.9971725e-40
5.4395772e-43
1.0615957e-45
1.4680403e-48
1.4151946e-51
9.3234842e-55
4.1031926e-58
1.1673274e-61
2.0525919e-65
2.1496202e-69
1.2788583e-73
1.0369091e-84
1.9407868e-97
3.6364247e-112
2.2816242e-129
2.6491961e-149
1.4468823e-171
4.9679538e-196
0.015246613
0.01481796
0.014703731
0.014958693
0.015293997
0.015204761
0.013883406
0.010775034
0.0065162968
0.0028345547
0.0013948537
0.0010463019
0.00048194368
3.3903608e-05
1.322877e-10
9.0741738e-18
4.6177126e-25
2.2220392e-28
3.5938265e-30
6.5627886e-32
0.015443959
0.014514199
0.011732342
0.0068288165
0.0022104016
0.00027619237
5.8698936e-08
2.9296135e-13
2.2231404e-16
3.0581937e-19
2.306387e-20
1.3112362e-21
5.4486932e-23
1.7285426e-24
4.2622131e-26
8.2677741e-28
1.2596994e-29
1.4900547e-31
1.3479546e-33
9.1902716e-36
4.6608708e-38
1.7374462e-40
4.7042931e-43
9.142968e-46
1.2625467e-48
1.2176945e-51
8.0404094e-55
3.5504347e-58
1.005368e-61
1.7638579e-65
1.8468446e-69
3.8674599e-80
2.1771466e-92
1.4780887e-106
4.1374718e-123
2.4811426e-142
8.9078649e-164
5.602569e-187
4.5261136e-212
0.015181486
0.014323904
0.013525049
0.013327045
0.0135711
0.013744001
0.013182246
0.011135615
0.0073475897
0.0029969825
0.00078753123
0.00042080342
0.00021061533
1.4189291e-05
6.8957951e-10
2.0159311e-16
5.9492832e-24
3.4549389e-28
4.0460868e-30
6.0108606e-32
8.7963181e-34
0.015122807
0.013295541
0.0094481088
0.0044339074
0.0010663313
7.5803534e-05
2.5812352e-09
6.882213e-13
6.731307e-16
4.7873013e-19
2.9754995e-20
1.4856661e-21
5.6222731e-23
1.6773681e-24
3.9831459e-26
7.5696158e-28
1.1388792e-29
1.3336284e-31
1.1953349e-33
8.0809266e-36
4.0689475e-38
1.5087146e-40
4.072359e-43
7.9031544e-46
1.0921519e-48
1.0557811e-51
6.9982451e-55
3.0872928e-58
8.7136677e-62
1.5270904e-65
7.6910458e-76
1.1881528e-87
2.5925133e-101
2.7596246e-117
6.7908607e-136
1.0211751e-156
3.7634164e-179
5.2312688e-203
1.4531355e-228
0.015212141
0.014305796
0.012796452
0.011722549
0.011469772
0.011612883
0.011536298
0.010486103
0.0078169685
0.0036584793
0.00071268947
0.00013940863
3.4188927e-05
4.5896214e-07
2.4729714e-10
1.4454067e-15
9.2038713e-23
6.3362386e-28
5.143165e-30
6.3353714e-32
7.8109359e-34
8.9215008e-36
0.014375183
0.01155762
0.0070517219
0.0027774235
0.00062565295
4.0548793e-05
8.0566258e-09
3.7868468e-12
2.2532768e-15
7.4719251e-19
3.4416525e-20
1.5314212e-21
5.3956841e-23
1.5441036e-24
3.6034421e-26
6.7963508e-28
1.0173621e-29
1.1850902e-31
1.0561654e-33
7.1012709e-36
3.5600342e-38
1.3164194e-40
3.550629e-43
6.895691e-46
9.5519729e-49
9.2672446e-52
6.1669232e-55
2.7082517e-58
7.6272317e-62
8.7202123e-72
3.4385307e-83
2.2020019e-96
7.9692899e-112
7.0154153e-130
3.4895374e-150
4.754929e-172
3.6248708e-195
1.6648589e-219
3.2739318e-245
0.014960664
0.014648249
0.012761207
0.010704268
0.0094569127
0.009143466
0.0091568697
0.0088173927
0.0073269596
0.004219075
0.0009850055
5.8627068e-05
3.4422615e-07
2.3548642e-09
4.4228686e-12
6.0764635e-16
7.4454846e-22
1.3403985e-27
6.8783481e-30
7.3989513e-32
7.7990259e-34
7.7149871e-36
6.7375403e-38
0.013093628
0.0095431947
0.0051896968
0.0020892551
0.00067097098
0.0001079715
1.1761399e-07
3.589367e-11
1.0482312e-14
1.4245335e-18
3.5779467e-20
1.4502935e-21
4.8816733e-23
1.3751129e-24
3.20747e-26
6.0596011e-28
9.071808e-30
1.0547411e-31
9.3710183e-34
6.2812881e-36
3.1422117e-38
1.1611463e-40
3.1350554e-43
6.1030123e-46
8.4832671e-49
8.2688797e-52
5.4941919e-55
2.4043695e-58
5.9481393e-68
5.6429779e-79
9.8666123e-92
1.1159298e-106
3.2132815e-124
4.6025486e-144
1.8101483e-165
4.7544597e-188
1.1491799e-211
3.6654031e-236
7.2701708e-262
0.014178457
0.014976352
0.013377727
0.010633823
0.0082001967
0.0068805578
0.0065327344
0.0064808248
0.0058820311
0.0040430801
0.0013580976
0.00010853732
9.0209081e-09
7.1638838e-12
1.6149902e-14
9.3970924e-18
3.822525e-22
2.9875124e-27
8.8961334e-30
9.0275097e-32
8.4993592e-34
7.3611156e-36
5.6878862e-38
3.7311295e-40
0.01160305
0.0078293894
0.004332665
0.0023023662
0.0010844029
0.00025838493
2.4959852e-06
6.1168137e-10
9.4392807e-14
2.2880482e-18
3.2922654e-20
1.2808971e-21
4.2646799e-23
1.2099679e-24
2.8519521e-26
5.4269919e-28
8.1501978e-30
9.4765726e-32
8.4078842e-34
5.6276582e-36
2.8137231e-38
1.0405923e-40
2.8158611e-43
5.5001202e-46
7.6758196e-49
7.5064292e-52
4.9620612e-55
2.5509224e-64
5.5424967e-75
2.4929488e-87
8.2401077e-102
7.2893473e-119
2.759794e-138
2.6901457e-159
1.8911094e-181
1.5088266e-204
2.4823214e-228
7.9060905e-253
1.5967222e-278
0.013116128
0.014794095
0.014275483
0.011497914
0.0081128632
0.0055135069
0.0042911872
0.0040604963
0.0039396005
0.0030958188
0.0014126597
0.00021150716
2.9570463e-08
1.0876565e-13
3.9241323e-17
3.1634805e-20
8.8490053e-24
2.4652296e-27
1.051238e-29
1.0725841e-31
9.6348604e-34
7.5790579e-36
5.2095817e-38
3.0830857e-40
1.4904187e-42
0.010282621
0.0069579737
0.0045968749
0.003280235
0.0018724191
0.00052125858
3.5321835e-05
1.5578569e-08
5.0409429e-13
1.5134799e-18
2.8200568e-20
1.0895293e-21
3.6963155e-23
1.0712661e-24
2.5661241e-26
4.9305635e-28
7.435595e-30
8.6525782e-32
7.672551e-34
5.1330842e-36
2.5675823e-38
9.5116343e-41
2.5812703e-43
5.0607047e-46
7.0951204e-49
6.9156264e-52
7.1373248e-61
3.405815e-71
3.7475386e-83
3.4242877e-97
8.8793733e-114
8.4280257e-133
1.8396758e-153
2.9553937e-175
6.0350172e-198
3.2089134e-221
5.2202436e-245
1.6799036e-269
3.4806521e-295
0.012240573
0.014150755
0.014834278
0.01290495
0.0091650613
0.0054158001
0.0029921972
0.0021800035
0.0021122992
0.0018393198
0.0010451013
0.00024925209
4.0738468e-07
3.5006501e-13
4.47938e-19
1.3247367e-22
1.9004777e-25
8.6675797e-28
1.0228134e-29
1.1846753e-31
1.0727066e-33
8.1074402e-36
5.0967007e-38
2.7230468e-40
1.2082563e-42
4.2211578e-45
0.0095716233
0.0071667167
0.0058381103
0.0049178629
0.0030558066
0.0009466737
0.00014442043
1.3723761e-07
5.1875066e-13
5.6739185e-19
2.3254127e-20
9.2458143e-22
3.2498264e-23
9.6815842e-25
2.3608528e-26
4.5791534e-28
6.9303239e-30
8.0687365e-32
7.151543e-34
4.7838979e-36
2.3950032e-38
8.8902337e-41
2.4197127e-43
4.7610165e-46
6.6846338e-49
1.3445927e-57
1.3591794e-67
3.504382e-79
8.4401833e-93
6.1792729e-109
1.4254321e-127
6.4940478e-148
2.1396596e-169
9.5210399e-192