/*--------------------------------*- C++ -*----------------------------------*\
| =========                 |                                                 |
| \\      /  F ield         | OpenFOAM: The Open Source CFD Toolbox           |
|  \\    /   O peration     | Version:  5.0                                   |
|   \\  /    A nd           | Web:      www.OpenFOAM.org                      |
|    \\/     M anipulation  |                                                 |
\*---------------------------------------------------------------------------*/
FoamFile
{
    version     2.0;
    format      ascii;
    class       volScalarField;
    location    "60";
    object      nuTilda_0;
}
// * * * * * * * * * * * * * * * * * * * * * * * * * * * * * * * * * * * * * //

dimensions      [0 2 -1 0 0 0 0];

internalField   nonuniform List<scalar> 
9520
(
7.5436411e-32
7.8168525e-30
7.0395838e-32
3.9727544e-28
7.286763e-30
6.5110268e-32
1.3120952e-26
3.6990364e-28
6.7376747e-30
5.9957106e-32
3.1641537e-25
1.2204561e-26
3.4190116e-28
6.2075713e-30
5.5208506e-32
5.9397686e-24
2.9408388e-25
1.1278406e-26
3.151376e-28
5.7231887e-30
5.1028216e-32
9.0389128e-23
5.5176359e-24
2.7178126e-25
1.0401989e-26
2.9089096e-28
5.2999311e-30
4.7480836e-32
1.1467586e-21
8.3945118e-23
5.1009447e-24
2.5088206e-25
9.6146677e-27
2.6985967e-28
4.9429757e-30
4.4550623e-32
1.2381484e-20
1.0650912e-21
7.7657429e-23
4.7142389e-24
2.3226238e-25
8.9366237e-27
2.5222713e-28
4.6494328e-30
4.2166385e-32
1.1557111e-19
1.1504622e-20
9.8632486e-22
7.187838e-23
4.3725135e-24
2.1633754e-25
8.3712757e-27
2.3778279e-28
4.411073e-30
4.0228652e-32
9.4430567e-19
1.074724e-19
1.0668867e-20
9.1463371e-22
6.6812821e-23
4.0821927e-24
2.0312704e-25
7.9096529e-27
2.2606806e-28
4.2172306e-30
3.8634895e-32
6.8231802e-18
8.7919565e-19
9.9847533e-20
9.9157905e-21
8.5230549e-22
6.2537192e-23
3.8424778e-24
1.9236884e-25
7.5354341e-27
2.1652733e-28
4.0574058e-30
3.7298895e-32
4.3970656e-17
6.3632226e-18
8.1868286e-19
9.3048942e-20
9.2665654e-21
8.000344e-22
5.902193e-23
3.6476494e-24
1.8364546e-25
7.2300137e-27
2.0863817e-28
3.9231599e-30
3.6161547e-32
2.5456194e-16
4.10938e-17
5.9416729e-18
7.6533329e-19
8.7239897e-20
8.7256497e-21
7.5722844e-22
5.6168773e-23
3.4895078e-24
1.7650704e-25
6.9766859e-27
2.0200029e-28
3.8090453e-30
3.5192384e-32
1.3323719e-15
2.3853242e-16
3.849749e-17
5.574648e-18
7.2019141e-19
8.2433107e-20
8.2843291e-21
7.2250992e-22
5.3848764e-23
3.359676e-24
1.7056808e-25
6.7632945e-27
1.9637188e-28
3.7125427e-30
3.4383188e-32
6.3402961e-15
1.2524429e-15
2.2431539e-16
3.6268967e-17
5.2675589e-18
6.8312249e-19
7.8525563e-20
7.9264103e-21
6.9420519e-22
5.1936911e-23
3.2513195e-24
1.6556337e-25
6.5830423e-27
1.9165478e-28
3.6332061e-30
3.3736753e-32
2.7570121e-14
5.9824062e-15
1.1829721e-15
2.1231454e-16
3.4429255e-17
5.0176933e-18
6.5310672e-19
7.5354493e-20
7.6335543e-21
6.7077605e-22
5.0336497e-23
3.1600266e-24
1.6135748e-25
6.4336084e-27
1.8784168e-28
3.5713788e-30
3.3254553e-32
1.1007128e-13
2.612753e-14
5.6788103e-15
1.1255209e-15
2.0257369e-16
3.294978e-17
4.8163564e-18
6.2872166e-19
7.2747218e-20
7.3898234e-21
6.5110069e-22
4.8989629e-23
3.0837898e-24
1.5791412e-25
6.3151165e-27
1.8494618e-28
3.5268986e-30
3.2926832e-32
4.0525578e-13
1.0483896e-13
2.4940005e-14
5.434215e-15
1.0799344e-15
1.9486619e-16
3.1765724e-17
4.6525783e-18
6.0854788e-19
7.0562541e-20
7.1843787e-21
6.3456812e-22
4.7873794e-23
3.0222594e-24
1.5524111e-25
6.2277135e-27
1.8293796e-28
3.4981544e-30
3.2727495e-32
1.3815802e-12
3.8820107e-13
1.0069843e-13
2.4016108e-14
5.246257e-15
1.0447316e-15
1.8876418e-16
3.0801517e-17
4.5160128e-18
5.9150093e-19
6.8712528e-20
7.0120394e-21
6.2099315e-22
4.6987939e-23
2.9756086e-24
1.5333047e-25
6.1695125e-27
1.8170094e-28
3.4817153e-30
3.2614628e-32
4.377337e-12
1.3319562e-12
3.7542083e-13
9.7635004e-14
2.3339773e-14
5.1066988e-15
1.0173829e-15
1.8379558e-16
2.998905e-17
4.3993071e-18
5.7697967e-19
6.7163028e-20
6.8719012e-21
6.104082e-22
4.6333946e-23
2.943405e-24
1.5211221e-25
6.1354538e-27
1.8102357e-28
3.4725736e-30
3.2535959e-32
1.2939794e-11
4.2498348e-12
1.2977122e-12
3.6668591e-13
9.5567616e-14
2.2871347e-14
5.002088e-15
9.9517636e-16
1.7954656e-16
2.9283221e-17
4.2989525e-18
5.6482531e-19
6.5916114e-20
6.7647415e-21
6.0281625e-22
4.5899809e-23
2.9238262e-24
1.5143374e-25
6.1173259e-27
1.8062127e-28
3.464884e-30
3.2437431e-32
3.5822689e-11
1.2659998e-11
4.1736236e-12
1.2774997e-12
3.6167504e-13
9.4329895e-14
2.254646e-14
4.9180029e-15
9.75742e-16
1.7576099e-16
2.8666629e-17
4.214697e-18
5.5513676e-19
6.4981985e-20
6.6902488e-21
5.9798686e-22
4.5649382e-23
2.9134245e-24
1.5106914e-25
6.1048449e-27
1.8018222e-28
3.4529694e-30
3.2272563e-32
9.3219301e-11
3.5341719e-11
1.2539303e-11
4.1429379e-12
1.2703671e-12
3.5979871e-13
9.364407e-14
2.2293868e-14
4.8414923e-15
9.5769993e-16
1.7236777e-16
2.8144401e-17
4.147956e-18
5.4802038e-19
6.435362e-20
6.6450167e-21
5.9535155e-22
4.5521329e-23
2.9074712e-24
1.5075319e-25
6.0874209e-27
1.7942304e-28
3.4323278e-30
3.2010353e-32
2.2903645e-10
9.2811393e-11
3.5325971e-11
1.2557512e-11
4.1563589e-12
1.2747548e-12
3.6001986e-13
9.3181665e-14
2.2045966e-14
4.7652814e-15
9.4082508e-16
1.6944424e-16
2.7731789e-17
4.0998299e-18
5.4338909e-19
6.3990838e-20
6.6217141e-21
5.9402413e-22
4.5437043e-23
2.9007423e-24
1.5022936e-25
6.0561134e-27
1.7814017e-28
3.4004068e-30
3.1640128e-32
5.3928123e-10
2.3069232e-10
9.369983e-11
3.5714137e-11
1.2719131e-11
4.2119091e-12
1.287545e-12
3.6103415e-13
9.2609794e-14
2.176414e-14
4.6888829e-15
9.2583305e-16
1.6712645e-16
2.7439428e-17
4.0695602e-18
5.408552e-19
6.3814313e-20
6.609663e-21
5.9293541e-22
4.5314725e-23
2.8885072e-24
1.4929855e-25
6.0052803e-27
1.7624508e-28
3.3569934e-30
3.1172567e-32
1.4079808e-09
5.6762753e-10
2.3694318e-10
9.5773717e-11
3.6556348e-11
1.3031996e-11
4.3024653e-12
1.3042273e-12
3.6150526e-13
9.1735568e-14
2.1447573e-14
4.6175384e-15
9.1378352e-16
1.6550636e-16
2.7262002e-17
4.0538877e-18
5.3967923e-19
6.3714307e-20
6.5966745e-21
5.9103715e-22
4.5085458e-23
2.8674513e-24
1.4785651e-25
5.9335575e-27
1.7377698e-28
3.3041706e-30
3.0637094e-32
7.9005301e-09
2.043475e-09
6.5466637e-10
2.5044074e-10
9.9478917e-11
3.79369e-11
1.3487978e-11
4.4135775e-12
1.3194394e-12
3.6078549e-13
9.0566879e-14
2.1128965e-14
4.5586016e-15
9.0540598e-16
1.6455668e-16
2.7175048e-17
4.0467811e-18
5.3888164e-19
6.3572169e-20
6.571524e-21
5.8751571e-22
4.4706988e-23
2.8363078e-24
1.4591186e-25
5.8440036e-27
1.7089216e-28
3.2458901e-30
3.0076468e-32
1.1366589e-07
2.1162604e-08
4.1154397e-09
9.1405203e-10
2.8198895e-10
1.0580408e-10
3.991064e-11
1.4045134e-11
4.5246384e-12
1.328884e-12
3.5695533e-13
8.9116898e-14
2.0854415e-14
4.5173907e-15
9.0063589e-16
1.6411525e-16
2.7135147e-17
4.0405591e-18
5.3746488e-19
6.3286065e-20
6.5263205e-21
5.8195899e-22
4.4171929e-23
2.7960726e-24
1.4358219e-25
5.7434479e-27
1.6783432e-28
3.1872818e-30
2.95399e-32
9.7845851e-06
3.6145984e-07
6.3230867e-08
1.0599891e-08
1.695757e-09
3.6258778e-10
1.1677591e-10
4.243436e-11
1.4625317e-11
4.5999308e-12
1.3155133e-12
3.4957623e-13
8.7866681e-14
2.0659388e-14
4.4943629e-15
8.9852311e-16
1.6390138e-16
2.7088976e-17
4.0278792e-18
5.3463941e-19
6.2792948e-20
6.4581649e-21
5.7443828e-22
4.3508849e-23
2.7497824e-24
1.4107097e-25
5.6412476e-27
1.6489344e-28
3.133853e-30
2.9075997e-32
0.00040177922
2.3084397e-05
1.1200098e-06
1.9024565e-07
3.004918e-08
3.9921863e-09
5.7652826e-10
1.3705453e-10
4.5403622e-11
1.5021708e-11
4.5514579e-12
1.2799596e-12
3.425921e-13
8.6962131e-14
2.0551914e-14
4.4846056e-15
8.974224e-16
1.6358445e-16
2.6988679e-17
4.0034785e-18
5.299962e-19
6.208215e-20
6.369747e-21
5.6549157e-22
4.2776506e-23
2.7019407e-24
1.3863155e-25
5.5477466e-27
1.6236174e-28
3.0907227e-30
2.872665e-32
0.0023515564
0.00065848914
4.9284416e-05
3.3257311e-06
5.5569709e-07
8.5540022e-08
1.0442988e-08
1.1427917e-09
1.7857969e-10
4.7968166e-11
1.4846117e-11
4.3887066e-12
1.2423041e-12
3.3823917e-13
8.6470221e-14
2.0509499e-14
4.4793165e-15
8.9546736e-16
1.6288407e-16
2.6803631e-17
3.9652784e-18
5.2359628e-19
6.1197829e-20
6.2688049e-21
5.5601887e-22
4.2053004e-23
2.6577385e-24
1.3652631e-25
5.4727418e-27
1.6049419e-28
3.0620022e-30
2.8522595e-32
0.004945859
0.0031337889
0.00096642386
9.8496334e-05
9.4048376e-06
1.5545246e-06
2.3526224e-07
2.7579647e-08
2.5938668e-09
2.4075986e-10
4.7534918e-11
1.4144633e-11
4.2064935e-12
1.2196389e-12
3.3600677e-13
8.6298761e-14
2.0488306e-14
4.4687116e-15
8.9115411e-16
1.6164199e-16
2.652673e-17
3.914901e-18
5.1596504e-19
6.0230391e-20
6.1666502e-21
5.471191e-22
4.1422503e-23
2.6222329e-24
1.3498865e-25
5.4241985e-27
1.5947891e-28
3.0503843e-30
2.8480906e-32
0.0072681219
0.0059904341
0.0038481851
0.0013046701
0.0001926806
2.5092507e-05
4.1301677e-06
6.1442508e-07
7.0141457e-08
4.8922362e-09
2.4968507e-10
4.3818893e-11
1.3340664e-11
4.094473e-12
1.209233e-12
3.353582e-13
8.6241913e-14
2.0439558e-14
4.4451873e-15
8.8373608e-16
1.5985638e-16
2.6176693e-17
3.8574034e-18
5.0798998e-19
5.9299399e-20
6.0761422e-21
5.3990552e-22
4.0962126e-23
2.5996304e-24
1.3419326e-25
5.4073666e-27
1.5941957e-28
3.0569546e-30
2.8604352e-32
0.0091646763
0.0084569944
0.0068792056
0.0044249731
0.0017143821
0.00037238088
6.2105988e-05
1.0306617e-05
1.5034996e-06
1.3315858e-07
5.256994e-09
1.7952214e-10
3.9911045e-11
1.283685e-11
4.0457286e-12
1.2070745e-12
3.3535298e-13
8.6063851e-14
2.0325919e-14
4.4054108e-15
8.7341809e-16
1.5768823e-16
2.5794855e-17
3.8002876e-18
5.0075365e-19
5.8532385e-20
6.0095551e-21
5.3533533e-22
4.0731262e-23
2.5927681e-24
1.3423777e-25
5.4243438e-27
1.6033004e-28
3.0812026e-30
2.8882295e-32
0.01057146
0.010428482
0.0094657693
0.0075607842
0.0049679286
0.0022904566
0.00068991055
0.00013900615
2.3709568e-05
2.7073748e-06
1.4043656e-07
2.7801335e-09
1.2197948e-10
3.7737044e-11
1.2623104e-11
4.0387624e-12
1.2084803e-12
3.3488655e-13
8.5584999e-14
2.0132795e-14
4.3514367e-15
8.613541e-16
1.5543234e-16
2.543679e-17
3.7520781e-18
4.9534342e-19
5.8043932e-20
5.9767259e-21
5.3407944e-22
4.0764487e-23
2.602834e-24
1.3513606e-25
5.4740554e-27
1.6213923e-28
3.1211882e-30
2.9292636e-32
0.011478863
0.011856813
0.011525965
0.01025672
0.0081736097
0.0056573204
0.003103572
0.0011679032
0.00027179982
3.9335812e-05
2.7620774e-06
7.2618155e-08
8.0010577e-10
1.053233e-10
3.6861574e-11
1.2602658e-11
4.0509728e-12
1.2084149e-12
3.3311845e-13
8.4738961e-14
1.987419e-14
4.290444e-15
8.4940936e-16
1.5345425e-16
2.5161603e-17
3.7208376e-18
4.9267492e-19
5.7918604e-20
5.9837421e-21
5.3644554e-22
4.1068517e-23
2.6293204e-24
1.3682173e-25
5.5525665e-27
1.6470355e-28
3.1738148e-30
2.9804466e-32
0.011921653
0.012745724
0.013019628
0.012431051
0.01096708
0.0089191582
0.006596449
0.0040729488
0.001717291
0.00038391086
3.8032856e-05
1.4548132e-06
1.7202828e-08
3.3733981e-10
1.0111501e-10
3.6807011e-11
1.2675878e-11
4.0597211e-12
1.2030175e-12
3.2973161e-13
8.3599914e-14
1.9589869e-14
4.2330834e-15
8.3974692e-16
1.5211948e-16
2.5021874e-17
3.7128775e-18
4.9335757e-19
5.8199899e-20
6.0322768e-21
5.4235601e-22
4.1622811e-23
2.670169e-24
1.3915947e-25
5.6536263e-27
1.6782424e-28
3.2351608e-30
3.0381138e-32
0.012030315
0.013151772
0.013954533
0.014044317
0.013257524
0.011782597
0.0098938256
0.0076385928
0.0048678483
0.0019733856
0.00034259417
2.0385815e-05
3.7076754e-07
3.1477916e-09
2.6801383e-10
1.009591e-10
3.7170034e-11
1.2746287e-11
4.0476731e-12
1.1907476e-12
3.2505337e-13
8.2366909e-14
1.9335546e-14
4.1910105e-15
8.3440207e-16
1.5173211e-16
2.5055257e-17
3.7318379e-18
4.9761634e-19
5.8885818e-20
6.1195493e-21
5.5137339e-22
4.2383062e-23
2.7220567e-24
1.4196147e-25
5.7693486e-27
1.7126706e-28
3.3008335e-30
3.0983258e-32
0.012000526
0.013244553
0.014403227
0.015100637
0.015002394
0.01415163
0.01277921
0.010932957
0.0083506586
0.0049210788
0.001648153
0.0001895514
5.7555279e-06
6.4914169e-08
9.4903068e-10
2.6186867e-10
1.0261419e-10
3.7586057e-11
1.2739844e-11
4.0073937e-12
1.1728467e-12
3.1999443e-13
8.1310132e-14
1.9169353e-14
4.1745476e-15
8.3494503e-16
1.5248689e-16
2.5279147e-17
3.7782379e-18
5.0527246e-19
5.9930539e-20
6.238804e-21
5.6276161e-22
4.3286669e-23
2.7807658e-24
1.4500644e-25
5.8909458e-27
1.7478237e-28
3.3663144e-30
3.1550754e-32
0.013271324
0.012022198
0.014529689
0.015659926
0.016197859
0.015980997
0.015158559
0.013788005
0.011562732
0.0081403627
0.0040581346
0.00098122692
6.2181924e-05
1.1213131e-06
1.0636046e-08
6.7367476e-10
2.6809977e-10
1.0474684e-10
3.7804596e-11
1.262442e-11
3.9430024e-12
1.1531425e-12
3.1578523e-13
8.0701751e-14
1.9139747e-14
4.1909903e-15
8.4223889e-16
1.5444214e-16
2.568859e-17
3.8494691e-18
5.1577499e-19
6.1250903e-20
6.380162e-21
5.7557059e-22
4.4259303e-23
2.8415938e-24
1.4805946e-25
6.0094539e-27
1.7812402e-28
3.4260019e-30
3.2038082e-32
0.014596124
0.013377657
0.011978864
0.015853626
0.016884532
0.01726172
0.016985186
0.016101699
0.014333929
0.011212781
0.0068719769
0.0026646704
0.00039740066
1.410337e-05
1.8629502e-07
2.6813051e-09
6.710584e-10
2.7732152e-10
1.064726e-10
3.759696e-11
1.2399588e-11
3.8695017e-12
1.1368945e-12
3.1363078e-13
8.0756077e-14
1.9277541e-14
4.2435149e-15
8.5632313e-16
1.5751393e-16
2.6257322e-17
3.940171e-18
5.2827167e-19
6.2736238e-20
6.5317002e-21
5.8873243e-22
4.5221864e-23
2.8997614e-24
1.5089081e-25
6.1163961e-27
1.8106757e-28
3.4740545e-30
3.24143e-32
0.015886802
0.014748797
0.013364765
0.01167362
0.017156813
0.018022029
0.018251921
0.017830104
0.016548386
0.013933169
0.009756713
0.0049035641
0.0013306975
0.00011401594
2.6251393e-06
3.2111095e-08
1.9281294e-09
7.1107047e-10
2.8597556e-10
1.0634795e-10
3.6766454e-11
1.2134709e-11
3.807999e-12
1.1291992e-12
3.1442947e-13
8.1593617e-14
1.9591616e-14
4.3308031e-15
8.7642505e-16
1.6148892e-16
2.694118e-17
4.0428763e-18
5.4170496e-19
6.4260023e-20
6.6806251e-21
6.0115941e-22
4.6097204e-23
2.9507904e-24
1.5329271e-25
6.2043496e-27
1.8326493e-28
3.5073974e-30
3.2655296e-32
0.017168094
0.016001916
0.014795932
0.013057563
0.010975952
0.01833257
0.018988883
0.018978618
0.018156633
0.016139346
0.012478032
0.0074741011
0.0028519695
0.00049687824
2.5801543e-05
5.1199664e-07
1.7212636e-08
2.4730148e-09
7.6868281e-10
2.8756392e-10
1.035293e-10
3.5702132e-11
1.1906172e-11
3.7791047e-12
1.133677e-12
3.1862411e-13
8.3227695e-14
2.0068503e-14
4.4473473e-15
9.0106834e-16
1.6605071e-16
2.7683232e-17
4.1488288e-18
5.5492102e-19
6.5692129e-20
6.8144293e-21
6.1183565e-22
4.6816157e-23
2.990824e-24
1.5509284e-25
6.265761e-27
1.8455525e-28
3.5238576e-30
3.2745365e-32
0.018310156
0.017116464
0.016098788
0.014560158
0.012343851
0.0098315973
0.019263446
0.019595618
0.019175654
0.017752664
0.014807133
0.01017228
0.0049428672
0.0013342928
0.00015147674
6.4750692e-06
3.5313723e-07
3.5948473e-08
4.0606624e-09
8.0640391e-10
2.7835954e-10
9.9257948e-11
3.4865981e-11
1.1792492e-11
3.7969795e-12
1.1518805e-12
3.2616836e-13
8.5568367e-14
2.0674966e-14
4.5841991e-15
9.2825196e-16
1.7081581e-16
2.8419873e-17
4.2488699e-18
5.6677999e-19
6.6910486e-20
6.9219379e-21
6.198954e-22
4.7322434e-23
3.016872e-24
1.5616598e-25
6.2921107e-27
1.8485202e-28
3.5222674e-30
3.2677054e-32
0.019181249
0.018112766
0.017158838
0.015981925
0.013921806
0.011179914
0.008251519
0.019767935
0.019677432
0.018782903
0.016607253
0.012697658
0.0075422798
0.0028910434
0.00056808694
5.7424351e-05
5.8472879e-06
8.1750319e-07
8.8926116e-08
5.7435205e-09
7.6512513e-10
2.6265557e-10
9.5957506e-11
3.4413998e-11
1.1847349e-11
3.8669663e-12
1.1832879e-12
3.3657185e-13
8.8438776e-14
2.1362453e-14
4.730038e-15
9.5567381e-16
1.7537403e-16
2.9087189e-17
4.3343076e-18
5.7625775e-19
6.7811233e-20
6.9941612e-21
6.2468245e-22
4.7576075e-23
3.0269659e-24
1.5635173e-25
6.2815477e-27
1.841262e-28
3.5024329e-30
3.2451206e-32
0.019615852
0.018878955
0.017986283
0.017107592
0.015494168
0.012826138
0.00957887
0.0063045081
0.019779968
0.01931887
0.017847918
0.014817264
0.010261478
0.005337694
0.001784427
0.00036433621
6.6654498e-05
1.3158454e-05
1.9767632e-06
1.4405816e-07
5.0005879e-09
6.7539353e-10
2.4953408e-10
9.4189121e-11
3.4534286e-11
1.2089147e-11
3.9861399e-12
1.2255887e-12
3.489887e-13
9.1599269e-14
2.2072966e-14
4.8724439e-15
9.8097226e-16
1.7932944e-16
2.9626998e-17
4.3976903e-18
5.8253047e-19
6.8316524e-20
7.0248949e-21
6.2578699e-22
4.7555258e-23
3.0203125e-24
1.5556e-25
6.2342994e-27
1.8240263e-28
3.4650699e-30
3.2075743e-32
0.019628175
0.019281625
0.018589367
0.01788108
0.016758638
0.014540063
0.011271591
0.0076033984
0.0041388329
0.019512922
0.018604227
0.01642814
0.012723565
0.0081739955
0.0041813152
0.0016542105
0.00051619565
0.00013907334
2.9258619e-05
3.1083807e-06
1.236416e-07
2.6255231e-09
6.1647134e-10
2.4259554e-10
9.4292418e-11
3.5290062e-11
1.2504721e-11
4.1447304e-12
1.2750955e-12
3.6233504e-13
9.4776949e-14
2.2745623e-14
4.9991897e-15
1.001959e-15
1.8233762e-16
2.999199e-17
4.4334142e-18
5.8503496e-19
6.8379423e-20
7.0110268e-21
6.230582e-22
4.7256415e-23
2.9948017e-24
1.5382868e-25
6.1524657e-27
1.797535e-28
3.4116489e-30
3.1564684e-32
0.019520888
0.019371443
0.018873898
0.018306136
0.017536148
0.015970036
0.01309345
0.0093009224
0.0053809271
0.0021130291
0.019065619
0.017553237
0.014743967
0.010899837
0.007117691
0.0042922817
0.0022982894
0.00092878645
0.00027409214
4.368132e-05
2.7240606e-06
4.8358203e-08
1.5458269e-09
5.8989447e-10
2.4183654e-10
9.6447673e-11
3.6631504e-11
1.3056668e-11
4.3279318e-12
1.3272718e-12
3.7542611e-13
9.769696e-14
2.3323001e-14
5.0994366e-15
1.0168234e-15
1.8413592e-16
3.0149511e-17
4.4381159e-18
5.8350031e-19
6.798558e-20
6.9525419e-21
6.1659401e-22
4.6695297e-23
2.9509382e-24
1.5124162e-25
6.0396934e-27
1.7628816e-28
3.344233e-30
3.0936421e-32
0.019318347
0.019392373
0.018936443
0.018378941
0.017799037
0.016777086
0.014662506
0.011169525
0.0070120564
0.0031666532
0.00075901161
0.018332503
0.016276967
0.013269254
0.0099996984
0.0073634936
0.0054201339
0.0034178555
0.0015030696
0.00038012014
3.8929859e-05
1.1757893e-06
9.3072522e-09
1.3647851e-09
5.8406826e-10
2.4742589e-10
1.0048257e-10
3.842638e-11
1.3690051e-11
4.5180741e-12
1.37733e-12
3.8711576e-13
1.0011184e-13
2.3756699e-14
5.164728e-15
1.0242873e-15
1.8456356e-16
3.0083655e-17
4.410819e-18
5.7794931e-19
6.7151759e-20
6.8522509e-21
6.0671058e-22
4.5856192e-23
2.8909451e-24
1.4791818e-25
5.9007577e-27
1.7214251e-28
3.2652778e-30
3.0212302e-32
0.018850202
0.01935435
0.018945306
0.018221551
0.017590742
0.016881506
0.015499963
0.012817814
0.0088348945
0.0045829226
0.0013818765
0.00016617477
0.017365673
0.0151668
0.012551912
0.01027534
0.0086395273
0.0070132195
0.004552432
0.0018434077
0.00034438485
1.9034361e-05
2.188561e-07
3.4941708e-09
1.3323005e-09
5.973557e-10
2.587743e-10
1.0596335e-10
4.0483967e-11
1.4340298e-11
4.6970104e-12
1.4208147e-12
3.9642182e-13
1.0182503e-13
2.4011599e-14
5.1896827e-15
1.0236969e-15
1.8357016e-16
2.9795536e-17
4.3528369e-18
5.6867194e-19
6.5921669e-20
6.7152949e-21
5.939431e-22
4.4775834e-23
2.817653e-24
1.4400103e-25
5.7411338e-27
1.6746732e-28
3.1774456e-30
2.9414857e-32
0.018104319
0.019119174
0.018993439
0.01808892
0.017117708
0.016363309
0.015452791
0.013672072
0.010476334
0.006221586
0.0023345051
0.000366941
1.5829407e-05
0.016558251
0.014626321
0.012792373
0.011465704
0.01031382
0.0083330897
0.0049844748
0.001637516
0.00019790927
4.4960998e-06
3.0664495e-08
2.9103043e-09
1.3602429e-09
6.2749206e-10
2.745582e-10
1.1227434e-10
4.2582452e-11
1.4942367e-11
4.8484344e-12
1.4541059e-12
4.0261853e-13
1.0270675e-13
2.4068532e-14
5.1723225e-15
1.0150433e-15
1.8121211e-16
2.930184e-17
4.2674617e-18
5.5617644e-19
6.4359774e-20
6.5485105e-21
5.7826031e-22
4.3505968e-23
2.7342273e-24
1.3964431e-25
5.5665745e-27
1.6241766e-28
3.0834129e-30
3.8352089e-34
0.017462937
0.018558956
0.018977717
0.01815163
0.016753602
0.015543612
0.014633829
0.013486016
0.011329736
0.0077462743
0.0035688278
0.0007452208
4.0668372e-05
7.5995509e-07
0.016146549
0.014789315
0.013744812
0.0129405
0.011561235
0.0086603981
0.0044016121
0.0010503833
6.7467054e-05
6.8516962e-07
8.0372803e-09
2.9325185e-09
1.4354534e-09
6.7059159e-10
2.9290887e-10
1.1869867e-10
4.4500891e-11
1.5439593e-11
4.9598369e-12
1.4747597e-12
4.0528741e-13
1.027024e-13
2.3925071e-14
5.1140179e-15
9.9891473e-16
1.7763852e-16
2.8631969e-17
4.1594967e-18
5.4112574e-19
6.2544083e-20
6.3601711e-21
5.6039304e-22
4.2101537e-23
2.6439313e-24
1.350026e-25
5.382735e-27
1.5714309e-28
4.3815313e-32
2.5486227e-36
0.017095596
0.017931318
0.018660767
0.018336387
0.016771608
0.014902161
0.013467551
0.012406399
0.011034999
0.0085768948
0.0048307665
0.0013459581
9.7551455e-05
2.0283531e-06
3.2147988e-08
0.016193469
0.015412515
0.014813254
0.013905602
0.011796552
0.0078053232
0.0031285115
0.00046931648
1.4145089e-05
8.8834357e-08
6.1383879e-09
3.1098688e-09
1.5468637e-09
7.2133932e-10
3.1163761e-10
1.2452255e-10
4.6051342e-11
1.579108e-11
5.0236959e-12
1.4816332e-12
4.0433311e-13
1.018323e-13
2.3594421e-14
5.0190865e-15
9.7639064e-16
1.7306929e-16
2.7824278e-17
4.0347046e-18
5.242687e-19
6.0559032e-20
6.1511255e-21
5.4111316e-22
4.0616897e-23
2.5499004e-24
1.3022189e-25
5.194873e-27
2.4324184e-30
3.2211215e-34
7.5919911e-39
0.016980088
0.017520575
0.018085796
0.018316996
0.017122308
0.014828777
0.012539351
0.010922414
0.0097629831
0.0082425647
0.005604892
0.0020925969
0.00021073519
5.1762874e-06
8.5800673e-08
1.4205441e-09
0.01643973
0.015952734
0.015343792
0.014005857
0.010931993
0.0060650833
0.0017361448
0.00013896359
2.3119463e-06
1.8548709e-08
6.411445e-09
3.3851897e-09
1.6803448e-09
7.73458e-10
3.2854543e-10
1.2914701e-10
4.7106125e-11
1.5975705e-11
5.0375739e-12
1.4748671e-12
3.9996701e-13
1.0018305e-13
2.3102773e-14
4.8941264e-15
9.4889722e-16
1.67769e-16
2.6921953e-17
3.8992466e-18
5.0637399e-19
5.8489469e-20
5.9303978e-21
5.2115647e-22
3.9102274e-23
2.4549894e-24
1.2543328e-25
8.7541351e-29
1.9772605e-32
1.0748838e-36
8.6675741e-42
0.01682737
0.017186712
0.017528204
0.017908547
0.017414098
0.01529577
0.012339583
0.0097244366
0.0080304597
0.0069029538
0.00536087
0.002687532
0.0003942492
1.2363552e-05
2.2117574e-07
3.1084128e-09
2.3393789e-10
0.016426414
0.015994644
0.015240051
0.013275575
0.0091348498
0.0039626434
0.00070957256
3.0762774e-05
3.3559757e-07
1.3138812e-08
7.0499131e-09
3.7214337e-09
1.8190241e-09
8.20527e-10
3.4179122e-10
1.3218245e-10
4.7610121e-11
1.5990425e-11
5.0037801e-12
1.4557578e-12
3.9265561e-13
9.7892708e-14
2.248559e-14
4.7471972e-15
9.1804616e-16
1.6202027e-16
2.5969056e-17
3.7591776e-18
4.8818148e-19
5.6346739e-20
5.7062734e-21
5.0117804e-22
3.7601767e-23
2.3616759e-24
2.2992281e-27
7.8622067e-31
7.3939909e-35
1.3762459e-39
3.8074867e-45
0.01632466
0.01663555
0.016928564
0.017229133
0.017241054
0.015862068
0.012861014
0.0093685602
0.0066021189
0.0050823943
0.0042040861
0.0026629007
0.00060757945
2.6976825e-05
5.3955243e-07
7.5136581e-09
2.7036821e-10
8.8583965e-11
0.016037921
0.015693194
0.01465111
0.011764098
0.0067370767
0.0020844049
0.00021830448
5.5150759e-06
8.6116494e-08
1.4190519e-08
7.8532506e-09
4.0754762e-09
1.9450169e-09
8.570943e-10
3.5021068e-10
1.334904e-10
4.7567377e-11
1.5848994e-11
4.9287279e-12
1.426498e-12
3.8304618e-13
9.513244e-14
2.1783431e-14
4.5869704e-15
8.8547957e-16
1.5609972e-16
2.5007204e-17
3.6200472e-18
4.7032585e-19
5.42099e-20
5.4858616e-21
4.8173224e-22
3.6152415e-23
4.7044395e-26
2.2793736e-29
3.2944352e-33
1.065053e-37
6.5644661e-43
8.3945029e-49
0.015648679
0.015751008
0.016027475
0.016299806
0.016552326
0.015928141
0.013620917
0.0098693527
0.0060618615
0.0035393593
0.0026674571
0.0019739293
0.00067539423
5.1969302e-05
1.2313867e-06
1.8154951e-08
3.7716872e-10
8.8872863e-11
3.4109469e-11
0.015671841
0.015250133
0.0135668
0.0095511813
0.0042754136
0.0008683988
5.3076984e-05
1.0817972e-06
7.4345213e-08
1.605369e-08
8.7159e-09
4.4000376e-09
2.042617e-09
8.7969611e-10
3.5344587e-10
1.3311844e-10
4.7040352e-11
1.5579297e-11
4.8217221e-12
1.3898374e-12
3.7188476e-13
9.2087488e-14
2.103792e-14
4.4219544e-15
8.527395e-16
1.5025899e-16
2.4073114e-17
3.4867183e-18
4.5282616e-19
5.2144242e-20
5.2749604e-21
4.6326913e-22
7.8182871e-25
5.1425179e-28
1.0697827e-31
5.3527013e-36
5.5541637e-41
1.5092254e-46
1.1547975e-52
0.015262305
0.014860112
0.014776269
0.015039397
0.015370316
0.015256083
0.013883586
0.010719358
0.0064500273
0.0028124102
0.0014179216
0.0010694898
0.00048860161
6.9380374e-05
2.5979319e-06
4.1970335e-08
6.3240784e-10
9.4368184e-11
3.3679584e-11
1.2385463e-11
0.015461848
0.014578895
0.01186489
0.0069869384
0.0022989756
0.00029644651
1.2220624e-05
5.6729926e-07
9.3917408e-08
1.8148507e-08
9.5202335e-09
4.6520165e-09
2.1016352e-09
8.8737993e-10
3.5176326e-10
1.3130801e-10
4.6139782e-11
1.5217776e-11
4.6935067e-12
1.3487451e-12
3.5993784e-13
8.8939899e-14
2.0288311e-14
4.2598698e-15
8.2117338e-16
1.447119e-16
2.3197103e-17
3.362619e-18
4.3619651e-19
5.0200964e-20
5.0780947e-21
1.0864991e-23
9.4119945e-27
2.70154e-30
1.9646282e-34
3.073277e-39
1.3371728e-44
2.1166388e-50
1.1279991e-56
0.015183291
0.014341052
0.013582074
0.013420401
0.013672771
0.013833582
0.013232144
0.011122246
0.0072805924
0.002941093
0.00078758356
0.00043447855
0.00022308539
5.1616872e-05
3.9469609e-06
9.1196525e-08
1.1964478e-09
1.0531661e-10
3.4681457e-11
1.2113221e-11
4.2143629e-12
0.015159205
0.01339792
0.0096081314
0.0045616169
0.00110733
0.00010339703
5.4835067e-06
6.969163e-07
1.2364534e-07
2.0290131e-08
1.0151156e-08
4.8021283e-09
2.1192148e-09
8.8111388e-10
3.4597365e-10
1.2847519e-10
4.499925e-11
1.4803466e-11
4.5549804e-12
1.3061196e-12
3.4792647e-13
8.5854819e-14
1.9568939e-14
4.1072215e-15
7.9188011e-16
1.3962784e-16
2.2403456e-17
3.2467692e-18
4.2082248e-19
4.8418275e-20
1.2901763e-22
1.4386003e-25
5.5292054e-29
5.61546e-33
1.2503055e-37
7.7825164e-43
1.9166382e-48
2.0802246e-54
8.4894233e-61
0.015219849
0.014294617
0.012817037
0.011796571
0.011582815
0.011731934
0.011630933
0.01052781
0.0077875288
0.0035895079
0.00069295365
0.00015558576
7.0868699e-05
2.0405872e-05
3.0741691e-06
1.5003626e-07
2.3713967e-09
1.224816e-10
3.681705e-11
1.2270267e-11
4.0901401e-12
1.337455e-12
0.01444911
0.011693761
0.0071975271
0.0028446727
0.00062849944
7.3374438e-05
7.1737241e-06
1.0595606e-06
1.6648586e-07
2.2630416e-08
1.0531804e-08
4.8413904e-09
2.0985349e-09
8.6337978e-10
3.375005e-10
1.2508072e-10
4.3751965e-11
1.4373544e-11
4.4162239e-12
1.2645646e-12
3.3647843e-13
8.2971167e-14
1.8907689e-14
3.9690835e-15
7.6569069e-16
1.3513018e-16
2.1702858e-17
3.1416637e-18
4.069775e-19
1.331213e-21
1.8763353e-24
9.4399092e-28
1.3019458e-31
3.9869378e-36
3.3468662e-41
1.1429567e-46
1.8983234e-52
1.5621341e-58
5.8479432e-65
0.015003034
0.01462468
0.012737332
0.010728478
0.0095432882
0.009266415
0.0092795366
0.0089049302
0.0073516763
0.0041735751
0.00094965315
8.7561169e-05
1.8962222e-05
5.4371782e-06
1.1310361e-06
1.2167068e-07
4.0173829e-09
1.4758093e-10
3.9590277e-11
1.2753313e-11
4.0876834e-12
1.2895125e-12
3.9428144e-13
0.013199313
0.009680504
0.0052780029
0.0020884669
0.00064145939
0.0001190989
1.3930006e-05
1.841487e-06
2.4219825e-07
2.6434773e-08
1.0640639e-08
4.7785964e-09
2.0475028e-09
8.3893719e-10
3.2786872e-10
1.215523e-10
4.2516566e-11
1.3960453e-11
4.285845e-12
1.2262471e-12
3.260997e-13
8.0396828e-14
1.8325438e-14
3.8490733e-15
7.4317396e-16
1.3130839e-16
2.1080937e-17
3.0489606e-18
1.2096454e-20
2.1235942e-23
1.3734702e-26
2.5188295e-30
1.0374012e-34
1.1344771e-39
5.0498027e-45
1.1426606e-50
1.4241375e-56
1.0698643e-62
4.0138941e-69
0.014253827
0.014973318
0.013322182
0.010596169
0.0082242911
0.0069698676
0.0066515303
0.0065913255
0.005948581
0.0040432242
0.0013245534
0.00012273144
7.5044313e-06
1.2756425e-06
2.7827748e-07
4.3186173e-08
3.4249929e-09
1.8040528e-10
4.2224819e-11
1.3403033e-11
4.1758562e-12
1.2742278e-12
3.7788113e-13
1.0755994e-13
0.011713516
0.0079233546
0.0043392249
0.0022358669
0.0010171879
0.00023934655
3.0276872e-05
3.7114147e-06
4.1534332e-07
2.9761149e-08
1.04308e-08
4.6346706e-09
1.980031e-09
8.1263514e-10
3.1839239e-10
1.1824466e-10
4.1390027e-11
1.3590301e-11
4.1706332e-12
1.1928279e-12
3.1716349e-13
7.8208058e-14
1.7836288e-14
3.7494489e-15
7.2465647e-16
1.2814112e-16
2.0546093e-17
9.7874414e-20
2.1138788e-22
1.731613e-25
4.1524862e-29
2.2644073e-33
3.1576278e-38
1.7635709e-43
5.1041195e-49
8.574392e-55
9.7069971e-61
7.2899123e-67
2.7475266e-73
0.013196994
0.014836252
0.014221498
0.011411022
0.0080614244
0.0055340815
0.00437239
0.00416121
0.0040213005
0.0031308924
0.0014013699
0.00021076524
9.9899845e-06
4.421621e-07
6.1727791e-08
1.0406071e-08
1.343167e-09
1.7245237e-10
4.4034711e-11
1.3994545e-11
4.3086564e-12
1.2833781e-12
3.6961585e-13
1.0253831e-13
2.704117e-14
0.010364954
0.0069760899
0.0045199442
0.0031491549
0.0017562875
0.00047339144
6.715614e-05
8.3173977e-06
6.3343493e-07
2.7030309e-08
1.0040726e-08
4.4522324e-09
1.9107068e-09
7.8827889e-10
3.1007606e-10
1.1542918e-10
4.0445169e-11
1.3282345e-11
4.0754716e-12
1.1654546e-12
3.0991501e-13
7.6452035e-14
1.74482e-14
3.6712638e-15
7.103595e-16
1.2550921e-16
7.1170106e-19
1.8713319e-21
1.9172769e-24
5.9290429e-28
4.2309426e-32
7.424413e-37
5.0726656e-42
1.8050881e-47
3.8353778e-53
5.8215789e-59
6.5722937e-65
4.9487647e-71
1.8772233e-77
0.012300802
0.014211456
0.014826846
0.012804587
0.0090513465
0.0053559904
0.003009149
0.0022434853
0.0021798531
0.0018837453
0.001054686
0.00025030654
1.9386117e-05
5.8448822e-07
1.9930472e-08
2.641045e-09
5.1284805e-10
1.3291042e-10
4.3754458e-11
1.4349115e-11
4.4261862e-12
1.3051201e-12
3.6755194e-13
9.9391111e-14
2.5656574e-14
6.2382487e-15
0.0095956506
0.0071017887
0.0056879418
0.0047249086
0.0028845646
0.00086509734
0.00014290012
1.4483346e-05
6.4474174e-07
2.1272585e-08
9.5712708e-09
4.2736334e-09
1.8501435e-09
7.6850135e-10
3.036304e-10
1.1329269e-10
3.9731021e-11
1.3049247e-11
4.0034312e-12
1.1448034e-12
3.0448728e-13
7.5150574e-14
1.7163695e-14
3.614641e-15
6.9965746e-16
4.6878029e-18
1.4871009e-20
1.8851993e-23
7.4289402e-27
6.8725586e-31
1.5059012e-35
1.2367392e-40
5.2666558e-46
1.3595952e-51
2.5959639e-57
3.9198397e-63
4.4284303e-69
3.3518877e-75
1.2813828e-81
0.011814313
0.013616852
0.01477166
0.014142216
0.010815354
0.0063968832
0.0027974251