/*--------------------------------*- C++ -*----------------------------------*\
| =========                 |                                                 |
| \\      /  F ield         | OpenFOAM: The Open Source CFD Toolbox           |
|  \\    /   O peration     | Version:  5.0                                   |
|   \\  /    A nd           | Web:      www.OpenFOAM.org                      |
|    \\/     M anipulation  |                                                 |
\*---------------------------------------------------------------------------*/
FoamFile
{
    version     2.0;
    format      ascii;
    class       volScalarField;
    location    "60";
    object      nuTilda;
}
// * * * * * * * * * * * * * * * * * * * * * * * * * * * * * * * * * * * * * //

dimensions      [0 2 -1 0 0 0 0];

internalField   nonuniform List<scalar> 
9520
(
7.5271944e-32
7.7992798e-30
7.0216768e-32
3.9635776e-28
7.2679081e-30
6.4929115e-32
1.3089905e-26
3.6893271e-28
6.7188115e-30
5.9783989e-32
3.1565082e-25
1.2172151e-26
3.409403e-28
6.1897082e-30
5.5050528e-32
5.925157e-24
2.9329601e-25
1.124667e-26
3.1423582e-28
5.70701e-30
5.0889299e-32
9.0163461e-23
5.5027667e-24
2.7101765e-25
1.0372464e-26
2.9008023e-28
5.2857872e-30
4.7361964e-32
1.1438624e-21
8.3718278e-23
5.0866775e-24
2.5017766e-25
9.5883113e-27
2.6915487e-28
4.9309167e-30
4.4450443e-32
1.2349957e-20
1.062215e-21
7.7441919e-23
4.7011869e-24
2.3163785e-25
8.9138295e-27
2.5162818e-28
4.6392784e-30
4.2082062e-32
1.1527549e-19
1.1473689e-20
9.8361907e-22
7.1682828e-23
4.3610164e-24
2.1579997e-25
8.3519567e-27
2.3727863e-28
4.4025076e-30
4.0156821e-32
9.4188859e-19
1.0718586e-19
1.0640054e-20
9.121983e-22
6.6641642e-23
4.0723388e-24
2.0267238e-25
7.8933865e-27
2.2564176e-28
4.2099045e-30
3.8572536e-32
6.8057793e-18
8.7688161e-19
9.9583288e-20
9.8900671e-21
8.501866e-22
6.2391046e-23
3.8341555e-24
1.9198566e-25
7.5216393e-27
2.161613e-28
4.0510232e-30
3.7243938e-32
4.3859463e-17
6.3467747e-18
8.1657088e-19
9.2815e-20
9.244321e-21
7.9823178e-22
5.8898609e-23
3.6406242e-24
1.8331942e-25
7.2181233e-27
2.0831844e-28
3.9175353e-30
3.6113114e-32
2.5392702e-16
4.0990089e-17
5.9268238e-18
7.6347981e-19
8.7038846e-20
8.7067886e-21
7.5570793e-22
5.6064444e-23
3.4835073e-24
1.7622495e-25
6.9662794e-27
2.0171895e-28
3.8041177e-30
3.5150633e-32
1.3291146e-15
2.379485e-16
3.8404938e-17
5.5617395e-18
7.1860902e-19
8.2263192e-20
8.2684187e-21
7.2122003e-22
5.3759289e-23
3.3544654e-24
1.7032091e-25
6.7541631e-27
1.9612728e-28
3.7083499e-30
3.4348854e-32
6.325214e-15
1.2494924e-15
2.2380077e-16
3.6189351e-17
5.2566206e-18
6.8178994e-19
7.838217e-20
7.912868e-21
6.9309403e-22
5.1858952e-23
3.2467513e-24
1.6534734e-25
6.5751762e-27
1.9144968e-28
3.6298284e-30
3.3710519e-32
2.7506829e-14
5.9689701e-15
1.1804076e-15
2.1187711e-16
3.4362383e-17
5.0085224e-18
6.5198168e-19
7.5231963e-20
7.6218312e-21
6.6980471e-22
5.0268173e-23
3.1560532e-24
1.611733e-25
6.4271188e-27
1.8768e-28
3.5688707e-30
3.3236461e-32
1.0983001e-13
2.6072179e-14
5.6673132e-15
1.1233719e-15
2.0221032e-16
3.2894042e-17
4.8086134e-18
6.2775616e-19
7.2640564e-20
7.3795401e-21
6.5025005e-22
4.8930565e-23
3.0804408e-24
1.5776475e-25
6.3101188e-27
1.8482949e-28
3.5252291e-30
3.2915872e-32
4.0441776e-13
1.046324e-13
2.4893488e-14
5.4247469e-15
1.0781755e-15
1.9456597e-16
3.1718711e-17
4.6459028e-18
6.0770236e-19
7.0468633e-20
7.175382e-21
6.3383771e-22
4.7824641e-23
3.0195918e-24
1.5512873e-25
6.2242105e-27
1.8286267e-28
3.4971727e-30
3.2721498e-32
1.3789266e-12
3.8750139e-13
1.0052856e-13
2.3978637e-14
5.2386659e-15
1.0432983e-15
1.885118e-16
3.0760794e-17
4.5101259e-18
5.9075332e-19
6.863045e-20
7.0043691e-21
6.2039328e-22
4.6949525e-23
2.9736483e-24
1.5325377e-25
6.1673107e-27
1.8165693e-28
3.4811497e-30
3.2610481e-32
4.3696615e-12
1.3298075e-12
3.748606e-13
9.7502094e-14
2.3310618e-14
5.1006507e-15
1.0161868e-15
1.8357592e-16
2.9952816e-17
4.394071e-18
5.7632668e-19
6.7093567e-20
6.8656867e-21
6.0994818e-22
4.6306365e-23
2.9420975e-24
1.5206461e-25
6.1341383e-27
1.8099486e-28
3.4720659e-30
3.2530078e-32
1.2919582e-11
4.2438641e-12
1.2960514e-12
3.6626531e-13
9.5468828e-14
2.2848993e-14
4.9971165e-15
9.9412969e-16
1.7934866e-16
2.9250683e-17
4.29437e-18
5.6427632e-19
6.5860601e-20
6.7600634e-21
6.0249281e-22
4.5881732e-23
2.9230118e-24
1.5140335e-25
6.1163012e-27
1.8058826e-28
3.4640489e-30
3.2426396e-32
3.5774418e-11
1.2645124e-11
4.1692443e-12
1.2763312e-12
3.6138625e-13
9.4259206e-14
2.2528662e-14
4.9136293e-15
9.7478084e-16
1.7558047e-16
2.8637968e-17
4.2108569e-18
5.5470312e-19
6.49409e-20
6.6870173e-21
5.9777652e-22
4.5637809e-23
2.9128454e-24
1.510402e-25
6.1034303e-27
1.8012521e-28
3.4514654e-30
3.225375e-32
9.3116512e-11
3.5309187e-11
1.2529294e-11
4.1402107e-12
1.2696885e-12
3.5962301e-13
9.3591634e-14
2.2278166e-14
4.8373528e-15
9.5680001e-16
1.7220668e-16
2.8120366e-17
4.144948e-18
5.4770364e-19
6.4325588e-20
6.6429041e-21
5.952091e-22
4.5511853e-23
2.9068099e-24
1.5070885e-25
6.084979e-27
1.7932603e-28
3.4299239e-30
3.1982454e-32
2.2886056e-10
9.2752728e-11
3.5307603e-11
1.2552806e-11
4.1554187e-12
1.2745357e-12
3.5992261e-13
9.3135727e-14
2.203034e-14
4.7612357e-15
9.4000262e-16
1.6930827e-16
2.7713063e-17
4.0976544e-18
5.4317397e-19
6.3972121e-20
6.6201585e-21
5.9388823e-22
4.5424588e-23
2.8996814e-24
1.5015501e-25
6.0521787e-27
1.7799412e-28
3.3970307e-30
3.1603429e-32
5.3968803e-10
2.3067644e-10
9.3682913e-11
3.5712281e-11
1.2720752e-11
4.2128354e-12
1.2876934e-12
3.6097265e-13
9.2560197e-14
2.1747739e-14
4.6850336e-15
9.2512759e-16
1.6702055e-16
2.7425978e-17
4.068078e-18
5.4070591e-19
6.3799011e-20
6.6079506e-21
5.9273969e-22
4.5294558e-23
2.8867952e-24
1.4918494e-25
5.9996607e-27
1.7605001e-28
3.352752e-30
3.1128972e-32
1.4285722e-09
5.7015746e-10
2.3719435e-10
9.5815823e-11
3.6576521e-11
1.3040926e-11
4.3050907e-12
1.3045938e-12
3.6144465e-13
9.1680087e-14
2.1430939e-14
4.6141369e-15
9.132298e-16
1.6543045e-16
2.7252741e-17
4.0528011e-18
5.3954226e-19
6.3695347e-20
6.5940805e-21
5.9072426e-22
4.505422e-23
2.8649589e-24
1.4770194e-25
5.9263871e-27
1.7354243e-28
3.29934e-30
3.0589881e-32
8.352037e-09
2.1160931e-09
6.6369435e-10
2.5138614e-10
9.962671e-11
3.7985705e-11
1.3504269e-11
4.4174294e-12
1.3198772e-12
3.6070675e-13
9.0503007e-14
2.1113569e-14
4.555883e-15
9.0500739e-16
1.6450352e-16
2.7167799e-17
4.0456653e-18
5.3869639e-19
6.3542827e-20
6.5674744e-21
5.8705053e-22
4.4663508e-23
2.8330633e-24
1.4572296e-25
5.8357374e-27
1.7063606e-28
3.2408794e-30
3.0029858e-32
1.2232056e-07
2.2651703e-08
4.3536743e-09
9.4349056e-10
2.849354e-10
1.0615909e-10
3.9993542e-11
1.406731e-11
4.529201e-12
1.3289899e-12
3.5671854e-13
8.9049742e-14
2.0841756e-14
4.5154138e-15
9.0035147e-16
1.6407071e-16
2.7126933e-17
4.0389595e-18
5.3717783e-19
6.3241557e-20
6.5205329e-21
5.8133797e-22
4.411763e-23
2.7922671e-24
1.433733e-25
5.7348026e-27
1.6758059e-28
3.1825782e-30
2.949851e-32
1.0378142e-05
3.8900141e-07
6.7889612e-08
1.1341718e-08
1.7868018e-09
3.7125601e-10
1.1757838e-10
4.255575e-11
1.465049e-11
4.6016492e-12
1.3145936e-12
3.4924e-13
8.7809676e-14
2.0650073e-14
4.4929311e-15
8.9827083e-16
1.6384685e-16
2.7076782e-17
4.025427e-18
5.3421746e-19
6.2731688e-20
6.4507356e-21
5.736928e-22
4.3447671e-23
2.7457464e-24
1.4086215e-25
5.6331023e-27
1.6466873e-28
3.129959e-30
2.9044278e-32
0.00041406814
2.438749e-05
1.2033559e-06
2.0410615e-07
3.2245458e-08
4.2596865e-09
6.0105489e-10
1.3891403e-10
4.5574604e-11
1.5032837e-11
4.5477861e-12
1.278397e-12
3.4233058e-13
8.6919883e-14
2.054517e-14
4.4832918e-15
8.9709722e-16
1.6350207e-16
2.6970278e-17
3.9999863e-18
5.2943611e-19
6.2006397e-20
6.3611643e-21
5.6468467e-22
4.2714373e-23
2.6980975e-24
1.3844577e-25
5.5410237e-27
1.6219201e-28
3.0880952e-30
2.8708389e-32
0.0023871574
0.00067573495
5.1898584e-05
3.5647006e-06
5.9496036e-07
9.1709441e-08
1.118706e-08
1.2090026e-09
1.8298614e-10
4.8115948e-11
1.4832258e-11
4.38158e-12
1.2410157e-12
3.3805274e-13
8.6440483e-14
2.0503313e-14
4.4775791e-15
8.9497317e-16
1.6276186e-16
2.6778184e-17
3.9608001e-18
5.2292835e-19
6.1113579e-20
6.2598888e-21
5.5523637e-22
4.1996973e-23
2.654544e-24
1.3638631e-25
5.4682877e-27
1.6040159e-28
3.0610015e-30
2.8520528e-32
0.0049888958
0.0031709595
0.00098835794
0.00010349736
1.0050859e-05
1.6601324e-06
2.5162422e-07
2.9517758e-08
2.7601716e-09
2.4688683e-10
4.7534292e-11
1.4114246e-11
4.20037e-12
1.2188136e-12
3.3588314e-13
8.6272846e-14
2.048007e-14
4.4660696e-15
8.9043199e-16
1.614773e-16
2.6495122e-17
3.9097469e-18
5.1525027e-19
6.014656e-20
6.1584319e-21
5.4645696e-22
4.1379749e-23
2.6201133e-24
1.34914e-25
5.4226816e-27
1.5947925e-28
3.0512377e-30
2.8496471e-32
0.007313132
0.0060308213
0.003883654
0.0013319256
0.00020206833
2.6715145e-05
4.3975061e-06
6.5484468e-07
7.4757064e-08
5.1197601e-09
2.5240822e-10
4.3689877e-11
1.3313775e-11
4.090843e-12
1.2087529e-12
3.352616e-13
8.620783e-14
2.0426957e-14
4.4413647e-15
8.8278331e-16
1.5965764e-16
2.6141548e-17
3.852103e-18
5.0731115e-19
5.922648e-20
6.0697103e-21
5.3945595e-22
4.0938954e-23
2.5989264e-24
1.3419798e-25
5.4092019e-27
1.5952076e-28
3.0597359e-30
2.8637583e-32
0.0092091493
0.0084981135
0.0069144335
0.0044597883
0.0017499912
0.00038928455
6.579113e-05
1.092877e-05
1.5937951e-06
1.390075e-07
5.3579279e-09
1.7841185e-10
3.9797014e-11
1.2821651e-11
4.0439365e-12
1.2067696e-12
3.3522981e-13
8.6010573e-14
2.0307668e-14
4.4004422e-15
8.7229712e-16
1.5747451e-16
2.5760177e-17
3.795508e-18
5.0020256e-19
5.8480858e-20
6.0058965e-21
5.3517394e-22
4.0732274e-23
2.5936931e-24
1.3432875e-25
5.4296507e-27
1.6053135e-28
3.0858271e-30
2.8931842e-32
0.010613975
0.010469133
0.0095007525
0.0075933852
0.0050079795
0.0023383152
0.0007175864
0.00014623857
2.4977218e-05
2.8110279e-06
1.4274559e-07
2.7458239e-09
1.2113248e-10
3.7677038e-11
1.2616721e-11
4.0379997e-12
1.2081167e-12
3.3468592e-13
8.5506528e-14
2.0109225e-14
4.3457128e-15
8.6018676e-16
1.5523042e-16
2.540731e-17
3.7485187e-18
4.9500678e-19
5.8022713e-20
5.9765859e-21
5.3425511e-22
4.0792007e-23
2.6054491e-24
1.3531228e-25
5.482646e-27
1.6243139e-28
3.1274215e-30
2.9355887e-32
0.011518853
0.011896441
0.011560967
0.010288435
0.0082107253
0.0057087346
0.0031637819
0.0012061214
0.00028313813
4.0575613e-05
2.7962579e-06
7.1543838e-08
7.7699534e-10
1.05055e-10
3.6840018e-11
1.2601565e-11
4.050223e-12
1.2077634e-12
3.3281232e-13
8.4637008e-14
1.9847439e-14
4.2846601e-15
8.4835591e-16
1.5329399e-16
2.5142012e-17
3.7191209e-18
4.9262132e-19
5.793376e-20
5.9875223e-21
5.3697397e-22
4.1122295e-23
2.633526e-24
1.3707435e-25
5.5639617e-27
1.6506956e-28
3.1812917e-30
2.9877751e-32
0.011959289
0.0127842
0.013055299
0.012463025
0.011002385
0.0089669687
0.0066577535
0.0041362793
0.0017570494
0.00039221998
3.8329028e-05
1.431235e-06
1.6501634e-08
3.3354529e-10
1.0104407e-10
3.6809807e-11
1.2675841e-11
4.0579809e-12
1.2019447e-12
3.2932558e-13
8.3484779e-14
1.9563534e-14
4.2281083e-15
8.3897694e-16
1.5202891e-16
2.5016086e-17
3.7134544e-18
4.9362733e-19
5.8253774e-20
6.0399774e-21
5.432173e-22
4.1700006e-23
2.6757129e-24
1.3947254e-25
5.6670951e-27
1.6824071e-28
3.2434129e-30
3.0459993e-32
0.012067111
0.013189993
0.013991637
0.014077867
0.013292088
0.011826678
0.0099501713
0.0076972568
0.0049130454
0.0019915522
0.00034328351
2.0033452e-05
3.5552121e-07
3.0309744e-09
2.6747904e-10
1.0099497e-10
3.7181639e-11
1.2743121e-11
4.0443139e-12
1.1892602e-12
3.2459176e-13
8.2255655e-14
1.9313953e-14
4.1877197e-15
8.3406571e-16
1.517329e-16
2.5065794e-17
3.7349178e-18
4.9821526e-19
5.8976631e-20
6.1307576e-21
5.5251318e-22
4.2478465e-23
2.728554e-24
1.4231317e-25
5.7839639e-27
1.7170594e-28
3.3093219e-30
3.1062716e-32
0.012038675
0.013283319
0.014442419
0.015137002
0.015037466
0.014192422
0.012829589
0.010984873
0.008382367
0.0049258197
0.0016411246
0.00018617311
5.5271008e-06
6.2017185e-08
9.3316016e-10
2.6204567e-10
1.0270224e-10
3.7593357e-11
1.2730908e-11
4.0023548e-12
1.171117e-12
3.1955224e-13
8.12228e-14
1.9156672e-14
4.1736698e-15
8.3514841e-16
1.5259086e-16
2.5306726e-17
3.7837517e-18
5.0616975e-19
6.0052436e-20
6.2527249e-21
5.6409555e-22
4.3393123e-23
2.78773e-24
1.4537081e-25
5.905653e-27
1.7521289e-28
3.3744655e-30
3.1625483e-32
0.01331232
0.012063241
0.014570695
0.015699675
0.016234548
0.016019215
0.015202455
0.013830891
0.011583269
0.0081266933
0.0040273636
0.00096349428
5.991949e-05
1.0710807e-06
1.0187903e-08
6.7300234e-10
2.6853987e-10
1.0484211e-10
3.7802717e-11
1.2609539e-11
3.9368918e-12
1.151477e-12
3.1544974e-13
8.0656969e-14
1.9139225e-14
4.1929852e-15
8.4302622e-16
1.5464918e-16
2.5731951e-17
3.8570646e-18
5.1690522e-19
6.139442e-20
6.3956835e-21
5.7699123e-22
4.4368275e-23
2.848474e-24
1.4840829e-25
6.0231455e-27
1.7851482e-28
3.4332277e-30
3.2102971e-32
0.014636904
0.013420509
0.012020674
0.015895681
0.016923363
0.01729814
0.017022538
0.016135015
0.014345127
0.011186983
0.0068184651
0.0026191812
0.00038466045
1.3489663e-05
1.775255e-07
2.6368697e-09
6.7320779e-10
2.7786442e-10
1.0654034e-10
3.756206e-11
1.2379028e-11
3.8634939e-12
1.1356527e-12
3.134805e-13
8.0767387e-14
1.9290944e-14
4.2484923e-15
8.5766762e-16
1.5781137e-16
2.6313276e-17
3.9492391e-18
5.2954011e-19
6.2889093e-20
6.5474856e-21
5.9011794e-22
4.5324114e-23
2.9059845e-24
1.5119571e-25
6.1279886e-27
1.8138871e-28
3.4798129e-30
3.2464712e-32
0.015927405
0.014789703
0.013409278
0.01171541
0.017197084
0.018057291
0.018283165
0.017853807
0.016551321
0.01390069
0.0096889778
0.0048302863
0.0012932572
0.00010935363
2.5036015e-06
3.1254826e-08
1.9633706e-09
7.1514281e-10
2.8644831e-10
1.0627471e-10
3.6698032e-11
1.2113787e-11
3.8034996e-12
1.1286976e-12
3.1451776e-13
8.1667115e-14
1.9618911e-14
4.3384923e-15
8.7822876e-16
1.6185241e-16
2.7004867e-17
4.052603e-18
5.4299574e-19
6.440816e-20
6.6952242e-21
6.0238344e-22
4.6183503e-23
2.9558034e-24
1.5352708e-25
6.2128555e-27
1.8348884e-28
3.5112215e-30
3.2687337e-32
0.01720735
0.016037925
0.014838902
0.013104035
0.011017819
0.018366705
0.01901489
0.018993395
0.018152477
0.016104128
0.012404934
0.0073822395
0.0027856642
0.0004788727
2.4680829e-05
5.0283719e-07
1.8448088e-08
2.5926812e-09
7.7547384e-10
2.8751931e-10
1.0330869e-10
3.5631159e-11
1.1890114e-11
3.7773434e-12
1.1341175e-12
3.1896996e-13
8.336098e-14
2.0107797e-14
4.4571126e-15
9.0316991e-16
1.6644628e-16
2.7748546e-17
4.1582661e-18
5.5610719e-19
6.5820916e-20
6.8263983e-21
6.1277735e-22
4.6877992e-23
2.9941343e-24
1.5523374e-25
6.2703274e-27
1.8466008e-28
3.5253833e-30
3.2756086e-32
0.018342061
0.017149467
0.01613445
0.014607052
0.01239286
0.0098740232
0.019285325
0.01960301
0.019165928
0.017717601
0.014735826
0.010074337
0.0048566791
0.0012962264
0.00014608963
6.4381476e-06
3.833539e-07
3.9972357e-08
4.3377232e-09
8.1238341e-10
2.7768662e-10
9.9001204e-11
3.4809698e-11
1.1785876e-11
3.7987012e-12
1.1533181e-12
3.2675357e-13
8.5750607e-14
2.0722659e-14
4.5950953e-15
9.3044112e-16
1.7120296e-16
2.8480015e-17
4.2570211e-18
5.6773464e-19
6.7005956e-20
6.9299577e-21
6.2044888e-22
4.7352641e-23
3.0180813e-24
1.561956e-25
6.2921126e-27
1.848224e-28
3.5212511e-30
3.2664577e-32
0.019200075
0.01813985
0.017186494
0.016021378
0.013973957
0.011231937
0.0082950177
0.019770476
0.019664349
0.018750492
0.016542895
0.012603106
0.0074509023
0.0028402544
0.00055755886
5.8015969e-05
6.3202635e-06
9.0538244e-07
9.7662564e-08
6.0505888e-09
7.648777e-10
2.6170972e-10
9.5763425e-11
3.4388309e-11
1.1852888e-11
3.8723289e-12
1.185626e-12
3.3734268e-13
8.8651699e-14
2.1413571e-14
4.7409001e-15
9.5771119e-16
1.757095e-16
2.913529e-17
4.3402169e-18
5.768651e-19
6.7861264e-20
6.9971434e-21
6.2476471e-22
4.7569348e-23
3.0257961e-24
1.5625784e-25
6.2766147e-27
1.8395394e-28
3.4987596e-30
3.2414762e-32
0.019616396
0.018895467
0.018006288
0.017134856
0.015540449
0.012883932
0.0096339429
0.0063491729
0.019766928
0.019291357
0.017793776
0.014732405
0.010171875
0.0052853561
0.0017818992
0.00037487148
7.1488799e-05
1.4388466e-05
2.1501961e-06
1.532736e-07
5.0888443e-09
6.7192512e-10
2.4886095e-10
9.4091272e-11
3.4548782e-11
1.21073e-11
3.9947201e-12
1.2285903e-12
3.4986129e-13
9.1819014e-14
2.2121662e-14
4.882001e-15
9.8261236e-16
1.7957133e-16
2.9656757e-17
4.4005286e-18
5.8269591e-19
6.8311834e-20
7.0220651e-21
6.2534368e-22
4.7508475e-23
3.0166208e-24
1.5533769e-25
6.2243271e-27
1.8208678e-28
3.4587514e-30
3.201563e-32
0.019620344
0.019283349
0.018600481
0.017896722
0.016788908
0.014594033
0.011334613
0.0076607262
0.0041836514
0.01949285
0.018562165
0.016358111
0.012641201
0.0081227786
0.0041919138
0.0016992544
0.00054636775
0.00014981051
3.1430335e-05
3.2783025e-06
1.263178e-07
2.5847566e-09
6.1413863e-10
2.422374e-10
9.4321211e-11
3.5346273e-11
1.2533866e-11
4.1555792e-12
1.2784083e-12
3.6320445e-13
9.4976578e-14
2.2785776e-14
5.0061912e-15
1.0029741e-15
1.8244938e-16
2.9998256e-17
4.4325528e-18
5.8469293e-19
6.8314276e-20
7.001977e-21
6.2206677e-22
4.7168772e-23
2.9885769e-24
1.5348002e-25
6.1376058e-27
1.7929991e-28
3.4028129e-30
3.1482162e-32
0.019510928
0.019369894
0.018875157
0.018309715
0.01754872
0.016005458
0.013154076
0.0093676775
0.0054382585
0.0021513455
0.019037091
0.017498599
0.014673971
0.010852337
0.007131
0.0043653078
0.0023832784
0.00097928608
0.00029026496
4.5615295e-05
2.7694449e-06
4.7079912e-08
1.5320186e-09
5.8864401e-10
2.4186266e-10
9.660831e-11
3.672387e-11
1.3093347e-11
4.3396854e-12
1.3304691e-12
3.7617802e-13
9.784937e-14
2.3348844e-14
5.1027764e-15
1.0170257e-15
1.840898e-16
3.0128746e-17
4.433179e-18
5.8261918e-19
6.7858148e-20
6.9372485e-21
6.1506397e-22
4.6568241e-23
2.9423134e-24
1.5077504e-25
6.0203248e-27
1.7570857e-28
3.3331059e-30
3.0833553e-32
0.019301033
0.019388892
0.018934769
0.018372561
0.017794467
0.016788213
0.014703961
0.011235552
0.0070794851
0.0032176197
0.00078053028
0.018288814
0.016221602
0.013228173
0.010010709
0.0074395827
0.0055349174
0.0035253744
0.0015614714
0.00039258407
3.9372821e-05
1.1448611e-06
8.8964743e-09
1.3602858e-09
5.8396681e-10
2.4785041e-10
1.0075754e-10
3.8543227e-11
1.3729361e-11
4.5291172e-12
1.3799611e-12
3.8763952e-13
1.0019267e-13
2.3763404e-14
5.1635551e-15
1.0235473e-15
1.8434317e-16
3.0034227e-17
4.4017101e-18
5.7653292e-19
6.6964104e-20
6.8310572e-21
6.0468106e-22
4.5693179e-23
2.880172e-24
1.4734742e-25
5.8774436e-27
1.714533e-28
3.2521624e-30
3.0091767e-32
0.018818556
0.019346941
0.018945331
0.018214349
0.017574349
0.01686936
0.015511076
0.012865081
0.0089032455
0.0046453447
0.0014157233
0.00017285118
0.017322984
0.015133446
0.012558763
0.010342171
0.0087524131
0.0071348226
0.0046428014
0.0018771686
0.00034661148
1.8561565e-05
2.0567314e-07
3.4454865e-09
1.3315098e-09
5.9841158e-10
2.5954702e-10
1.0631623e-10
4.0608827e-11
1.4376499e-11
4.705677e-12
1.4224592e-12
3.9662296e-13
1.0181518e-13
2.3995767e-14
5.1834834e-15
1.0219549e-15
1.8317166e-16
2.9717813e-17
4.3397369e-18
5.6675767e-19
6.5679375e-20
6.6888633e-21
5.9147808e-22
4.4582134e-23
2.8050756e-24
1.4334382e-25
5.7145707e-27
1.6668814e-28
3.1626971e-30
2.9279747e-32
0.018066825
0.019098029
0.018995051
0.018089797
0.017102084
0.016336821
0.015434731
0.013684009
0.010528206
0.0062874854
0.0023819501
0.00038013996
1.6650107e-05
0.016531469
0.014628048
0.012843685
0.011561588
0.010422913
0.008412562
0.0050165993
0.001636057
0.00019391029
4.2334832e-06
2.8949703e-08
2.9046394e-09
1.3626863e-09
6.2956209e-10
2.7557305e-10
1.126535e-10
4.2696118e-11
1.4969642e-11
4.8532243e-12
1.4544245e-12
4.0242862e-13
1.0259427e-13
2.4028518e-14
5.1609651e-15
1.0123137e-15
1.8064422e-16
2.9198076e-17
4.2508002e-18
5.5383037e-19
6.4071304e-20
6.5177524e-21
5.7544391e-22
4.3288076e-23
2.7202517e-24
1.389209e-25
5.5375392e-27
1.6157006e-28
3.0674157e-30
3.8190142e-34
0.017439195
0.018525397
0.018969609
0.018161698
0.016753203
0.015519029
0.014597446
0.013464135
0.011343478
0.0077995114
0.0036247805
0.0007683203
4.2642039e-05
8.0144073e-07
0.016143646
0.014822522
0.013815029
0.0130238
0.011619868
0.0086694481
0.0043750562
0.0010301042
6.4027747e-05
6.3997577e-07
7.8674811e-09
2.9377708e-09
1.4407147e-09
6.733859e-10
2.9401376e-10
1.1904348e-10
4.4584096e-11
1.5452864e-11
4.9596117e-12
1.4735299e-12
4.0467042e-13
1.0248359e-13
2.3861108e-14
5.0977553e-15
9.9528197e-16
1.7692117e-16
2.8506021e-17
4.1399035e-18
5.3843573e-19
6.2219959e-20
6.326157e-21
5.5732247e-22
4.186664e-23
2.6289948e-24
1.3423437e-25
5.3520345e-27
1.5624918e-28
4.3601144e-32
2.5388378e-36
0.017086612
0.017905777
0.018635649
0.018343733
0.016789582
0.014899552
0.013435222
0.012363254
0.011011265
0.0085937045
0.0048802813
0.0013797156
0.00010186096
2.1347321e-06
3.3907606e-08
0.016207897
0.015454081
0.014863209
0.013939617
0.011788391
0.0077489922
0.0030709049
0.00045070523
1.3268058e-05
8.3060184e-08
6.1386979e-09
3.1227445e-09
1.5542043e-09
7.244381e-10
3.1265137e-10
1.2477231e-10
4.6087809e-11
1.5786775e-11
5.0177985e-12
1.4787666e-12
4.0328851e-13
1.0151189e-13
2.3508539e-14
4.9985182e-15
9.719987e-16
1.7223135e-16
2.7681195e-17
4.0129471e-18
5.2133636e-19
6.0210946e-20
6.1150487e-21
5.3789069e-22
4.0372371e-23
2.5344437e-24
1.2943005e-25
5.1633007e-27
2.4190957e-30
3.2063675e-34
7.5668173e-39
0.016975738
0.017503379
0.018055111
0.018305123
0.017146343
0.014853789
0.012534408
0.010884147
0.0097157015
0.0082197607
0.0056260321
0.0021301899
0.00021883995
5.4340801e-06
9.0369441e-08
1.4758299e-09
0.016449393
0.015967331
0.01535156
0.013986631
0.010861708
0.0059676609
0.0016792175
0.00013121119
2.1521868e-06
1.8027269e-08
6.4409534e-09
3.4037833e-09
1.6886886e-09
7.7635059e-10
3.2928523e-10
1.2925117e-10
4.7085124e-11
1.5952039e-11
5.0258534e-12
1.4704155e-12
3.9852879e-13
9.977342e-14
2.2998532e-14
4.8701291e-15
9.4393358e-16
1.6684536e-16
2.6767503e-17
3.8761642e-18
5.0330665e-19
5.8129428e-20
5.8934605e-21
5.1788274e-22
3.8855258e-23
2.4394329e-24
1.2463791e-25
8.7018601e-29
1.9668524e-32
1.0704445e-36
8.6445469e-42
0.016807941
0.017163866
0.017499873
0.017878497
0.017419265
0.015334376
0.012370338
0.0097170528
0.0079874854
0.0068548005
0.005344332
0.0027125131
0.00040639473
1.2936552e-05
2.3240107e-07
3.2581279e-09
2.3485898e-10
0.016409206
0.015979369
0.015213254
0.013207831
0.0090161782
0.0038567506
0.00067560685
2.8746347e-05
3.1369589e-07
1.3169893e-08
7.0947342e-09
3.743117e-09
1.8270144e-09
8.2268801e-10
3.4210551e-10
1.3210936e-10
4.7526957e-11
1.5947344e-11
4.9866006e-12
1.4499035e-12
3.9088726e-13
9.7412327e-14
2.2367677e-14
4.7208342e-15
9.1272366e-16
1.6104879e-16
2.5809264e-17
3.7356194e-18
4.8508493e-19
5.5986663e-20
5.6696149e-21
4.9794688e-22
3.7358822e-23
2.3464027e-24
2.284619e-27
7.8160587e-31
7.3576992e-35
1.3713893e-39
3.8004505e-45
0.016283946
0.01659232
0.016887453
0.017185671
0.017218064
0.015885592
0.012912559
0.0094031486
0.006591419
0.0050349589
0.0041631126
0.0026600233
0.00062021043
2.8090617e-05
5.653599e-07
7.8919974e-09
2.7370711e-10
8.8480519e-11
0.016007777
0.015664684
0.014595286
0.011649061
0.0065953145
0.0020029924
0.00020536305
5.1298151e-06
8.4455459e-08
1.4295832e-08
7.9070477e-09
4.0968229e-09
1.9511989e-09
8.580798e-10
3.5000548e-10
1.3322762e-10
4.7422902e-11
1.5788285e-11
4.9069178e-12
1.4195276e-12
3.81033e-13
9.4603895e-14
2.16572e-14
4.5593948e-15
8.8001848e-16
1.5511838e-16
2.4847932e-17
3.5968199e-18
4.6729935e-19
5.3860692e-20
5.4505063e-21
4.7862683e-22
3.5919303e-23
4.6733461e-26
2.2648358e-29
3.2758888e-33
1.060377e-37
6.5464956e-43
8.3861585e-49
0.015614722
0.015693713
0.015965563
0.01624042
0.016503291
0.015915727
0.013661819
0.0099308746
0.0060964663
0.0035208077
0.0026247005
0.001951633
0.00067888377
5.3703645e-05
1.2860845e-06
1.9047345e-08
3.8601528e-10
8.8931981e-11
3.4055013e-11
0.015652093
0.01521212
0.013474482
0.0094005826
0.0041465224
0.00082484719
4.9545269e-05
1.03051e-06
7.545406e-08
1.6190214e-08
8.7708223e-09
4.4172317e-09
2.0457223e-09
8.792293e-10
3.526893e-10
1.3267112e-10
4.6842077e-11
1.5504332e-11
4.7964521e-12
1.3821074e-12
3.6972494e-13
9.1535331e-14
2.0908928e-14
4.3943172e-15
8.4735207e-16
1.4930345e-16
2.391974e-17
3.4645462e-18
4.4995928e-19
5.1815368e-20
5.2417846e-21
4.6035981e-22
7.7657054e-25
5.1077008e-28
1.0630725e-31
5.324761e-36
5.5339231e-41
1.5064196e-46
1.1546094e-52
0.015246614
0.014817962
0.014703732
0.014958695
0.015293998
0.015204763
0.013883408
0.010775037
0.0065163055
0.0028346003
0.0013950288
0.001046608
0.00048342247
7.0237428e-05
2.7004275e-06
4.3929354e-08
6.5344676e-10
9.4634605e-11
3.3669139e-11
1.236308e-11
0.015443961
0.014514201
0.011732344
0.0068288237
0.0022104667
0.00027998681
1.1570018e-05
5.7431338e-07
9.6051389e-08
1.8311223e-08
9.5667502e-09
4.6615702e-09
2.1008518e-09
8.8537312e-10
3.5047641e-10
1.3070432e-10
4.5900281e-11
1.5132952e-11
4.6661422e-12
1.3406449e-12
3.5773348e-13
8.8388651e-14
2.0161914e-14
4.2332438e-15
8.1605216e-16
1.4381383e-16
2.3054302e-17
3.342132e-18
4.3356432e-19
4.9900221e-20
5.0478101e-21
1.0792268e-23
9.3458267e-27
2.6831277e-30
1.9528503e-34
3.0592972e-39
1.3334786e-44
2.1145695e-50
1.1286889e-56
0.015181487
0.014323905
0.013525051
0.013327047
0.013571102
0.013744002
0.013182248
0.011135618
0.0073475965
0.0029970247
0.0007881082
0.00042263975
0.00021740505
5.1117708e-05
4.0146301e-06
9.5129642e-08
1.2432499e-09
1.0585828e-10
3.4715084e-11
1.2104107e-11
4.2061057e-12
0.015122809
0.013295543
0.0094481127
0.0044339241
0.0010666124
0.00010034725
5.6056699e-06
7.2771563e-07
1.274504e-07
2.0512152e-08
1.0180953e-08
4.8016995e-09
2.1142778e-09
8.7762158e-10
3.4424862e-10
1.2775887e-10
4.4733913e-11
1.4713626e-11
4.5269437e-12
1.298038e-12
3.4577589e-13
8.532732e-14
1.9449984e-14
4.0825466e-15
7.871904e-16
1.3881387e-16
2.2275074e-17
3.2284838e-18
4.1848436e-19
4.8151726e-20
1.2817794e-22
1.4283244e-25
5.4891852e-29
5.5778784e-33
1.2435162e-37
7.7538099e-43
1.9130967e-48
2.079943e-54
8.5005412e-61
0.015212143
0.014305798
0.012796454
0.011722552
0.011469774
0.011612886
0.011536301
0.010486106
0.0078169744
0.0036585076
0.00071345606
0.00015265678
6.8568236e-05
1.9791393e-05
3.0468154e-06
1.5317096e-07
2.4702049e-09
1.2342242e-10
3.6885744e-11
1.2273972e-11
4.0856726e-12
1.3346746e-12
0.014375185
0.011557622
0.0070517286
0.0027774667
0.00062655492
7.7287055e-05
7.8188334e-06
1.1394018e-06
1.7476623e-07
2.3074375e-08
1.054469e-08
4.8301363e-09
2.0896472e-09
8.587087e-10
3.3548208e-10
1.2430245e-10
4.3476832e-11
1.4283506e-11
4.3888804e-12
1.2568633e-12
3.3447029e-13
8.2487421e-14
1.880031e-14
3.9471364e-15
7.6156685e-16
1.3442147e-16
2.1591997e-17
3.1259713e-18
4.0497739e-19
1.3229988e-21
1.8630162e-24
9.3689145e-28
1.2924564e-31
3.9619595e-36
3.3314083e-41
1.1398029e-46
1.896518e-52
1.5631388e-58
5.8591585e-65
0.014960666
0.014648251
0.012761209
0.010704271
0.0094569166
0.0091434701
0.0091568738
0.0088173971
0.0073269662
0.0042190958
0.00098541715
8.988344e-05
1.8413939e-05
5.245842e-06
1.094086e-06
1.2074472e-07
4.1099669e-09
1.4925134e-10
3.9672865e-11
1.2766625e-11
4.0868027e-12
1.2877559e-12
3.934209e-13
0.01309363
0.0095431985
0.0051897094
0.0020893372
0.00067188084
0.00013084649
1.5690895e-05
2.0572854e-06
2.6407006e-07
2.7600755e-08
1.0629327e-08
4.7569644e-09
2.0354959e-09
8.3353731e-10
3.2571494e-10
1.2076179e-10
4.2246853e-11
1.3874662e-11
4.2604204e-12
1.2192416e-12
3.2430923e-13
7.9973341e-14
1.8232961e-14
3.8304584e-15
7.3971892e-16
1.3072069e-16
2.0989841e-17
3.0361332e-18
1.2027683e-20
2.1089622e-23
1.3629672e-26
2.499284e-30
1.0301098e-34
1.1282004e-39
5.031135e-45
1.1405766e-50
1.4239912e-56
1.0712989e-62
4.023666e-69
0.014178459
0.014976354
0.013377729
0.010633826
0.008200202
0.0068805651
0.0065327423
0.0064808329
0.0058820411
0.004043102
0.0013583068
0.00012955025
7.6486441e-06
1.2352052e-06
2.682321e-07
4.175749e-08
3.4052292e-09
1.8211135e-10
4.2293434e-11
1.3419419e-11
4.1775785e-12
1.2734369e-12
3.7727701e-13
1.0731582e-13
0.011603052
0.007829395
0.004332684
0.00230244
0.0010847717
0.0002651296
3.4683249e-05
4.2829587e-06
4.7151157e-07
3.1066416e-08
1.038286e-08
4.6050323e-09
1.9662806e-09
8.0697872e-10
3.1624907e-10
1.1748694e-10
4.113922e-11
1.3512607e-11
4.1481627e-12
1.1867776e-12
3.1565076e-13
7.7857626e-14
1.7761221e-14
3.7346071e-15
7.2194361e-16
1.276859e-16
2.0476202e-17
9.7378881e-20
2.1001014e-22
1.7184461e-25
4.1189199e-29
2.2469845e-33
3.1373927e-38
1.7553838e-43
5.0901338e-49
8.5665188e-55
9.7135584e-61
7.3041539e-67
2.7553622e-73
0.01311613
0.014794096
0.014275485
0.011497916
0.0081128687
0.0055135186
0.0042912056
0.0040605164
0.0039396222
0.0030958549
0.0014128434
0.00021959259
1.0645028e-05
4.5032117e-07
5.9714043e-08
1.0048004e-08
1.3070117e-09
1.7203821e-10
4.4064681e-11
1.4006513e-11
4.3111675e-12
1.2832946e-12
3.692548e-13
1.0235337e-13
2.6977824e-14
0.010282624
0.006957981
0.0045968928
0.0032802726
0.0018725428
0.00052301718
7.7062668e-05
9.705945e-06
7.0987375e-07
2.7428285e-08
9.9709739e-09
4.4185574e-09
1.8965395e-09
7.8276735e-10
3.0806899e-10
1.1474262e-10
4.0224516e-11
1.3215887e-11
4.0567779e-12
1.1605595e-12
3.0872484e-13
7.6183873e-14
1.7392284e-14
3.6604902e-15
7.0843538e-16
1.2519293e-16
7.0862697e-19
1.8601313e-21
1.9031221e-24
5.880192e-28
4.1961014e-32
7.3707984e-37
5.0443782e-42
1.7984368e-47
3.8285042e-53
5.8211755e-59
6.581349e-65
4.9609974e-71
1.8831628e-77
0.012240575
0.014150757
0.01483428
0.012904952
0.0091650657
0.0054158127
0.0029922365
0.0021800726
0.0021123722
0.0018394183
0.0010454202
0.00025494058
2.0420158e-05
6.274754e-07
2.0250707e-08
2.5738145e-09
5.0427994e-10
1.3212829e-10
4.3702321e-11
1.4351559e-11
4.4275856e-12
1.3052909e-12
3.6737367e-13
9.9263027e-14
2.5605787e-14
6.223269e-15
0.0095716272
0.0071667239
0.0058381217
0.0049178796
0.0030558521
0.00094719704
0.00016213399
1.6304686e-05
6.9275023e-07
2.1095865e-08
9.4921868e-09
4.2396346e-09
1.8366185e-09
7.6346224e-10
3.0186183e-10
1.1270795e-10
3.9549355e-11
1.2996434e-11
3.9891255e-12
1.1412065e-12
3.0365028e-13
7.4970657e-14
1.7127995e-14
3.6081054e-15
6.9854801e-16
4.6715152e-18
1.4792123e-20
1.872038e-23
7.3679443e-27
6.8132931e-31
1.4939365e-35
1.228729e-40
5.2422163e-46
1.355909e-51
2.5936653e-57
3.9226339e-63
4.4372505e-69
3.361569e-75
1.2856976e-81
0.011793883
0.013575548
0.014737523
0.014206952
0.010956608
0.0065251704
0.0028518387