/*--------------------------------*- C++ -*----------------------------------*\
| =========                 |                                                 |
| \\      /  F ield         | OpenFOAM: The Open Source CFD Toolbox           |
|  \\    /   O peration     | Version:  5.0                                   |
|   \\  /    A nd           | Web:      www.OpenFOAM.org                      |
|    \\/     M anipulation  |                                                 |
\*---------------------------------------------------------------------------*/
FoamFile
{
    version     2.0;
    format      ascii;
    class       volScalarField;
    location    "60";
    object      p;
}
// * * * * * * * * * * * * * * * * * * * * * * * * * * * * * * * * * * * * * //

dimensions      [0 2 -2 0 0 0 0];

internalField   nonuniform List<scalar> 
9520
(
-0.00019478025
-0.00019535397
-0.00031532854
-0.0001965237
-0.00031309529
-0.00051352833
-0.00019845522
-0.00030930959
-0.00050964406
-0.00067507408
-0.00020128018
-0.00030473191
-0.00050297785
-0.00066872364
-0.00086014179
-0.00020516604
-0.000300044
-0.00049480174
-0.00065764435
-0.00085162707
-0.0010379366
-0.00021016786
-0.00029593806
-0.00048629405
-0.00064361976
-0.00083661845
-0.0010270727
-0.00122086
-0.00021632987
-0.00029292484
-0.00047864106
-0.00062832691
-0.00081730275
-0.0010077352
-0.0012072852
-0.0014036514
-0.00022347207
-0.00029146796
-0.00047282064
-0.00061349125
-0.00079575393
-0.00098243362
-0.0011828572
-0.0013873337
-0.0015885002
-0.00023155584
-0.00029178974
-0.00046968685
-0.00060068104
-0.00077414399
-0.00095351397
-0.0011503364
-0.0013576794
-0.001569521
-0.001775527
-0.00023993118
-0.00029418158
-0.00046986432
-0.00059139056
-0.00075455575
-0.00092340792
-0.0011122511
-0.0013175808
-0.0015347103
-0.0017541306
-0.0019652182
-0.00024885897
-0.0002982495
-0.00047387973
-0.00058675638
-0.00073897603
-0.0008944258
-0.0010712397
-0.0012696044
-0.0014869474
-0.001714505
-0.0019417919
-0.0021576192
-0.00025669076
-0.00030453247
-0.00048144585
-0.00058761569
-0.0007290508
-0.0008688297
-0.001029839
-0.0012164328
-0.0014286989
-0.0016593805
-0.0018980157
-0.0021327478
-0.0023526103
-0.00026491808
-0.0003113846
-0.00049317511
-0.00059446113
-0.00072650421
-0.0008487898
-0.00099061672
-0.0011606333
-0.0013625401
-0.0015910027
-0.001836387
-0.0020859742
-0.0023270922
-0.0025497104
-0.0002696284
-0.00032061742
-0.00050729454
-0.00060826953
-0.00073248978
-0.00083650854
-0.00095609277
-0.0011048843
-0.0012909493
-0.0015117116
-0.0017588088
-0.0020193761
-0.0022786413
-0.002524323
-0.0027480744
-0.00027524986
-0.0003278243
-0.00052565942
-0.00062767528
-0.00074834114
-0.00083348365
-0.00092883679
-0.0010517763
-0.0012165782
-0.0014237893
-0.0016672959
-0.0019343642
-0.0022087061
-0.0024754733
-0.0027236203
-0.0029467666
-0.00027356477
-0.00033819771
-0.00054323451
-0.0006549731
-0.00077324951
-0.00084187893
-0.00091097252
-0.0010037045
-0.0011417652
-0.0013295409
-0.0015638491
-0.001832516
-0.0021180539
-0.0024038458
-0.002675906
-0.0029242233
-0.0031447969
-0.00027349735
-0.00034229669
-0.00056561638
-0.00068487186
-0.00080984867
-0.00086154664
-0.00090536432
-0.00096309284
-0.001068794
-0.0012311135
-0.0014504783
-0.0017155257
-0.0020076648
-0.0023094168
-0.0026047011
-0.0028794324
-0.0031251975
-0.0033410911
-0.000261617
-0.00035116095
-0.00058209511
-0.00072421078
-0.00085238997
-0.00089633484
-0.00091283327
-0.00093283918
-0.0010005041
-0.0011315314
-0.0013298113
-0.0015856398
-0.001878781
-0.0021923716
-0.0025090149
-0.0028110879
-0.0030852132
-0.0033254351
-0.0035344943
-0.00025105002
-0.00034910516
-0.00060521322
-0.00076062609
-0.00090949236
-0.00094125005
-0.00093932195
-0.00091437797
-0.00093837181
-0.0010330238
-0.0012039146
-0.00144552
-0.0017331013
-0.0020532084
-0.0023880625
-0.0027170743
-0.003022316
-0.0032922072
-0.0035237536
-0.0037237388
-0.00022476652
-0.00035207487
-0.00061691951
-0.00080946935
-0.00096659715
-0.0010079298
-0.00098094884
-0.00091348522
-0.00088445338
-0.00093602289
-0.0010716531
-0.0012938147
-0.0015711774
-0.0018926954
-0.002241474
-0.0025955364
-0.0029331608
-0.0032375018
-0.0034992448
-0.0037189776
-0.0039075522
-0.00019717068
-0.00034152297
-0.00063698634
-0.00084901271
-0.0010441192
-0.0010818457
-0.0010507691
-0.00092417943
-0.00084301134
-0.00084238298
-0.00093829551
-0.0011286989
-0.0013943359
-0.0017117571
-0.0020695877
-0.0024452634
-0.0028147286
-0.003156645
-0.0034555521
-0.0037050288
-0.0039097878
-0.0040847243
-0.00015030036
-0.00033239894
-0.00064422508
-0.0009045359
-0.0011147836
-0.0011871971
-0.0011283661
-0.00096502026
-0.00080825393
-0.00075365164
-0.00080517221
-0.00095987575
-0.0012089434
-0.0015141133
-0.0018742478
-0.0022662946
-0.0026648439
-0.0030453253
-0.0033865669
-0.0036751461
-0.0039081912
-0.0040948251
-0.0042541166
-9.7050621e-05
-0.00031271399
-0.00065788488
-0.0009481427
-0.0012079191
-0.0012899578
-0.0012422263
-0.0010108046
-0.00080028229
-0.00066577197
-0.00067166183
-0.000789165
-0.0010155013
-0.0013070521
-0.0016604163
-0.0020606357
-0.0024828248
-0.0029001446
-0.003286569
-0.0036216461
-0.0038948376
-0.0041073714
-0.0042728781
-0.0044146913
-2.3193736e-05
-0.00029209012
-0.00066312931
-0.0010066148
-0.0012823393
-0.0014296891
-0.0013576945
-0.0011048425
-0.00078430382
-0.00059585414
-0.00053510399
-0.00061740933
-0.00081442128
-0.0010907983
-0.0014313539
-0.0018317417
-0.0022697496
-0.0027192051
-0.0031507299
-0.0035373166
-0.0038604189
-0.0041130983
-0.004301225
-0.0044428026
-0.0045655342
7.3935537e-05
-0.00026736032
-0.00066589565
-0.0010510673
-0.00137607
-0.0015610498
-0.001524179
-0.0011949805
-0.00082142754
-0.00050432148
-0.00040515498
-0.00044162875
-0.00061004065
-0.00086700397
-0.0011886219
-0.0015828487
-0.0020279009
-0.0025022062
-0.0029756766
-0.0034157808
-0.0037961818
-0.0041012371
-0.0043283492
-0.0044883428
-0.0046035568
-0.0047058679
0.00019563068
-0.00024387324
-0.00066005091
-0.0011000684
-0.0014471654
-0.0017300186
-0.0016928415
-0.0013449223
-0.0008407886
-0.0004659629
-0.0002478631
-0.00026382894
-0.00040216392
-0.00063806497
-0.00093681745
-0.0013156138
-0.0017593167
-0.002249972
-0.002759616
-0.0032520696
-0.0036941458
-0.0040614826
-0.0043423156
-0.0045389944
-0.0046674049
-0.0047542297
-0.0048350622
0.00034483171
-0.00021997718
-0.0006497421
-0.0011451832
-0.001531172
-0.0018928624
-0.0019135843
-0.0014953634
-0.00093770341
-0.0004017359
-0.00012915365
-6.4544148e-05
-0.00019190552
-0.00040483483
-0.00068139756
-0.0010350143
-0.001468857
-0.0019648736
-0.0025023116
-0.0030428677
-0.0035476678
-0.0039842449
-0.0043312954
-0.004581799
-0.0047434728
-0.0048372753
-0.0048940543
-0.0049526383
0.00052766491
-0.00018535895
-0.00063276691
-0.0011811574
-0.0016275095
-0.002084668
-0.0021435402
-0.0016990424
-0.001000235
-0.00037257064
4.4115911e-05
0.00011418612
2.8089261e-05
-0.00017262579
-0.00042692082
-0.00074995263
-0.0011617571
-0.0016508921
-0.0022054378
-0.0027866985
-0.0033517911
-0.0038611603
-0.0042841214
-0.0046035275
-0.0048178009
-0.0049403051
-0.0049969416
-0.0050224158
-0.005058269
0.0007416283
-0.00015381598
-0.00060603087
-0.0012110448
-0.0017288451
-0.0022407026
-0.0024189586
-0.0019107395
-0.0011200127
-0.00031733942
0.00018510425
0.00036008273
0.00023898841
6.031693e-05
-0.00018080172
-0.00046733936
-0.00084439067
-0.001313712
-0.0018718333
-0.0024835845
-0.0031032867
-0.0036855007
-0.0041907281
-0.0045915208
-0.0048759605
-0.0050484584
-0.0051281293
-0.0051455412
-0.0051388556
-0.0051517748
0.0010037107
-0.00010908086
-0.00059139784
-0.0012430014
-0.001799331
-0.0024167744
-0.0027237394
-0.0021772748
-0.0012322528
-0.00031177821
0.00037976044
0.00053973943
0.0004898333
0.00028200603
5.9109523e-05
-0.00019723963
-0.00052156874
-0.0009581128
-0.0015045468
-0.0021351765
-0.0028009344
-0.0034524169
-0.0040426287
-0.0045340734
-0.0049039379
-0.0051463174
-0.0052719798
-0.0053057168
-0.005282367
-0.0052430699
-0.0052331145
0.0013490012
-8.4145994e-05
-0.00057833088
-0.0012509827
-0.0018665788
-0.0026164437
-0.0030562722
-0.0024733086
-0.0013875625
-0.00028970476
0.00054689401
0.00083111132
0.00070301625
0.0005181588
0.00027887765
6.4663183e-05
-0.00020094152
-0.00058651568
-0.0011085376
-0.0017441645
-0.0024446762
-0.0031588496
-0.0038331849
-0.0044209349
-0.0048884836
-0.0052186905
-0.0054123236
-0.0054866783
-0.005471977
-0.0054068763
-0.0053349039
-0.0053023714
0.0017487402
-8.9049026e-05
-0.00054060914
-0.0012671573
-0.0019275992
-0.0028101553
-0.0034415975
-0.0027911114
-0.0015568021
-0.00031816983
0.00076774844
0.0010862461
0.00099267963
0.00072342334
0.00049826581
0.00029757423
0.00011713569
-0.00020964934
-0.00069041782
-0.0013146442
-0.0020371086
-0.0028044363
-0.0035581458
-0.0042437528
-0.0048176278
-0.0052509335
-0.0055330127
-0.0056717636
-0.005691006
-0.005626015
-0.0055186939
-0.0054143389
-0.0053597439
0.0021907879
-0.0001019045
-0.0004343063
-0.0012760397
-0.0019799993
-0.0030016534
-0.0038570184
-0.0031557003
-0.0017513812
-0.0003522524
0.00096568159
0.0014249483
0.0012351545
0.00096869084
0.00067479761
0.00051399425
0.0003970273
0.00016269496
-0.00026118867
-0.00085408776
-0.0015829447
-0.0023903947
-0.0032152852
-0.0039963803
-0.0046811436
-0.0052294162
-0.0056181879
-0.0058441178
-0.0059225271
-0.005883589
-0.0057671261
-0.0056175969
-0.0054814792
-0.0054055444
0.0025974044
-0.00012146419
-0.00031217739
-0.0012547841
-0.0019827828
-0.003151653
-0.0043542558
-0.0035485045
-0.0020083302
-0.00042993796
0.001208545
0.0017586956
0.0015682435
0.0011646187
0.00086960482
0.00066271653
0.00065304315
0.00050836497
0.00017438711
-0.00037128755
-0.0010867396
-0.0019200082
-0.0028053265
-0.0036754959
-0.0044711476
-0.0051420574
-0.0056526882
-0.0059869002
-0.0061492621
-0.0061626589
-0.0060632444
-0.0058947527
-0.0057035126
-0.0055365511
-0.0054401923
0.0029065377
-0.00014230802
-0.00017582948
-0.0012480099
-0.0019377994
-0.0034245994
-0.0048550537
-0.0039807317
-0.0022213956
-0.00055787291
0.0014453561
0.0021680219
0.0018624038
0.0014151905
0.00099889641
0.00081225403
0.00082993521
0.0008498845
0.00059989783
0.00013277634
-0.00055437764
-0.0013979211
-0.002330348
-0.0032799492
-0.0041822784
-0.0049789231
-0.0056225847
-0.00608359
-0.0063536652
-0.0064458215
-0.0063903912
-0.0062289896
-0.0060085374
-0.005776535
-0.0055799118
-0.0054641622
0.0030766161
-0.00017509645
-3.3314641e-05
-0.0012299779
-0.001969426
-0.0038024162
-0.0053563001
-0.0044276875
-0.0025112914
-0.00070195726
0.0016930649
0.0025877877
0.00223892
0.0016131978
0.0011437252
0.00084974082
0.0010093924
0.0011143896
0.0010421805
0.00064720089
1.225593e-05
-0.00082791999
-0.0017938015
-0.0028115761
-0.003812412
-0.0047328386
-0.0055158712
-0.0061184952
-0.0065180919
-0.0067151312
-0.0067313261
-0.0066041716
-0.006380058
-0.0061083039
-0.0058368978
-0.0056120277
-0.0054779033
0.0030757998
-0.00028236041
8.2857055e-05
-0.0012590603
-0.0021313956
-0.0041669438
-0.0057993168
-0.004885683
-0.0028915577
-0.0010004249
0.0019789127
0.0030661943
0.0025900007
0.0018621214
0.0012185908
0.00091466631
0.0010592441
0.0014036985
0.0014267253
0.0011905009
0.00060513227
-0.00021246553
-0.0012007772
-0.002273735
-0.0033619135
-0.0043996986
-0.0053230925
-0.006077453
-0.0066252508
-0.006952115
-0.0070680432
-0.0070035247
-0.006802692
-0.0065158956
-0.0061940349
-0.0058849011
-0.0056333788
-0.0054818689
0.0029116726
-0.00046084345
0.00015322361
-0.0013637854
-0.0023405676
-0.0044632554
-0.0060885056
-0.0053260425
-0.0034881912
-0.0012984847
0.002194502
0.0036085842
0.0030127261
0.0020715576
0.0012985056
0.00084285484
0.0011180962
0.0015465309
0.0018598612
0.0017070436
0.0012403747
0.00044089475
-0.00055474599
-0.0016719191
-0.0028347315
-0.0039791199
-0.0050380737
-0.0059485121
-0.0066588464
-0.0071381323
-0.0073815868
-0.0074093205
-0.0072604123
-0.0069848869
-0.0066361591
-0.0062658503
-0.0059208754
-0.0056443862
-0.0054767273
0.0026083196
-0.00069519815
0.00010633805
-0.0015186241
-0.00252413
-0.0046592535
-0.0062842361
-0.005603127
-0.0042996969
-0.0015018592
0.0025445742
0.004097912
0.0034443086
0.0023181363
0.0013239679
0.00078098186
0.0010280626
0.0017372933
0.0021154147
0.0023029203
0.0018710305
0.0011427281
0.00013836896
-0.0010108794
-0.0022364882
-0.0034736367
-0.0046581505
-0.0057228409
-0.0066043511
-0.0072549271
-0.0076522896
-0.0078025085
-0.0077361191
-0.0075002588
-0.0071499512
-0.0067407033
-0.0063239928
-0.0059453097
-0.0056455882
-0.005463233
-0.00094432292
0.0022320414
-5.9763757e-05
-0.0017442208
-0.0026881055
-0.0048150338
-0.0063818017
-0.005770393
-0.0048593529
-0.0015759701
0.0026855837
0.0047178126
0.003909402
0.0025348418
0.0013432002
0.00060340128
0.00090552797
0.0017573313
0.0025866677
0.0027722535
0.0025893125
0.0018656995
0.00088027232
-0.00030031256
-0.0015740626
-0.0028897124
-0.0041851839
-0.0053952531
-0.0064498152
-0.0072853089
-0.0078601878
-0.0081628112
-0.0082110847
-0.008045868
-0.0077216298
-0.0072973345
-0.0068295758
-0.0063688434
-0.005958813
-0.0056377006
-0.0054421945
-0.00032699895
-0.0010936079
0.0018406871
-0.0020910086
-0.0028480905
-0.0049260001
-0.0063419051
-0.0057609159
-0.0051539868
-0.0014208984
0.0026841784
0.0050782717
0.0043786928
0.0027800262
0.0013267424
0.00037393033
0.00065529518
0.0017903346
0.0027949744
0.0033658246
0.0032188111
0.0026670966
0.0016546859
0.00046369901
-0.00085869209
-0.0022357804
-0.0036247043
-0.0049650102
-0.0061868529
-0.007214223
-0.0079856852
-0.0084689567
-0.0086648609
-0.008603723
-0.0083363106
-0.0079234012
-0.0074267525
-0.0069029872
-0.0064008992
-0.0059618993
-0.0056214227
-0.0054141446
-0.0025475079
-0.0007713558
-0.0011276593
0.0014828968
-0.0030508377
-0.0049233784
-0.00609902
-0.0056157396
-0.0052337671
-0.001250637
0.0025789833
0.0053007478
0.0048135624
0.0029796514
0.0012590628
6.2455611e-05
0.00029554123
0.0016510808
0.0030541839
0.0038355649
0.0040192412
0.0034160091
0.0024929062
0.0012540421
-9.2502162e-05
-0.0015245779
-0.0029859989
-0.0044364735
-0.0058114219
-0.0070292338
-0.0080102896
-0.008699169
-0.0090753544
-0.00915371
-0.0089771659
-0.0086055561
-0.0081047884
-0.0075381391
-0.0069612842
-0.0064208634
-0.0059552726
-0.0055974378
-0.0053797058
-0.0033898759
-0.0030892504
-0.0013108775
-0.0010967201
0.0011648128
-0.0047273677
-0.005633798
-0.0052824115
-0.0051261304
-0.0010592258
0.0023471772
0.0053961304
0.0056590025
0.0032438432
0.0011278551
-0.00028255986
-0.0001548987
0.0014230859
0.0031824905
0.0043742817
0.0046957542
0.0043428667
0.0033243655
0.0021039168
0.00069526616
-0.00076499417
-0.0022841808
-0.0038197186
-0.0053245038
-0.0067221626
-0.0079178357
-0.008832059
-0.00941917
-0.0096734875
-0.0096248915
-0.0093285033
-0.0088521026
-0.0082653214
-0.0076316044
-0.0070049484
-0.0064292035
-0.0059396605
-0.0055664468
-0.0053394427
-0.0043188221
-0.0038741152
-0.0036456437
-0.0018519803
-0.0010565877
0.00087324024
-0.0050270249
-0.0047367605
-0.004832375
-0.0007525016
0.0020957
0.0055202002
0.0057385035
0.0037750298
0.0011454085
-0.00072870959
-0.0007697301
0.0011436182
0.0032875731
0.0048225503
0.005495385
0.0051533567
0.0042711081
0.0029430598
0.0015382532
1.4026316e-05
-0.0015312046
-0.0031274308
-0.0047337289
-0.0062890864
-0.0076949512
-0.0088471003
-0.0096721309
-0.010138573
-0.010257511
-0.010074252
-0.0096552796
-0.0090748851
-0.0084047329
-0.0077074093
-0.007034571
-0.0064267307
-0.0059158684
-0.0055291206
-0.0052939678
-0.0043448951
-0.0038128701
-0.0043697933
-0.0041247841
-0.0023326791
-0.0010309124
0.00060310618
-0.0040585966
-0.0042001243
-0.00049622669
0.0018185491
0.0054123385
0.0062388958
0.0042611436
0.0014562356
-0.0012691099
-0.0014684917
0.00062017493
0.003349802
0.0052972606
0.0062318406
0.0061452782
0.0051321274
0.0038776791
0.0023453252
0.00083345952
-0.00075711561
-0.0023749528
-0.0040517889
-0.00573196
-0.0073325345
-0.0087263263
-0.0098102639
-0.010522879
-0.010850216
-0.010821812
-0.010498112
-0.0099555485
-0.0092730816
-0.008522893
-0.0077660807
-0.0070509329
-0.006414373
-0.0058846288
-0.0054860026
-0.0052437647
-0.0032699099
-0.0035616771
-0.0033174413
-0.004841755
-0.0044484
-0.0026830785
-0.0010182447
0.00034371362
-0.0030482523
-0.00052828353
0.0014544496
0.0049313446
0.0065931418
0.0047265506
0.0018218934
-0.0016294288
-0.0023774339
0.00016522127
0.0031954114
0.0057433709
0.0070253902
0.006991097
0.0061692052
0.0047347881
0.0032431927
0.0016045521
4.616952e-05
-0.0015931587
-0.0032931112
-0.0050618891
-0.006825692
-0.0084545338
-0.0098102935
-0.010799006
-0.011375581
-0.011546757
-0.011361172
-0.010893331
-0.010227735
-0.0094460783
-0.0086200756
-0.0078083975
-0.0070551344
-0.0063929028
-0.0058463395
-0.005437485
-0.0051894186
-0.0014794448
-0.0023822135
-0.0027807218
-0.0029909471
-0.0052238765
-0.0046297654
-0.0028802182
-0.00095086989
4.9209532e-05
-0.00089770744
0.00085734461
0.0039977487
0.0066425557
0.0050948792
0.0018022343
-0.002349243
-0.0035771073
-0.00070746635
0.0032175459
0.0060242599
0.0078645666
0.0080165383
0.0071016586
0.0057356985
0.0040289953
0.0024482015
0.00079458491
-0.00078366649
-0.0024869816
-0.0042914571
-0.0061765474
-0.008020704
-0.0096512029
-0.010939516
-0.011804024
-0.012221376
-0.012221218
-0.011870939
-0.011257225
-0.010470539
-0.00959363
-0.0086973261
-0.0078356258
-0.007047943
-0.006362439
-0.0058011849
-0.0053841995
-0.00513163
-0.0014009672
0.00021720285
-0.0015066503
-0.0020557623
-0.0030355398
-0.0054636337
-0.0047229031
-0.0029678925
-0.00070119948
-0.0002497182
-0.00019719248
0.0026187126
0.0061527559
0.0051196708
0.0014512287
-0.003288368
-0.0048236674
-0.0023839296
0.0027663149
0.0065627844
0.008569846
0.0090801076
0.0081649253
0.00662053
0.0049482786
0.0031415604
0.0015912547
-2.7704465e-05
-0.0016414083
-0.0034456047
-0.0053943533
-0.0074179427
-0.0093147905
-0.010917313
-0.012104238
-0.012814575
-0.013051056
-0.012866985
-0.012346917
-0.011587456
-0.010683038
-0.0097166067
-0.0087557839
-0.0078484788
-0.0070290734
-0.0063229029
-0.0057502088
-0.0053275406
-0.0050711014
-0.0014544415
-0.0018403447
0.0015909303
-0.00061807881
-0.001494327
-0.0033195987
-0.0056410455
-0.0047183781
-0.0029906093
-0.00036362406
-0.00043816579
0.0011701784
0.0050836141
0.0048604135
0.00068208452
-0.0039939222
-0.0060373197
-0.0036121706
0.001385622
0.0064409938
0.0095759801
0.010053901
0.0092066936
0.0076384621
0.0057072923
0.0039647961
0.0022110962
0.00075603087
-0.00083378042
-0.0025329074
-0.0045002711
-0.0066450154
-0.0087872996
-0.010706754
-0.012244208
-0.013292702
-0.01381946
-0.013855825
-0.013477997
-0.012785299
-0.011882313
-0.010865524
-0.0098168648
-0.0087961088
-0.0078461287
-0.0069981021
-0.00627608
-0.0056961765
-0.0052687415
-0.0050075863
-0.00014567208
-0.0026669798
-0.0019584211
0.002433445
0.00026736582
-0.0011556253
-0.0036176169
-0.0056286967
-0.0046973744
-0.002907836
-0.0001610931
-0.00049155405
0.0035598524
0.0041233305
-0.00044652817
-0.004476123
-0.0067750724
-0.0046550779
-2.5126378e-05
0.0055553235
0.0099834635
0.011323032
0.010260833
0.0085729781
0.0065975645
0.0045542159
0.0029396442
0.0013529692
-1.1204648e-06
-0.0016261156
-0.0034987055
-0.0057161138
-0.0080571606
-0.010284487
-0.012191539
-0.013619676
-0.014491406
-0.01480705
-0.014627099
-0.014048428
-0.013183026
-0.012141553
-0.011019681
-0.0098941529
-0.0088167348
-0.0078276926
-0.0069579127
-0.0062267871
-0.0056409063
-0.0052059879
-0.004937165
0.0017361822
-0.0014330373
-0.0035898736
-0.0015719908
0.0028981902
0.00096618629
-0.00093959422
-0.0039138362
-0.0052830812
-0.0047183287
-0.0027123502
-0.00015934728
-0.00050495859
0.0030106718
-0.0012593564
-0.0046510932
-0.0069693102
-0.0053500826
-0.0014838454
0.0046191282
0.010058079
0.012245543
0.01138141
0.0095548111
0.0073365729
0.0052874159
0.0033749326
0.0020172157
0.00065190472
-0.00067681075
-0.0024540291
-0.004631585
-0.0071220554
-0.0096301121
-0.011914374
-0.013757999
-0.015028576
-0.015685856
-0.015765893
-0.015356598
-0.01457337
-0.013539088
-0.0123663
-0.011146389
-0.0099461414
-0.0088161775
-0.0077975371
-0.0069160821
-0.0061773322
-0.0055790386
-0.0051322653
-0.0048598719
0.0017501138
-0.00014635674
-0.0026166828
-0.0040949372
-0.00090196471
0.0031616795
0.0014101417
-0.00081764
-0.0041629614
-0.0047821592
-0.0045984762
-0.0025008843
-0.00023851406
-0.00051246431
-0.0015361576
-0.0046068447
-0.0065386575
-0.0055108756
-0.0023868474
0.004085298
0.010052411
0.013143924
0.012362578
0.010539829
0.0081543267
0.0057752652
0.0039561785
0.0023545907
0.0013431094
0.00012036074
-0.0013257176
-0.0034242489
-0.0059611645
-0.0087251081
-0.011381591
-0.013669306
-0.015389801
-0.016453071
-0.016860936
-0.016684409
-0.016036819
-0.015050357
-0.013854262
-0.012556279
-0.011240594
-0.0099705218
-0.0088006572
-0.0077667897
-0.0068753571
-0.0061168812
-0.0054980543
-0.005052288
-0.0047774804
-0.0011983843
0.00033830579
-0.0018422616
-0.0036763151
-0.0042207674
-0.00021554305
0.0032067152
0.0016300621
-0.00082023496
-0.0041902495
-0.0043543567
-0.0042827867
-0.0023336
-0.00031686039
-0.00051959524
-0.004009525
-0.0053891842
-0.0051458778
-0.0026889162
0.0039859419
0.010142953
0.013507011
0.014080923
0.011455847
0.0088685572
0.0063693234
0.0042065734
0.0027802654
0.001704108
0.00097210991
-0.00029155546
-0.00203475
-0.0046166555
-0.0075400287
-0.010564629
-0.01331498
-0.015532233
-0.017066067
-0.017874005
-0.018001135
-0.017551825
-0.016663234
-0.015479557
-0.014127283
-0.012706662
-0.011299208
-0.0099758039
-0.0087858599
-0.0077386145
-0.0068172198
-0.0060251438
-0.0054114764
-0.0049666701
-0.0046900553
-0.0026565055
-6.9301453e-05
-0.00071639614
-0.0031822871
-0.0045080502
-0.0041398953
0.00035104538
0.0030028205
0.0016669694
-0.00095991813
-0.0039066771
-0.0040121533
-0.0039196809
-0.0021765011
-0.00037407157
-0.00052972793
-0.0037907504
-0.0039387584
-0.0026913839
0.0039220677
0.0096028401
0.01384442
0.014925775
0.013030572
0.0095906629
0.0067323318
0.0045244985
0.0028033008
0.0020794041
0.0014980553
0.00086100429
-0.00070063353
-0.0029987603
-0.0061057645
-0.0094341601
-0.012658419
-0.015412893
-0.017479624
-0.018762561
-0.019270867
-0.019091349
-0.018360623
-0.017234727
-0.015858658
-0.014350295
-0.012811547
-0.01133349
-0.009983399
-0.0087753467
-0.0076842377
-0.0067111223
-0.0059283899
-0.0053186835
-0.0048757151
-0.0045975867
-0.0018568283
-0.00062372741
0.0012426579
-0.0012518759
-0.0040450696
-0.0050280414
-0.0039355557
0.00070162234
0.0025508369
0.0016481704
-0.0011175522
-0.0034901171
-0.0036308449
-0.0035547317
-0.0020357037
-0.00042281761
-0.00053652549
-0.0020256083
-0.0023921661
0.0035662349
0.0089182758
0.013470761
0.015784192
0.014346218
0.011124855
0.0071943876
0.0045014008
0.0029256181
0.0020642368
0.0020314185
0.0017114412
0.00084623656
-0.0013568169
-0.0043506697
-0.0080023632
-0.011668717
-0.014990113
-0.017647565
-0.019481132
-0.020452894
-0.020623103
-0.020120108
-0.019107787
-0.017747584
-0.016176625
-0.014516999
-0.012885578
-0.011371999
-0.0099973026
-0.0087270232
-0.0075599892
-0.0066006476
-0.0058246419
-0.005220412
-0.0047793415
-0.0045001637
0.00011096982
0.00029919562
0.0015029118
0.0023264697
-0.0014550293
-0.0044224929
-0.0052762661
-0.0036213426
0.00078071332
0.0021964588
0.0015957594
-0.0011537612
-0.0030980624
-0.0032999005
-0.0031963525
-0.0018930398
-0.00045630825
-0.0005402353
-0.00095730048
0.0028910368
0.0078478342
0.012279506
0.016175022
0.015692397
0.012350684
0.0084814132
0.0046576747
0.0026480095
0.001958299
0.0021645582
0.0026724109
0.0021349836
0.00062663215
-0.0024503617
-0.0061843176
-0.010335591
-0.014226864
-0.017525446
-0.019982759
-0.021503165
-0.022109684
-0.021913969
-0.021081533
-0.019787517
-0.018187143
-0.016423751
-0.014644628
-0.012966121
-0.011419199
-0.0099583484
-0.0085805446
-0.0074320398
-0.0064820584
-0.0057153097
-0.0051164992
-0.0046777146
-0.0043978073
0.0022810094
0.0026335601
0.0027628207
0.0034648929
0.0029403548
-0.0015203417
-0.0043783435
-0.005268355
-0.0031510505
0.00064646456
0.0017641167
0.0013919565
-0.0011084298
-0.0027610313
-0.0029908032
-0.0028627486
-0.0017577062
-0.00048199015
-0.0005404563
0.0020553838
0.0054141767
0.010219111
0.015865886
0.016754887
0.013716333
0.0095234925
0.0054680211
0.0024288301
0.0014742347
0.0020896174
0.0032112447
0.0037315119
0.002344279
-3.8480416e-05
-0.0041393421
-0.0085909796
-0.013100692
-0.017072195
-0.020220758
-0.022375605
-0.023510025
-0.023709317
-0.023133606
-0.021967172
-0.020380668
-0.018539477
-0.016622882
-0.014781488
-0.013058049
-0.011394124
-0.0097854075
-0.0084307277
-0.0072944293
-0.0063579593
-0.0056001111
-0.0050071495
-0.0045708406
-0.0042906533
0.0014069676
0.005833653
0.005664046
0.0053053683
0.0046655008
0.0030060911
-0.001499444
-0.0039506111
-0.0048875853
-0.0025697393
0.00037929532
0.0014881392
0.0009907524
-0.00098960311
-0.0024875689
-0.0026939185
-0.0025629389
-0.0016304097
-0.00050263705
-0.0005385145
0.0024080577
0.0074761589
0.013678888
0.017427743
0.015092119
0.010591907
0.0062232548
0.0025222914
0.00090879284
0.0016957016
0.0035776895
0.0049046452
0.0046394902
0.002098731
-0.0014669659
-0.0065270687
-0.011542499
-0.016253294
-0.020152127
-0.023024094
-0.02478042
-0.025469257
-0.025236689
-0.024270231
-0.022752178
-0.020868031
-0.018831523
-0.016834248
-0.014932846
-0.013053167
-0.011190231
-0.0096089008
-0.0082696032
-0.007151357
-0.0062277326
-0.0054792896
-0.004892354
-0.0044589529
-0.0041787544
-0.00031294753
0.00132228
0.0078688618
0.0083115929
0.0074142301
0.0055500632
0.0028686216
-0.0013730725
-0.0032463871
-0.0043297816
-0.0021659058
0.00021553188
0.0011386965
0.00072131762
-0.00096081722
-0.0022325248
-0.002430488
-0.0022781876
-0.0014951656
-0.00052127247
-0.00052884622
0.0036197418
0.010130316
0.016977872
0.016150576
0.011686034
0.0068581864
0.0026816809
5.2300843e-05
0.00082891365
0.003763422
0.0061410337
0.0064667439
0.0050531117
0.0010915804
-0.00381235
-0.0096255976
-0.015004967
-0.019734942
-0.023404114
-0.025876804
-0.027154082
-0.027358868
-0.026675676
-0.025292018
-0.023410335
-0.021281022
-0.019140463
-0.017063834
-0.014956774
-0.012813607
-0.010981815
-0.0094191288
-0.0081030727
-0.0070019883
-0.0060916817
-0.0053528713
-0.0047724232
-0.0043421555
-0.0040622331
-0.00050755373
-0.0020163257
0.0025597334
0.0090213638
0.010081126
0.0087459428
0.0062342291
0.0027495749
-0.0010413993
-0.0028405694
-0.0036019278
-0.0019107805
0.00015098214
0.00080128783
0.00039722352
-0.00093746282
-0.0020232508
-0.0021844354
-0.0020223746
-0.0013781805
-0.00052372222
-0.00052086394
0.0056794921
0.014389797
0.016692027
0.012652579
0.0074558856
0.002650068
-0.00073507782
-0.001039014
0.0030340199
0.0073507345
0.0087363555
0.0074222004
0.0047059109
-0.0010923386
-0.0070667906
-0.013387706
-0.018915624
-0.023472132
-0.026756551
-0.028723064
-0.029465393
-0.029157341
-0.027986136
-0.026163389
-0.023977368
-0.021715203
-0.019472062
-0.017128104
-0.01467677
-0.012567546
-0.010757666
-0.0092240732
-0.0079300004
-0.0068466531
-0.0059498832
-0.0052212013
-0.0046475216
-0.004220586
-0.0039411205
0.00087705628
-0.0043572511
-0.0024063246
0.0043327316
0.009550454
0.010651354
0.0092903033
0.0067230886
0.0026705338
-0.00036994406
-0.0020755393
-0.0029766981
-0.001591353
6.2524459e-05
0.0005118133
0.00017059817
-0.00093435057
-0.0018310685
-0.0019677807
-0.0017868277
-0.0012506405
-0.0005268877
-0.00050137477
0.0098814181
0.015927867
0.01331189
0.0081908387
0.0029635109
-0.0014999047
-0.0029636669
0.00044460377
0.0078672031
0.010853851
0.010697411
0.0075833753
0.0027389446
-0.0043880878
-0.011110063
-0.017722603
-0.023182609
-0.027376606
-0.03013644
-0.031520082
-0.031686213
-0.030814751
-0.029120158
-0.026924058
-0.024571529
-0.02217855
-0.019591945
-0.016803097
-0.014386799
-0.012302645
-0.010528389
-0.0090221949
-0.0077507889
-0.0066854034
-0.0058027588
-0.0050846074
-0.0045176935
-0.0040941854
-0.0038156886
0.0040936353
-0.0036683972
-0.0065008175
-0.0021511215
0.0054481046
0.0093056804
0.010335225
0.0092553547
0.0068874524
0.0028115955
0.00040669238
-0.0013279614
-0.0024446601
-0.0013471174
-3.5340093e-05
0.00026476879
-1.5969463e-05
-0.00095167246
-0.0016767976
-0.0017735777
-0.0015762376
-0.001145138
-0.00050984728
-0.00048524279
0.013181107
0.013093216
0.0086633972
0.0029629337
-0.0025626149
-0.0050727073
-0.0025381306
0.0045540948
0.012083868
0.01374074
0.011669276
0.0060374341
-0.00065603768
-0.0087303622
-0.015909665
-0.022538862
-0.027699084
-0.031355459
-0.033487171
-0.034231148
-0.033755258
-0.032267902
-0.030120902
-0.027719883
-0.025203341
-0.02237395
-0.019217852
-0.01646257
-0.014074112
-0.01203277
-0.010291948
-0.0088139625
-0.0075655329
-0.006518787
-0.0056507461
-0.0049428746
-0.0043826099
-0.003963476
-0.0036860443
0.0091514663
-0.00096205128
-0.0075236135
-0.0073185339
-0.0011779641
0.0056526151
0.0086538032
0.0097608474
0.0089317848
0.0067830092
0.0032531987
0.00073099455
-0.00098632753
-0.001876574
-0.0011344968
-0.00011896653
7.8108772e-05
-0.00019756977
-0.00095131887
-0.0015364139
-0.0015928161
-0.001403747
-0.0010359041
-0.00049755935
-0.00045919972
0.011316258
0.008056913
0.0019322014
-0.0051424281
-0.0093325704
-0.0061484329
0.0018279127
0.011202967
0.016132095
0.015449488
0.010722347
0.0026768695
-0.0052377393
-0.014011971
-0.021354915
-0.027713622
-0.032349078
-0.035332624
-0.036760946
-0.036781855
-0.035590299
-0.033562015
-0.031167573
-0.028566
-0.025501082
-0.021947485
-0.01881989
-0.016094452
-0.013756541
-0.011755277
-0.010048874
-0.008599463
-0.0073749041
-0.0063472637
-0.005493379
-0.0047953431
-0.0042431919
-0.003828629
-0.0035524067
0.0087786033
0.0038608504
-0.0050932356
-0.010216878
-0.0074510214
0.00024088383
0.005294671
0.0078947022
0.0090195222
0.0085829694
0.0065168982
0.0033871983
0.00079512507
-0.00063931212
-0.0014488178
-0.00094982048
-0.00020515022
-0.00010360973
-0.0002908911
-0.00096530985
-0.0014163074
-0.0014459226
-0.0012456645
-0.00094756241
-0.00047307666
-0.00043591148
0.0064586435
0.00043394422
-0.0072750875
-0.013784384
-0.012141324
-0.0024836159
0.009494666
0.01770451
0.018948328
0.014840353
0.0074716104
-0.0021260853
-0.01092381
-0.020079161
-0.027284395
-0.033097319
-0.037031817
-0.039246681
-0.039867846
-0.039067302