/*--------------------------------*- C++ -*----------------------------------*\
| =========                 |                                                 |
| \\      /  F ield         | OpenFOAM: The Open Source CFD Toolbox           |
|  \\    /   O peration     | Version:  5.0                                   |
|   \\  /    A nd           | Web:      www.OpenFOAM.org                      |
|    \\/     M anipulation  |                                                 |
\*---------------------------------------------------------------------------*/
FoamFile
{
    version     2.0;
    format      ascii;
    class       surfaceScalarField;
    location    "60";
    object      phi;
}
// * * * * * * * * * * * * * * * * * * * * * * * * * * * * * * * * * * * * * //

dimensions      [0 3 -1 0 0 0 0];

internalField   nonuniform List<scalar> 
18820
(
0.00077331957
-1.3458113
0.0015055099
-1.2586338
0.00072061671
-1.3465319
0.0022058315
-1.1772256
0.0014027973
-1.259316
0.0006766764
-1.3472086
0.0028817644
-1.1011719
0.0020551972
-1.177878
0.0013163293
-1.2599557
0.00062728777
-1.3478359
0.0035393257
-1.0301002
0.0026850473
-1.1018018
0.0019265786
-1.1784883
0.0012187546
-1.2605471
0.00058280822
-1.3484187
0.0041833983
-0.9636602
0.0032984664
-1.0307136
0.002513907
-1.1023891
0.0017804377
-1.17905
0.0011305156
-1.2610948
0.0005394776
-1.3489582
0.0048178047
-0.90153422
0.0039006693
-0.9642624
0.0030840678
-1.0312838
0.0023176661
-1.1029263
0.0016473981
-1.1795669
0.0010445363
-1.2615999
0.00050023551
-1.3494584
0.0054455359
-0.84342992
0.0044959853
-0.90212953
0.0036422322
-0.96482056
0.0028354611
-1.0318016
0.002137374
-1.1034163
0.0015176578
-1.18004
0.00096660164
-1.2620663
0.0004652025
-1.3499236
0.0060686004
-0.78907741
0.005088053
-0.84402198
0.0041928445
-0.90268014
0.0033386918
-0.96532379
0.0026042942
-1.0322685
0.0019613113
-1.10386
0.0013998675
-1.1804732
0.00089716068
-1.2624982
0.00043481994
-1.3503584
0.0066882482
-0.73822496
0.0056797046
-0.78966906
0.0047400011
-0.84456914
0.0038317365
-0.90317319
0.003052148
-0.96577165
0.0023779691
-1.0326851
0.0018010568
-1.1042612
0.001295247
-1.1808713
0.00083720487
-1.2629006
0.0004090443
-1.3507675
0.0073045325
-0.69064318
0.0062728602
-0.73881811
0.0052873561
-0.79021642
0.0043190536
-0.84505646
0.0034848179
-0.90360586
0.0027701628
-0.96616384
0.0021711795
-1.0330553
0.0016591977
-1.1046251
0.001205563
-1.1812397
0.00078673501
-1.2632783
0.00038753841
-1.351155
0.0079172779
-0.64611684
0.0068682525
-0.69123857
0.0058379125
-0.73936867
0.0048051587
-0.79070252
0.0039066444
-0.84547828
0.0031405501
-0.90397625
0.0025110753
-0.96650374
0.0019886256
-1.0333847
0.0015385876
-1.1049581
0.0011309585
-1.1815839
0.00074510734
-1.2636359
0.00036972521
-1.3515247
0.0085246035
-0.60444737
0.0074657017
-0.64671429
0.0063939643
-0.69179462
0.0052944602
-0.73985797
0.0043225233
-0.7911184
0.0034922642
-0.84583
0.002821938
-0.90428711
0.0022827514
-0.96679786
0.001834735
-1.0336808
0.0014396604
-1.1052668
0.0010704305
-1.1819092
0.00071110323
-1.2639773
0.00035485643
-1.3518796
0.0091255716
-0.56545086
0.0080634277
-0.60504509
0.0069568875
-0.64727721
0.0057912722
-0.69229143
0.0047378459
-0.74027329
0.0038291297
-0.79145527
0.0031053447
-0.8461134
0.002541197
-0.90454555
0.0020920406
-0.96705517
0.0017105113
-1.0339517
0.0013610278
-1.1055574
0.0010219409
-1.1822201
0.00068309216
-1.2643055
0.00034211936
-1.3522217
0.009716811
-0.52895523
0.0086593575
-0.56604679
0.0075270901
-0.6056153
0.0062998472
-0.64778579
0.0051586468
-0.69271223
0.0041556658
-0.74059983
0.0033634444
-0.79171337
0.0027637513
-0.84633596
0.0023088683
-0.90476238
0.0019409336
-0.96728559
0.0016142339
-1.0342049
0.0012996949
-1.1058352
0.0009828462
-1.1825198
0.00065943483
-1.2646228
0.00033081132
-1.3525525
0.010297488
-0.49480059
0.0092501404
-0.52954601
0.0081038842
-0.56662359
0.0068245966
-0.60614005
0.0055918798
-0.64821902
0.0044778737
-0.69303444
0.0035990972
-0.74083548
0.0029503389
-0.79189995
0.0024835622
-0.84651065
0.0021285473
-0.90495
0.0018273683
-0.96749872
0.0015417503
-1.0344469
0.0012518847
-1.1061042
0.00095071514
-1.1828111
0.00063880158
-1.2649308
0.00032035765
-1.3528729
0.010863568
-0.46283966
0.0098326098
-0.49538306
0.0086851995
-0.53012733
0.0073682894
-0.56716728
0.0060447211
-0.60659289
0.0048027767
-0.64854392
0.0038167925
-0.69325214
0.0031014953
-0.74098664
0.0026140953
-0.79203049
0.0022707295
-0.84665284
0.0019977826
-0.90512041
0.001745542
-0.96770251
0.0014877966
-1.0346829
0.0012142403
-1.1063678
0.00092358378
-1.1830959
0.00062001746
-1.2652305
0.00031023275
-1.3531831
0.01141354
-0.43292722
0.010403332
-0.46341038
0.009268739
-0.4959666
0.007932298
-0.53069134
0.0065233011
-0.56764586
0.005136714
-0.60692682
0.0040197281
-0.64874686
0.0032173012
-0.69336794
0.0026988718
-0.74107142
0.0023643675
-0.79212413
0.0021223183
-0.84677737
0.00190835
-0.90528322
0.0016880608
-0.96790278
0.0014478203
-1.0349164
0.0011840175
-1.1066282
0.00089954399
-1.1833754
0.00060197349
-1.2655222
0.00029998813
-1.3534831
0.01194377
-0.40494475
0.010956368
-0.43348025
0.0098503431
-0.46399198
0.0085164313
-0.49655073
0.0070327625
-0.5312008
0.0054870875
-0.56799623
0.0042104808
-0.60711758
0.0032939591
-0.64882352
0.0027305413
-0.69339961
0.0024057407
-0.74111279
0.0021974888
-0.7921993
0.0020271749
-0.8468962
0.0018498319
-0.90544499
0.0016489878
-0.96810395
0.0014182428
-1.0351507
0.0011584433
-1.1068871
0.0008768086
-1.1836503
0.00058375769
-1.265806
0.00028929922
-1.3537724
0.012450191
-0.37874783
0.011489873
-0.40547825
0.01042623
-0.43405614
0.0091187195
-0.46459427
0.0075758927
-0.49709386
0.0058626183
-0.53157633
0.0043950769
-0.56818083
0.0033293415
-0.60715296
0.0027011803
-0.64879415
0.0023816167
-0.69337549
0.0022161792
-0.74113148
0.0020986204
-0.79227074
0.0019698976
-0.84701626
0.0018149349
-0.90561094
0.0016240668
-0.96830977
0.0013953199
-1.0353875
0.0011349644
-1.1071452
0.0008539347
-1.1839204
0.00056466669
-1.2660813
0.00027795502
-1.3540503
0.012932669
-0.35425824
0.011992995
-0.37925095
0.010990484
-0.40604251
0.0097387128
-0.43467613
0.008154965
-0.46517334
0.0062724038
-0.49750365
0.0045822691
-0.53176352
0.0033245119
-0.568176
0.002607721
-0.6070595
0.0022870748
-0.64869961
0.0021701931
-0.6933295
0.002112923
-0.74114578
0.0020431099
-0.79234395
0.0019425795
-0.84714391
0.0017992029
-0.90578607
0.0016083949
-0.96852285
0.0013755592
-1.0356281
0.0011115147
-1.1074028
0.0008297822
-1.1841855
0.00054418981
-1.2663476
0.0002658021
-1.3543161
0.013385447
-0.33131778
0.012469647
-0.35473489
0.011536013
-0.37979648
0.010371172
-0.40667497
0.0087703423
-0.43529151
0.0067284431
-0.46562938
0.0047818141
-0.49770319
0.0032797972
-0.53171881
0.0024474604
-0.56801574
0.0021202574
-0.60689268
0.0020603888
-0.64858981
0.0020765084
-0.69329309
0.0020690062
-0.74117168
0.0020300303
-0.79243141
0.0019422536
-0.84728696
0.0017959951
-0.90597367
0.0015971516
-0.96874444
0.0013561297
-1.0358727
0.0010864168
-1.1076595
0.00080351786
-1.1844449
0.00052202539
-1.2666038
0.00025275938
-1.3545689
0.013805889
-0.30989032
0.012909052
-0.33175719
0.012059254
-0.35525813
0.011014809
-0.38044012
0.0094253431
-0.40732997
0.0072356757
-0.43579874
0.0050035299
-0.4658511
0.0032028651
-0.49762626
0.0022147081
-0.53148605
0.0018746602
-0.56777014
0.001885135
-0.60671743
0.0019919279
-0.64850523
0.0020621028
-0.69328618
0.0020845659
-0.74122621
0.0020558344
-0.79254499
0.0019577884
-0.84744875
0.0017981853
-0.90617471
0.0015865631
-0.96897487
0.0013347342
-1.0361211
0.0010584289
-1.1079144
0.00077459289
-1.1846974
0.00049803714
-1.2668491
0.00023882756
-1.3548077
0.014189405
-0.28980398
0.013313538
-0.31029481
0.012545188
-0.33224312
0.011662937
-0.35590626
0.010121834
-0.38113661
0.0078089981
-0.40790329
0.0052567516
-0.43605196
0.0030977665
-0.465746
0.0019063813
-0.49731793
0.0015409423
-0.53115234
0.0016373616
-0.56752237
0.0018574071
-0.60658291
0.0020254383
-0.64846856
0.0021127015
-0.69331432
0.0021465794
-0.74131696
0.0020957034
-0.7926829
0.0019775781
-0.84762814
0.0018010064
-0.90638915
0.0015737468
-0.96921388
0.0013096747
-1.0363723
0.0010267042
-1.1081665
0.00074270036
-1.1849421
0.0004721974
-1.2670824
0.00022406167
-1.3550318
0.014525819
-0.27105041
0.01368443
-0.29017487
0.012989154
-0.31073877
0.012305336
-0.33288552
0.010855428
-0.35663985
0.008453604
-0.38178122
0.005560951
-0.40820749
0.0029759089
-0.43593011
0.0015098395
-0.46534946
0.0011102053
-0.4968872
0.0013092037
-0.53082418
0.00167025
-0.56733521
0.0019562946
-0.60651376
0.0021190239
-0.64847489
0.0022116766
-0.69337942
0.0022097619
-0.74143102
0.0021340306
-0.79283935
0.0019971733
-0.84782431
0.0018014693
-0.90661687
0.0015565866
-0.9694608
0.00127974
-1.0366253
0.00099073165
-1.1084145
0.00070775167
-1.1851777
0.00044458128
-1.267303
0.00020855735
-1.3552404
0.014820353
-0.25346695
0.014009289
-0.27137527
0.013387882
-0.2905736
0.012939856
-0.31137329
0.011631383
-0.33366147
0.0091782784
-0.35736453
0.0059252115
-0.38214548
0.0028412563
-0.40807284
0.0010339725
-0.43545424
0.00056341259
-0.46480267
0.00089005537
-0.49646805
0.0014302007
-0.53058413
0.001857367
-0.56723628
0.0021087278
-0.60650347
0.0022524069
-0.64851562
0.0022977695
-0.69346743
0.0022645812
-0.74156157
0.0021719142
-0.79301409
0.0020150133
-0.84803785
0.0017972359
-0.90685752
0.0015334589
-0.96971451
0.0012441223
-1.0368787
0.00095028833
-1.108657
0.00066985072
-1.1854029
0.0004153502
-1.2675097
0.00019243796
-1.3554328
0.015048103
-0.23707247
0.014310792
-0.25376846
0.013721092
-0.27170848
0.013551926
-0.29118567
0.0124568
-0.31219871
0.0099955413
-0.33447874
0.0063670666
-0.35780638
0.0027027768
-0.382007
0.00045788177
-0.40749675
-9.7625582e-05
-0.4347932
0.00036666292
-0.46427927
0.0011309325
-0.49616878
0.0017372733
-0.53046404
0.0020897144
-0.56721727
0.0022782644
-0.60652933
0.002361485
-0.64857933
0.0023678925
-0.69357074
0.0023219336
-0.74171159
0.0022107389
-0.79320982
0.0020285786
-0.8482692
0.0017861913
-0.90711025
0.0015031634
-0.96997356
0.00120238
-1.0371308
0.00090540139
-1.1088926
0.00062921711
-1.1856168
0.00038473979
-1.2677021
0.00017584689
-1.3556086
0.015221738
-0.22168351
0.014545633
-0.23730731
0.014015784
-0.25406315
0.014133263
-0.27228982
0.013307931
-0.2920368
0.010902122
-0.31310529
0.0069021744
-0.33501384
0.0025724124
-0.35767602
-0.00020533689
-0.38134378
-0.00092337004
-0.406671
-0.00026861307
-0.43415793
0.00077523133
-0.46392357
0.0016003032
-0.49603181
0.0020718436
-0.53044617
0.0023012188
-0.56724022
0.0024074052
-0.60657525
0.0024466503
-0.64865809
0.002444825
-0.69369363
0.0023845583
-0.74188541
0.0022465871
-0.79342783
0.0020349819
-0.84851799
0.0017666145
-0.9073737
0.001464926
-0.9702361
0.0011544004
-1.0373798
0.00085629321
-1.1091197
0.00058616756
-1.1858182
0.00035302759
-1.2678792
0.00015893628
-1.3557676
0.015323324
-0.20730909
0.014765402
-0.22190327
0.014228078
-0.23751961
0.014692381
-0.25462227
0.014229556
-0.27321144
0.011902308
-0.29303698
0.0075305192
-0.31373363
0.0024574403
-0.33489887
-0.00099602402
-0.35688533
-0.0018821873
-0.38038496
-0.0010368465
-0.40590277
0.00035498091
-0.43373768
0.001463072
-0.46378634
0.0020703081
-0.49603027
0.0023360443
-0.53048099
0.0024468127
-0.56727963
0.0025050552
-0.60663365
0.0025399314
-0.6487532
0.0025326738
-0.69384174
0.0024464268
-0.74208525
0.0022756826
-0.79366853
0.0020318767
-0.84878325
0.0017372475
-0.90764603
0.0014183774
-0.97050008
0.0011003435
-1.0376239
0.00080334473
-1.1093369
0.00054110097
-1.1860063
0.00032051278
-1.2680408
0.00014186317
-1.3559094
0.015352761
-0.19386393
0.014932133
-0.20747583
0.014400709
-0.2220759
0.015219802
-0.23804703
0.01516868
-0.25556139
0.013026352
-0.27433549
0.0082894608
-0.29379593
0.0023617543
-0.31363795
-0.0018791248
-0.33401577
-0.0030240939
-0.35574342
-0.0019435789
-0.37947823
-0.0001356446
-0.40541214
0.0013215599
-0.43359616
0.0021060607
-0.46382209
0.0024024234
-0.49609665
0.0024924238
-0.5305266
0.0025459629
-0.56732054
0.0026051663
-0.60669889
0.0026483833
-0.64886891
0.0026212125
-0.69401653
0.0025027323
-0.7423123
0.0022951029
-0.79393176
0.0020173218
-0.84906332
0.0016972828
-0.90792493
0.0013635152
-0.97076325
0.0010406009
-1.0378611
0.00074706461
-1.1095428
0.0004944594
-1.1861802
0.00028750926
-1.2681865
0.0001247829
-1.3560342
0.013366419
-0.21293409
0.015082491
-0.19401428
0.014503926
-0.20757904
0.015727678
-0.22258378
0.016182746
-0.23906109
0.014223193
-0.25675823
0.0091587732
-0.2752048
0.0023094544
-0.29374363
-0.0028853153
-0.31263176
-0.0043356345
-0.33270423
-0.0030204076
-0.3546666
-0.00069591843
-0.37891795
0.0012031782
-0.40529376
0.0021886848
-0.43367879
0.0025157621
-0.46393543
0.0025569853
-0.49616121
0.0025716708
-0.53055231
0.0026364778
-0.56735185
0.0027235891
-0.60677409
0.002763299
-0.64901099
0.0027096541
-0.69422345
0.0025514381
-0.74256863
0.0023020075
-0.79421644
0.0019897633
-0.8493558
0.001646401
-0.90820782
0.0013006657
-0.97102331
0.00097575836
-1.0380898
0.00068803759
-1.1097364
0.0004467166
-1.1863395
0.00025433014
-1.268316
0.00010784433
-1.3561421
0.01157253
-0.21242194
0.013289747
-0.21114135
0.014604079
-0.19411444
0.016210563
-0.20806193
0.017221538
-0.22362257
0.015576911
-0.24041481
0.01017286
-0.25777232
0.0022791692
-0.27517451
-0.0040078306
-0.29262111
-0.0058499872
-0.31111741
-0.0042585595
-0.33146608
-0.0013387124
-0.3540238
0.001102256
-0.37881703
0.0023553204
-0.4054604
0.0026917245
-0.43385475
0.0026492241
-0.46402767
0.0025829292
-0.49617247
0.0026269158
-0.53054275
0.0027491332
-0.56737739
0.0028629774
-0.60687377
0.0028882461
-0.64918958
0.0027950178
-0.69446703
0.0025873141
-0.74285394
0.002293418
-0.7945201
0.0019483261
-0.84965773
0.0015847577
-0.90849191
0.0012304455
-0.971278
0.00090652856
-1.0383083
0.00062691071
-1.1099166
0.00039834822
-1.1864835
0.00022127783
-1.2684294
9.118651e-05
-1.3562332
0.009524312
-0.20978977
0.011600249
-0.21073244
0.012823458
-0.20936072
0.016700809
-0.19460468
0.018318676
-0.20915906
0.016990348
-0.22503601
0.011311778
-0.24155373
0.0023250378
-0.25781819
-0.0052524211
-0.27392992
-0.007563109
-0.29090799
-0.0056985069
-0.30967746
-0.0020647849
-0.33074001
0.0010313124
-0.35395286
0.0026010446
-0.37906276
0.0029612358
-0.40572991
0.002783224
-0.43398875
0.0025837593
-0.4640285
0.0025705343
-0.49611609
0.0027165574
-0.53051017
0.0029097056
-0.56742412
0.003030498
-0.60701602
0.0030198864
-0.64941445
0.0028688653
-0.69474858
0.0026051639
-0.74316568
0.0022676046
-0.79483937
0.0018928454
-0.84996582
0.0015129346
-0.9087744
0.0011536714
-0.97152514
0.00083372175
-1.0385151
0.00056434089
-1.1100826
0.00034983498
-1.186612
0.00018863871
-1.2685269
7.4936474e-05
-1.3563082
0.0070444991
-0.20514581
0.0096900105
-0.20787953
0.011338182
-0.20924716
0.01552774
-0.20818765
0.019406388
-0.1956924
0.018557323
-0.21072604
0.012581991
-0.22630622
0.0023822409
-0.24161093
-0.0066221457
-0.25644846
-0.0094844754
-0.27200856
-0.0073182819
-0.28928821
-0.0028940074
-0.30884824
0.0010104202
-0.33071911
0.0029817745
-0.35433359
0.0033390655
-0.37944059
0.0029821269
-0.40592881
0.0025902739
-0.43399527
0.0024728416
-0.46393081
0.0026193572
-0.49601889
0.0028939839
-0.53049445
0.0031278912
-0.56752152
0.0032194895
-0.60721563
0.0031420926
-0.64968768
0.0029216724
-0.69506509
0.0026019345
-0.74350001
0.0022238708
-0.7951704
0.0018237892
-0.85027667
0.0014318257
-0.90905255
0.0010713172
-0.97176274
0.00075819546
-1.038709
0.00050099485
-1.1102337
0.00030163258
-1.186725
0.00015667825
-1.2686086
5.9206002e-05
-1.3563674
0.004062538
-0.19920427
0.0074769757
-0.20293278
0.01026051
-0.20680186
0.014891432
-0.20861086
0.019021592
-0.20780286
0.020061889
-0.19719696
0.013929205
-0.21207325
0.002537769
-0.22646175
-0.0081299244
-0.24010315
-0.011619403
-0.25431353
-0.0091651752
-0.27016166
-0.003809049
-0.28837317
0.001021779
-0.30885959
0.0034794238
-0.33121676
0.0038730314
-0.35486755
0.0032710677
-0.37972953
0.0026047864
-0.40594332
0.0023398122
-0.43386224
0.0024490965
-0.46376055
0.0028051996
-0.49593011
0.0031693856
-0.53053594
0.0033861736
-0.5676882
0.0034021709
-0.6074757
0.0032395747
-0.65000558
0.0029487742
-0.69541193
0.0025761031
-0.74385225
0.0021624862
-0.7955091
0.0017421048
-0.85058695
0.0013425668
-0.9093238
0.00098444583
-0.97198899
0.00068082751
-1.0388888
0.00043752488
-1.1103696
0.00025415303
-1.1868225
0.00012563539
-1.2686751
4.4092799e-05
-1.3564115
0.00059988407
-0.19273175
0.0048469779
-0.19657427
0.0096226621
-0.20229493
0.014954835
-0.20686526
0.019031413
-0.20862068
0.019929634
-0.2076706
0.015154029
-0.19842179
0.0028224628
-0.21235795
-0.0097608925
-0.22483078
-0.013954583
-0.23776797
-0.011202118
-0.25227659
-0.0048575235
-0.26911319
0.0011094251
-0.28846082
0.0041590883
-0.30953926
0.0045578404
-0.33190157
0.003675934
-0.35527242
0.0026444004
-0.37976914
0.0021542736
-0.40575779
0.0021959031
-0.43360904
0.002627218
-0.46358257
0.0031417857
-0.49590251
0.0035122058
-0.53066198
0.0036448976
-0.56793093
0.0035567158
-0.60779284
0.0033062823
-0.65036309
0.0029476697
-0.6957835
0.002527712
-0.74421747
0.0020844488
-0.79585144
0.0016491009
-0.85089348
0.0012464346
-0.90958579
0.00089416706
-0.97220233
0.00060248034
-1.0390538
0.00037453022
-1.11049
0.00020778871
-1.1869046
9.5720166e-05
-1.2687267
2.9683662e-05
-1.3564412
-0.0032059457
-0.18649956
0.0017032169
-0.18958799
0.0092852526
-0.19623686
0.015716355
-0.20305645
0.019416514
-0.20725036
0.019806634
-0.20849768
0.014668611
-0.20718519
0.0030353288
-0.19863465
-0.01145515
-0.21066369
-0.016499565
-0.2222858
-0.013454832
-0.23551526
-0.0059925243
-0.25114159
0.0012342758
-0.26923804
0.0049928085
-0.28929454
0.0054613851
-0.3104428
0.0042134587
-0.3324391
0.0027196262
-0.35534765
0.0019093545
-0.37952422
0.0018505778
-0.40541246
0.0023376454
-0.43331947
0.0030300579
-0.46347084
0.0035874193
-0.49597772
0.0038661694
-0.53088325
0.0038715795
-0.56824579
0.0036730817
-0.60815964
0.0033368388
-0.65075226
0.002917678
-0.69617346
0.0024578031
-0.74459083
0.0019912975
-0.79619364
0.0015462957
-0.85119335
0.0011447926
-0.90983642
0.00080158257
-0.97240143
0.00052398219
-1.0392032
0.00031257782
-1.1105948
0.00016287231
-1.1869718
6.7117803e-05
-1.2687641
1.6059106e-05
-1.3564572
-0.007091646
-0.18130022
-0.0019597293
-0.18283662
0.0089987758
-0.18930151
0.017100791
-0.1976213
0.020231355
-0.20387129
0.019577911
-0.20702164
0.013837902
-0.20766697
0.0014116244
-0.20556148
-0.013260401
-0.1968294
-0.019391316
-0.20777194
-0.015929733
-0.2198109
-0.0072698196
-0.23423796
0.001430884
-0.2513382
0.0060450497
-0.27029028
0.0065537867
-0.29038694
0.0049220248
-0.31115137
0.0028472251
-0.3325667
0.001602073
-0.35504036
0.0013900247
-0.37906367
0.0019249151
-0.40499973
0.0028142321
-0.43310364
0.0036010179
-0.46348444
0.0040622619
-0.49617381
0.0041841568
-0.53119583
0.0040498635
-0.56862257
0.0037433215
-0.60856613
0.0033308537
-0.65116543
0.0028603806
-0.69657604
0.0023683313
-0.74496786
0.0018848601
-0.7965322
0.0014353313
-0.85148388
0.0010390029
-0.91007384
0.00070777616
-0.97258523
0.00044610534
-1.0393367
0.00025216853
-1.1106841
0.00011971521
-1.1870244
3.9985484e-05
-1.268788
3.3250823e-06
-1.3564606
-0.010730192
-0.17787707
-0.0059938241
-0.17726613
0.008451288
-0.18228913
0.018918894
-0.19111961
0.021536481
-0.19892642
0.01942175
-0.20371513
0.012508573
-0.20569231
-0.00092543568
-0.20532991
-0.016410413
-0.20241147
-0.022479017
-0.1937417
-0.018622958
-0.20507871
-0.0086541718
-0.21842655
0.0016728005
-0.23447988
0.0072794523
-0.2525726
0.0079199269
-0.27165642
0.0057983096
-0.29126322
0.003044064
-0.31134821
0.0012290604
-0.33219368
0.00078064095
-0.35443098
0.0013739126
-0.37851267
0.0024738571
-0.40465935
0.0035414871
-0.43304411
0.0042302095
-0.46365238
0.0044962512
-0.49648591
0.004439277
-0.53158524
0.0041679535
-0.5690472
0.0037659653
-0.60900124
0.0032899402
-0.65159499
0.0027782748
-0.69698598
0.0022615771
-0.74534458
0.0017671093
-0.79686398
0.0013178628
-0.85176274
0.00093042812
-0.91029649
0.00061376001
-0.97275288
0.00036955791
-1.0394541
0.00019374908
-1.1107581
7.8571125e-05
-1.187063
1.4418233e-05
-1.2687991
-8.5004704e-06
-1.3564521
-0.17679152
-0.013872886
-0.01011377
-0.17375713
0.0073040421
-0.17611888
0.020823325
-0.18419356
0.023287976
-0.19287111
0.019484352
-0.19898903
0.010775604
-0.20198216
-0.0040418282
-0.20257592
-0.019658831
-0.20208149
-0.026058488
-0.198832
-0.021322665
-0.19104199
-0.010133146
-0.20359974
0.0019821056
-0.21873585
0.0087549028
-0.23595533
0.0095046374
-0.25415731
0.0068965049
-0.27275462
0.0033184569
-0.29153762
0.00080223813
-0.31092139
2.1996619e-05
-0.33143504
0.0006377466
-0.35369481
0.0019969473
-0.37803576
0.0033958807
-0.40451375
0.0043648905
-0.43317879
0.0048106592
-0.46396679
0.0048457875
-0.49689242
0.0046137728
-0.53203106
0.0042234035
-0.56950464
0.0037444798
-0.60945578
0.0032183165
-0.65203504
0.0026744454
-0.69739885
0.0021399441
-0.74571741
0.0016400327
-0.79718615
0.0011955345
-0.85202785
0.00082035073
-0.91050308
0.00052048922
-0.97290381
0.00029497308
-1.0395554
0.00013769171
-1.1108172
3.9583101e-05
-1.1870881
-9.4945629e-06
-1.2687981
-1.9673246e-05
-1.3564324
-0.17285683
-0.014048464
-0.17822231
-0.016388137
0.0052737597
-0.17172685
0.022311086
-0.17760664
0.025302892
-0.18620848
0.019864205
-0.19325096
0.0088545791
-0.197068
-0.007867757
-0.19815623
-0.023048636
-0.19918611
-0.028601262
-0.19953872
-0.024806532
-0.19534813
-0.011457185
-0.18971795
0.002336102
-0.20395374
0.010438162
-0.22041911
0.011392992
-0.23784368
0.0081957672
-0.25545657
0.0036959947
-0.27313215
0.00030816339
-0.29104354
-0.00093240425
-0.30996699
-0.00027615447
-0.33052114
0.0013637316
-0.3530616
0.0031438454
-0.37778372
0.0044673913
-0.40461625
0.0051317246
-0.43349986
0.0052761517
-0.46439716
0.0050862593
-0.4973649
0.0047053049
-0.53251296
0.0042225705
-0.56998273
0.0036849816
-0.60992244
0.0031200766
-0.65248067
0.0025519841
-0.69781089
0.0020058359
-0.74608322
0.0015055621
-0.79749618
0.0010699372
-0.85227744
0.00070999822
-0.91069259
0.00042881904
-0.97303766
0.00022289619
-1.0396406
8.4306304e-05
-1.110862
3.0356232e-06
-1.1871007
-3.1865347e-05
-1.268786
-2.9930325e-05
-1.3564024
-0.16987065
0.0022875865
-0.17471215
-0.017558617
-0.18192093
-0.018342126
0.022797229
-0.17221299
0.027262232
-0.17956598
0.020597791
-0.18694206
0.0070159412
-0.19141232
-0.012129622
-0.19280614
-0.026675008
-0.19452986
-0.030361875
-0.1974255
-0.026711349
-0.1976339
-0.014584371
-0.19222095
0.0028910358
-0.19027289
0.012330997
-0.20584657
0.013521539
-0.22254766
0.0097457708
-0.23939369
0.0041861701
-0.25594675
-0.00024398321
-0.27258001
-0.0020676198
-0.28990833
-0.0014584943
-0.30878465
0.0005568312
-0.32971424
0.0027884713
-0.35270622
0.0045290195
-0.37784535
0.0054670971
-0.40495162
0.0057423679
-0.43396608
0.0055956634
-0.46490656
0.0052169136
-0.49787651
0.0047241502
-0.53301454
0.0041746185
-0.57047237
0.0035936736
-0.61039604
0.0029994712
-0.65292815
0.0024137557
-0.69821881
0.0018614742
-0.74643913
0.0013655877
-0.79779183
0.00094255035
-0.85250999
0.00060048757
-0.91086426
0.00033952332
-0.97315428
0.00015379674
-1.0397101
3.3847989e-05
-1.1108928
-3.1328864e-05
-1.1871012
-5.2481552e-05
-1.2687634
-3.937971e-05
-1.3563631
-0.16887434
0.021800915
-0.17077463
-0.0016499365
-0.17880773
-0.020671808
-0.18715873
-0.019892056
0.028740401
-0.17369116
0.021618289
-0.18058648
0.0055335849
-0.18545971
-0.016403732
-0.18713821
-0.030509689
-0.18897146
-0.031831057
-0.19306068
-0.027096387
-0.19704046
-0.016246864
-0.19597141
0.0011785423
-0.19050845
0.014481153
-0.19242304
0.015964426
-0.20828946
0.011524443
-0.22432633
0.0047958866
-0.2400034
-0.00084366593
-0.25534707
-0.0034254959
-0.27122213
-0.0028736496
-0.28849317
-0.00048331447
-0.3077445
0.0023048812
-0.32923065
0.0045546206
-0.35273183
0.0058254501
-0.3782037
0.0062570156
-0.40546627
0.0061545849
-0.434525
0.0057667915
-0.46545644
0.0052515534
-0.49840391
0.0046839447
-0.53352387
0.004089393
-0.57096809
0.0034767785
-0.61087335
0.0028601839
-0.65337458
0.0022623949
-0.69861973
0.0017090058
-0.74678255
0.0012218328
-0.79807111
0.00081480922
-0.85272431
0.00049284856
-0.91101758
0.00025325748
-0.97325375
8.8054844e-05
-1.0397643
-1.349237e-05
-1.1109106
-6.3109373e-05
-1.1870906
-7.1448514e-05
-1.2687313
-4.7924881e-05
-1.3563151
-0.16942319
0.02928925
-0.16801041
0.019036699
-0.17424595
-0.0062117222
-0.18433883
-0.023491712
-0.1930835
-0.021215195
0.022739874
-0.17481274
0.0046556764
-0.17970857
-0.02016211
-0.18170133
-0.034287063
-0.18336084
-0.033254046
-0.18754847
-0.02625973
-0.19389734
-0.015824475
-0.19746285
0.00034891069
-0.19514178
0.014931484
-0.19095878
0.018649843
-0.19510846
0.013564573
-0.21032959
0.005556538
-0.22508698
-0.0015005748
-0.2393465
-0.0050127597
-0.2537598
-0.004597719
-0.26949806
-0.0017308853
-0.2872456
0.0016979704
-0.30713759
0.0045242967
-0.32920032
0.0062204609
-0.35312684
0.0068371283
-0.37878382
0.0067791578
-0.40609084
0.0063653207
-0.43512353
0.0058086167
-0.4660135
0.0052106173
-0.49893059
0.0046003088
-0.53403478
0.0039761366
-0.57146745
0.003339015
-0.61135218
0.0027051413
-0.65381733
0.0021001528
-0.69901088
0.0015503747
-0.74711109
0.0010760198
-0.79833232
0.00068796812
-0.85291943
0.00038796801
-0.91115229
0.00017059553
-0.97333629
2.6009357e-05
-1.0398038
-5.7729435e-05
-1.110916
-9.2401973e-05
-1.1870696
-8.8695266e-05
-1.2686906
-5.5662641e-05
-1.3562595
-0.17036178
0.023678465
-0.16749908
0.028777917
-0.1698072
0.014597946
-0.17948374
-0.011066812
-0.19046491
-0.026110298
-0.19890408
-0.022432107
0.0045736382
-0.17473071
-0.022840846
-0.17702984
-0.037559599
-0.1784288
-0.034699019
-0.18191587
-0.024624173
-0.18918402
-0.012971832
-0.19674998
0.0015340033
-0.19864794
0.01599203
-0.19620232
0.020530808
-0.19283975
0.015820459
-0.19736435
0.0064663425
-0.21123939
-0.0022031257
-0.22438443
-0.0068403889
-0.23751887
-0.0066237924
-0.25173373
-0.003272127
-0.26795682
0.00095043232
-0.28649806
0.0044777242
-0.30709102
0.0066502652
-0.32963013
0.0074982895
-0.353788
0.0074880688
-0.37949273
0.0070285258
-0.40675405
0.0064019744
-0.43571688
0.0057535394
-0.46655643
0.0051192204
-0.4994495
0.0044879857
-0.53454663
0.0038416311
-0.57197006
0.0031839573
-0.61183099
0.0025367782
-0.65425395
0.0019291437
-0.69938965
0.0013874742
-0.74742254
0.00092965326
-0.79857401
0.00056322928
-0.85309469
0.00028665895
-0.91126836
9.1988482e-05
-0.97340226
-3.2198993e-05
-1.0398293
-9.8631346e-05
-1.1109098
-0.00011916765
-1.1870392
-0.00010432746
-1.2686419
-6.2555573e-05
-1.3561969
-0.17114579
0.0053576474
-0.16800044
0.024179819
-0.16800768
0.026978402
-0.17384693
0.0089611399
-0.1856305
-0.015901225
-0.19650558
-0.028508804
-0.20405851
-0.02355805
-0.02392122
-0.17365033
-0.03981819
-0.17477124
-0.036088729
-0.17703909
-0.022709879
-0.18383016
-0.0081403166
-0.19401554
0.0054576702
-0.20067364
0.018440756
-0.20109667
0.023243572
-0.19891509
0.018074038
-0.19509333
0.0075071082
-0.19840511
-0.0029187618
-0.21052376
-0.0089356707
-0.22228915
-0.0089846176
-0.23515804
-0.0050631353
-0.24994272
1.7862648e-05
-0.26702425
0.0043712635
-0.2863916
0.0071419209
-0.30758267
0.0082627034
-0.33039454
0.0083010672
-0.354601
0.0077729094
-0.38023711
0.0070429261
-0.407395
0.0063128946
-0.43627624
0.0056395003
-0.46707671
0.0050006151
-0.49996213
0.0043565547
-0.53506155
0.0036899849
-0.57247609
0.0030139173
-0.61230813
0.0023570594
-0.65468187
0.0017512595
-0.69975343
0.001222063
-0.74771495
0.00078422175
-0.798795
0.00044163172
-0.85324966
0.00018955211
-0.91136592
1.7898476e-05
-0.97345236
-8.6420925e-05
-1.0398415
-0.00013621196
-1.1108927
-0.00014349635
-1.187
-0.00011833437
-1.2685861
-6.869608e-05
-1.3561282
-0.17197503
-0.023091975
-0.16947987
0.006837077
-0.16804722
0.024219357
-0.17066351
0.023794981
-0.17943697
0.0027676166
-0.19202928
-0.020377525
-0.20200827
-0.030559039
-0.20816162
-0.024511495
-0.040636696
-0.17283183
-0.037164049
-0.17369592
-0.0210012
-0.17874776
-0.0022817254
-0.18968875
0.011913024
-0.20047089
0.022478534
-0.20471142
0.026964265
-0.20481736
0.021222546
-0.20206359
0.0092122237
-0.19679844
-0.0036863883
-0.19763749
-0.011278082
-0.20818135
-0.011703058
-0.21957071
-0.0071862865
-0.23303489
-0.0010563276
-0.24886853
0.0042454205
-0.26689841
0.0076802141
-0.2869299
0.0091418235
-0.30846179
0.0092462817
-0.33133976
0.0086234924
-0.35545158
0.0077442015
-0.38093839
0.0068922215
-0.40797433
0.0061541939
-0.43679093
0.0055012228
-0.46757731
0.0048694599
-0.50047503
0.004211219
-0.53558279
0.0035235037
-0.57298568
0.0028305349
-0.61278161
0.0021677091
-0.65509832
0.0015683736
-0.70009974
0.0010558123
-0.74798654
0.00064103665
-0.7989944
0.00032409768
-0.85338421
9.7274807e-05
-0.9114453
-5.1666836e-05
-0.97348712
-0.00013651639
-1.0398412
-0.00017051223
-1.1108657
-0.00016540183
-1.1869529
-0.00013082967
-1.268524
-7.4068515e-05
-1.3560542
-0.17265097
-0.03996076
-0.17228844
-0.020283397
-0.17004871
0.008838572
-0.17022136
0.023777207
-0.1753793
0.019737305
-0.18589057
-0.0033710896
-0.198178
-0.024207794
-0.20661181
-0.032108848
-0.21097972
-0.025224163
-0.037496923
-0.17249895
-0.01980944
-0.17488768
0.0035496071
-0.1845791
0.019918561
-0.19769429
0.027879136
-0.2058715
0.030634466
-0.20838162
0.024616779
-0.20821159
0.011594436
-0.20444581
-0.0035975032
-0.19688733
-0.013925226
-0.19499034
-0.014776948
-0.20510746
-0.0095858396
-0.21717116
-0.002346065
-0.23174515
0.0040813574
-0.24870447
0.0083052483
-0.26752344
0.010161639
-0.28794971
0.01033961
-0.30955512
0.0096016965
-0.33231796
0.0085270218
-0.3562344
0.0074972969
-0.38154346
0.0066577529
-0.40847788
0.0059772383
-0.43726695
0.0053632542
-0.46807111
0.0047320705
-0.50099589
0.0040539103
-0.5361132
0.0033429491
-0.57349809
0.0026349614
-0.61324886
0.0019704326
-0.65550038
0.0013822628
-0.70042619
0.00089035333
-0.74823586
0.00050130879
-0.79917161
0.00021146345
-0.8534984
1.0305952e-05
-0.91150727
-0.00011633813
-0.97350729
-0.00018249048
-1.0398292
-0.0002015693
-1.1108295
-0.00018501372
-1.1868987
-0.00014182532
-1.2684562
-7.8739937e-05
-1.3559754
-0.17307191
-0.03707598
-0.17468922