/*--------------------------------*- C++ -*----------------------------------*\
| =========                 |                                                 |
| \\      /  F ield         | OpenFOAM: The Open Source CFD Toolbox           |
|  \\    /   O peration     | Version:  5.0                                   |
|   \\  /    A nd           | Web:      www.OpenFOAM.org                      |
|    \\/     M anipulation  |                                                 |
\*---------------------------------------------------------------------------*/
FoamFile
{
    version     2.0;
    format      ascii;
    class       surfaceScalarField;
    location    "60";
    object      phi_0;
}
// * * * * * * * * * * * * * * * * * * * * * * * * * * * * * * * * * * * * * //

dimensions      [0 3 -1 0 0 0 0];

internalField   nonuniform List<scalar> 
18820
(
0.00077379585
-1.345795
0.0015064276
-1.2586182
0.0007214222
-1.3465164
0.002207152
-1.1772104
0.0014043792
-1.2593012
0.00067759562
-1.347194
0.002883442
-1.1011569
0.0020575413
-1.1778636
0.0013181459
-1.2599417
0.000628365
-1.3478224
0.0035413054
-1.0300851
0.002688145
-1.1017875
0.0019292981
-1.1784747
0.0012208946
-1.2605343
0.00058396035
-1.3484063
0.0041856139
-0.96364499
0.0033023063
-1.0306993
0.0025175515
-1.1023757
0.0017836676
-1.1790375
0.0011328114
-1.2610831
0.00054067101
-1.348947
0.0048201794
-0.90151881
0.0039052294
-0.96424792
0.0030886647
-1.0312704
0.0023220428
-1.1029141
0.0016508822
-1.1795556
0.0010469164
-1.2615894
0.00050142164
-1.3494484
0.0054479832
-0.84341425
0.0045012313
-0.90211481
0.003647802
-0.96480706
0.0028410603
-1.0317894
0.00214213
-1.1034054
0.0015212757
-1.1800299
0.00096896809
-1.2620569
0.00046634267
-1.3499148
0.0060710268
-0.78906147
0.005093931
-0.84400695
0.0041993978
-0.90266641
0.0033455962
-0.96531159
0.0026104383
-1.0322577
0.0019662615
-1.1038503
0.0014034652
-1.1804644
0.00089943248
-1.26249
0.0004358838
-1.3503506
0.0066905583
-0.73820874
0.0056861352
-0.78965367
0.0047475243
-0.84455508
0.0038400296
-0.90316084
0.0030598238
-0.96576098
0.0023843868
-1.0326758
0.0018059817
-1.1042529
0.0012986908
-1.1808637
0.00083931793
-1.2628934
0.00041001194
-1.3507607
0.0073066395
-0.69062673
0.0062797366
-0.73880235
0.0052958024
-0.79020195
0.0043288116
-0.84504386
0.0034941826
-0.9035952
0.0027782305
-0.96615482
0.002177573
-1.0330474
0.0016638972
-1.1046181
0.0012087488
-1.1812331
0.00078864722
-1.2632721
0.00038839954
-1.3511491
0.0079191138
-0.64610023
0.0068754337
-0.69122243
0.005847197
-0.73935374
0.0048164283
-0.79068957
0.0039178672
-0.84546754
0.0031504866
-0.90396746
0.0025191339
-0.96649638
0.0019947091
-1.0333782
0.0015429083
-1.1049522
0.0011338206
-1.1815783
0.0007467986
-1.2636305
0.00037047856
-1.3515195
0.0085261386
-0.60443069
0.0074730193
-0.64669781
0.0064039361
-0.69177917
0.0053072409
-0.73984455
0.0043357743
-0.79110747
0.0035043215
-0.84582138
0.0028319053
-0.90428023
0.002290395
-0.96679207
0.0018402903
-1.0336756
0.0014435095
-1.1052619
0.0010729437
-1.1819044
0.0007125758
-1.2639726
0.00035550938
-1.351875
0.0091268155
-0.56543422
0.0080706879
-0.60502836
0.0069673247
-0.6472612
0.0058055129
-0.69227744
0.0047532642
-0.74026204
0.0038435924
-0.79144675
0.0031175168
-0.84610699
0.0025506236
-0.90454045
0.0020989598
-0.96705074
0.001715408
-1.0339475
0.0013643767
-1.1055533
0.0010241185
-1.182216
0.00068436645
-1.2643014
0.00034268348
-1.3522177
0.0097178355
-0.52893875
0.0086663504
-0.56602988
0.0075376677
-0.6055987
0.0063153907
-0.64777108
0.0051763227
-0.6927005
0.0041728572
-0.74059131
0.0033781812
-0.79170741
0.0027752372
-0.8463316
0.0023173132
-0.90475881
0.0019469469
-0.96728227
0.0016184382
-1.0342016
0.0013025696
-1.1058318
0.00098472039
-1.1825163
0.00066053175
-1.2646193
0.00033129609
-1.352549
0.010298412
-0.4947844
0.0092566609
-0.52952906
0.0081142061
-0.56660642
0.0068411535
-0.60612446
0.0056118253
-0.64820658
0.0044981098
-0.69302575
0.0036168238
-0.74082995
0.0029642376
-0.79189641
0.0024937336
-0.84650802
0.0021357586
-0.90494762
0.0018324399
-0.96749628
0.0015453094
-1.0344443
0.0012543329
-1.1061014
0.00095231347
-1.1828081
0.00063973708
-1.2649277
0.00032077165
-1.3528698
0.010864595
-0.46282385
0.0098384457
-0.49536618
0.0086948019
-0.53010966
0.0073854492
-0.56715072
0.0060669027
-0.60657954
0.004826434
-0.6485349
0.0038380267
-0.69324695
0.0031182308
-0.74098394
0.0026262521
-0.79202893
0.0022792456
-0.84665151
0.0020037312
-0.90511891
0.0017497624
-0.96770073
0.0014907877
-1.0346808
0.0012163027
-1.1063654
0.00092493246
-1.1830933
0.00062081131
-1.2652277
0.00031058591
-1.3531804
0.011414946
-0.432912
0.010408335
-0.46339374
0.0092771428
-0.49594852
0.0079495218
-0.53067373
0.0065475911
-0.5676314
0.005164281
-0.60691739
0.0040452317
-0.64874211
0.003237563
-0.69336629
0.0027133496
-0.74107104
0.0023743133
-0.792124
0.0021291587
-0.84677694
0.0019132017
-0.90528235
0.0016915574
-0.9679015
0.0014503039
-1.0349148
0.0011857356
-1.1066262
0.00090067764
-1.1833732
0.00060264706
-1.2655198
0.0003002899
-1.3534807
0.01194593
-0.40493014
0.01096038
-0.43346405
0.0098570528
-0.46397365
0.0085330979
-0.4965321
0.0070588792
-0.53118502
0.0055190765
-0.5679862
0.0042411986
-0.60711335
0.0033186996
-0.64882324
0.0027480463
-0.69340098
0.0024173887
-0.74111411
0.0022052303
-0.79220007
0.002032603
-0.84689634
0.001853789
-0.90544458
0.0016518406
-0.96810303
0.0014202774
-1.0351493
0.0011598691
-1.1068854
0.00087776108
-1.1836483
0.00058432994
-1.2658038
0.00028955818
-1.3537702
0.012453569
-0.37873418
0.011492868
-0.40546263
0.010430685
-0.43403768
0.0091340856
-0.46457463
0.0076033963
-0.49707662
0.0058994785
-0.53156542
0.0044320439
-0.56817704
0.0033596035
-0.60715426
0.0027224086
-0.64879761
0.0023953137
-0.69337891
0.0022250302
-0.74113391
0.0021045944
-0.79227206
0.0019742692
-0.84701682
0.001818085
-0.90561083
0.0016263487
-0.96830911
0.0013969788
-1.0353864
0.001136146
-1.1071438
0.00085473581
-1.1839187
0.00056515411
-1.2660794
0.00027817792
-1.3540484
0.012937835
-0.3542454
0.011994965
-0.37923628
0.010992182
-0.40602413
0.0097519255
-0.43465552
0.0081831638
-0.4651544
0.0063144231
-0.49749156
0.0046266512
-0.53176002
0.0033614642
-0.56817891
0.0026333178
-0.60706516
0.0023028912
-0.64870518
0.0021798341
-0.69333371
0.002119304
-0.74114862
0.0020478713
-0.79234566
0.0019459093
-0.84714464
0.0018016271
-0.9057861
0.0016102109
-0.96852234
0.0013769094
-1.0356272
0.0011124947
-1.1074015
0.00083045848
-1.184184
0.00054460678
-1.2663459
0.00026599426
-1.3543144
0.013392991
-0.33130609
0.012470753
-0.35472119
0.011534319
-0.37977842
0.010381203
-0.4066534
0.0087985526
-0.43527091
0.0067756235
-0.4656156
0.0048347624
-0.49769967
0.0033249228
-0.53172348
0.0024782529
-0.56802384
0.0021382134
-0.60690049
0.0020702984
-0.64859565
0.0020825807
-0.69329699
0.0020735851
-0.74117434
0.0020331751
-0.79243293
0.0019446231
-0.84728764
0.0017978622
-0.90597375
0.0015985992
-0.96874403
0.0013572298
-1.0358719
0.0010872329
-1.1076583
0.0008040914
-1.1844435
0.00052238367
-1.2666023
0.0002529255
-1.3545673
0.013816458
-0.30987975
0.012909523
-0.33174486
0.012053721
-0.35524059
0.01102044
-0.38041766
0.0094524229
-0.40730727
0.0072878573
-0.43578314
0.0050663384
-0.46584718
0.0032579713
-0.49763272
0.0022517841
-0.53149701
0.0018949269
-0.56778055
0.0018948323
-0.60672502
0.0019969263
-0.64850999
0.0020657828
-0.69328918
0.0020868998
-0.74122806
0.0020578
-0.7925461
0.0019595623
-0.84744934
0.0017996519
-0.90617481
0.0015877196
-0.96897452
0.0013356337
-1.0361203
0.0010591118
-1.1079133
0.00077508145
-1.1846962
0.00049834604
-1.2668477
0.00023897147
-1.3548063
0.014203559
-0.28979457
0.013313739
-0.31028397
0.0125354
-0.33222654
0.011662846
-0.355883
0.010146578
-0.38111181
0.0078656131
-0.40788503
0.0053306349
-0.43604744
0.0031652515
-0.46575446
0.0019511067
-0.49733204
0.0015638135
-0.5311659
0.0016463044
-0.56753203
0.0018606066
-0.6065887
0.0020275622
-0.64847177
0.0021140059
-0.69331629
0.0021479387
-0.7413182
0.0020972967
-0.79268384
0.001979012
-0.8476287
0.001802162
-0.90638925
0.0015746698
-0.96921355
0.0013104125
-1.0363716
0.0010272788
-1.1081655
0.0007431183
-1.184941
0.00047246432
-1.2670812
0.00022418665
-1.3550305
0.014544632
-0.27104257
0.013684683
-0.29016551
0.01297473
-0.3107233
0.012297995
-0.33286169
0.010876356
-0.35661278
0.0085140146
-0.38176021
0.0056473148
-0.40820171
0.0030581067
-0.43594029
0.0015641399
-0.46536749
0.0011361479
-0.49690438
0.001316635
-0.53083623
0.0016706602
-0.56734208
0.0019560466
-0.60651719
0.0021191664
-0.64847693
0.0022124319
-0.69338078
0.0022113199
-0.74143222
0.0021354877
-0.79284031
0.0019983053
-0.84782484
0.0018023612
-0.90661694
0.0015573204
-0.96946046
0.0012803487
-1.0366247
0.00099121828
-1.1084136
0.00070811102
-1.1851766
0.00044481231
-1.2673018
0.00020866618
-1.3552392
0.014844341
-0.25346036
0.014010343
-0.27136823
0.013368652
-0.29055944
0.01292329
-0.31134859
0.011646649
-0.33363198
0.0092412804
-0.35734004
0.0060253129
-0.38213821
0.0029416171
-0.40808522
0.0010999174
-0.43547607
0.00059302707
-0.46482437
0.00089522071
-0.49648296
0.0014263643
-0.53059194
0.0018536701
-0.5672397
0.0021071923
-0.60650521
0.0022525427
-0.64851704
0.0022994231
-0.69346889
0.0022661906
-0.74156293
0.0021730478
-0.79301506
0.002015835
-0.84803832
0.0017979061
-0.90685753
0.0015340433
-0.96971416
0.001244629
-1.0368781
0.0009507036
-1.1086562
0.00067016116
-1.185402
0.0004155509
-1.2675087
0.00019253312
-1.3554317
0.015078941
-0.23706816
0.014312564
-0.25376258
0.013696822
-0.2716964
0.013524892
-0.29116104
0.012464811
-0.31216675
0.010059714
-0.33445041
0.0064823096
-0.35779704
0.0028248137
-0.38202141
0.00053898407
-0.40752429
-6.3522501e-05
-0.43481952
0.00036821441
-0.46429736
0.00112109
-0.49617769
0.0017287934
-0.53046706
0.0020857401
-0.56721825
0.002277769
-0.60653044
0.0023632341
-0.64858086
0.0023697558
-0.69357245
0.002323107
-0.74171299
0.0022114655
-0.79321069
0.0020291283
-0.84826954
0.0017866872
-0.90711017
0.001503634
-0.96997316
0.0012028073
-1.0371302
0.00090575872
-1.1088918
0.00062948662
-1.1856159
0.00038491505
-1.2677011
0.00017593067
-1.3556076
0.015259535
-0.22168059
0.014549161
-0.23730476
0.013986414
-0.25405217
0.014093842
-0.27226535
0.013306622
-0.29200285
0.010966048
-0.31307309
0.0070337445
-0.33500185
0.0027195967
-0.35769182
-0.0001070965
-0.38137533
-0.00088444294
-0.40670337
-0.00027174154
-0.43417956
0.00075705234
-0.46393332
0.0015850553
-0.49603395
0.0020645134
-0.53044583
0.0022999287
-0.56724041
0.0024092886
-0.60657649
0.002448882
-0.64865998
0.0024461044
-0.69369545
0.0023851908
-0.74188671
0.0022469681
-0.79342853
0.0020353184
-0.84851817
0.0017669828
-0.90737352
0.0014653137
-0.97023567
0.0011547665
-1.0373792
0.00085660361
-1.1091189
0.00058640312
-1.1858174
0.00035318186
-1.2678783
0.00015901078
-1.3557666
0.015369223
-0.2073083
0.014770276
-0.2219017
0.014192697
-0.23751105
0.014639103
-0.25459743
0.014214389
-0.27317312
0.011963047
-0.29299985
0.0076796698
-0.31371901
0.0026339718
-0.33491622
-0.00087452042
-0.3569244
-0.0018364154
-0.38042335
-0.0010463458
-0.40592876
0.00032604054
-0.43374855
0.0014386773
-0.46378695
0.0020582915
-0.49602773
0.0023335886
-0.53047949
0.0024490518
-0.56728017
0.0025079345
-0.60663554
0.0025416108
-0.64875549
0.0025333235
-0.69384358
0.0024466213
-0.74208636
0.0022757818
-0.79366899
0.0020320605
-0.84878325
0.0017375325
-0.90764574
0.001418708
-0.97049961
0.0011006631
-1.0376233
0.00080361722
-1.1093361
0.00054130877
-1.1860055
0.00032065009
-1.26804
0.00014193032
-1.3559086
0.015406272
-0.19386483
0.014939108
-0.20747714
0.014359299
-0.2220683
0.015149387
-0.23802133
0.015138359
-0.2555214
0.013083122
-0.2742932
0.0084571725
-0.29377735
0.0025724761
-0.31365751
-0.0017302164
-0.33406053
-0.0029711573
-0.35578966
-0.0019605719
-0.37950913
-0.0001790101
-0.40542371
0.0012850686
-0.43359494
0.0020878793
-0.46381653
0.0023985291
-0.49609267
0.0024955722
-0.53052601
0.0025501536
-0.56732239
0.0026079001
-0.60670183
0.0026493513
-0.64887152
0.0026212676
-0.69401823
0.0025025075
-0.74231309
0.002294992
-0.79393192
0.0020174202
-0.84906314
0.0016975235
-0.90792455
0.0013638087
-0.97076275
0.0010408852
-1.0378605
0.00074730672
-1.1095421
0.000494645
-1.1861795
0.00028763324
-1.2681857
0.00012484443
-1.3560334
0.013429598
-0.21294172
0.015090283
-0.19401601
0.014455442
-0.20757328
0.015639045
-0.22255796
0.016133221
-0.23901619
0.014273821
-0.2567121
0.0093474112
-0.27518343
0.0025598999
-0.29376477
-0.0027041032
-0.31268363
-0.0042738521
-0.33275783
-0.003047156
-0.35470307
-0.00075798845
-0.37893015
0.0011507381
-0.40528938
0.002162559
-0.43366962
0.0025105085
-0.46392851
0.0025621292
-0.49615922
0.0025784693
-0.53055433
0.0026413205
-0.56735581
0.0027253987
-0.60677788
0.0027633002
-0.64901355
0.0027089733
-0.69422469
0.0025508661
-0.74256896
0.0023017977
-0.7942163
0.0019898409
-0.84935545
0.001646627
-0.90820737
0.0013009362
-0.97102281
0.0009760158
-1.0380893
0.00068825568
-1.1097358
0.00044688497
-1.1863388
0.00025444404
-1.2683153
0.00010790174
-1.3561413
0.011653936
-0.21245157
0.013298511
-0.21114995
0.014547854
-0.19410842
0.016101265
-0.2080355
0.017151716
-0.22357646
0.015620899
-0.24036327
0.010381351
-0.25774604
0.0025742124
-0.27519775
-0.0037885031
-0.29268037
-0.0057775975
-0.31117988
-0.0042968907
-0.3315081
-0.0014237759
-0.35403728
0.0010305214
-0.37880993
0.0023193608
-0.40544618
0.002685217
-0.43384433
0.0026579489
-0.46402433
0.0025943031
-0.49617506
0.0026352435
-0.53054825
0.0027524782
-0.56738289
0.002862976
-0.60687756
0.0028868933
-0.64919147
0.00279373
-0.69446756
0.0025866124
-0.74285378
0.0022932262
-0.79451968
0.0019484309
-0.84965726
0.0015849878
-0.90849142
0.0012307018
-0.97127749
0.00090676541
-1.0383078
0.00062711036
-1.109916
0.00039850354
-1.1864828
0.00022138449
-1.2684287
9.1241069e-05
-1.3562325
0.0096186617
-0.20985152
0.011608117
-0.21076118
0.012756301
-0.20935839
0.016571634
-0.19457879
0.018224028
-0.20910781
0.017024811
-0.22498037
0.01154282
-0.24152474
0.002671041
-0.25784287
-0.0049894994
-0.27399675
-0.0074791323
-0.29097884
-0.0057501463
-0.30972663
-0.0021779068
-0.33075397
0.00093424941
-0.35394101
0.0025526746
-0.37904325
0.0029535513
-0.40571452
0.0027968467
-0.43398323
0.002601479
-0.46403151
0.002583634
-0.49612345
0.0027220785
-0.53051785
0.0029096589
-0.56742958
0.0030281145
-0.60701878
0.0030174777
-0.64941522
0.0028673844
-0.69474833
0.0026045408
-0.74316509
0.0022675124
-0.79483876
0.0018930051
-0.84996527
0.0015131774
-0.9087739
0.0011539182
-0.97152464
0.0008339428
-1.0385146
0.00056452671
-1.110082
0.00034998084
-1.1866114
0.00018874046
-1.2685262
7.4989197e-05
-1.3563075
0.0071407098
-0.20523444
0.0096798289
-0.20792323
0.01124927
-0.20925415
0.015372755
-0.20815951
0.019287756
-0.19564252
0.018584718
-0.21066772
0.01283344
-0.22627099
0.0027851709
-0.24163887
-0.0063091651
-0.2565232
-0.009386795
-0.27208909
-0.0073856837
-0.2893433
-0.0030404145
-0.30886412
0.00088361197
-0.33070333
0.0029178325
-0.35430617
0.0033295975
-0.37941929
0.0030025291
-0.4059202
0.0026161216
-0.43399787
0.0024919761
-0.46393985
0.0026277263
-0.4960291
0.0028938661
-0.53050206
0.0031239888
-0.56752545
0.0032154016
-0.6072167
0.0031394206
-0.64968725
0.0029203761
-0.69506417
0.0026015324
-0.74349911
0.0022239227
-0.79516968
0.0018240121
-0.85027611
0.0014320821
-0.90905206
0.0010715566
-0.97176226
0.00075840438
-1.0387085
0.00050117055
-1.1102332
0.00030177224
-1.1867244
0.00015677692
-1.268608
5.925767e-05
-1.3563668
0.0041509012
-0.19931515
0.007427606
-0.20298221
0.010132314
-0.20680628
0.014706553
-0.20858795
0.018878667
-0.20775043
0.020086396
-0.19714419
0.014204533
-0.21203881
0.0030044189
-0.22649024
-0.0077622727
-0.24018576
-0.011507255
-0.25440274
-0.0092494568
-0.27022531
-0.0039946248
-0.28838909
0.00085726123
-0.30883777
0.0033967446
-0.33118224
0.0038620712
-0.35483864
0.0033000217
-0.37971678
0.0026418227
-0.4059459
0.0023673033
-0.4338732
0.0024618195
-0.46377394
0.0028052497
-0.49594048
0.0031634
-0.53054147
0.0033796659
-0.56768971
0.0033977025
-0.60747498
0.0032372332
-0.65000411
0.0029478894
-0.69541052
0.0025759963
-0.74385119
0.0021626908
-0.79550836
0.0017423843
-0.85058641
0.0013428327
-0.90932334
0.00098467828
-0.97198853
0.00068102725
-1.0388883
0.00043769383
-1.1103691
0.00025428895
-1.186822
0.00012573234
-1.2686745
4.414396e-05
-1.3564109
0.00067436521
-0.19285897
0.0047384206
-0.19662597
0.0094379985
-0.2022879
0.014741122
-0.20684085
0.018882586
-0.20859187
0.019968329
-0.20763236
0.015453212
-0.19839287
0.0033496177
-0.21238401
-0.0093309958
-0.22492151
-0.013826887
-0.23786613
-0.011305708
-0.25234649
-0.0050883277
-0.26913161
0.00090193174
-0.28843376
0.0040531806
-0.3094942
0.004544915
-0.33186509
0.0037159089
-0.35525453
0.0026965967
-0.37977156
0.0021930634
-0.40577166
0.0022152725
-0.43362665
0.0026279337
-0.46359663
0.0031331519
-0.49591023
0.0035022931
-0.5306641
0.0036377698
-0.56792978
0.0035527896
-0.60779054
0.0033046576
-0.65036088
0.0029473313
-0.69578186
0.0025279109
-0.74421641
0.0020847857
-0.79585076
0.0016494208
-0.850893
0.0012467036
-0.90958536
0.00089439251
-0.9722019
0.00060267341
-1.0390533
0.0003746952
-1.1104895
0.00020792274
-1.1869041
9.5816359e-05
-1.2687262
2.9734623e-05
-1.3564407
-0.0031458843
-0.18663587
0.0015220733
-0.18964262
0.0090261554
-0.19621412
0.015476156
-0.20302293
0.019284755
-0.20724302
0.019869906
-0.20849344
0.015003431
-0.20718258
0.0036293674
-0.19867262
-0.01095291
-0.21076209
-0.016354625
-0.22239378
-0.013578252
-0.23559358
-0.0062740267
-0.25116079
0.00097438171
-0.26920406
0.0048601654
-0.28924075
0.005446232
-0.31039552
0.0042661724
-0.33241535
0.0027915581
-0.35534949
0.0019634452
-0.37954194
0.0018788659
-0.40543525
0.0023398118
-0.43333853
0.0030180678
-0.46348154
0.0035727892
-0.49598073
0.0038552068
-0.53088153
0.0038652983
-0.56824229
0.0036703379
-0.60815622
0.0033361631
-0.65074971
0.0029179002
-0.69617185
0.0024582635
-0.74458989
0.0019917283
-0.79619307
0.0015466359
-0.85119293
0.0011450579
-0.90983603
0.00080180097
-0.97240102
0.00052417074
-1.0392028
0.00031274085
-1.1105943
0.00016300595
-1.1869713
6.7213738e-05
-1.2687637
1.6109935e-05
-1.3564568
-0.0070410902
-0.18143598
-0.002216912
-0.18289688
0.0086493322
-0.1892658
0.016833653
-0.19757162
0.020130361
-0.20386854
0.019677539
-0.20705065
0.014226819
-0.20771683
0.0020794953
-0.20563271
-0.012674466
-0.19695107
-0.019224059
-0.20789266
-0.016075105
-0.21989692
-0.0076078253
-0.23425979
0.0011116965
-0.25129811
0.0058798054
-0.2702237
0.0065359263
-0.29033044
0.0049909145
-0.31112026
0.0029441798
-0.33256797
0.0016768521
-0.3550629
0.0014295276
-0.3790926
0.0019296425
-0.40502509
0.0027978672
-0.43311833
0.0035799616
-0.46348872
0.0040458541
-0.49617138
0.0041744445
-0.53119068
0.004045466
-0.56861742
0.0037421615
-0.60856222
0.00333115
-0.65116296
0.0028610767
-0.69657466
0.0023689753
-0.74496713
0.0018853396
-0.79653177
0.001435672
-0.85148355
0.0010392592
-0.91007349
0.00070798794
-0.97258484
0.00044629129
-1.0393363
0.00025233129
-1.1106837
0.0001198491
-1.187024
4.0081907e-05
-1.2687876
3.3752945e-06
-1.3564602
-0.01068051
-0.17800138
-0.0063174957
-0.17733539
0.0080017239
-0.18224928
0.018618959
-0.19105111
0.021472937
-0.1989142
0.019572762
-0.20376376
0.012964281
-0.20578811
-0.00017846022
-0.20545887
-0.015767114
-0.20254006
-0.022299002
-0.19387612
-0.018795243
-0.20517252
-0.0090554797
-0.21844927
0.0012841731
-0.23443226
0.0070778495
-0.25249615
0.0078985319
-0.27158631
0.0058852865
-0.29122481
0.0031718064
-0.31134789
0.0013309915
-0.33222211
0.00083513715
-0.35446851
0.0013821237
-0.37854508
0.0024520591
-0.40467928
0.0035118257
-0.43305019
0.0042062341
-0.4636491
0.004481673
-0.4964786
0.0044324989
-0.53157771
0.0041660998
-0.56904136
0.0037664175
-0.60899749
0.0032910526
-0.65159294
0.0027793018
-0.69698499
0.0022623157
-0.74534411
0.0017675939
-0.7968637
0.0013181882
-0.85176247
0.00093067174
-0.91029617
0.00061396611
-0.97275252
0.00036974282
-1.0394537
0.00019391269
-1.1107577
7.8706119e-05
-1.1870626
1.451456e-05
-1.2687988
-8.4500853e-06
-1.3564517
-0.17689819
-0.013813652
-0.010479493
-0.17383938
0.0067558688
-0.17608954
0.020480478
-0.1841108
0.023263306
-0.19284148
0.019700969
-0.19904241
0.01131306
-0.20211254
-0.0032199784
-0.20274659
-0.019010465
-0.20221552
-0.025887109
-0.19895195
-0.021535494
-0.19113587
-0.01060263
-0.20362537
0.0015164207
-0.21868152
0.008510317
-0.23586473
0.0094788127
-0.25407643
0.0070058521
-0.27270687
0.0034829974
-0.291536
0.00093771809
-0.31095462
9.3748825e-05
-0.33148072
0.0006504669
-0.35373685
0.0019689791
-0.378062
0.0033546869
-0.40452214
0.0043306558
-0.43317462
0.0047893719
-0.4639568
0.0048356656
-0.49688177
0.0046109321
-0.53202254
0.0042241211
-0.56949906
0.003746277
-0.60945271
0.0032199929
-0.65203363
0.0026756392
-0.69739831
0.0021406922
-0.74571721
0.0016404873
-0.79718599
0.0011958329
-0.85202764
0.00082058039
-0.91050279
0.00052069087
-0.97290346
0.00029515836
-1.039555
0.00013785683
-1.1108169
3.9719071e-05
-1.1870878
-9.3971567e-06
-1.2687978
-1.9622252e-05
-1.3564321
-0.17295739
-0.014420291
-0.17831037
-0.016311128
0.0046444543
-0.17172796
0.021913826
-0.17752289
0.025312301
-0.18615979
0.02015425
-0.19329476
0.0094853178
-0.19721466
-0.0069769493
-0.19835557
-0.022439982
-0.19931708
-0.028474046
-0.19962859
-0.025028918
-0.19545853
-0.012000732
-0.18973777
0.0017848489
-0.2038938
0.010146121
-0.22031732
0.011362236
-0.23774815
0.0083292701
-0.25539985
0.0039043132
-0.27312819
0.00048482211
-0.29108311
-0.00083385379
-0.31002701
-0.00025737817
-0.33057288
0.0013272803
-0.35309515
0.003088084
-0.3777954
0.0044194802
-0.40461096
0.0051012107
-0.43348645
0.0052613416
-0.46438247
0.0050819931
-0.49735283
0.0047064198
-0.53250484
0.0042254419
-0.56997822
0.0036877111
-0.60992043
0.003122033
-0.65248002
0.0025531897
-0.69781081
0.0020065242
-0.74608324
0.0015059612
-0.79749612
0.0010702031
-0.85227726
0.00071021416
-0.91069231
0.00042901768
-0.97303732
0.00022308268
-1.0396402
8.4473118e-05
-1.1108616
3.1705557e-06
-1.1871004
-3.1768176e-05
-1.2687857
-2.9879502e-05
-1.3564022
-0.16991846
0.0016055202
-0.17482483
-0.017905831
-0.18199703
-0.018240322
0.022333396
-0.17214753
0.027292101
-0.17950269
0.020959642
-0.18696518
0.0077459193
-0.19155536
-0.011172311
-0.1930193
-0.026135616
-0.19465994
-0.0303058
-0.19748532
-0.026953411
-0.19770409
-0.015169512
-0.19228975
0.0022495893
-0.19020251
0.011983709
-0.20573139
0.013485102
-0.22244019
0.0099077506
-0.23932663
0.0044444136
-0.25593995
-1.5884509e-05
-0.27262748
-0.0019370871
-0.28997988
-0.0014334712
-0.30885092
0.00051050576
-0.3297561
0.0027144317
-0.3527215
0.0044629915
-0.37783891
0.0054242781
-0.40493403
0.0057209972
-0.43394611
0.0055892227
-0.4648897
0.0052185383
-0.49786495
0.0047286219
-0.53300802
0.0041789859
-0.5704695
0.003596852
-0.61039525
0.0030014357
-0.65292827
0.0024148472
-0.69821913
0.0018620542
-0.74643934
0.0013659183
-0.79779184
0.0009427824
-0.85250983
0.00060069148
-0.91086398
0.00033972048
-0.97315396
0.00015398498
-1.0397097
3.4016275e-05
-1.1108925
-3.1191005e-05
-1.1871009
-5.2384374e-05
-1.2687632
-3.9329179e-05
-1.3563629
-0.16884686
0.021261804
-0.1708799
-0.0023394036
-0.17893305
-0.020969808
-0.18722947
-0.019763932
0.028768693
-0.17362413
0.022040149
-0.18058319
0.00635989
-0.18557915
-0.015384603
-0.18734306
-0.030056172
-0.18909875
-0.031869066
-0.19309667
-0.027389347
-0.19704939
-0.016860489
-0.19601312
0.00043828981
-0.19047845
0.0140778
-0.1922966
0.01592055
-0.20816683
0.011716181
-0.22424862
0.0051121892
-0.23999441
-0.00055421428
-0.25540162
-0.0032559873
-0.27130858
-0.002841012
-0.28857233
-0.00054372401
-0.30779669
0.0022089833
-0.32925065
0.0044652887
-0.3527238
0.0057663673
-0.378181
0.0062268104
-0.40543984
0.0061451864
-0.43450207
0.0057691395
-0.4654403
0.0052583287
-0.49839466
0.0046907783
-0.53351981
0.0040944668
-0.57096711
0.0034799514
-0.61087376
0.0028619393
-0.65337536
0.0022632844
-0.69862036
0.0017094507
-0.74678287
0.001222091
-0.79807115
0.00081501036
-0.85272415
0.00049304353
-0.91101731
0.00025345433
-0.97325343
8.8245133e-05
-1.039764
-1.3321796e-05
-1.1109103
-6.2971161e-05
-1.1870904
-7.1351752e-05
-1.2687311
-4.7874792e-05
-1.356315
-0.16936906
0.029290887
-0.16803974
0.018421642
-0.17440378
-0.0068686712
-0.18447099
-0.023728288
-0.19315222
-0.021060456
0.023198597
-0.17478257
0.0055614668
-0.17978477
-0.019091145
-0.18187261
-0.033924153
-0.18347508
-0.033405789
-0.18756202
-0.02665546
-0.19383056
-0.016477584
-0.19743229
-0.00046921969
-0.19510561
0.014431524
-0.19083217
0.018597413
-0.19497347
0.013790371
-0.21024103
0.005937333
-0.22507376
-0.0011392328
-0.23940939
-0.0047961114
-0.2538615
-0.004554102
-0.26959549
-0.00180812
-0.28730794
0.0015736073
-0.30716132
0.0044061835
-0.32919155
0.0061407161
-0.35309815
0.0067954196
-0.37874961
0.0067658224
-0.40606048
0.0063687484
-0.43510168
0.0058187227
-0.4660007
0.0052210462
-0.49892492
0.0046082293
-0.53403358
0.0039811669
-0.57146833
0.0033418208
-0.61135364
0.002706538
-0.65381861
0.0021007929
-0.6990117
0.0015506776
-0.74711146
0.0010762101
-0.79833235
0.00068814409
-0.85291925
0.00038815684
-0.91115201
0.00017079372
-0.97333598
2.6201422e-05
-1.0398035
-5.7558324e-05
-1.1109158
-9.2264161e-05
-1.1870694
-8.8599473e-05
-1.2686904
-5.5613375e-05
-1.3562594
-0.17030968
0.024139219
-0.16746837
0.028719517
-0.16990181
0.013919671
-0.17967799
-0.011661665
-0.19059749
-0.026283018
-0.19896886
-0.022252567
0.0055269839
-0.17474809
-0.021733965
-0.17714195
-0.037280778
-0.17851599
-0.034966818
-0.18191405
-0.025166382
-0.1890511
-0.013706724
-0.19660142
0.00064776498
-0.19854928
0.01538221
-0.19605629
0.020428951
-0.19266371
0.016083564
-0.19726666
0.0069177881
-0.21122148
-0.0017578739
-0.22445512
-0.0065680055
-0.2376375
-0.0065678144
-0.25184778
-0.0033696273
-0.26803398
0.00079393223
-0.28652826
0.0043245236
-0.30707966
0.0065439302
-0.32959476
0.0074422105
-0.35374494
0.007469643
-0.37945343
0.0070333036
-0.40672503
0.0064166206
-0.43569958
0.0057690592
-0.46654871
0.0051313251
-0.49944802
0.0044957847
-0.53454819
0.0038460399
-0.57197255
0.0031861501
-0.61183326
0.0025377347
-0.65425555
0.0019295216
-0.69939055
0.0013876429
-0.74742289
0.00092978658
-0.79857399
0.0005633861
-0.85309448
0.00028684587
-0.91126806
9.2188481e-05
-0.97340197
-3.2004402e-05
-1.039829
-9.8459742e-05
-1.1109096
-0.00011903051
-1.187039
-0.00010423275
-1.2686418
-6.2507118e-05
-1.3561969
-0.17109744
0.0063147463
-0.16794214
0.024612992
-0.16800963
0.026827333
-0.17400465
0.0082463244
-0.18584106
-0.016418092
-0.19663143
-0.028620446
-0.20411241
-0.023356851
-0.022800129
-0.17368193
-0.039604069
-0.17481866
-0.036453722
-0.17702908
-0.023421857
-0.18365858
-0.0090029294
-0.1937549
0.0045296701
-0.20048332
0.017736932
-0.200904
0.023081681
-0.19870902
0.018336797
-0.19491694
0.0080349886
-0.19838386
-0.0023769114
-0.21060244
-0.0085967088
-0.22242642
-0.0089127125
-0.2352926
-0.0051845785
-0.25003283
-0.00018025575
-0.2670598
0.0041761721
-0.28637991
0.0070041396
-0.30753986
0.008188256
-0.33034081
0.0082757696
-0.35455106
0.0077793137
-0.38019944
0.007063603
-0.40737202
0.0063353844
-0.43626591
0.0056575169
-0.4670749
0.0050124488
-0.49996468
0.0043633322
-0.53506549
0.0036933842
-0.57247978
0.0030153665
-0.61231089
0.0023575573
-0.65468359
0.0017513915
-0.6997543
0.0012221177
-0.74771522
0.00078431025
-0.79879491
0.00044177781
-0.85324941
0.00018973858
-0.91136561
1.8101216e-05
-0.97345207
-8.6224948e-05
-1.0398413
-0.00013604022
-1.1108926
-0.00014336057
-1.1869999
-0.00011824136
-1.2685861
-6.8648799e-05
-1.3561282
-0.17192103
-0.021976543
-0.16937161
0.0077442098
-0.16799197
0.024595337
-0.17070687
0.023529561
-0.17963645
0.0020417077
-0.19223457
-0.020814954
-0.20211575
-0.030617109
-0.20819461
-0.024293047
-0.040458331
-0.17282766
-0.037593687
-0.1736787
-0.021882709
-0.17856823
-0.0033094105
-0.1893521
0.010965154
-0.20019038
0.021762491
-0.20450888
0.026768827
-0.20459114
0.021494204
-0.20186643
0.0097919608
-0.19667391
-0.0030349659
-0.1977258
-0.010862334
-0.20833682
-0.011614603
-0.21972453
-0.0073352631
-0.23314191
-0.0013038145
-0.24890927
0.0039997029
-0.26688333
0.0075032926
-0.28687906
0.0090451182
-0.30839673
0.0092123428
-0.33127738
0.0086315506
-0.3554033
0.0077725904
-0.38090843
0.0069240544
-0.40796069
0.0061803177
-0.43678871
0.0055187838
-0.46758124
0.004879632
-0.50048098
0.0042163908
-0.53558849
0.0035256891
-0.5729901
0.0028312118
-0.61278454
0.0021677772
-0.65509997
0.0015682947
-0.70010047
0.0010557773
-0.74798669
0.00064109652
-0.79899423
0.00032423802
-0.85338391
9.7464732e-05
-0.91144497
-5.1460943e-05
-0.97348684
-0.00013631913
-1.039841
-0.0001703415
-1.1108656
-0.00016526794
-1.1869529
-0.00013073858
-1.268524
-7.4022386e-05
-1.3560542
-0.17260361
-0.039775753
-0.17214483
-0.01920332
-0.16989824
0.0096504718
-0.17016563
0.024054094
-0.17545474
0.019347856
-0.18610523
-0.0040876311
-0.19835943
-0.024571278
-0.20668857
-0.03212315
-0.21098236
-0.024995775
-0.037950629
-0.17247072
-0.020830539
-0.17473087
0.002338706
-0.18421635
0.018965029
-0.19735197
0.027248621
-0.20567651
0.030485375
-0.20822543
0.024963648
-0.20806059
0.012225917
-0.20430038
-0.0028220782
-0.1968868
-0.013421075
-0.19516706
-0.014667333
-0.20528409
-0.0097691449
-0.21729064
-0.0026515458
-0.23179418
0.0037784316
-0.248688
0.0080834281
-0.26746346
0.010037119
-0.28787107
0.01029452
-0.3094789
0.0096117026
-0.33225753
0.0085651149
-0.35619583
0.0075413144
-0.38152569
0.0066947913
-0.40847516
0.006002706
-0.43727263
0.0053781642
-0.46807977
0.0047397686
-0.50100436
0.004057165
-0.53611997
0.0033438811
-0.57350277
0.0026349198
-0.61325168
0.0019701342
-0.65550181
0.0013820197
-0.70042672
0.00089025821
-0.74823585
0.0005013519
-0.79917135
0.00021160642
-0.85349805
1.0497439e-05
-0.91150693
-0.00011612914
-0.97350703
-0.00018229312
-1.039829
-0.00020139996
-1.1108294
-0.00018488221
-1.1868987
-0.00014173644
-1.2684563
-7.8695165e-05
-1.3559755
-0.1730242
-0.037530034