/*--------------------------------*- C++ -*----------------------------------*\
| =========                 |                                                 |
| \\      /  F ield         | OpenFOAM: The Open Source CFD Toolbox           |
|  \\    /   O peration     | Version:  5.0                                   |
|   \\  /    A nd           | Web:      www.OpenFOAM.org                      |
|    \\/     M anipulation  |                                                 |
\*---------------------------------------------------------------------------*/
FoamFile
{
    version     2.0;
    format      ascii;
    class       volScalarField;
    location    "60";
    object      pMean;
}
// * * * * * * * * * * * * * * * * * * * * * * * * * * * * * * * * * * * * * //

dimensions      [0 2 -2 0 0 0 0];

internalField   nonuniform List<scalar> 
9520
(
-0.00013236415
-0.00012974102
-0.00028249611
-0.00012497138
-0.0002756204
-0.00046622982
-0.00011856139
-0.00026318789
-0.00045514867
-0.00064021004
-0.00011086883
-0.00024638425
-0.00043504372
-0.00062513395
-0.00082699895
-0.00010221278
-0.00022617029
-0.00040773061
-0.00059772603
-0.00080798092
-0.0010174775
-9.2841168e-05
-0.00020341033
-0.00037473664
-0.00056042849
-0.00077336065
-0.00099475271
-0.0012161508
-8.2999757e-05
-0.00017881823
-0.00033747256
-0.0005152988
-0.00072615377
-0.00095330602
-0.0011899189
-0.0014216355
-7.2840109e-05
-0.00015304357
-0.00029714149
-0.00046422423
-0.00066891333
-0.00089663415
-0.001141979
-0.0013922645
-0.0016349411
-6.2602075e-05
-0.00012658863
-0.00025481841
-0.00040884806
-0.00060398382
-0.00082770308
-0.0010762323
-0.001338419
-0.00160278
-0.0018556772
-5.2229681e-05
-9.9976455e-05
-0.00021137862
-0.00035064619
-0.00053343899
-0.00074924676
-0.00099597518
-0.001264263
-0.0015436277
-0.0018212545
-0.0020837578
-4.2165691e-05
-7.3390182e-05
-0.00016765277
-0.00029086416
-0.00045915633
-0.00066372257
-0.00090425764
-0.0011733062
-0.0014617955
-0.0017576812
-0.0020476122
-0.0023184645
-3.1835496e-05
-4.7449955e-05
-0.00012409279
-0.00023064202
-0.00038276006
-0.0005733827
-0.0008038649
-0.0010688249
-0.0013608797
-0.0016692275
-0.0019805494
-0.0022813069
-0.0025591129
-2.2371802e-05
-2.1700765e-05
-8.1513026e-05
-0.00017073422
-0.00030572133
-0.0004802205
-0.00069739523
-0.00095385882
-0.0012442573
-0.0015594108
-0.0018866504
-0.002211983
-0.002521683
-0.0028045246
-1.2062657e-05
2.5832844e-06
-3.9625077e-05
-0.00011215754
-0.00022910068
-0.00038604261
-0.00058720486
-0.00083129765
-0.0011151271
-0.0014315807
-0.0017691963
-0.002114178
-0.0024514068
-0.0027677145
-0.0030536416
-3.4704534e-06
2.7193116e-05
1.7110008e-07
-5.4838638e-05
-0.00015413941
-0.00029224473
-0.0004754584
-0.0007038313
-0.0009766047
-0.0012889805
-0.0016313469
-0.0019907455
-0.0023514002
-0.0026980645
-0.0030183601
-0.0033048977
6.9068561e-06
4.9272067e-05
3.9623495e-05
-2.7760307e-07
-8.0989353e-05
-0.00020033207
-0.00036392635
-0.00057396319
-0.00083166977
-0.0011348578
-0.0014762504
-0.0018444798
-0.002223906
-0.0025979066
-0.0029509729
-0.0032721685
-0.003557034
1.470277e-05
7.2815175e-05
7.5702392e-05
5.3168201e-05
-1.1291553e-05
-0.00011076911
-0.00025442196
-0.00044383143
-0.0006831536
-0.00097241051
-0.0013071809
-0.0016782891
-0.0020711721
-0.0024686753
-0.0028528559
-0.0032088979
-0.0035278748
-0.0038082454
2.4993253e-05
9.2686846e-05
0.00011259845
0.00010232196
5.6493173e-05
-2.5393706e-05
-0.00014774498
-0.00031557226
-0.00053357257
-0.00080477045
-0.0011274829
-0.0014953402
-0.0018956912
-0.002311876
-0.0027244547
-0.0031153154
-0.0034705906
-0.0037837346
-0.0040572354
3.2641563e-05
0.0001150369
0.00014473164
0.00015154047
0.00011897318
5.7151191e-05
-4.5945724e-05
-0.00019034889
-0.0003853938
-0.00063483358
-0.00094053761
-0.0012990412
-0.001700373
-0.0021293929
-0.0025663407
-0.0029906897
-0.0033841169
-0.0037344373
-0.0040384102
-0.0043021221
4.2327353e-05
0.0001333632
0.00017891659
0.00019476271
0.00018066317
0.00013328091
5.2159419e-05
-7.044497e-05
-0.00024019234
-0.00046539862
-0.00074954953
-0.0010929186
-0.0014885289
-0.0019237124
-0.0023795936
-0.0028344677
-0.0032664009
-0.0036578512
-0.0039990457
-0.0042900229
-0.0045416564
5.1145158e-05
0.00015387289
0.00020772762
0.00023953423
0.00023500773
0.00020774906
0.00014285958
4.5028144e-05
-0.00010054712
-0.00029849336
-0.00055769449
-0.00088036742
-0.0012637417
-0.0016978957
-0.0021660691
-0.0026467345
-0.0031155986
-0.0035504621
-0.0039351134
-0.004262565
-0.0045372684
-0.0047741081
5.9577325e-05
0.00017198318
0.00023848008
0.00027737221
0.00029036783
0.00027349887
0.00023102694
0.00015196692
3.4067427e-05
-0.00013695651
-0.00036747036
-0.00066506186
-0.0010296793
-0.0014554923
-0.0019284273
-0.0024285317
-0.0029306013
-0.0034089872
-0.0038415485
-0.0042141254
-0.0045235745
-0.0047783286
-0.0049983479
7.0769866e-05
0.00018954742
0.00026535605
0.00031704526
0.000337229
0.00033980943
0.00030888641
0.00025537178
0.00015921337
1.9327569e-05
-0.00018200438
-0.00044998775
-0.0007902945
-0.0012005075
-0.0016700974
-0.0021819337
-0.0027114251
-0.0032309604
-0.0037135136
-0.0041380181
-0.0044933442
-0.0047801649
-0.0050120012
-0.0052129569
7.8240783e-05
0.00020838579
0.00029144407
0.0003512261
0.00038588304
0.00039581497
0.00038649371
0.00034680149
0.00028005627
0.00016559238
-1.7399489e-06
-0.00023856774
-0.00054914288
-0.00093695104
-0.0013951255
-0.0019100291
-0.0024593477
-0.0030151632
-0.0035470117
-0.0040277719
-0.0044382646
-0.0047707842
-0.0050309875
-0.0052367283
-0.0054169857
9.1924179e-05
0.00022221508
0.00031794954
0.00038461571
0.00042747331
0.00045352098
0.00045165355
0.00043725984
0.0003872301
0.00030703613
0.00016836796
-3.1827954e-05
-0.0003100893
-0.00066885009
-0.0011078073
-0.00161674
-0.0021769125
-0.0027618344
-0.0033394101
-0.0038777594
-0.0043501917
-0.0047402706
-0.0050448759
-0.0052742492
-0.0054514713
-0.0056094214
0.00010031943
0.0002412115
0.00033904769
0.00041718332
0.00046837123
0.00050198725
0.0005182552
0.00051286249
0.00049291016
0.00043312997
0.00033342673
0.00016516359
-7.4772754e-05
-0.0004006301
-0.00081249331
-0.0013065847
-0.0018677778
-0.0024727221
-0.0030896875
-0.0036837432
-0.0042217691
-0.0046788107
-0.00504225
-0.0053136074
-0.0055087444
-0.0056550517
-0.0057895393
0.00011597358
0.00025233712
0.0003653515
0.00044376352
0.00050725042
0.00055006861
0.00057320888
0.00058955607
0.00058122215
0.00055773032
0.00048184124
0.00035692277
0.0001516067
-0.00013461524
-0.0005140959
-0.00098412019
-0.0015364224
-0.0021509532
-0.0027985412
-0.003443213
-0.0040470426
-0.0045773121
-0.0050116861
-0.0053419818
-0.0055755016
-0.005732984
-0.0058466382
-0.0059567303
0.00012800141
0.0002696138
0.00038308177
0.00047524511
0.00053990039
0.00059431374
0.00062765663
0.00065162254
0.00067081234
0.00066199895
0.00062888711
0.00053119538
0.0003726597
0.00012373668
-0.00021576933
-0.00065478604
-0.0011877024
-0.0018008554
-0.0024683583
-0.0031555708
-0.0038218307
-0.0044279826
-0.0049423635
-0.0053464494
-0.0056376519
-0.005828699
-0.005945965
-0.006025467
-0.0061105697
0.00014513284
0.0002797281
0.00040798476
0.00049664605
0.0005770951
0.00063216291
0.00067613014
0.00071300487
0.00074224382
0.00076787448
0.00075344914
0.00070493366
0.0005762567
0.00037693092
7.6693696e-05
-0.00032264998
-0.00082733954
-0.0014275445
-0.0021030066
-0.0028221413
-0.0035439793
-0.0042247963
-0.0048246374
-0.0053145418
-0.0056809337
-0.0059270249
-0.0060719083
-0.0061466031
-0.0061909829
-0.0062507906
0.00016420291
0.00029316837
0.00042455831
0.00052561676
0.00060347845
0.00067396081
0.00071768636
0.00076561007
0.00081345007
0.00085221604
0.00088001083
0.00085360795
0.00077943841
0.00061315075
0.00036465754
6.0065892e-06
-0.0004603066
-0.0010367634
-0.0017075091
-0.0024460715
-0.0032134878
-0.0039638259
-0.0046505278
-0.0052347621
-0.0056913692
-0.0060125708
-0.0062084132
-0.006303596
-0.0063341206
-0.0063427944
-0.006377289
0.00018767416
0.00030411704
0.00044592262
0.00054460687
0.00063797807
0.00070354805
0.00076199342
0.00081040343
0.000872748
0.00093691774
0.00098206655
0.0010053334
0.00095531446
0.00084857698
0.00063648159
0.00033151354
-9.3516512e-05
-0.00063418397
-0.0012878837
-0.0020320497
-0.0028324462
-0.0036434407
-0.0044141315
-0.0050971186
-0.0056557065
-0.0060700028
-0.0063391674
-0.0064797786
-0.0065227223
-0.0065078627
-0.0064806762
-0.006490108
0.00021987812
0.00031288763
0.00046465376
0.00056851703
0.00066152799
0.0007418188
0.00079268334
0.00085646534
0.00092379523
0.0010062406
0.0010854522
0.0011296115
0.0011361634
0.0010549149
0.00090681898
0.00064206856
0.00027227272
-0.00022747193
-0.0008500877
-0.0015860732
-0.0024048488
-0.003264358
-0.0041119255
-0.0048935891
-0.0055619533
-0.0060844595
-0.0064477267
-0.0066581638
-0.0067396655
-0.0067281778
-0.0066673789
-0.0066045604
-0.0065894213
0.00025528765
0.0003228071
0.00048106611
0.00058954205
0.00069082344
0.00076727489
0.00083210012
0.00088648104
0.00097463258
0.0010670457
0.0011701384
0.0012566882
0.0012853429
0.0012675072
0.0011471606
0.00095057204
0.00062493544
0.00018128288
-0.00040241546
-0.0011144487
-0.0019363782
-0.0028295529
-0.0037429249
-0.0046185171
-0.0053998902
-0.0060420297
-0.006517842
-0.0068214943
-0.0069675645
-0.0069864044
-0.0069192175
-0.0068123838
-0.0067145255
-0.00667552
0.0002989398
0.00032595753
0.00050207815
0.0006089058
0.00071640668
0.00079948318
0.00085617469
0.00092506258
0.0010070049
0.0011257045
0.0012468912
0.0013615133
0.00144032
0.0014446319
0.0013942786
0.0012285805
0.00097551154
0.00057969202
5.1543401e-05
-0.00062570307
-0.0014336529
-0.0023440501
-0.0033086847
-0.0042688819
-0.0051615445
-0.0059302812
-0.0065338428
-0.0069523519
-0.007188615
-0.007265045
-0.0072188488
-0.0070951929
-0.0069427612
-0.0068107788
-0.006748799
0.00034288789
0.00033145692
0.00052256231
0.00063217557
0.00073976768
0.00082682297
0.00088853613
0.00094569656
0.0010491287
0.0011632597
0.0013189152
0.0014600091
0.0015679919
0.001629474
0.0016020466
0.0015137881
0.0012955609
0.00097703458
0.00049898382
-0.00012488486
-0.00090513747
-0.0018142647
-0.0028131787
-0.0038444572
-0.0048415824
-0.0057388064
-0.0064811674
-0.0070335367
-0.0073845755
-0.0075461063
-0.0075489483
-0.0074358148
-0.0072557022
-0.0070585537
-0.0068936457
-0.0068097358
0.00038971805
0.00033439251
0.00054876848
0.00065183399
0.00076805623
0.00085112191
0.00091269258
0.00097557447
0.0010689201
0.0012112183
0.0013684728
0.001551338
0.0016922169
0.0017823467
0.0018191028
0.0017552253
0.0016228042
0.0013444957
0.00094769433
0.00037463905
-0.00035696829
-0.0012487708
-0.0022623824
-0.003347749
-0.004437584
-0.0054597208
-0.0063469442
-0.0070485104
-0.0075370202
-0.0078108563
-0.0078915725
-0.0078173757
-0.0076365451
-0.007400507
-0.0071599488
-0.006963555
-0.0068588599
0.00043679287
0.00033521525
0.00057291338
0.00067565694
0.00079363753
0.00087945611
0.00093238757
0.000994185
0.0010971132
0.0012319482
0.001428871
0.0016197935
0.0018058662
0.0019338368
0.0019989573
0.0020075871
0.0019021887
0.0017193229
0.0013683454
0.00087907094
0.00019689833
-0.00065435689
-0.0016644428
-0.0027837048
-0.0039501506
-0.0050880941
-0.0061205918
-0.006982004
-0.0076276895
-0.008039957
-0.0082278853
-0.0082223534
-0.0080691037
-0.0078203505
-0.0075295625
-0.0072472568
-0.0070210135
-0.0068967396
0.00047750854
0.00033668568
0.00059713182
0.00069593501
0.00082499975
0.00090201721
0.00095948236
0.0010082851
0.0011107049
0.001262415
0.0014569304
0.0017000558
0.0018969151
0.002070689
0.0021793655
0.0022164322
0.0021944697
0.0020424176
0.0017970153
0.0013587742
0.00076056658
-4.5226486e-05
-0.0010268137
-0.0021599064
-0.0033828021
-0.0046221723
-0.0057943555
-0.0068206682
-0.00763908
-0.0082137497
-0.0085380747
-0.0086322017
-0.0085365487
-0.0083027951
-0.0079868857
-0.0076429766
-0.0073208866
-0.007066574
-0.0069240075
0.00050860551
0.00034136321
0.00062029737
0.00071321043
0.00085261971
0.00093084742
0.00098113896
0.0010338702
0.0011155733
0.001275304
0.0014981257
0.0017431136
0.0020000064
0.002185217
0.0023402645
0.0024278352
0.0024360066
0.0023810586
0.0021712767
0.0018479817
0.0013044733
0.00058034458
-0.00036352239
-0.0014840553
-0.0027419419
-0.004063466
-0.0053637312
-0.006553744
-0.0075551335
-0.0083127664
-0.0088014779
-0.0090269949
-0.0090209206
-0.0088320216
-0.0085177148
-0.0081359273
-0.0077410137
-0.0073813439
-0.0071008386
-0.0069413512
0.00035373007
0.00051186318
0.00063834285
0.00072649757
0.00087732934
0.00095631636
0.0010127931
0.0010535105
0.0011347282
0.0012736425
0.0015166563
0.0018048339
0.0020615217
0.002310714
0.0024789964
0.0026134002
0.0026821783
0.0026614079
0.0025647265
0.0022814276
0.0018607556
0.0011927145
0.00032505673
-0.00076979901
-0.002035203
-0.0034167977
-0.004827733
-0.0061736139
-0.0073619727
-0.0083183995
-0.0089970253
-0.0093855151
-0.0095026962
-0.0093910658
-0.0091074582
-0.0087131037
-0.0082675279
-0.0078240665
-0.0074292122
-0.007124464
-0.0069494866
0.00065306874
0.00035846568
0.00048508333
0.00073318755
0.00089646385
0.00097863439
0.0010422015
0.0010880069
0.0011494805
0.0012919203
0.0015138353
0.0018334525
0.0021478356
0.0023917305
0.0026266013
0.0027764656
0.0028950627
0.0029487423
0.0028912431
0.002738959
0.0023624157
0.0018220251
0.0010089192
-1.9405862e-05
-0.0012756036
-0.0026890194
-0.0041889438
-0.0056762764
-0.0070486222
-0.0082136994
-0.0091038552
-0.0096855354
-0.0099605933
-0.009961183
-0.0097404147
-0.0093613853
-0.0088887374
-0.0083818642
-0.0078926381
-0.007465103
-0.0071381432
-0.0069490973
0.00073995666
0.00064701218
0.00035496141
0.00044684977
0.0009036661
0.00099594384
0.0010699985
0.0011239906
0.0011845323
0.0013084353
0.0015352954
0.0018300506
0.002190047
0.0025000356
0.0027259081
0.0029459027
0.0030854234
0.0031947834
0.0032296464
0.0031210161
0.0028923147
0.0023997536
0.0017160693
0.0007372614
-0.00046703917
-0.0018921681
-0.0034528916
-0.0050615671
-0.0066076457
-0.0079841861
-0.0091021055
-0.0099043397
-0.010371743
-0.010521507
-0.010399048
-0.010066677
-0.0095931459
-0.0090444055
-0.0084793122
-0.0079473162
-0.0074896953
-0.0071425951
-0.0069408669
0.00090274913
0.00072762585
0.00062299691
0.00035810326
0.00040256373
0.0010020032
0.0010957426
0.0011606923
0.001227035
0.0013473192
0.0015537117
0.0018536234
0.0021936617
0.0025576099
0.0028558372
0.0030620972
0.0032780462
0.0034182688
0.0035171539
0.0035208853
0.0033397251
0.0030105268
0.00237637
0.0015254058
0.00036115161
-0.0010316392
-0.0026300463
-0.0043328924
-0.0060355289
-0.0076186608
-0.0089738123
-0.010019476
-0.010712084
-0.011049088
-0.011063452
-0.010813006
-0.010368441
-0.009801983
-0.0091803178
-0.0085603018
-0.0079887216
-0.0075037554
-0.0071385709
-0.0069254634
0.0010024338
0.00087597758
0.00069749895
0.00060044254
0.00036306441
0.00035728588
0.0011121179
0.0011972984
0.0012748374
0.0013968285
0.0015932847
0.0018718883
0.0022251847
0.0025739933
0.002926716
0.0032116532
0.003411629
0.0036396948
0.0037836693
0.0038595419
0.0038128303
0.003532587
0.0030746167
0.0022737831
0.0012314268
-0.00013568465
-0.0017266836
-0.0034986434
-0.005332877
-0.0071097958
-0.0087038321
-0.010009665
-0.01095702
-0.011519108
-0.011711178
-0.011581864
-0.011200559
-0.010644278
-0.0099878099
-0.0092966316
-0.0086254363
-0.0080176753
-0.0075081298
-0.0071267827
-0.0069035168
0.0011242088
0.00097465368
0.00082871944
0.00067165068
0.00057608785
0.00036449326
0.00031538469
0.0012243806
0.0013281442
0.0014526018
0.0016448773
0.0019100728
0.0022486042
0.0026189748
0.0029540523
0.0032944763
0.0035805414
0.0037948052
0.0040427371
0.0041809399
0.0042136848
0.0040913388
0.0036813984
0.0030661666
0.0020712843
0.0008151444
-0.00076951154
-0.0025652231
-0.004505245
-0.0064546142
-0.00828061
-0.0098558059
-0.011082305
-0.011905409
-0.012317302
-0.012351886
-0.01207287
-0.011559419
-0.010893547
-0.010150309
-0.0093939069
-0.0086755482
-0.0080351589
-0.0075035637
-0.007107794
-0.0068756123
0.0012478697
0.0011059231
0.00092264352
0.00078467041
0.00064659674
0.00055232129
0.00036157708
0.00027486241
0.001376551
0.0015152128
0.0017024384
0.0019597364
0.0022902747
0.0026527314
0.0030138941
0.0033307139
0.003672833
0.0039890982
0.0042295396
0.0044878432
0.0046030581
0.0045654473
0.0043369715
0.0037671746
0.0029640424
0.0017473334
0.00025764938
-0.0015569867
-0.0035583308
-0.0056551915
-0.0076969989
-0.0095419271
-0.011065073
-0.012181286
-0.012854775
-0.013098719
-0.012965658
-0.012533012
-0.011888065
-0.011115399
-0.010289846
-0.0094728456
-0.0087117892
-0.0080419439
-0.0074904444
-0.0070820656
-0.0068423588
0.0014256087
0.0012428805
0.0010609419
0.00087321511
0.00074095962
0.00062316582
0.00053064748
0.00035399873
0.00024169639
0.001572866
0.0017645265
0.0020119202
0.0023409774
0.0027038236
0.0030580103
0.0033978299
0.003707623
0.0040922573
0.0044596362
0.0047179748
0.0049698311
0.0050363705
0.0048938744
0.0045276052
0.003767099
0.0027452352
0.0012805482
-0.00046159815
-0.002513534
-0.0047155222
-0.0069507866
-0.0090561784
-0.010884881
-0.012320482
-0.013295095
-0.013795183
-0.013855823
-0.013547495
-0.012959561
-0.012184939
-0.011309782
-0.010407156
-0.0095348538
-0.0087349363
-0.0080381411
-0.0074690488
-0.0070504
-0.0068045125
0.0016327256
0.0014436787
0.0012086473
0.0010152
0.00082230361
0.00070222536
0.0006002285
0.00050724442
0.00034774026
0.00021165142
0.0018146097
0.0020643672
0.0023861808
0.0027638248
0.0031160467
0.0034457714
0.0037727223
0.0041213784
0.0045826067
0.0049951982
0.0052563008
0.0054754829
0.0054590391
0.0051761582
0.0046400163
0.003656025
0.0023848504
0.0006485898
-0.001361489
-0.0036530844
-0.0060432397
-0.0083914651
-0.010524925
-0.012298315
-0.013609204
-0.014411754
-0.014716833
-0.014581678
-0.014093104
-0.013349942
-0.012449304
-0.011477163
-0.010503741
-0.009580655
-0.008744726
-0.0080237526
-0.007440665
-0.0070142927
-0.0067628035
0.0018649411
0.0016617313
0.0014268439
0.001175419
0.00096272417
0.00077597081
0.00066884168
0.00057614673
0.00048952671
0.00033542055
0.00018941603
0.002098203
0.0024251524
0.0028103137
0.0031805645
0.0035017472
0.0038188831
0.0041857149
0.0046104262
0.005146981
0.0055942288
0.0058329039
0.0059811158
0.0058478796
0.0053894997
0.0046490112
0.0034074121
0.0018578835
-0.00017228302
-0.002461196
-0.0049871826
-0.007545196
-0.0099727468
-0.012092938
-0.013768594
-0.014917328
-0.015519012
-0.015610472
-0.015270015
-0.014598483
-0.013702416
-0.012681277
-0.01161931
-0.010580206
-0.0096094967
-0.0087407687
-0.0080008635
-0.0074082227
-0.0069748593
-0.0067173141
0.0021324674
0.0018831925
0.0016542145
0.0014059041
0.0011342741
0.0009128128
0.00073527779
0.00063947119
0.00055856457
0.00047098083
0.00032220177
0.00017194568
0.0024394683
0.0028451373
0.0032233773
0.0035675069
0.0038744418
0.0042313983
0.0046740512
0.0051852556
0.0057867896
0.0062452565
0.006422851
0.0064618144
0.0061806591
0.0055105712
0.0045290369
0.0029934968
0.0011366842
-0.0012052792
-0.0037773968
-0.0065246299
-0.0092208569
-0.011686297
-0.013746629
-0.015280251
-0.016230113
-0.016604959
-0.016467407
-0.015914924
-0.015060509
-0.014016542
-0.012882546
-0.011736562
-0.010635129
-0.0096204185
-0.00872622
-0.0079744965
-0.0073732446
-0.0069302948
-0.0066650549
0.0024538593
0.002132736
0.0018659689
0.0016431784
0.001370851
0.0010912277
0.00086709966
0.00070177306
0.0006210523
0.00053850923
0.00045594144
0.00030589658
0.00015588577
0.0028446677
0.0032515659
0.0036116255
0.0039497628
0.0042849209
0.004720763
0.0052579068
0.0058500224
0.0064938616
0.0069229343
0.0070012698
0.0068957769
0.0064335284
0.0055118196
0.0042508213
0.0023845185
0.0001939713
-0.0024732333
-0.0053250811
-0.0082702892
-0.011065298
-0.013519616
-0.015469583
-0.016816199
-0.017532751
-0.017658039
-0.017279298
-0.016511422
-0.015477833
-0.014293771
-0.013053349
-0.011826551
-0.010666792
-0.0096180234
-0.008708982
-0.0079465996
-0.0073300544
-0.0068746063
-0.0066060533
0.0028341871
0.0024329079
0.0020979201
0.0018506762
0.0016145633
0.0013301487
0.0010479341
0.00082802366
0.0006843853
0.00060006795
0.00052366912
0.00043755575
0.00028895515
0.00014332578
0.003242117
0.0036440198
0.0040043753
0.0043750377
0.0047685248
0.0053119459
0.0059454313
0.0066017974
0.0072389013
0.0075965767
0.0075465153
0.0072598847
0.0065779915
0.0053623356
0.0037815316
0.0015486745
-0.00099974455
-0.0039975132
-0.007115302
-0.01022393
-0.013068426
-0.015456336
-0.017242824
-0.018358666
-0.018810431
-0.018666923
-0.018038711
-0.0170568
-0.015851431
-0.014533922
-0.013189875
-0.011886595
-0.010681628
-0.0096139493
-0.0086914753
-0.0079056169
-0.0072672712
-0.0068126279
-0.0065415669
0.0032257522
0.0027786358
0.0023770074
0.0020682226
0.0018210663
0.0015774894
0.0012847951
0.0010092666
0.00080487371
0.00066728604
0.00058859547
0.00050767793
0.00041600157
0.00027594565
0.00012640142
0.0036397486
0.0040530955
0.0044482797
0.0048701667
0.0053621422
0.0060249614
0.0067300247
0.0074137499
0.0079907324
0.0082452719
0.0080364065
0.0075261944
0.0065833267
0.0050268631
0.0030855696
0.0004522351
-0.0024721406
-0.005796899
-0.0091540187
-0.012379661
-0.015215205
-0.017476294
-0.019045753
-0.019889307
-0.020048288
-0.019621075
-0.018741001
-0.01755127
-0.016180421
-0.014731473
-0.013288192
-0.011925351
-0.010696031
-0.0096111257
-0.0086539544
-0.0078323828
-0.0071985807
-0.0067447862
-0.0064716442
0.0036336769
0.0031670639
0.0026913442
0.0023277283
0.0020265909
0.0017862466
0.0015323053
0.0012413858
0.00098590578
0.00078108066
0.00066332712
0.00057606434
0.00048897711
0.00039862961
0.00025605501
0.00011612655
0.0040685116
0.0045220766
0.004960764
0.005480148
0.0060858656
0.0068501198
0.0075864022
0.0082507587
0.0087298441
0.0088496996
0.0084456544
0.0076638722
0.0064142637
0.0044672181
0.0021239438
-0.00093960836
-0.0042509946
-0.0078851319
-0.011441163
-0.014725378
-0.017485466
-0.019556558
-0.020856421
-0.021389223
-0.021231975
-0.020513219
-0.019385192
-0.01799288
-0.016457091
-0.014880733
-0.013359612
-0.011965237
-0.010713518
-0.0095789013
-0.0085668301
-0.007753499
-0.0071236034
-0.0066712776
-0.0063962805
0.0040865248
0.0035906765
0.003076063
0.0026220931
0.0022682425
0.0019846968
0.00174427
0.0014863086
0.0012126076
0.000960902
0.00077674866
0.00065728825
0.000559167
0.00047515701
0.00037334168
0.00024286592
0.00010015434
0.0045639398
0.00505944
0.0055869219
0.006222531
0.0069297316
0.0077625265
0.0084842368
0.0090915293
0.0094409278
0.0093861924
0.0087432275
0.007638567
0.0060316642
0.003640334
0.0008557359
-0.0026619373
-0.0063593187
-0.010270056
-0.013969517
-0.017242409
-0.019854762
-0.021671705
-0.022651511
-0.022839555
-0.022350808
-0.021340623
-0.019967899
-0.01837083
-0.016673348
-0.014996136
-0.013434118
-0.01201037
-0.010689296
-0.0094741807
-0.0084742174
-0.0076676664
-0.0070428543
-0.0065920739
-0.0063155282
0.0046089546
0.0040683138
0.0035153254
0.0030042018
0.0025493929
0.0022144901
0.0019375136
0.0017013777
0.0014522263
0.0011843132
0.00095641039
0.00077147835
0.00064441643
0.00054768314
0.00045104309
0.00035503625
0.00022188479
9.0154824e-05
0.0051336664
0.0057027965
0.0063463023
0.007077057
0.0078764428
0.0087392439
0.0093964018
0.0099245702
0.010102135
0.009822771
0.0088971058
0.0074099326
0.0053913675
0.0024986289
-0.00076389102
-0.0047489215
-0.0088142309
-0.012951765
-0.016723748
-0.01990603
-0.022294757
-0.023793852
-0.024406992
-0.024225338
-0.023399609
-0.02209794
-0.020474447
-0.018674191
-0.016847247
-0.015117054
-0.01351649
-0.011997971
-0.010563024
-0.0093639826
-0.0083737245
-0.0075760266
-0.0069562795
-0.0065072242
-0.0062294289
0.0052209665
0.0046200529
0.0040168853
0.0034566693
0.0029260927
0.0024892276
0.0021580882
0.0018911012
0.0016692061
0.0014187741
0.0011785658
0.0009463846
0.00075710627
0.00063525571
0.00052442557
0.00043410828
0.00032815063
0.00020664005
7.6273431e-05
0.005795079
0.0064637532
0.0072133161
0.0080447415
0.0089044371
0.009753819
0.010314459
0.010730687
0.010680743
0.01012826
0.0088669251
0.0069304146
0.0044402036
0.00098844495
-0.0027812625
-0.0072282951
-0.011625234
-0.015920802
-0.019680617
-0.022685855
-0.024773101
-0.025893225
-0.026102709
-0.025538178
-0.02437043
-0.022765684
-0.020889594
-0.018924978
-0.017029672
-0.015249041
-0.013521095
-0.011845883
-0.01043095
-0.0092447271
-0.0082674962
-0.0074783891
-0.0068639048
-0.0064168011
-0.006138075
0.0059053126
0.0052735226
0.0045978298
0.0039795077
0.0033827221
0.0028588183
0.0024269942
0.0021072424
0.0018618598
0.0016367277
0.0014067399
0.0011616982
0.00092411801
0.00074856932
0.00061177215
0.00050833762
0.00040676517
0.00030680619
0.00018642787
6.5249003e-05
0.0065468088
0.0073294412
0.0081922228
0.0091190433
0.0099917405
0.010792031
0.011226551
0.011485929
0.011149558
0.010264558
0.0086054061
0.0061437138
0.0031171671
-0.00094544998
-0.0052369876
-0.010120842
-0.014790706
-0.019157829
-0.022809084
-0.025545526
-0.027253969
-0.027943604
-0.027726193
-0.026766778
-0.025237831
-0.023323013
-0.021240223
-0.019188059
-0.017227115
-0.015277761
-0.013338619
-0.011687139
-0.010288415
-0.0091198078
-0.0081550951
-0.0073748343
-0.0067658353
-0.0063209347
-0.0060415413
0.0066482008
0.0059821402
0.0052803669
0.0045880596
0.0039155796
0.0033148623
0.0027870501
0.0023771678
0.0020853394
0.0018347847
0.0016258359
0.0013806101
0.0011255912
0.00091008155
0.00072233305
0.00059579423
0.00048006569
0.00038416463
0.00028012339
0.00016828384
5.3716862e-05
0.0073926795
0.0083085265
0.0092966825
0.010273004
0.011114735
0.011839107
0.012109129
0.012166886
0.011475583
0.010183231
0.0080566002
0.0049800113
0.0013559833
-0.0033571225
-0.0081688409
-0.013436121
-0.018297082
-0.022633164
-0.026069781
-0.028443048
-0.029704218
-0.029927507
-0.029262014
-0.027878432
-0.025973727
-0.023801639
-0.021607958
-0.019471072
-0.017289459
-0.015060083
-0.013147888
-0.011516244
-0.01014032
-0.0089885821
-0.0080366832
-0.0072654552
-0.006662235
-0.0062197748
-0.0059399012
0.0074675114
0.0067199949
0.006007034
0.0052848889
0.0045391812
0.0038533475
0.0032394209
0.002734017
0.0023671326
0.0020588647
0.0018325741
0.0015935337
0.0013335109
0.0011013524
0.00087429509
0.00070388008
0.00056542069
0.00045581007
0.00035514524
0.00025431678
0.0001495137
4.1718857e-05
0.0083485901
0.0094200332
0.010506647
0.011481863
0.012257647
0.012877056
0.012936247
0.012746145
0.011610193
0.0098285731
0.0071480791
0.0033597924
-0.00091250118
-0.0062988135
-0.011601045
-0.017170502
-0.022118316
-0.026306009
-0.029414952
-0.031337678
-0.032100465
-0.031824598
-0.03066873
-0.028835786
-0.026614738
-0.02430378
-0.022001862
-0.019579672
-0.017031648
-0.014831517
-0.012942963
-0.011339935
-0.0099857697
-0.0088512479
-0.0079123261
-0.0071505305
-0.0065533305
-0.0061133514
-0.0058332265
0.0083887858
0.0075153558
0.0067487554
0.0060182869
0.0052350475
0.0044777406
0.0037766947
0.0031885481
0.0027271475
0.00234475
0.0020662068
0.00180186
0.0015379379
0.0012994802
0.0010515811
0.00084790463
0.00066896584
0.00053869424
0.00042406177
0.00032530603
0.00022780901
0.00012886765
3.1749208e-05
0.0094365121
0.01066513
0.01179115
0.01273233
0.013417668
0.013886895
0.013682096
0.013195637
0.011505792
0.0091204194
0.0057918778
0.0011983395
-0.0037595561
-0.0098107222
-0.015542873
-0.021305307
-0.026213784
-0.030123625
-0.032795947
-0.034199139
-0.034416606
-0.033583136
-0.031897219
-0.029680304
-0.027287288
-0.024840105
-0.022173273
-0.019276921
-0.016758948
-0.014586245
-0.012732781
-0.011157002
-0.0098249941
-0.0087078931
-0.0077824327
-0.0070303289
-0.0064389936
-0.0060016437
-0.005721759
0.0094342038
0.0083904649
0.0075275204
0.006762057
0.0059609599
0.0051589868
0.004387938
0.0037267256
0.0031783948
0.002706518
0.0023626167
0.0020389727
0.0017411739
0.0014972505
0.0012375194
0.0010132817
0.00080363658
0.00063656411
0.00050333607
0.00038994762
0.00029427151
0.0001978454
0.0001104616
1.961633e-05
0.010676404
0.012013641
0.013135481
0.014023876
0.014582499
0.014842253
0.014331463
0.013480646
0.011082067
0.0079579393
0.0038878269
-0.0015925976
-0.0072478721
-0.013917605
-0.019986646
-0.025804134
-0.030526986
-0.034029261
-0.036174828
-0.036994805
-0.036589063
-0.035139293
-0.032993333
-0.03056681
-0.028004917
-0.025095796
-0.021821299
-0.018953407
-0.016466387
-0.014335852
-0.012515763
-0.010967697
-0.0096580998
-0.0085590469
-0.0076473094
-0.0069045263
-0.006318949
-0.0058851373
-0.0056056348
0.010631588
0.0093839907
0.0083621464
0.007524896
0.0066979917
0.0058651823
0.0050455808
0.0043323427
0.0037063904
0.003152841
0.002726726
0.0023356797
0.0019710668
0.0016978151
0.0014249452
0.0011875848
0.00095653756
0.00076073283
0.00059493181
0.00046374934
0.00035410157
0.00025770877
0.00016988381
8.8373091e-05
1.0208748e-05
0.01204253
0.013438493
0.014534812
0.015333434
0.015721163
0.015728408
0.014860477
0.013538821
0.010235899
0.0062250881
0.0013329062
-0.0050968082
-0.011425445
-0.018623926
-0.024902276
-0.030610118
-0.034993399
-0.037976459
-0.039511696
-0.039647624
-0.03853591
-0.036542272
-0.034145362
-0.031512843
-0.028372449
-0.024691376
-0.021440126
-0.018606072
-0.016168756
-0.014078317
-0.01229216
-0.010772118
-0.0094857852
-0.0084050123
-0.0075063577
-0.0067724197
-0.0061940658
-0.0057640285
-0.0054850308
0.01197849
0.01052746
0.009303052
0.0083237154
0.0074364607
0.0065858167
0.0057250191
0.0049759399
0.0042932123
0.003673358
0.0031668519
0.0026927719
0.0022533363
0.0019249619
0.0016181925
0.0013650514
0.0011184915
0.00089954307
0.00070933717
0.00054704154
0.00042208107
0.00031067256
0.0002225848
0.0001368011
6.8868243e-05
-1.3844505e-06
0.013498804
0.014927189
0.015966658
0.016639661
0.01682515
0.016542757
0.015230664
0.013275871
0.0088450398
0.003793529
-0.0019808077
-0.0093839971
-0.016317625
-0.023909189
-0.030233487
-0.035653383
-0.039557732
-0.041916917
-0.042714523
-0.042054021
-0.040308133
-0.038019447
-0.035376349
-0.032027202
-0.027914168
-0.024245855
-0.021030133
-0.01825352
-0.015863509
-0.013813868
-0.01206204
-0.01057117
-0.0093083555
-0.0082447842
-0.0073583017
-0.0066354772
-0.0060645839
-0.0056385884
-0.0053600961
0.013427257
0.011824293
0.010384319
0.0092134905
0.008198901
0.0073000859
0.006420051
0.0056353793
0.0049091543
0.0042432651
0.0036748662
0.0031169279
0.0025880683
0.0021975937
0.0018353319