/*--------------------------------*- C++ -*----------------------------------*\
| =========                 |                                                 |
| \\      /  F ield         | OpenFOAM: The Open Source CFD Toolbox           |
|  \\    /   O peration     | Version:  5.0                                   |
|   \\  /    A nd           | Web:      www.OpenFOAM.org                      |
|    \\/     M anipulation  |                                                 |
\*---------------------------------------------------------------------------*/
FoamFile
{
    version     2.0;
    format      ascii;
    class       volScalarField;
    location    "60";
    object      pPrime2Mean;
}
// * * * * * * * * * * * * * * * * * * * * * * * * * * * * * * * * * * * * * //

dimensions      [0 4 -4 0 0 0 0];

internalField   nonuniform List<scalar> 
9520
(
9.186055e-07
8.4707193e-07
6.2672591e-06
7.2680749e-07
5.7797674e-06
1.6962745e-05
5.8158682e-07
4.9595353e-06
1.5648381e-05
3.3486049e-05
4.3225605e-07
3.9681602e-06
1.3435695e-05
3.090491e-05
5.6730603e-05
2.948112e-07
2.947511e-06
1.0759232e-05
2.6556528e-05
5.2388098e-05
8.793238e-05
1.7991066e-07
2.0066664e-06
8.0009564e-06
2.1290896e-05
4.5065635e-05
8.1258572e-05
0.00012866031
9.3319322e-08
1.218615e-06
5.4552049e-06
1.5856489e-05
3.6186023e-05
6.9992424e-05
0.00011899358
0.00018079075
3.6811322e-08
6.2313185e-07
3.3196937e-06
1.0831984e-05
2.700492e-05
5.6307009e-05
0.00010265372
0.00016736518
0.00024650101
9.2457646e-09
2.3283778e-07
1.7029507e-06
6.6081872e-06
1.849722e-05
4.2125192e-05
8.2765082e-05
0.00014463784
0.00022843773
0.00032825033
7.5500184e-09
4.0360619e-08
6.4033632e-07
3.4017633e-06
1.132582e-05
2.89475e-05
6.2100797e-05
0.00011691072
0.00019780843
0.00030455344
0.00042876124
2.7641353e-08
2.5152014e-08
1.1308598e-07
1.2858327e-06
5.8628843e-06
1.7802654e-05
4.2837756e-05
8.8015491e-05
0.0001603444
0.00026429729
0.00039831864
0.00055098896
6.4968577e-08
1.5940864e-07
6.6606297e-08
2.266667e-07
2.2394239e-06
9.2769043e-06
2.6482653e-05
6.0980263e-05
0.00012117005
0.00021491746
0.00034649867
0.00051257888
0.00069808398
1.1520441e-07
4.1245406e-07
4.2631092e-07
1.1929557e-07
4.0554015e-07
3.5866554e-06
1.3908914e-05
3.7923544e-05
8.4365433e-05
0.00016309001
0.00028273554
0.00044705396
0.00065038746
0.00087334365
1.7416188e-07
7.5421707e-07
1.1096346e-06
8.1838966e-07
1.8952362e-07
6.6825361e-07
5.4558633e-06
2.0096913e-05
5.2819189e-05
0.00011417414
0.00021553784
0.00036615455
0.00056883025
0.00081496338
0.0010801559
2.3857562e-07
1.1568838e-06
2.0352049e-06
2.1621171e-06
1.3494641e-06
2.6720956e-07
1.0539445e-06
8.013225e-06
2.827338e-05
7.2013581e-05
0.00015179646
0.00028051943
0.00046777148
0.00071488938
0.001009641
0.0013219335
3.0523304e-07
1.5966711e-06
3.1278118e-06
3.990046e-06
3.6136952e-06
2.0168824e-06
3.5107547e-07
1.61273e-06
1.1481678e-05
3.8977959e-05
9.6523125e-05
0.00019884651
0.00036028755
0.00059040729
0.00088844829
0.0012378103
0.0016020438
3.7227928e-07
2.0533722e-06
4.3226269e-06
6.1535932e-06
6.7111056e-06
5.5010751e-06
2.8255021e-06
4.3374162e-07
2.4209235e-06
1.6149753e-05
5.2879953e-05
0.00012755627
0.00025717683
0.00045733921
0.00073708131
0.00109283
0.0015028511
0.0019237332
4.3743176e-07
2.511573e-06
5.5649353e-06
8.5238784e-06
1.0389557e-05
1.0301125e-05
7.8769837e-06
3.7673824e-06
5.1308734e-07
3.5842739e-06
2.2391294e-05
7.0798771e-05
0.00016653569
0.00032888868
0.00057440577
0.00091097687
0.001331407
0.0018080623
0.0022900561
5.0009039e-07
2.9588018e-06
6.8123322e-06
1.0992301e-05
1.4429225e-05
1.602551e-05
1.4895917e-05
1.0784731e-05
4.830099e-06
5.8910511e-07
5.2526309e-06
3.0682847e-05
9.3729669e-05
0.00021511819
0.00041633766
0.00071443552
0.0011153979
0.001607538
0.0021565857
0.0027038025
5.5861102e-07
3.3869356e-06
8.0310606e-06
1.3473856e-05
1.8644417e-05
2.2330762e-05
2.3308163e-05
2.0634472e-05
1.4265402e-05
5.9872817e-06
6.7216423e-07
7.6311692e-06
4.1628491e-05
0.00012286871
0.00027521331
0.00052213347
0.00088056693
0.0013537178
0.0019244975
0.0025513417
0.0031674263
6.133568e-07
3.7894408e-06
9.1983941e-06
1.5901352e-05
2.2888859e-05
2.8925504e-05
3.2606331e-05
3.2508296e-05
2.7667677e-05
1.8342411e-05
7.2002529e-06
7.8614688e-07
1.1000303e-05
5.5984764e-05
0.00015963998
0.00034899836
0.00064913173
0.0010760937
0.0016293205
0.0022854024
0.002994955
0.0036829815
6.6301512e-07
4.1636465e-06
1.0296773e-05
1.8228621e-05
2.7046542e-05
3.5578903e-05
4.2358046e-05
4.568656e-05
4.3933069e-05
3.6137161e-05
2.3017593e-05
8.4124835e-06
9.8069487e-07
1.5735779e-05
7.4690987e-05
0.0002057219
0.00043892828
0.00080041808
0.0013044198
0.0019455255
0.002693154
0.0034896871
0.0042520703
7.0865446e-07
4.5064968e-06
1.1317959e-05
2.0420754e-05
3.1037229e-05
4.2107297e-05
5.2219003e-05
5.9552118e-05
6.2069816e-05
5.7900398e-05
4.6168409e-05
2.8257574e-05
9.5522961e-06
1.3424206e-06
2.2336349e-05
9.8901092e-05
0.00026307179
0.0005477396
0.00097928166
0.0015690056
0.0023055325
0.0031503598
0.0040373802
0.0048758007
7.4908644e-07
4.8194507e-06
1.225453e-05
2.2459943e-05
3.4799876e-05
4.8382983e-05
6.1913963e-05
7.3609448e-05
8.1221163e-05
8.2296632e-05
7.4731982e-05
5.7850263e-05
3.3986533e-05
1.0533097e-05
2.0142406e-06
3.1454361e-05
0.00013001738
0.00033394776
0.00067844497
0.0011891794
0.0018732945
0.002712352
0.003659271
0.0046394078
0.0055547595
7.858929e-07
5.1005876e-06
1.3108272e-05
2.4332091e-05
3.8302983e-05
5.4308087e-05
7.1250307e-05
8.7460723e-05
0.00010069399
0.00010816312
0.00010694412
9.472772e-05
7.1218882e-05
4.0074666e-05
1.1260917e-05
3.2191469e-06
4.3931899e-05
0.0001697253
0.00042092391
0.00083431938
0.0014336896
0.0022206657
0.0031687313
0.0042217233
0.0052966412
0.0062889947
8.1791934e-07
5.3541755e-06
1.3876311e-05
2.603842e-05
4.1521982e-05
5.9831591e-05
8.0079299e-05
0.00010082517
0.00011992809
0.00013455022
0.00014125549
0.00013659822
0.00011814319
8.6235246e-05
4.6332352e-05
1.1645111e-05
5.2913556e-06
6.0841061e-05
0.00022002582
0.00052690019
0.0010188748
0.0017164398
0.0026143603
0.0036770868
0.0048390916
0.0060094235
0.0070780151
8.4707714e-07
5.5785648e-06
1.4566952e-05
2.7574945e-05
4.44575e-05
6.4912446e-05
8.8322998e-05
0.00011348545
0.00013852448
0.00016068442
0.00017638657
0.0001814299
0.00017182752
0.00014515864
0.0001027657
5.2504432e-05
1.1618139e-05
8.7127659e-06
8.3526781e-05
0.00028326655
0.00065510135
0.0012358226
0.0020410669
0.0030574049
0.0042394444
0.0055122501
0.0067775613
0.007920802
8.7283519e-07
5.7792054e-06
1.5178975e-05
2.895565e-05
4.7103801e-05
6.9550818e-05
9.5918377e-05
0.00012532522
0.0001561714
0.00018600988
0.00021128844
0.00022752298
0.00022964374
0.00021314695
0.00017584725
0.00012055934
5.8273693e-05
1.1161278e-05
1.4158402e-05
0.0001136531
0.0003621655
0.00080906636
0.0014890096
0.0024111394
0.0035525405
0.0048573835
0.0062415499
0.0076003279
0.0088158302
8.9582497e-07
5.9549128e-06
1.5723142e-05
3.0180146e-05
4.9482148e-05
7.3736413e-05
0.00010286324
0.00013625152
0.0001727008
0.0002100887
0.00024519534
0.00027347481
0.00028936211
0.00028684337
0.00026097664
0.00021013706
0.00013923233
6.3268533e-05
1.0341567e-05
2.2547641e-05
0.00015324753
0.00045982927
0.00099262188
0.0017823772
0.0028300807
0.0041021509
0.0055319962
0.0070268069
0.008476477
0.0097611037
9.1478111e-07
6.1032682e-06
1.6200212e-05
3.1268587e-05
5.1593655e-05
7.7501361e-05
0.00010914273
0.0001462571
0.00018797425
0.00023267725
0.00027750533
0.00031824501
0.00034913177
0.00036335808
0.00035391753
0.00031559172
0.00024777553
0.00015825314
6.7082704e-05
9.3575004e-06
3.5101207e-05
0.00020474571
0.00057975744
0.0012098334
0.0021198917
0.0033010866
0.0047082033
0.0062638542
0.0078673008
0.0094042711
0.010754198
9.3344555e-07
6.208504e-06
1.6600949e-05
3.2222155e-05
5.3470346e-05
8.0848794e-05
0.00011480192
0.00015532204
0.00020197616
0.00025357767
0.00030786678
0.00036101477
0.00040755291
0.00044027451
0.00045096755
0.00043163951
0.00037706865
0.00028829158
0.00017693924
6.9305737e-05
8.5972557e-06
5.3404268e-05
0.00027102691
0.00072583583
0.0014649614
0.002505459
0.0038270492
0.0053721914
0.0070529891
0.0087617905
0.010381518
0.011792308
9.593086e-07
6.2674008e-06
1.6881041e-05
3.3023104e-05
5.5115021e-05
8.3826689e-05
0.0001198465
0.00016350498
0.0002146761
0.00027275649
0.00033600361
0.0004012846
0.00046352185
0.00051572805
0.00054900198
0.00055358995
0.00052059917
0.00044522616
0.00033096568
0.00019446165
6.9568406e-05
8.7073835e-06
7.9468298e-05
0.00035544436
0.000902306
0.001762403
0.00294284
0.0044104794
0.0060950922
0.0078988861
0.0097085386
0.011405615
0.012872305
9.9718623e-07
6.3211149e-06
1.7021838e-05
3.3574705e-05
5.6495947e-05
8.6439864e-05
0.00012434634
0.00017082134
0.00022614608
0.0002901681
0.00036184918
0.00043867415
0.00051634126
0.0005882433
0.00064555925
0.00067743936
0.00067248933
0.00062112655
0.00051956832
0.00037480409
0.00020986736
6.760308e-05
1.0670656e-05
0.00011579544
0.00046183818
0.0011137207
0.0021066071
0.0034355588
0.0050534391
0.0068773335
0.0088004911
0.010705346
0.012473602
0.013990794
1.0467313e-06
6.3682273e-06
1.7144585e-05
3.38293e-05
5.7425966e-05
8.8633852e-05
0.00012831415
0.00017736571
0.00023641484
0.00030589875
0.00038533597
0.00047306497
0.00056548588
0.00065685656
0.00073868551
0.0007999699
0.00082765514
0.00080870658
0.00073321089
0.00059922793
0.00041852789
0.00022211684
6.3320864e-05
1.5894406e-05
0.00016543237
0.00059453517
0.0013649072
0.0025019806
0.0039868136
0.005757479
0.0077187771
0.0097562286
0.011749595
0.013582214
0.015144169
1.1008915e-06
6.4115065e-06
1.7249691e-05
3.4050405e-05
5.7822335e-05
9.008166e-05
0.00013165096
0.00018315383
0.00024559376
0.00031999201
0.00040656672
0.00050435737
0.00061076112
0.0007208453
0.00082706021
0.0009186134
0.00098193284
0.0010015689
0.00096295982
0.00085641592
0.00068291851
0.00046057442
0.00023014155
5.6908752e-05
2.6298907e-05
0.00023201823
0.00075831023
0.0016608807
0.0029527873
0.0045993883
0.0065235933
0.008618712
0.010764033
0.012838303
0.014727942
0.016328676
1.149918e-06
6.4489145e-06
1.7342227e-05
3.4241899e-05
5.8164312e-05
9.0656974e-05
0.00013383353
0.00018803663
0.00025373083
0.00033258423
0.00042559211
0.00053266671
0.00065202089
0.00077990348
0.00090969389
0.0010315784
0.0011319739
0.0011943787
0.0012008391
0.0011355381
0.00098979569
0.00076889109
0.00049912253
0.00023293014
4.8937464e-05
4.4410806e-05
0.00031981226
0.0009583725
0.0020067496
0.0034630423
0.0052755751
0.0073521811
0.0095758658
0.011821387
0.013968171
0.01590709
0.017540464
1.1880573e-06
6.4799498e-06
1.742392e-05
3.441235e-05
5.8462169e-05
9.1164206e-05
0.00013467501
0.00019117529
0.00026061089
0.00034375445
0.00044258725
0.00055805282
0.00068938498
0.00083381233
0.00098611921
0.0011375161
0.0012753688
0.0013828016
0.0014400758
0.0014267442
0.0013261866
0.0011318072
0.00085491204
0.00053214194
0.0002296348
4.0488408e-05
7.3445066e-05
0.00043369013
0.0012002885
0.0024076058
0.0040364063
0.0060171015
0.0082430297
0.010588426
0.012925372
0.01513565
0.01711583
0.018775642
1.2133984e-06
6.5055615e-06
1.7495843e-05
3.4564675e-05
5.8729245e-05
9.1622898e-05
0.00013538508
0.00019231584
0.00026490491
0.00035317686
0.00045766009
0.00058074051
0.00072292518
0.00088268871
0.0010560099
0.0012357306
0.0014102935
0.0015636305
0.0016750994
0.0017215124
0.0016800493
0.0015339799
0.0012802322
0.00093826251
0.00055747736
0.00021971004
3.3282346e-05
0.00011737762
0.00057913801
0.0014898934
0.0028684046
0.00467608
0.0068250782
0.0091953085
0.011654073
0.01407272
0.016336993
0.018350265
0.020030325
1.2274405e-06
6.5255303e-06
1.7558405e-05
3.4699203e-05
5.8969576e-05
9.2039662e-05
0.00013601659
0.00019323379
0.00026635024
0.00035883422
0.00047033107
0.00060086199
0.00075291942
0.00092660689
0.0011194617
0.0013257379
0.001535737
0.0017344212
0.001901678
0.0020127317
0.0020407579
0.0019608484
0.0017571909
0.0014321132
0.001015772
0.00057296944
0.00020306958
2.9815487e-05
0.00018098803
0.00076221405
0.0018331756
0.0033938355
0.0053847123
0.0076999553
0.010207581
0.012770028
0.015259875
0.017568316
0.019606468
0.021300678
6.540021e-06
1.2272041e-06
1.760984e-05
3.4820596e-05
5.9187946e-05
9.2415129e-05
0.00013658112
0.00019402883
0.00026749988
0.00036050887
0.00047762845
0.00061775194
0.00077953174
0.00096590744
0.001176541
0.001407585
0.0016509894
0.0018937361
0.0021165625
0.0022948633
0.0023992981
0.0023992901
0.0022683863
0.0019931563
0.0015837201
0.0010838948
0.00057661174
0.00018026933
3.348108e-05
0.00026987541
0.00098946664
0.002236143
0.0039881946
0.0061643147
0.0086415028
0.011277829
0.013933103
0.016483048
0.018825655
0.020880543
0.022582955
1.765438e-05
6.5395506e-06
1.2108895e-06
3.4934366e-05
5.9392698e-05
9.275011e-05
0.00013707822
0.00019471209
0.0002684832
0.00036175935
0.00047945632
0.00062710507
0.00080186032
0.0010007899
0.0012276592
0.0014813086
0.0017560035
0.0020405607
0.0023177394
0.0025636115
0.0027484798
0.0028379655
0.0027977822
0.0026008641
0.0022381639
0.0017305523
0.0011388303
0.00056675135
0.00015269654
4.8680254e-05
0.0003904688
0.0012678221
0.002704675
0.0046552568
0.0070161971
0.009648802
0.012403494
0.015139759
0.017738287
0.020105017
0.022168656
0.023873534
3.5048111e-05
1.7684623e-05
6.5251657e-06
1.1836274e-06
5.9598503e-05
9.3047163e-05
0.00013750087
0.00019527166
0.00026930118
0.00036280956
0.00048067226
0.00062906526
0.00081376283
0.0010300386
0.001273048
0.0015473878
0.001850754
0.0021747062
0.0025037735
0.0028161834
0.0030826598
0.003267619
0.0033312376
0.0032358561
0.0029552383
0.0024873633
0.0018673926
0.0011767047
0.0005423201
0.00012276751
8.0879848e-05
0.00054996502
0.0016044434
0.0032443622
0.0053981622
0.0079409169
0.010720263
0.013581524
0.016386174
0.019021525
0.021402429
0.023467077
0.025168938
5.9828557e-05
3.5137044e-05
1.7697088e-05
6.5070825e-06
1.1490844e-06
9.3316521e-05
0.00013783652
0.00019570071
0.00026992532
0.00036367771
0.00048170313
0.00063008348
0.00081587472
0.0010450363
0.0013111004
0.001606096
0.001935776
0.0022960655
0.0026742654
0.0030505624
0.0033979979
0.0036808752
0.0038569491
0.0038806724
0.0037118078
0.003327033
0.0027347242
0.0019884234
0.0011938033
0.0005031013
9.4107802e-05
0.00013667702
0.00075623323
0.0020065615
0.0038603469
0.0062193126
0.0089382558
0.011853649
0.014808435
0.017668301
0.020328647
0.022713984
0.024772211
0.026465864
9.3590707e-05
6.004758e-05
3.5192345e-05
1.7693313e-05
6.4856084e-06
1.1080699e-06
0.00013808623
0.00019600122
0.00027034407
0.00036434222
0.0004825699
0.00063098756
0.0008164887
0.0010473085
0.0013298324
0.0016553241
0.0020113563
0.0024052262
0.0028289749
0.0032660184
0.0036916906
0.0040725029
0.0043653355
0.0045203994
0.0044865404
0.0042223193
0.003710187
0.0029730517
0.0020874147
0.0011868695
0.00045000797
7.1701944e-05
0.00022378524
0.0010176737
0.0024812862
0.0045571643
0.0071202935
0.010007211
0.013046127
0.016080377
0.018981937
0.021655536
0.024035874
0.02608062
0.027761199
0.00013830323
9.3835046e-05
6.022231e-05
3.5223527e-05
1.7661144e-05
6.4596146e-06
1.0649818e-06
0.00019619093
0.00027056492
0.00036478762
0.00048325411
0.00063174185
0.0008171553
0.0010472386
0.001332301
0.0016785249
0.0020747421
0.0025025188
0.0029685384
0.0034620831
0.0039625341
0.0044386295
0.0048493532
0.0051426948
0.0052607822
0.005147463
0.0047621911
0.0040969412
0.0031940757
0.0021579985
0.0011534465
0.00038536744
6.2009393e-05
0.0003509711
0.0013430343
0.0030354034
0.0053386007
0.0081018137
0.011146012
0.014294322
0.017393202
0.020322788
0.022998125
0.025364429
0.02738905
0.029052027
0.00019633974
0.00013845809
9.401684e-05
6.0340836e-05
3.521241e-05
1.7600125e-05
6.4258307e-06
1.0264207e-06
0.00027061848
0.00036501425
0.0004837302
0.00063234588
0.00081768734
0.0010474662
0.0013311134
0.0016813378
0.0021030982
0.0025844219
0.0030933192
0.0036393769
0.0042097338
0.0047773429
0.0053036986
0.0057381935
0.0060187757
0.0060793762
0.0058600303
0.0053240927
0.0044777875
0.0033886432
0.0021940224
0.0010922678
0.00031318087
7.3038759e-05
0.00052792477
0.0017411904
0.0036751705
0.0062075667
0.0091636754
0.012352159
0.015594386
0.018742538
0.02168652
0.024352436
0.026696139
0.028694441
0.030335643
0.00027063008
0.00019638307
0.0001385452
9.4159358e-05
6.0366733e-05
3.5145445e-05
1.7515596e-05
6.3811118e-06
9.9513955e-07
0.00036505165
0.00048400358
0.00063277071
0.000818098
0.00104765
0.0013305625
0.001678553
0.0021060299
0.0026193899
0.0031988896
0.00379822
0.0044338739
0.0050873312
0.0057254622
0.0062997164
0.006748206
0.0069981248
0.0069754569
0.0066184303
0.0058983443
0.0048415179
0.0035470103
0.0021899934
0.0010036621
0.00023933432
0.00011433442
0.00076507145
0.0022208981
0.004406116
0.007165999
0.010304767
0.013622472
0.016942073
0.020123857
0.023068824
0.025714619
0.028027678
0.029993938
0.031609555
0.00036505387
0.00027055425
0.0001963442
0.00013860975
9.421561e-05
6.0293969e-05
3.5022828e-05
1.7410924e-05
6.3263001e-06
9.7082509e-07
0.00048412187
0.00063303148
0.00081834556
0.001047791
0.0013301509
0.0016769229
0.0021012311
0.0026179356
0.0032425741
0.0039329556
0.0046352558
0.0053690066
0.0061125763
0.0068229892
0.0074394416
0.0078876992
0.0080835022
0.0079458129
0.0074140463
0.0064727748
0.0051753824
0.0036592643
0.0021415861
0.00088996452
0.00017178483
0.00019688301
0.0010733248
0.0027905288
0.005232858
0.0082147882
0.011523085
0.014953165
0.018332822
0.021532545
0.024465457
0.027080981
0.029355917
0.031284903
0.032871489
0.00048426318
0.00036494045
0.00027043451
0.00019630066
0.0001385943
9.415024e-05
6.011182e-05
3.4849863e-05
1.7283716e-05
6.2670909e-06
9.4920319e-07
0.00063321247
0.00081848082
0.0010478118
0.0013298566
0.0016757257
0.0020984624
0.0026109537
0.0032341821
0.0039880025
0.0048068273
0.0056225127
0.0064651153
0.0073049165
0.0080863479
0.0087353025
0.0091635627
0.0092753169
0.0089842138
0.0082351167
0.0070326835
0.0054653996
0.0037158635
0.0020462148
0.00075587272
0.0001206321
0.00033293436
0.0014637901
0.0034578022
0.0061589457
0.0093537454
0.01281578
0.016339922
0.019761829
0.022963966
0.02587229
0.028448015
0.030677946
0.032564916
0.034119385
0.00063351995
0.00048426257
0.00036476793
0.00027035894
0.00019619446
0.00013845552
9.3931501e-05
5.9813238e-05
3.4634743e-05
1.7134406e-05
6.2048873e-06
9.2451864e-07
0.0008186493
0.0010477739
0.001329581
0.001674888
0.0020963627
0.0026073277
0.0032240223
0.0039751673
0.0048770965
0.0058389268
0.0067829226
0.0077450872
0.0086843761
0.0095323292
0.0101988
0.010580702
0.010571009
0.010080831
0.0090664404
0.007560947
0.0056968255
0.0037083044
0.0019036238
0.00060877233
9.8095466e-05
0.00053573611
0.0019474315
0.0042295269
0.0071867405
0.010581598
0.014179223
0.017777985
0.021224135
0.02441352
0.027285345
0.02981242
0.03199107
0.033831774
0.035411193
0.00081909945
0.00063368535
0.0004841473
0.00036466727
0.00027023058
0.00019597657
0.00013814784
9.3536739e-05
5.942879e-05
3.4377349e-05
1.6968927e-05
6.0995871e-06
8.9513682e-07
0.0010478593
0.001329389
0.001674247
0.002094794
0.0026044617
0.0032192829
0.0039604801
0.0048592573
0.0059284467
0.0070547121
0.008143001
0.0092322981
0.010272275
0.011177368
0.011839992
0.012141387
0.011964251
0.011221699
0.0098892156
0.0080383069
0.0058548093
0.0036298791
0.0017164628
0.00045895469
0.00011836923
0.00081918734
0.0025347176
0.0051113719
0.0083173323
0.011896017
0.015609082
0.019262247
0.022714697
0.025876703
0.028700832
0.031171109
0.033292818
0.035137444
0.036775231
0.0010483971
0.00081942259
0.00063371144
0.00048408345
0.00036452267
0.0002699788
0.0001955718
0.00013764249
9.2986096e-05
5.8981197e-05
3.405282e-05
1.667228e-05
5.9518728e-06
8.6314318e-07
0.0013294704
0.0016738327
0.0020936007
0.0026021559
0.0032155217
0.0039536179
0.0048399205
0.0059108266
0.0071683675
0.0084846659
0.0097289404
0.010952736
0.012090132
0.013037083
0.013667001
0.0138443
0.013444185
0.012388225
0.010681037
0.0084438787
0.0059252213
0.0034765112
0.0014908004
0.00031970693
0.00019735218
0.0011974258
0.0032352718
0.0061076715
0.0095504986
0.013293672
0.017100424
0.020787345
0.024228474
0.027349156
0.030115163
0.032521222
0.034632301
0.036511395
0.038174601
0.0013301704
0.0010488926
0.00081958566
0.0006338245
0.00048392992
0.00036424857
0.0002695061
0.00019494621
0.00013696313
9.2298316e-05
5.8433608e-05
3.3421555e-05
1.6260763e-05
5.7763989e-06
8.2826932e-07
0.0016738044
0.0020927367
0.0026003104
0.0032124429
0.0039481705
0.0048308462
0.0058878157
0.0071514767
0.0086301817
0.01015686
0.01157157
0.012933072
0.014159199
0.015126296
0.015684828
0.015683531
0.014994588
0.01355683
0.011416123
0.0087559049
0.0058956583
0.0032476085
0.0012365568
0.00020723718
0.00035225561
0.0016843762
0.0040575418
0.0072212741
0.010884696
0.014770313
0.018647821
0.02234777
0.025760494
0.028826685
0.031524965
0.033911853
0.036039694
0.037926345
0.039608806
0.0016745322
0.0013307558
0.0010492683
0.00081992858
0.00063382117
0.00048361591
0.00036372636
0.00026877516
0.00019412322
0.0001361139
9.1449995e-05
5.7338688e-05
3.2554584e-05
1.5775467e-05
5.5760276e-06
7.9170208e-07
0.0020923489
0.0025988797
0.0032099442
0.0039438187
0.0048233362
0.0058756574
0.0071271728
0.0086126574
0.010341074
0.012107248
0.01370278
0.015199811
0.016501725
0.017457381
0.017894238
0.017647487
0.01659313
0.014698775
0.012065827
0.0089527798
0.005756575
0.0029468689
0.00096777022
0.0001404281
0.00060111053
0.002293279
0.0050084977
0.0084534303
0.012317102
0.016320884
0.020245481
0.023937955
0.027305882
0.030305298
0.032982143
0.035373426
0.037494038
0.039381595
0.041077231
0.0020929287
0.0016750373
0.0013311658
0.0010498887
0.00082017049
0.00063360628
0.00048303168
0.00036292826
0.00026781918
0.00019309938
0.00013503951
8.9734447e-05
5.5807162e-05
3.1541479e-05
1.5222951e-05
5.3520572e-06
7.5147051e-07
0.0025980937
0.0032079745
0.0039404312
0.0048174075
0.0058652866
0.0071125704
0.0085792728
0.010322946
0.012341136
0.014373167
0.016153236
0.01778341
0.019138197
0.020039251
0.020290449
0.019717751
0.018210717
0.015780263
0.012599483
0.009014337
0.0055025126
0.0025830008
0.00070265293
0.0001404202
0.00096219544
0.0030362157
0.0060933678
0.0098037498
0.013843709
0.017939669
0.021887363
0.025552318
0.028859922
0.031842749
0.034516854
0.036888392
0.038994493
0.040876245
0.042579137
0.0025985814
0.002093251
0.0016753569
0.001331955
0.0010503854
0.00082016844
0.00063306998
0.00048216874
0.00036188665
0.00026663915
0.00019179227
0.00013261237
8.7317968e-05
5.4032339e-05
3.0402155e-05
1.4604663e-05
5.0991513e-06
7.0848229e-07
0.0032067604
0.0039379317
0.0048128616
0.0058572721
0.0070996075
0.0085662249
0.010281329
0.01232134
0.014673841
0.016987152
0.018962753
0.020712783
0.022086806
0.02287591
0.022861676
0.021867952
0.019811071
0.016762894
0.01298563
0.008923377
0.0051333146
0.002170261
0.00046342335
0.00023003637
0.0014533957
0.0039236429
0.0073154539
0.011270241
0.015459467
0.019620421
0.02356723
0.027185355
0.03048961
0.033468366
0.036112088
0.03845583
0.040539962
0.042409194
0.044113664
0.0032071585
0.0025987431
0.0020934165
0.0016763289
0.0013327091
0.0010506147
0.00081979883
0.00063225095
0.00048107518
0.00036060787
0.00026510115
0.00018849677
0.00012906244
8.4529896e-05
5.2042103e-05
2.9134905e-05
1.3908351e-05
4.8185645e-06
6.6144003e-07
0.0039364971
0.0048097103
0.0058511962
0.0070895271
0.008553323
0.010273148
0.012273729
0.014660112
0.01736643
0.020000375
0.022168408
0.024016271
0.025362003
0.025964739
0.025587554
0.024062727
0.02135059
0.017604567
0.013193639
0.0086673572
0.004655245
0.0017287463
0.00027589746
0.00043304293
0.0020915124
0.0049640055
0.0086760619
0.012849416
0.017158421
0.021356426
0.025278784
0.028917027
0.032222808
0.035162549
0.037766907
0.040074516
0.042129073
0.043979139
0.045679832
0.0039370529
0.0032072519
0.0025987704
0.0020946118
0.001677438
0.0013332709
0.0010504796
0.00081914267
0.00063115815
0.00047976646
0.00035885307
0.0002607214
0.00018347727
0.00012493008
8.1403246e-05
4.9836606e-05
2.7717752e-05
1.3135584e-05
4.5064841e-06
6.1082798e-07
0.0048082257
0.0058471553
0.0070817814
0.0085427237
0.010260839
0.012262355
0.014609399
0.017348697
0.02048345
0.023456953
0.025809214
0.027720064
0.028972539
0.029294557
0.028437489
0.026256878
0.02277866
0.018260897
0.013195713
0.0082401783
0.0040819563
0.0012843902
0.00016880079
0.00077325703
0.0028916201
0.0061634927
0.010174527
0.014536399
0.018933757
0.02314069
0.027119126
0.030773053
0.034033807
0.036924408
0.039480033
0.041742889
0.043760182
0.045584577
0.047276541
0.0048093159
0.0039371169
0.0032072507
0.002600295
0.0020962045
0.0016784761
0.0013335613
0.001050087
0.00081815264
0.00062989031
0.0004778033
0.00035313256
0.00025376272
0.00017759414
0.00012029578
7.7931731e-05
4.7381218e-05
2.6151341e-05
1.2277584e-05
4.1641736e-06
5.5599152e-07
0.00584562
0.0070767541
0.0085341514
0.010250619
0.012254137
0.014569239
0.017299819
0.02047098
0.024071855
0.027406786
0.029924033
0.031846054
0.032919363
0.032843526
0.031369089
0.028394869
0.024038535
0.01868722
0.012969202
0.0076439073
0.003435172
0.00086856733
0.00017277978
0.0012736309
0.0038665824
0.0075259119
0.011808229
0.016324938
0.020778051
0.025092113
0.029111293
0.032717692
0.035921834
0.038752686
0.041249799
0.043459053
0.045431375
0.047223814
0.048902582
0.0058475843
0.0048095904
0.0039369547
0.0032091761
0.0026025111
0.0020979172
0.0016794014
0.0013336902
0.0010493706
0.00081718924
0.00062766234
0.0004704136
0.00034365767
0.00024557705
0.00017098505
0.00011513877
7.4068209e-05
4.4671669e-05
2.4420145e-05
1.1337484e-05
3.7905658e-06
4.9751859e-07
0.0070752203
0.0085284616
0.010242265
0.012248697
0.014563158
0.017286215
0.02042626
0.024071796
0.028189625
0.03190207
0.034549104
0.036409809
0.03719324
0.036576872
0.034326696
0.030410833
0.025068919
0.018841183
0.012499172
0.0068903922
0.0027449093
0.00051722338
0.00031926527
0.0019554847
0.0050266927
0.0090525337
0.013572516
0.018207706
0.022836951
0.027230826
0.031205035
0.034750392
0.037885757
0.040645694
0.043074139
0.045220772
0.047140474
0.048894971
0.050556621
0.007078319
0.0058484754
0.0048091883
0.0039392179
0.0032120122
0.0026049441
0.0020996853
0.0016803138
0.0013335972
0.001048987
0.00081469582
0.00061813567
0.00045766692
0.00033246609
0.00023636908
0.00016361214
0.00010939569
6.9799552e-05
4.1685601e-05
2.2528346e-05
1.031291e-05
3.388411e-06
4.3535495e-07
0.0085271039
0.010236702
0.012243243
0.014575778
0.017280584
0.020430117
0.02403134
0.028212449
0.032900088
0.036994152
0.03971647
0.041418026
0.04177185
0.040444464
0.037240305
0.032229289
0.025806374
0.018685917
0.011781053
0.0060024751
0.0020490598
0.00026968243
0.00063943925
0.0028378377
0.0063792333
0.010741835
0.015461038
0.020362036
0.025128023
0.029487008
0.033400123
0.036870263
0.039923959
0.042601285
0.044950582
0.04702548
0.048885052
0.05059607
0.052237468
0.0085315753
0.0070803324
0.0058481108
0.0048116891
0.0039427319
0.0032151515
0.0026074821
0.0021015844
0.0016812105
0.0013342015
0.0010462206
0.00080252433
0.00060111238
0.00044255752
0.000319864
0.0002260817
0.00015539247
0.00010304611
6.5097867e-05
3.8426404e-05
2.0472691e-05
9.2118268e-06
2.9604395e-06
3.7064421e-07
0.010235908
0.012239692
0.014579585
0.017291412
0.020423968
0.024062021
0.028181673
0.032963995
0.03826724
0.042732911
0.045451456
0.046865368
0.04661662
0.044378508
0.040024978
0.033766792
0.026188655
0.018193689
0.010823092
0.0050144575
0.0013924514
0.00016747527
0.0011632226
0.0039365421
0.0079279089
0.012589809
0.017687259
0.022804378
0.027556502
0.031860824
0.035696018
0.039075884
0.042034314
0.044616849
0.046876264
0.048870297
0.050662604
0.052325272
0.053943614
0.010241875
0.0085347443
0.0070805132
0.0058510554
0.0048158451
0.0039468241
0.0032184905
0.0026101454
0.002103753
0.001683348
0.001331164
0.0010308793
0.00078001882
0.00058090585
0.00042553813
0.00030577224
0.00021460743
0.00014629733
9.6050711e-05
5.9966365e-05
3.4891219e-05
1.8267965e-05
8.041866e-06
2.5131916e-06
3.0413155e-07
0.012240767
0.014581435
0.017304823
0.020440139
0.024090146
0.028229671
0.032958803
0.038398232
0.044356606
0.049164567
0.05176961
0.052730675
0.051669261
0.048291454
0.042581189
0.034934787
0.026159068
0.017349805
0.0096481945
0.0039718804
0.00082582897
0.00025304788
0.0019178453
0.0052632271
0.0096730333
0.014848959
0.020269658
0.025409658
0.030122965
0.034352205
0.038091623
0.041365264
0.04421417
0.046689313
0.048847934
0.05075229
0.052470708
0.054080345
0.05567349
0.012248805
0.010245971
0.0085354085
0.0070842845
0.0058560563
0.0048209926
0.0039513918
0.0032220996
0.0026132276
0.0021079836
0.0016799342
0.0013120367
0.0010014259
0.00075326488
0.00055815749
0.00040650204
0.00029005072
0.00020190796
0.00013627279
8.8415486e-05
5.4404636e-05
3.1104445e-05
1.5930534e-05
6.8208858e-06
2.0548312e-06
2.3788069e-07
0.014586529
0.01731437
0.02046552
0.024097319
0.028292424
0.033027764
0.038440741
0.04459126
0.051233757
0.056328798
0.058672441
0.05897261
0.056848054
0.052074528
0.044796413
0.035643953
0.025671548
0.016156026
0.0082949917
0.0029311513
0.00040452414
0.00056767549
0.0029260728
0.0068252032
0.011906062
0.017545579
0.023048231
0.028178804
0.032827894
0.036960492
0.040585208
0.043735816
0.046460347
0.048815153
0.050862322
0.052668494
0.054306537
0.055858847
0.057425455
0.014597776
0.012253642
0.010246657
0.0085399309
0.0070902431
0.0058623957
0.0048270517
0.0039566759
0.0032263579
0.0026197392
0.0021044934
0.0016563142
0.0012737767
0.00096637094
0.00072317892
0.00053272906
0.00038527188
0.00027265181
0.00018791143
0.00012533371
8.0143329e-05
4.8451253e-05
2.7094728e-05
1.3495501e-05
5.5714624e-06
1.597885e-06
1.7380459e-07
0.017325425
0.020491791
0.024132535
0.028356297
0.033132479
0.03855066
0.044712871
0.051622678
0.058962296
0.064254571
0.066142724
0.065524458
0.062044267
0.055597291
0.04654854
0.03581001
0.024695973
0.01463355
0.0068188232
0.0019586728
0.00018574337
0.0011487191
0.0042056097
0.0089476098
0.014670711
0.020482229
0.026024078
0.03111286
0.035671173
0.039684338
0.043174371
0.046184354
0.048769151
0.050990859
0.052915949
0.054615595
0.056166906
0.057658234
0.059197816
0.017340619
0.014603285
0.012253503
0.010251382
0.0085466178
0.0070977192
0.005870108
0.0048342767
0.003963097
0.0032360831
0.0026207204