/*--------------------------------*- C++ -*----------------------------------*\
| =========                 |                                                 |
| \\      /  F ield         | OpenFOAM: The Open Source CFD Toolbox           |
|  \\    /   O peration     | Version:  5.0                                   |
|   \\  /    A nd           | Web:      www.OpenFOAM.org                      |
|    \\/     M anipulation  |                                                 |
\*---------------------------------------------------------------------------*/
FoamFile
{
    version     2.0;
    format      ascii;
    class       volVectorField;
    location    "60";
    object      U;
}
// * * * * * * * * * * * * * * * * * * * * * * * * * * * * * * * * * * * * * //

dimensions      [0 1 -1 0 0 0 0];

internalField   nonuniform List<vector> 
9520
(
(1.0043622 -0.00032290752 0)
(1.0044856 -0.00095282444 0)
(1.0053227 -0.00031212495 0)
(1.0047069 -0.0015518564 0)
(1.0054582 -0.00092099244 0)
(1.005676 -0.00030413557 0)
(1.0050058 -0.0021279883 0)
(1.0057017 -0.0014998063 0)
(1.0058159 -0.0008969618 0)
(1.0062443 -0.00029263826 0)
(1.0053635 -0.0026860097 0)
(1.0060326 -0.0020565339 0)
(1.0060676 -0.0014593636 0)
(1.0063895 -0.00086229874 0)
(1.0066597 -0.00028226257 0)
(1.0057633 -0.0032310781 0)
(1.0064321 -0.0025960246 0)
(1.0064108 -0.0019987898 0)
(1.0066512 -0.0014007293 0)
(1.0068081 -0.0008307643 0)
(1.0070931 -0.00027127149 0)
(1.0061909 -0.0037664315 0)
(1.0068832 -0.0031238809 0)
(1.0068266 -0.0025197544 0)
(1.0070093 -0.0019143485 0)
(1.0070759 -0.0013467066 0)
(1.0072426 -0.00079736745 0)
(1.0074754 -0.0002611674 0)
(1.0066329 -0.0042950526 0)
(1.0073713 -0.0036437993 0)
(1.0072985 -0.0030279129 0)
(1.0074453 -0.0024069771 0)
(1.0074428 -0.0018351197 0)
(1.0075122 -0.0012894894 0)
(1.0076246 -0.00076659741 0)
(1.0078367 -0.00025214564 0)
(1.0070781 -0.004819363 0)
(1.0078832 -0.0041594124 0)
(1.0078122 -0.0035271444 0)
(1.0079435 -0.0028839585 0)
(1.0078911 -0.002298851 0)
(1.0078821 -0.0017510829 0)
(1.0078935 -0.0012364841 0)
(1.007984 -0.00073915928 0)
(1.0081717 -0.00024461949 0)
(1.0075169 -0.0053396235 0)
(1.008407 -0.0046737795 0)
(1.0083546 -0.0040214107 0)
(1.00849 -0.003349231 0)
(1.0084057 -0.0027422963 0)
(1.0083348 -0.002183945 0)
(1.0082623 -0.00167265 0)
(1.008249 -0.0011892048 0)
(1.008316 -0.00071634355 0)
(1.0084862 -0.00023877715 0)
(1.0079419 -0.005859181 0)
(1.0089323 -0.0051880715 0)
(1.0089139 -0.0045144307 0)
(1.0090728 -0.0038069084 0)
(1.0089728 -0.0031689409 0)
(1.008856 -0.0025910327 0)
(1.0087136 -0.0020756927 0)
(1.0086119 -0.0016027587 0)
(1.0085748 -0.0011500449 0)
(1.0086268 -0.00069875193 0)
(1.0087831 -0.00023464174 0)
(1.0083468 -0.0063717876 0)
(1.0094499 -0.0057060514 0)
(1.0094799 -0.0050084659 0)
(1.0096813 -0.0042613882 0)
(1.0095816 -0.0035826974 0)
(1.0094327 -0.0029746202 0)
(1.0092331 -0.0024468937 0)
(1.0090551 -0.001979081 0)
(1.0089285 -0.0015452718 0)
(1.0088783 -0.0011202469 0)
(1.0089197 -0.0006865172 0)
(1.0090654 -0.00023209434 0)
(1.0087284 -0.0068892451 0)
(1.0099528 -0.0062220297 0)
(1.0100426 -0.0055081615 0)
(1.0103059 -0.0047163044 0)
(1.0102226 -0.003988203 0)
(1.0100555 -0.0033376551 0)
(1.009808 -0.0027868766 0)
(1.0095636 -0.0023178233 0)
(1.0093585 -0.0018998792 0)
(1.0092203 -0.0015022258 0)
(1.0091632 -0.0011001553 0)
(1.0091982 -0.0006793064 0)
(1.0093356 -0.00023089632 0)
(1.0090826 -0.0073857925 0)
(1.0104336 -0.0067477448 0)
(1.010594 -0.006009824 0)
(1.0109375 -0.005177405 0)
(1.0108878 -0.0043899296 0)
(1.0107169 -0.0036836104 0)
(1.0104298 -0.0030973706 0)
(1.0101249 -0.0026178324 0)
(1.0098489 -0.0022122628 0)
(1.0096336 -0.0018412876 0)
(1.0094926 -0.0014741111 0)
(1.0094342 -0.0010890822 0)
(1.0094653 -0.00067629348 0)
(1.0095957 -0.00023068903 0)
(1.0094116 -0.0079047387 0)
(1.0108892 -0.0072567302 0)
(1.0111248 -0.0065261767 0)
(1.0115685 -0.005644202 0)
(1.0115698 -0.0047947533 0)
(1.0114111 -0.0040163377 0)
(1.0110919 -0.0033800657 0)
(1.0107304 -0.0028792699 0)
(1.0103869 -0.0024798402 0)
(1.0101011 -0.0021351032 0)
(1.0098877 -0.0018041913 0)
(1.0097515 -0.0014597558 0)
(1.0096946 -0.0010854225 0)
(1.0097228 -0.00067635641 0)
(1.0098468 -0.00023110487 0)
(1.0097098 -0.0083653133 0)
(1.0113154 -0.007792346 0)
(1.0116307 -0.0070330145 0)
(1.0121903 -0.0061312961 0)
(1.012263 -0.0052050871 0)
(1.012134 -0.0043419042 0)
(1.0117904 -0.0036374002 0)
(1.0113739 -0.0031016126 0)
(1.0109631 -0.002701232 0)
(1.0106092 -0.0023801968 0)
(1.0103303 -0.0020878305 0)
(1.0101288 -0.0017869966 0)
(1.0100006 -0.001456815 0)
(1.0099465 -0.0010873791 0)
(1.0099723 -0.00067847046 0)
(1.01009 -0.00023182422 0)
(1.0099893 -0.0088962326 0)
(1.0117104 -0.0082713491 0)
(1.0121051 -0.0075749722 0)
(1.0127971 -0.0066200149 0)
(1.0129621 -0.0056375778 0)
(1.0128851 -0.0046640083 0)
(1.0125244 -0.0038737154 0)
(1.012052 -0.003285048 0)
(1.0115705 -0.0028742759 0)
(1.0111473 -0.0025742016 0)
(1.0108059 -0.0023212564 0)
(1.0105471 -0.002068254 0)
(1.0103613 -0.0017864857 0)
(1.010243 -0.0014629123 0)
(1.0101922 -0.001093413 0)
(1.0102149 -0.00068168197 0)
(1.0103255 -0.00023251605 0)
(1.0102334 -0.0092907332 0)
(1.0120787 -0.0088246113 0)
(1.0125451 -0.0080678355 0)
(1.01338 -0.0071571799 0)
(1.01366 -0.0060777008 0)
(1.0136618 -0.0049985638 0)
(1.0132957 -0.0040918778 0)
(1.0127658 -0.0034311654 0)
(1.0122053 -0.0029967103 0)
(1.0117066 -0.0027138969 0)
(1.0113024 -0.0025018065 0)
(1.0109911 -0.0022998445 0)
(1.0107569 -0.0020718516 0)
(1.0105895 -0.0017994555 0)
(1.0104819 -0.0014759279 0)
(1.0104331 -0.0011018668 0)
(1.0104511 -0.00068495553 0)
(1.0105535 -0.00023285104 0)
(1.0104779 -0.0098488765 0)
(1.0124034 -0.0092384676 0)
(1.0129525 -0.0086479901 0)
(1.0139356 -0.0076598744 0)
(1.0143479 -0.0065759514 0)
(1.0144611 -0.005330514 0)
(1.0141015 -0.0043014033 0)
(1.013513 -0.0035366953 0)
(1.0128647 -0.0030668894 0)
(1.0122826 -0.0027948285 0)
(1.0118091 -0.0026246503 0)
(1.011447 -0.0024786442 0)
(1.0111707 -0.0023091217 0)
(1.010965 -0.0020943557 0)
(1.0108175 -0.0018230945 0)
(1.010719 -0.0014933536 0)
(1.0106699 -0.0011109084 0)
(1.0106811 -0.00068729447 0)
(1.0107738 -0.00023254696 0)
(1.0106721 -0.01014401 0)
(1.0127201 -0.0098192423 0)
(1.0133043 -0.0090894406 0)
(1.0144592 -0.0082723962 0)
(1.0150193 -0.0070490048 0)
(1.015277 -0.0057149662 0)
(1.0149446 -0.004484896 0)
(1.0142897 -0.0036019381 0)
(1.0135371 -0.0030701911 0)
(1.0128588 -0.0028117774 0)
(1.012318 -0.0026849927 0)
(1.011903 -0.002598894 0)
(1.0115876 -0.0024942294 0)
(1.0113515 -0.0023436782 0)
(1.0111769 -0.0021324338 0)
(1.0110472 -0.0018539947 0)
(1.010955 -0.0015124995 0)
(1.0109027 -0.0011188286 0)
(1.0109045 -0.00068782478 0)
(1.0109858 -0.00023136509 0)
(1.0109049 -0.010737658 0)
(1.0129592 -0.010129729 0)
(1.0136397 -0.0097218696 0)
(1.0149329 -0.0087545181 0)
(1.0156702 -0.0076546332 0)
(1.0161043 -0.0060661696 0)
(1.0158274 -0.0046972135 0)
(1.0151053 -0.0036084088 0)
(1.014222 -0.0030058976 0)
(1.0134223 -0.0027425003 0)
(1.0127939 -0.0026732635 0)
(1.0123391 -0.0026581118 0)
(1.0119916 -0.0026227913 0)
(1.0117318 -0.0025434748 0)
(1.0115409 -0.0024003636 0)
(1.0113952 -0.002181745 0)
(1.0112802 -0.0018885285 0)
(1.0111906 -0.0015308861 0)
(1.0111315 -0.0011240792 0)
(1.0111211 -0.00068579249 0)
(1.0111891 -0.00022908932 0)
(1.0110534 -0.010911391 0)
(1.0132433 -0.010735227 0)
(1.0138694 -0.01006906 0)
(1.0153789 -0.0094730844 0)
(1.0162848 -0.0081339631 0)
(1.0169404 -0.006568007 0)
(1.0167467 -0.0048542064 0)
(1.0159663 -0.003607934 0)
(1.0149314 -0.0028566448 0)
(1.0139782 -0.0025952466 0)
(1.013242 -0.0025769197 0)
(1.0127245 -0.0026432156 0)
(1.0123559 -0.0026875071 0)
(1.0120869 -0.0026902091 0)
(1.0118918 -0.0026241113 0)
(1.0117431 -0.0024736278 0)
(1.011622 -0.0022374519 0)
(1.0115173 -0.0019233186 0)
(1.0114256 -0.001546204 0)
(1.0113557 -0.0011252979 0)
(1.01133 -0.0006805752 0)
(1.011383 -0.00022555484 0)
(1.0113052 -0.011535456 0)
(1.0134006 -0.010920871 0)
(1.01414 -0.010745785 0)
(1.0157169 -0.0098892285 0)
(1.016879 -0.0088953299 0)
(1.0177621 -0.0069384985 0)
(1.0177188 -0.0051499475 0)
(1.0168874 -0.0034875339 0)
(1.0156652 -0.0026647251 0)
(1.0145317 -0.0023523903 0)
(1.0136658 -0.0024093546 0)
(1.013076 -0.0025663775 0)
(1.0126929 -0.00269317 0)
(1.0124054 -0.0027838901 0)
(1.0122149 -0.0028032757 0)
(1.0120742 -0.0027278709 0)
(1.01196 -0.0025566393 0)
(1.0118581 -0.0022950791 0)
(1.0117582 -0.0019551728 0)
(1.0116595 -0.0015563992 0)
(1.0115746 -0.0011213681 0)
(1.0115305 -0.00067167446 0)
(1.0115668 -0.00022065264 0)
(1.0114252 -0.011583272 0)
(1.0136494 -0.011539294 0)
(1.0142524 -0.010980115 0)
(1.0160794 -0.010726476 0)
(1.017378 -0.0093450429 0)
(1.0186075 -0.0076450391 0)
(1.0187118 -0.0052678541 0)
(1.0178799 -0.0034827125 0)
(1.0164444 -0.0023045892 0)
(1.0150731 -0.0020408739 0)
(1.0140553 -0.0021541093 0)
(1.0133888 -0.0024313542 0)
(1.0129853 -0.0026698312 0)
(1.0126996 -0.0028357211 0)
(1.0125074 -0.0029437435 0)
(1.0123782 -0.0029452104 0)
(1.0122783 -0.0028440508 0)
(1.012192 -0.0026435788 0)
(1.0121034 -0.0023505012 0)
(1.0120024 -0.0019812666 0)
(1.0118914 -0.0015597416 0)
(1.0117873 -0.0011113934 0)
(1.0117219 -0.00065871655 0)
(1.0117398 -0.00021431113 0)
(1.0117094 -0.01219556 0)
(1.0137295 -0.01159241 0)
(1.0144501 -0.011644899 0)
(1.0162232 -0.011058943 0)
(1.0178985 -0.010310267 0)
(1.0193991 -0.0080198647 0)
(1.0198058 -0.0057419989 0)
(1.018921 -0.0032033618 0)
(1.0172674 -0.0020287031 0)
(1.0156205 -0.0015437201 0)
(1.0143917 -0.0018234938 0)
(1.013644 -0.0022298908 0)
(1.013221 -0.002600556 0)
(1.0129607 -0.0028607379 0)
(1.0127738 -0.003057136 0)
(1.0126529 -0.003129588 0)
(1.0125668 -0.0030982788 0)
(1.0125023 -0.0029657361 0)
(1.012439 -0.0027296476 0)
(1.0123574 -0.0024001216 0)
(1.012249 -0.0019991751 0)
(1.0121202 -0.0015548109 0)
(1.0119927 -0.001094695 0)
(1.0119034 -0.00064145173 0)
(1.0119016 -0.00020649834 0)
(1.0118157 -0.012139071 0)
(1.0138999 -0.012206495 0)
(1.0144872 -0.011771759 0)
(1.0164105 -0.011953985 0)
(1.0182128 -0.010706902 0)
(1.0202397 -0.0090187636 0)
(1.0208927 -0.0058221222 0)
(1.0201074 -0.0032939222 0)
(1.0181473 -0.0013418105 0)
(1.0161384 -0.0011020519 0)
(1.0146837 -0.0013337763 0)
(1.0138187 -0.0019693168 0)
(1.0133888 -0.0024889086 0)
(1.0131633 -0.0028559257 0)
(1.0129992 -0.0031279201 0)
(1.0128918 -0.0032763486 0)
(1.0128189 -0.0033162297 0)
(1.012777 -0.0032573515 0)
(1.0127467 -0.0030887157 0)
(1.0127006 -0.0028106981 0)
(1.0126192 -0.0024407568 0)
(1.0124968 -0.0020068304 0)
(1.0123446 -0.0015405027 0)
(1.0121898 -0.0010708185 0)
(1.0120743 -0.00061975999 0)
(1.0120515 -0.0001972178 0)
(1.012252 -0.012681568 0)
(1.0139233 -0.012152802 0)
(1.0145507 -0.012368041 0)
(1.0163904 -0.012237668 0)
(1.0186084 -0.011865271 0)
(1.0209437 -0.0093892826 0)
(1.0221206 -0.006587968 0)
(1.0213243 -0.0028291984 0)
(1.0191377 -0.0010505336 0)
(1.016688 -0.00018778761 0)
(1.0148719 -0.00087250642 0)
(1.0139085 -0.0016106485 0)
(1.0134762 -0.0023460951 0)
(1.0132997 -0.0028314537 0)
(1.0131791 -0.003172576 0)
(1.0130897 -0.0033878165 0)
(1.0130294 -0.0034931554 0)
(1.0130076 -0.0035127694 0)
(1.0130127 -0.0034222089 0)
(1.0130123 -0.0032088181 0)
(1.0129765 -0.002882781 0)
(1.0128874 -0.0024695659 0)
(1.0127441 -0.0020025474 0)
(1.0125633 -0.001516016 0)
(1.0123776 -0.0010394786 0)
(1.0122339 -0.00059363177 0)
(1.0121892 -0.0001865034 0)
(1.0124118 -0.012543428 0)
(1.0140697 -0.012728007 0)
(1.0145479 -0.012379138 0)
(1.0162816 -0.013094921 0)
(1.0187566 -0.012277779 0)
(1.0217843 -0.010744635 0)
(1.0233014 -0.0066550813 0)
(1.0227539 -0.003083687 0)
(1.0201578 5.5519757e-05 0)
(1.0172001 0.00038798496 0)
(1.0150433 -4.0594509e-06 0)
(1.0138588 -0.0012681185 0)
(1.0134657 -0.0021668784 0)
(1.0133682 -0.0028067117 0)
(1.0133126 -0.0032007971 0)
(1.013247 -0.0034646549 0)
(1.0131987 -0.0036290909 0)
(1.0131913 -0.0037278842 0)
(1.0132282 -0.0037240888 0)
(1.0132768 -0.0035885101 0)
(1.0132992 -0.0033212215 0)
(1.0132652 -0.0029421421 0)
(1.0131604 -0.0024841232 0)
(1.0129893 -0.0019850233 0)
(1.012775 -0.0014808202 0)
(1.0125552 -0.0010005809 0)
(1.0123816 -0.00056314537 0)
(1.0123143 -0.00017441472 0)
(1.0127648 -0.012928009 0)
(1.0140337 -0.01257551 0)
(1.0144461 -0.012872497 0)
(1.0161934 -0.013344387 0)
(1.0188707 -0.013519875 0)
(1.0223159 -0.011141151 0)
(1.0246623 -0.0077782423 0)
(1.0242001 -0.0024623732 0)
(1.0213412 0.00038254072 0)
(1.0177568 0.0017634271 0)
(1.0150212 0.00060212462 0)
(1.0137355 -0.00064795504 0)
(1.013326 -0.0020179997 0)
(1.013354 -0.0027782712 0)
(1.0134021 -0.003238424 0)
(1.0133775 -0.0035213019 0)
(1.0133365 -0.0037332112 0)
(1.013331 -0.0038990361 0)
(1.0133883 -0.0039868271 0)
(1.0134826 -0.0039421505 0)
(1.0135695 -0.0037498381 0)
(1.0136065 -0.0034210739 0)
(1.013565 -0.0029854103 0)
(1.013436 -0.0024824408 0)
(1.0132306 -0.0019533279 0)
(1.0129782 -0.0014346443 0)
(1.0127218 -0.00095418841 0)
(1.012517 -0.00052845774 0)
(1.0124267 -0.00016103269 0)
(1.0131479 -0.012782575 0)
(1.0139998 -0.013100591 0)
(1.014396 -0.012835962 0)
(1.0158351 -0.0141228 0)
(1.0189819 -0.014068346 0)
(1.0231156 -0.012801326 0)
(1.0259097 -0.0079108116 0)
(1.0258778 -0.0029069224 0)
(1.0225707 0.0018587518 0)
(1.0182604 0.0025396921 0)
(1.0150122 0.0019117813 0)
(1.0133427 -0.00029171881 0)
(1.0130819 -0.001752786 0)
(1.0132597 -0.0028143503 0)
(1.0134571 -0.0032936549 0)
(1.0134969 -0.0035815395 0)
(1.013457 -0.0038067043 0)
(1.013437 -0.0040265933 0)
(1.0134962 -0.004205817 0)
(1.0136237 -0.0042614655 0)
(1.0137735 -0.0041606104 0)
(1.0138914 -0.003900531 0)
(1.0139328 -0.0035038401 0)
(1.0138736 -0.00300966 0)
(1.0137119 -0.0024629934 0)
(1.0134662 -0.0019068928 0)
(1.0131718 -0.0013774647 0)
(1.0128766 -0.0009005054 0)
(1.0126398 -0.0004897932 0)
(1.0125264 -0.00014645559 0)
(1.0131114 -0.012953867 2.4756409e-24)
(1.0139749 -0.012907496 0)
(1.0141234 -0.013093913 0)
(1.0156406 -0.014336446 0)
(1.018895 -0.015337846 0)
(1.0236139 -0.013396454 0)
(1.0275057 -0.0093826552 0)
(1.0276104 -0.0022109838 0)
(1.0239739 0.002298423 0)
(1.0188185 0.0044974235 0)
(1.0147585 0.0026980386 0)
(1.0129136 0.00065062924 0)
(1.0125972 -0.0017370728 0)
(1.0130774 -0.0028386546 0)
(1.0134817 -0.0034322292 0)
(1.013624 -0.0036476548 0)
(1.0135777 -0.0038595638 0)
(1.0135205 -0.0041040695 0)
(1.0135517 -0.0043645475 0)
(1.0136925 -0.0045310216 0)
(1.0138986 -0.0045418358 0)
(1.0141027 -0.0043724497 0)
(1.0142419 -0.0040344671 0)
(1.0142756 -0.0035652629 0)
(1.0141881 -0.0030125132 0)
(1.0139858 -0.0024247308 0)
(1.0136942 -0.001845494 0)
(1.0133546 -0.0013094745 0)
(1.0130191 -0.00083986196 0)
(1.0127498 -0.00044743312 0)
(1.0126133 -0.00013079539 0)
(1.0097785 -0.012643551 -1.7119669e-23)
(1.0130007 -0.013315603 -2.5859332e-24)
(1.0140933 -0.013074264 0)
(1.0150968 -0.015091478 0)
(1.0189407 -0.016031259 0)
(1.0243859 -0.015175215 0)
(1.0288562 -0.0097314846 0)
(1.0296079 -0.0027932518 0)
(1.025448 0.0041559946 0)
(1.0193582 0.0055091339 0)
(1.0144851 0.0046105858 0)
(1.0121075 0.0010147233 0)
(1.0120529 -0.0013370634 0)
(1.0127573 -0.0030972822 0)
(1.0134722 -0.0035841415 0)
(1.0137594 -0.0037803557 0)
(1.0137169 -0.0038784097 0)
(1.0135906 -0.0041301547 0)
(1.0135626 -0.0044516248 0)
(1.0136902 -0.0047412987 0)
(1.0139385 -0.0048835674 0)
(1.0142269 -0.0048277224 0)
(1.0144734 -0.0045706387 0)
(1.0146186 -0.0041455152 0)
(1.0146316 -0.0036017553 0)
(1.0145056 -0.0029922118 0)
(1.0142553 -0.0023670718 0)
(1.0139131 -0.0017692217 0)
(1.0135256 -0.0012310763 0)
(1.0131487 -0.00077269595 0)
(1.0128469 -0.00040170434 0)
(1.0126876 -0.00011417417 0)
(0.99855601 -0.012071461 1.7146509e-23)
(1.006614 -0.013021394 -1.0989014e-24)
(1.0122167 -0.013238566 0)
(1.0152178 -0.015221215 0)
(1.0187209 -0.01738016 0)
(1.0249894 -0.016151436 0)
(1.0308446 -0.011459072 0)
(1.0317136 -0.0022075759 0)
(1.0271226 0.0048135089 0)
(1.019861 0.0080766295 0)
(1.0139717 0.0055765595 0)
(1.0112312 0.0023804082 0)
(1.011108 -0.0015890356 0)
(1.012369 -0.0031889204 0)
(1.0134283 -0.0039672231 0)
(1.0139093 -0.0038927051 0)
(1.0138696 -0.003912693 0)
(1.0136612 -0.0040753507 0)
(1.0135356 -0.0044535411 0)
(1.0136137 -0.004870285 0)
(1.0138823 -0.0051666249 0)
(1.01425 -0.0052537937 0)
(1.0146106 -0.0051039389 0)
(1.0148821 -0.0047449136 0)
(1.0150176 -0.0042282422 0)
(1.0149969 -0.0036105427 0)
(1.0148229 -0.0029476273 0)
(1.014518 -0.0022898678 0)
(1.0141212 -0.0016784468 0)
(1.0136839 -0.0011427947 0)
(1.0132652 -0.00069952708 0)
(1.0129312 -0.00035296729 0)
(1.0127496 -9.672083e-05 0)
(0.97868394 -0.010560335 0)
(0.9887408 -0.012349315 1.0977626e-24)
(1.0040225 -0.013058552 0)
(1.0133085 -0.01598139 0)
(1.0190625 -0.018080273 0)
(1.0256292 -0.017998973 0)
(1.0323247 -0.012193737 0)
(1.0341495 -0.0027928753 0)
(1.0289849 0.0068707498 0)
(1.0204701 0.0094656199 0)
(1.0133314 0.0081778001 0)
(1.009921 0.0027070566 0)
(1.010133 -0.0010339961 0)
(1.0117345 -0.0038794107 0)
(1.0133676 -0.0042595661 0)
(1.0141176 -0.004209771 0)
(1.0140737 -0.0038618648 0)
(1.0137584 -0.0039682973 0)
(1.0134854 -0.0043489673 0)
(1.0134684 -0.0049032365 0)
(1.0137294 -0.005381919 0)
(1.014165 -0.0056423589 0)
(1.0146407 -0.0056267866 0)
(1.0150488 -0.0053571316 0)
(1.0153248 -0.0048878053 0)
(1.0154342 -0.0042785192 0)
(1.0153677 -0.0035897307 0)
(1.0151368 -0.0028782316 0)
(1.0147717 -0.0021933697 0)
(1.0143172 -0.001573779 0)
(1.013829 -0.0010453474 0)
(1.0133685 -0.00062094064 0)
(1.0130027 -0.00030160659 0)
(1.0127997 -7.8568803e-05 0)
(0.95302856 -0.0082362877 -3.3387817e-24)
(0.96121881 -0.010919853 0)
(0.98511114 -0.012673336 2.9157955e-24)
(1.0048688 -0.016355428 0)
(1.0178497 -0.019616659 0)
(1.026365 -0.019320406 0)
(1.0346223 -0.013920034 0)
(1.0366705 -0.0023992118 0)
(1.030988 0.0080662276 0)
(1.0210412 0.012496893 0)
(1.0125625 0.0094152639 0)
(1.0084727 0.0045807389 0)
(1.0086123 -0.0016460889 0)
(1.0110881 -0.0040629192 0)
(1.0132706 -0.0051231029 0)
(1.0144111 -0.0043929041 0)
(1.0143997 -0.0039717587 0)
(1.0139331 -0.0037527606 0)
(1.0134415 -0.0041524735 0)
(1.013267 -0.0048194342 0)
(1.0134752 -0.0055106547 0)
(1.0139592 -0.005977461 0)
(1.0145494 -0.0061289284 0)
(1.0151033 -0.0059753389 0)
(1.0155351 -0.0055753616 0)
(1.0157954 -0.0049930764 0)
(1.0158633 -0.0042934024 0)
(1.0157397 -0.0035382473 0)
(1.0154444 -0.0027840344 0)
(1.0150145 -0.0020781659 0)
(1.0145 -0.0014560404 0)
(1.0139602 -0.00093956839 0)
(1.0134584 -0.00053757789 0)
(1.0130619 -0.00024802145 0)
(1.0128382 -5.9854425e-05 0)
(0.92477197 -0.0051378657 6.657061e-23)
(0.92793892 -0.0087994977 -1.9234031e-25)
(0.95730896 -0.012292383 -2.9076182e-24)
(0.98664928 -0.01689407 -1.5364635e-23)
(1.0097985 -0.02065421 -2.5353016e-23)
(1.0263684 -0.021103841 0)
(1.0354847 -0.015259366 0)
(1.0388565 -0.0030091966 0)
(1.0332032 0.0099767054 0)
(1.0216671 0.014581851 0)
(1.011642 0.012631187 0)
(1.0065795 0.0048899543 0)
(1.007085 -0.00096667156 0)
(1.0100505 -0.0053766218 0)
(1.0131758 -0.0056130583 0)
(1.0148127 -0.0051550876 0)
(1.0148945 -0.0038228475 0)
(1.0141721 -0.0036041795 0)
(1.0134565 -0.0037758115 0)
(1.013018 -0.0046169166 0)
(1.0131204 -0.005528198 0)
(1.0136249 -0.0062470126 0)
(1.0143254 -0.0066031245 0)
(1.0150325 -0.0065936156 0)
(1.0156331 -0.0062858675 0)
(1.0160618 -0.0057501308 0)
(1.0162871 -0.0050565252 0)
(1.0162996 -0.0042711425 0)
(1.016109 -0.0034557625 0)
(1.015743 -0.002665512 0)
(1.0152446 -0.001945149 0)
(1.0146687 -0.0013262258 0)
(1.0140774 -0.00082629447 0)
(1.0135351 -0.00045011343 0)
(1.013109 -0.00019261569 0)
(1.0128657 -4.0716246e-05 0)
(0.89700379 -0.0014372867 -9.7154603e-23)
(0.89290867 -0.0059450201 6.5293873e-24)
(0.92339818 -0.011910156 0)
(0.95983539 -0.017720392 5.6971464e-23)
(0.99296089 -0.021790935 2.5145635e-23)
(1.0169669 -0.022443401 7.6357339e-23)
(1.0328365 -0.016277443 3.9703083e-23)
(1.039178 -0.0031787845 0)
(1.0367238 0.011878075 0)
(1.0224146 0.01765658 0)
(1.0106441 0.014438327 0)
(1.0046248 0.0072558533 0)
(1.0048742 -0.0019529255 0)
(1.0090783 -0.0057221413 0)
(1.0130211 -0.0071839701 0)
(1.0153141 -0.0054164271 0)
(1.0155725 -0.0042183872 0)
(1.0145909 -0.0030837482 0)
(1.0134774 -0.0033950256 0)
(1.0127496 -0.0042059326 0)
(1.0126607 -0.0054231527 0)
(1.0131519 -0.0064347812 0)
(1.0139556 -0.0070403482 0)
(1.014825 -0.0072085874 0)
(1.015608 -0.0070166194 0)
(1.0162198 -0.0065460022 0)
(1.0166205 -0.005875655 0)
(1.0167932 -0.0050756157 0)
(1.016738 -0.0042110017 0)
(1.0164722 -0.0033425518 0)
(1.0160299 -0.0025235624 0)
(1.0154604 -0.0017954498 0)
(1.0148224 -0.0011854575 0)
(1.0141803 -0.00070651563 0)
(1.0135989 -0.0003592494 0)
(1.0131445 -0.00013579719 0)
(1.0128827 -2.1306948e-05 0)
(0.87286817 0.0026160514 9.2025756e-25)
(0.86021202 -0.0023771505 -6.5629055e-24)
(0.88684687 -0.01142919 7.4988954e-24)
(0.92670732 -0.018783963 -2.224407e-23)
(0.96765862 -0.022749834 -4.3181918e-23)
(0.99810511 -0.022957532 5.3232073e-23)
(1.0201993 -0.017412871 2.2121781e-22)
(1.033031 -0.0032556643 -3.7931565e-23)
(1.0370363 0.01377235 0)
(1.023185 0.020817953 0)
(1.009409 0.017792569 0)
(1.0022448 0.0078069387 0)
(1.0027866 -0.0012066032 0)
(1.0075668 -0.00777413 0)
(1.012901 -0.0079701927 0)
(1.0160053 -0.0068804137 0)
(1.0164519 -0.0038859345 0)
(1.0152021 -0.0029838247 0)
(1.0135884 -0.0025654681 0)
(1.0124507 -0.0036987823 0)
(1.0120999 -0.0051292685 0)
(1.0125261 -0.006525687 0)
(1.0134265 -0.0074332984 0)
(1.014469 -0.0078187914 0)
(1.0154481 -0.0077653069 0)
(1.0162572 -0.0073771673 0)
(1.0168488 -0.0067465572 0)
(1.0172011 -0.0059483512 0)
(1.0173072 -0.005049262 0)
(1.017174 -0.0041130396 0)
(1.0168256 -0.0031994415 0)
(1.0163031 -0.0023593725 0)
(1.0156607 -0.0016303984 0)
(1.0149608 -0.0010349461 0)
(1.014269 -0.00058116834 0)
(1.01365 -0.00026574747 0)
(1.013169 -7.7998174e-05 0)
(1.0128898 -1.8698827e-06 0)
(0.85556886 0.0066875212 3.3429006e-23)
(0.83405491 0.0017410054 4.9558119e-25)
(0.85167902 -0.010565608 0)
(0.89020399 -0.020094375 -8.0099215e-24)
(0.93611798 -0.023842082 -7.9127197e-24)
(0.97175308 -0.023224048 0)
(0.99771185 -0.017002795 -1.6834031e-22)
(1.0153228 -0.0026954414 -2.0801731e-22)
(1.0227476 0.016077352 0)
(1.0212588 0.024213484 0)
(1.0077677 0.020844049 0)
(0.99955873 0.010166949 0)
(0.99998067 -0.0024940951 0)
(1.0062491 -0.0084105476 0)
(1.0126897 -0.010383901 0)
(1.016782 -0.007284773 0)
(1.0176545 -0.0047858253 0)
(1.0160357 -0.0019484679 0)
(1.0138116 -0.0020688141 0)
(1.012132 -0.0027376995 0)
(1.0114113 -0.0047160674 0)
(1.0117395 -0.0064748531 0)
(1.01272 -0.00777863 0)
(1.0139516 -0.0084235289 0)
(1.0151474 -0.0085357074 0)
(1.0161711 -0.008245522 0)
(1.0169658 -0.0076668615 0)
(1.0175104 -0.0068848678 0)
(1.0177967 -0.0059673769 0)
(1.0178235 -0.0049774325 0)
(1.0176032 -0.0039779743 0)
(1.0171665 -0.0030276266 0)
(1.0165605 -0.0021744622 0)
(1.0158445 -0.0014514796 0)
(1.0150835 -0.00087598773 0)
(1.0143436 -0.00045127609 0)
(1.0136889 -0.00017036056 0)
(1.0131829 -1.9767115e-05 0)
(1.0128878 1.6928849e-05 0)
(0.84812129 0.010449971 0)
(0.81817486 0.0062283073 0)
(0.82248684 -0.0092165429 -5.1106521e-25)
(0.8536665 -0.021556784 0)
(0.90075604 -0.025154797 -2.2006085e-24)
(0.94019864 -0.023217025 6.2317719e-23)
(0.9689737 -0.015746584 3.3751009e-22)
(0.98741552 -0.00038136193 2.2266965e-22)
(0.99916999 0.018303477 0)
(1.0067308 0.028239369 0)
(1.003964 0.023810683 0)
(0.99655416 0.011778866 0)
(0.99707625 -0.0019422702 0)
(1.0043998 -0.011211805 0)
(1.0125871 -0.011645196 0)
(1.0178594 -0.0095806831 0)
(1.0190322 -0.0042961755 0)
(1.0172336 -0.0020196897 0)
(1.014178 -0.0003765265 0)
(1.0117211 -0.0020174686 0)
(1.010648 -0.0038702433 0)
(1.0107461 -0.0063443994 0)
(1.0118186 -0.0080581636 0)
(1.0132576 -0.0090339078 0)
(1.0146986 -0.0093350519 0)
(1.0159558 -0.0091531739 0)
(1.0169641 -0.0086335582 0)
(1.0177105 -0.0078795029 0)
(1.018191 -0.0069596784 0)
(1.0183991 -0.0059327981 0)
(1.0183367 -0.0048608051 0)
(1.0180219 -0.0038069881 0)
(1.0174921 -0.0028287026 0)
(1.0168007 -0.0019704861 0)
(1.0160111 -0.0012602729 0)
(1.0151903 -0.00070988919 0)
(1.0144044 -0.00031779185 0)
(1.0137161 -7.3388674e-05 0)
(1.0131868 3.8723727e-05 0)
(1.0128772 3.6852405e-05 0)
(0.81476921 0.010581996 -2.2666479e-25)
(0.85191912 0.01362282 0)
(0.80361514 -0.0071868276 -1.147751e-24)
(0.82087739 -0.022698482 -1.1717901e-23)
(0.86417629 -0.02666468 -1.5411543e-23)
(0.90546464 -0.023155853 2.0638332e-23)
(0.93610256 -0.013719739 3.971255e-25)
(0.95380272 0.0031997929 -1.6136632e-23)
(0.9662204 0.021529261 -3.1227312e-22)
(0.98418875 0.030282764 0)
(0.99389746 0.027906331 2.6267895e-22)
(0.99265384 0.013055793 0)
(0.9937331 -0.0030592065 0)
(1.0025335 -0.012300018 0)
(1.012488 -0.014915155 0)
(1.0190235 -0.010341066 0)
(1.0209311 -0.0057577268 0)
(1.0186189 -0.00044156593 0)
(1.0148251 0.00020635478 0)
(1.0113958 -7.1495521e-05 0)
(1.0096161 -0.0032139994 0)
(1.009575 -0.0058922499 0)
(1.0106842 -0.0083007287 0)
(1.0123686 -0.0096399082 0)
(1.01409 -0.010176105 0)
(1.0156111 -0.010109442 0)
(1.0168499 -0.0096507624 0)
(1.0178048 -0.008929198 0)
(1.0184842 -0.0080190053 0)
(1.0188853 -0.0069727041 0)
(1.0190032 -0.005845597 0)
(1.0188423 -0.0047005619 0)
(1.0184266 -0.0036016264 0)
(1.0178001 -0.0026045024 0)
(1.0170222 -0.0017493632 0)
(1.01616 -0.0010584525 0)
(1.0152814 -0.00053797025 0)
(1.0144517 -0.00018166698 0)
(1.0137321 2.42351e-05 0)
(1.0131814 9.7484738e-05 0)
(1.0128587 5.643896e-05 0)
(0.79793238 -0.0040959418 3.0074473e-25)
(0.82394242 0.01462369 0)
(0.86672146 0.016303846 1.8535901e-23)
(0.79601051 -0.02315087 1.1713247e-23)
(0.8295237 -0.028178966 6.0139237e-24)
(0.86959235 -0.02325095 1.1336981e-22)
(0.90110455 -0.011323852 -2.3765401e-22)
(0.91779475 0.0078056853 -8.0271385e-23)
(0.92863747 0.025209861 -2.3745887e-22)
(0.9519026 0.032112139 -2.0731877e-23)
(0.97746112 0.029656201 2.6439972e-22)
(0.98608551 0.015830781 -2.7480938e-22)
(0.99057014 -0.0031260414 0)
(1.0001219 -0.015790636 0)
(1.012283 -0.016844362 0)
(1.0206776 -0.013406466 0)
(1.0230205 -0.0053512104 0)
(1.0205881 -0.00061565495 0)
(1.0155609 0.0028193985 0)
(1.0110282 0.00090140613 0)
(1.0085884 -0.0014578188 0)
(1.0080935 -0.0055688296 0)
(1.0093014 -0.008404975 0)
(1.0112537 -0.010295847 0)
(1.0133142 -0.011063304 0)
(1.0151364 -0.011129531 0)
(1.0166277 -0.010724035 0)
(1.0177953 -0.010030477 0)
(1.018672 -0.0091363171 0)
(1.0192702 -0.0080871942 0)
(1.0195838 -0.00692561 0)
(1.0196033 -0.0057071419 0)
(1.0193364 -0.0044981674 0)
(1.0188142 -0.0033638575 0)
(1.0180886 -0.0023571222 0)
(1.0172243 -0.0015130356 0)
(1.0162909 -0.00084768242 0)
(1.015357 -0.00036151859 0)
(1.0144862 -4.3790018e-05 0)
(1.0137376 0.0001223244 0)
(1.0131674 0.00015586968 0)
(1.0128325 7.6090752e-05 0)
(0.78301926 -0.022276521 3.3847414e-24)
(0.80646357 -8.0046516e-05 7.6288462e-24)
(0.8438098 0.018310721 0)
(0.88952027 0.018485966 -3.764502e-24)
(0.80036498 -0.029270818 -6.0069188e-24)
(0.83500982 -0.023597025 -5.6753277e-23)
(0.86596247 -0.0089766002 0)
(0.88187824 0.013065724 7.9634998e-23)
(0.89033264 0.029727488 -1.4918721e-23)
(0.91399537 0.033885224 2.0430428e-23)
(0.95002574 0.030556221 -2.5921937e-22)
(0.97573691 0.018153866 -2.7618489e-22)
(0.98470056 -0.0041246072 0)
(0.99873575 -0.017373472 0)
(1.0120685 -0.020943858 0)
(1.0221712 -0.014805323 0)
(1.0258156 -0.0072236239 0)
(1.022835 0.0013242885 0)
(1.0167419 0.0037302266 0)
(1.0106831 0.0040203851 0)
(1.0070881 -0.00061114172 0)
(1.0064766 -0.004392775 0)
(1.0075858 -0.0086223841 0)
(1.0099024 -0.010910494 0)
(1.0123552 -0.012069317 0)
(1.0145432 -0.012235291 0)
(1.016313 -0.011870497 0)
(1.0176993 -0.011186434 0)
(1.0187662 -0.010303888 0)
(1.0195545 -0.0092636799 0)
(1.0200666 -0.0080891183 0)
(1.0202837 -0.006820345 0)
(1.0201954 -0.005518801 0)
(1.019815 -0.0042554916 0)
(1.0191822 -0.0030957155 0)
(1.0183559 -0.0020888307 0)
(1.017406 -0.0012636378 0)
(1.0164039 -0.00062968471 0)
(1.0154173 -0.00018179345 0)
(1.0145083 9.4977186e-05 0)
(1.0137331 0.00022001093 0)
(1.0131455 0.00021387964 0)
(1.0128 9.5213066e-05 0)
(0.78057816 -0.029606481 -5.3784145e-24)
(0.78272317 -0.019768111 -4.1536382e-24)
(0.82627038 0.0046958076 -6.1770867e-24)
(0.87075823 0.021662955 -4.25066e-24)
(0.91639183 0.020314368 -3.749356e-23)
(0.80466848 -0.024114341 5.6679188e-23)
(0.83283315 -0.007055274 3.5835603e-23)
(0.84818156 0.018200571 0)
(0.85460435 0.034649438 1.184833e-23)
(0.87487151 0.035697685 1.1043011e-22)
(0.9140777 0.030132056 0)
(0.95533677 0.018223701 3.1629262e-22)
(0.9780368 -0.0021170931 0)
(0.99413013 -0.021427279 0)
(1.0127476 -0.023466363 0)
(1.0241842 -0.018597344 0)
(1.0286676 -0.0072742404 0)
(1.0257865 0.0013390566 0)
(1.0181379 0.0073173048 0)
(1.0104741 0.0054423424 0)
(1.0056526 0.0023115865 0)
(1.004227 -0.0041140017 0)
(1.0056154 -0.008339753 0)
(1.0082395 -0.011749768 0)
(1.011211 -0.013101179 0)
(1.0138223 -0.013476438 0)
(1.0159236 -0.013106509 0)
(1.0175373 -0.012404196 0)
(1.0187821 -0.011514276 0)
(1.0197415 -0.0104861 0)
(1.0204436 -0.0093196562 0)
(1.0208658 -0.0080279048 0)
(1.0209792 -0.0066585422 0)
(1.020775 -0.0052821734 0)
(1.020275 -0.003974474 0)
(1.019528 -0.0027997993 0)
(1.0186008 -0.001802035 0)
(1.0175671 -0.0010031877 0)
(1.016499 -0.00040608015 0)
(1.015463 6.2327514e-09 0)
(1.0145188 0.00023384564 0)
(1.0137195 0.00031716616 0)
(1.0131163 0.00027098989 0)
(1.012761 0.00011413399 0)
(0.78208687 -0.024684218 3.1340487e-24)
(0.77294499 -0.028909016 5.7670883e-24)
(0.79617689 -0.015547369 2.3743662e-23)
(0.85363155 0.009839549 4.3901353e-24)
(0.90083598 0.024734449 -1.1874978e-23)
(0.94333958 0.021844568 2.2638921e-23)
(0.80420527 -0.0058431841 -6.6216666e-23)
(0.81891893 0.022643412 -3.0480347e-23)
(0.82414971 0.039511666 -3.8919622e-24)
(0.83894788 0.037867222 -1.0342009e-22)
(0.87572856 0.028591584 2.5095931e-22)
(0.92662714 0.015980182 -1.3560895e-22)
(0.96705911 -0.0034227507 0)
(0.98885567 -0.022522075 1.5629233e-22)
(1.0107292 -0.028475991 1.3564863e-23)
(1.0270139 -0.020548248 0)
(1.0321845 -0.009385418 0)
(1.028953 0.0031782289 0)
(1.020037 0.0088658475 0)
(1.0102056 0.0099685434 0)
(1.003844 0.0035498902 0)
(1.002001 -0.001934211 0)