/*--------------------------------*- C++ -*----------------------------------*\
| =========                 |                                                 |
| \\      /  F ield         | OpenFOAM: The Open Source CFD Toolbox           |
|  \\    /   O peration     | Version:  5.0                                   |
|   \\  /    A nd           | Web:      www.OpenFOAM.org                      |
|    \\/     M anipulation  |                                                 |
\*---------------------------------------------------------------------------*/
FoamFile
{
    version     2.0;
    format      ascii;
    class       volVectorField;
    location    "60";
    object      U_0;
}
// * * * * * * * * * * * * * * * * * * * * * * * * * * * * * * * * * * * * * //

dimensions      [0 1 -1 0 0 0 0];

internalField   nonuniform List<vector> 
9520
(
(1.0043496 -0.00032310755 0)
(1.0044728 -0.00095340965 0)
(1.0053108 -0.00031247187 0)
(1.0046935 -0.0015527974 0)
(1.005446 -0.00092202292 0)
(1.0056647 -0.00030454469 0)
(1.0049917 -0.0021292497 0)
(1.005689 -0.0015015037 0)
(1.0058043 -0.0008981828 0)
(1.0062338 -0.00029313403 0)
(1.0053484 -0.0026875507 0)
(1.0060192 -0.0020588895 0)
(1.0060556 -0.0014613912 0)
(1.0063788 -0.00086378463 0)
(1.00665 -0.00028281173 0)
(1.0057472 -0.0032328478 0)
(1.0064177 -0.0025990328 0)
(1.006398 -0.0020016382 0)
(1.0066401 -0.0014032128 0)
(1.0067983 -0.00083241391 0)
(1.0070844 -0.00027186146 0)
(1.0061735 -0.0037683704 0)
(1.0068676 -0.0031275274 0)
(1.0068129 -0.0025234493 0)
(1.0069976 -0.0019178719 0)
(1.0070657 -0.0013494746 0)
(1.0072337 -0.00079914012 0)
(1.0074675 -0.00026177593 0)
(1.0066141 -0.0042970925 0)
(1.0073544 -0.0036480603 0)
(1.0072838 -0.0030324777 0)
(1.0074328 -0.0024116035 0)
(1.0074322 -0.0018390726 0)
(1.0075031 -0.0012924675 0)
(1.0076167 -0.00076842501 0)
(1.0078297 -0.00025275313 0)
(1.0070577 -0.004821427 0)
(1.0078648 -0.0041642523 0)
(1.0077961 -0.0035325934 0)
(1.0079301 -0.0028897653 0)
(1.0078799 -0.0023040833 0)
(1.0078727 -0.0017553447 0)
(1.0078854 -0.0012395566 0)
(1.007977 -0.00074098106 0)
(1.0081655 -0.00024520831 0)
(1.0074949 -0.0053416345 0)
(1.0083868 -0.0046791409 0)
(1.008337 -0.004027747 0)
(1.0084754 -0.0033562948 0)
(1.0083936 -0.0027489371 0)
(1.008325 -0.002189601 0)
(1.0082541 -0.0016770465 0)
(1.0082419 -0.001192263 0)
(1.0083098 -0.00071810607 0)
(1.0084808 -0.00023933403 0)
(1.0079182 -0.0058610522 0)
(1.0089103 -0.0051938759 0)
(1.0088947 -0.00452163 0)
(1.0090568 -0.0038153107 0)
(1.0089598 -0.0031771397 0)
(1.0088458 -0.0025982429 0)
(1.0087052 -0.0020815325 0)
(1.0086049 -0.0016071178 0)
(1.0085688 -0.0011529915 0)
(1.0086215 -0.00070041387 0)
(1.0087783 -0.00023515786 0)
(1.0083213 -0.006373468 0)
(1.0094259 -0.0057121882 0)
(1.0094588 -0.0050164715 0)
(1.0096637 -0.0042711933 0)
(1.0095674 -0.0035926112 0)
(1.0094218 -0.0029835902 0)
(1.0092245 -0.0024543515 0)
(1.0090481 -0.0019848557 0)
(1.0089226 -0.0015494439 0)
(1.0088731 -0.0011230059 0)
(1.008915 -0.0006880491 0)
(1.0090612 -0.00023256402 0)
(1.008701 -0.0068906594 0)
(1.0099267 -0.0062283741 0)
(1.0100193 -0.0055168715 0)
(1.0102863 -0.0047275267 0)
(1.0102071 -0.0039999962 0)
(1.0100439 -0.0033486168 0)
(1.0097993 -0.0027961853 0)
(1.0095568 -0.0023251763 0)
(1.0093528 -0.0019053736 0)
(1.0092154 -0.0015061015 0)
(1.0091588 -0.0011026788 0)
(1.0091942 -0.00068069369 0)
(1.009332 -0.00023131883 0)
(1.0090534 -0.0073869809 0)
(1.0104054 -0.0067541159 0)
(1.0105684 -0.0060190805 0)
(1.0109157 -0.0051900374 0)
(1.0108706 -0.0044037698 0)
(1.0107044 -0.003696836 0)
(1.0104208 -0.0031088035 0)
(1.0101183 -0.0026269794 0)
(1.0098436 -0.0022192064 0)
(1.0096291 -0.0018463462 0)
(1.0094886 -0.0014776311 0)
(1.0094304 -0.0010913577 0)
(1.0094618 -0.00067754072 0)
(1.0095925 -0.00023106825 0)
(1.0093805 -0.0079056608 0)
(1.010859 -0.0072629983 0)
(1.0110968 -0.0065357259 0)
(1.0115442 -0.0056581624 0)
(1.0115505 -0.0048107498 0)
(1.0113975 -0.0040321335 0)
(1.0110827 -0.0033939653 0)
(1.010724 -0.0028904776 0)
(1.0103821 -0.0024883947 0)
(1.0100971 -0.0021414196 0)
(1.0098841 -0.0018087351 0)
(1.009748 -0.0014629115 0)
(1.0096914 -0.0010874632 0)
(1.0097198 -0.00067747443 0)
(1.0098441 -0.00023144383 0)
(1.009677 -0.0083661433 0)
(1.0112833 -0.0077982369 0)
(1.0116003 -0.0070425575 0)
(1.0121629 -0.0061463605 0)
(1.0122412 -0.0052233038 0)
(1.0121189 -0.0043606019 0)
(1.0117807 -0.0036541748 0)
(1.0113679 -0.0031152145 0)
(1.0109591 -0.0027116023 0)
(1.0106059 -0.0023878595 0)
(1.0103274 -0.002093419 0)
(1.0101259 -0.0017910209 0)
(1.0099978 -0.0014596227 0)
(1.0099438 -0.001089196 0)
(1.0099697 -0.0006794653 0)
(1.0100875 -0.00023212508 0)
(1.0099545 -0.008896995 0)
(1.0116766 -0.0082768336 0)
(1.0120723 -0.0075840416 0)
(1.0127664 -0.0066359059 0)
(1.0129371 -0.0056579652 0)
(1.0128679 -0.0046859278 0)
(1.0125141 -0.003893835 0)
(1.0120464 -0.0033014622 0)
(1.0115675 -0.0028867036 0)
(1.0111451 -0.0025833089 0)
(1.0108038 -0.0023279006 0)
(1.0105449 -0.0020731268 0)
(1.0103591 -0.0017900211 0)
(1.0102407 -0.001465384 0)
(1.0101898 -0.0010950139 0)
(1.0102126 -0.00068256209 0)
(1.0103234 -0.00023278281 0)
(1.010197 -0.0092917146 0)
(1.0120434 -0.0088292768 0)
(1.0125099 -0.0080761451 0)
(1.0133455 -0.007173338 0)
(1.0136312 -0.0061002969 0)
(1.0136421 -0.0050241106 0)
(1.0132846 -0.0041159622 0)
(1.0127609 -0.0034508981 0)
(1.0122034 -0.0030115217 0)
(1.0117057 -0.0027245868 0)
(1.0113015 -0.0025095068 0)
(1.0109898 -0.0023055255 0)
(1.0107554 -0.0020760727 0)
(1.0105877 -0.0018025269 0)
(1.01048 -0.0014780806 0)
(1.0104311 -0.0011032711 0)
(1.0104491 -0.0006857338 0)
(1.0105516 -0.00023308821 0)
(1.0104396 -0.0098503286 0)
(1.0123671 -0.0092425616 0)
(1.0129152 -0.0086548459 0)
(1.0138972 -0.007675991 0)
(1.0143147 -0.006600371 0)
(1.0144381 -0.0053603278 0)
(1.0140896 -0.0043303689 0)
(1.0135091 -0.00356071 0)
(1.0128647 -0.003084553 0)
(1.0122835 -0.0028072854 0)
(1.0118096 -0.0026334721 0)
(1.0114468 -0.0024851054 0)
(1.0111701 -0.0023139766 0)
(1.0109639 -0.0020979669 0)
(1.010816 -0.0018257319 0)
(1.0107173 -0.0014952218 0)
(1.0106681 -0.0011121401 0)
(1.0106793 -0.00068798362 0)
(1.0107721 -0.00023275853 0)
(1.0106325 -0.010146152 0)
(1.0126831 -0.0098221689 0)
(1.0132652 -0.0090948094 0)
(1.0144166 -0.0082874219 0)
(1.014981 -0.007075295 0)
(1.0152499 -0.0057493113 0)
(1.0149316 -0.0045198678 0)
(1.0142875 -0.0036313158 0)
(1.0135401 -0.0030917393 0)
(1.0128627 -0.002826429 0)
(1.0123206 -0.0026949246 0)
(1.0119042 -0.0026060783 0)
(1.0115881 -0.0024996741 0)
(1.0113513 -0.0023477528 0)
(1.0111761 -0.0021354754 0)
(1.0110461 -0.0018562492 0)
(1.0109536 -0.0015141192 0)
(1.0109011 -0.00111991 0)
(1.0109029 -0.00068843664 0)
(1.0109843 -0.0002315542 0)
(1.0108633 -0.010741296 0)
(1.0129226 -0.010132041 0)
(1.0135992 -0.0097245393 0)
(1.0148861 -0.0087683678 0)
(1.0156264 -0.0076815233 0)
(1.0160722 -0.0061058456 0)
(1.0158126 -0.0047390419 0)
(1.0151047 -0.0036444121 0)
(1.0142286 -0.0030319324 0)
(1.0134301 -0.0027597164 0)
(1.0128 -0.0026846236 0)
(1.0123429 -0.0026658921 0)
(1.0119937 -0.0026286905 0)
(1.0117327 -0.0025478867 0)
(1.0115409 -0.0024036951 0)
(1.0113946 -0.0021842917 0)
(1.0112792 -0.0018904518 0)
(1.0111894 -0.0015322915 0)
(1.0111301 -0.0011250319 0)
(1.0111197 -0.00068633758 0)
(1.0111877 -0.00022925881 0)
(1.0110106 -0.010916362 0)
(1.0132072 -0.01073656 0)
(1.0138285 -0.010069601 0)
(1.0153278 -0.0094838993 0)
(1.0162347 -0.0081618709 0)
(1.0169014 -0.0066125453 0)
(1.016729 -0.0049048475 0)
(1.0159678 -0.0036515861 0)
(1.0149423 -0.0028880134 0)
(1.0139905 -0.0026148936 0)
(1.0132516 -0.002588892 0)
(1.0127306 -0.0026513962 0)
(1.01236 -0.0026938614 0)
(1.0120891 -0.0026947316 0)
(1.0118927 -0.0026275422 0)
(1.0117431 -0.0024763377 0)
(1.0116215 -0.0022395809 0)
(1.0115164 -0.0019249608 0)
(1.0114245 -0.001547428 0)
(1.0113545 -0.0011261411 0)
(1.0113287 -0.00068106227 0)
(1.0113817 -0.00022570732 0)
(1.011261 -0.01154319 0)
(1.0133662 -0.010921218 0)
(1.0140992 -0.010742258 0)
(1.0156616 -0.009897364 0)
(1.0168218 -0.0089220329 0)
(1.0177156 -0.0069888814 0)
(1.0176968 -0.0052094867 0)
(1.0168908 -0.0035415152 0)
(1.0156817 -0.0027022667 0)
(1.0145497 -0.0023745688 0)
(1.0136796 -0.0024214008 0)
(1.0130846 -0.0025734966 0)
(1.0126982 -0.0026988299 0)
(1.0124085 -0.0027878567 0)
(1.0122165 -0.0028064511 0)
(1.0120749 -0.0027305633 0)
(1.0119601 -0.0025588568 0)
(1.0118577 -0.0022968617 0)
(1.0117574 -0.0019565809 0)
(1.0116585 -0.0015574703 0)
(1.0115735 -0.0011221173 0)
(1.0115293 -0.00067211076 0)
(1.0115657 -0.00022079017 0)
(1.0113801 -0.011593206 0)
(1.0136171 -0.011540255 0)
(1.0142131 -0.01097372 0)
(1.0160202 -0.010728831 0)
(1.0173129 -0.009371232 0)
(1.0185509 -0.0076992579 0)
(1.0186845 -0.0053391641 0)
(1.0178851 -0.0035473397 0)
(1.0164675 -0.002350387 0)
(1.0150986 -0.0020658856 0)
(1.0140745 -0.0021655712 0)
(1.0134004 -0.0024367999 0)
(1.0129913 -0.0026738517 0)
(1.0127033 -0.0028381039 0)
(1.0125093 -0.0029461215 0)
(1.0123794 -0.0029476688 0)
(1.012279 -0.0028462416 0)
(1.0121922 -0.0026454005 0)
(1.012103 -0.002351998 0)
(1.0120017 -0.0019824795 0)
(1.0118905 -0.0015606834 0)
(1.0117862 -0.0011120614 0)
(1.0117208 -0.00065910798 0)
(1.0117388 -0.00021443542 0)
(1.0116631 -0.012209898 0)
(1.0136999 -0.011591214 0)
(1.0144134 -0.011634007 0)
(1.0161612 -0.011057006 0)
(1.0178247 -0.010331908 0)
(1.019331 -0.0080795165 0)
(1.0197703 -0.0058242973 0)
(1.0189275 -0.0032847774 0)
(1.0172992 -0.002082728 0)
(1.0156553 -0.0015721812 0)
(1.014418 -0.0018338104 0)
(1.0136594 -0.002232603 0)
(1.0132284 -0.0026021255 0)
(1.0129648 -0.0028618774 0)
(1.0127759 -0.0030586067 0)
(1.0126544 -0.0031317777 0)
(1.012568 -0.00310041 0)
(1.012503 -0.0029675224 0)
(1.0124391 -0.0027311361 0)
(1.012357 -0.0024013804 0)
(1.0122484 -0.0020002258 0)
(1.0121193 -0.0015556434 0)
(1.0119917 -0.0010952927 0)
(1.0119024 -0.0006418036 0)
(1.0119007 -0.00020661093 0)
(1.0117691 -0.012155804 0)
(1.0138764 -0.012208367 0)
(1.0144537 -0.011756713 0)
(1.0163459 -0.011942021 0)
(1.0181298 -0.010726649 0)
(1.0201574 -0.0090803208 0)
(1.0208477 -0.0059195661 0)
(1.0201146 -0.0033898545 0)
(1.0181885 -0.0014093533 0)
(1.0161859 -0.0011338395 0)
(1.014719 -0.0013415629 0)
(1.0138385 -0.0019679169 0)
(1.0133976 -0.0024868075 0)
(1.0131674 -0.0028552789 0)
(1.0130015 -0.003128543 0)
(1.0128938 -0.0032786655 0)
(1.0128207 -0.0033184953 0)
(1.0127783 -0.0032591081 0)
(1.0127473 -0.0030901177 0)
(1.0127007 -0.0028119017 0)
(1.0126188 -0.0024418205 0)
(1.0124961 -0.0020077475 0)
(1.0123438 -0.0015412427 0)
(1.0121889 -0.0010713545 0)
(1.0120734 -0.0006200773 0)
(1.0120506 -0.00019732012 0)
(1.0122049 -0.012705058 0)
(1.0139031 -0.012152553 0)
(1.0145245 -0.012348543 0)
(1.0163246 -0.012218842 0)
(1.0185134 -0.011874715 0)
(1.0208442 -0.0094540336 0)
(1.0220618 -0.0066990653 0)
(1.0213317 -0.0029500418 0)
(1.0191924 -0.0011307165 0)
(1.0167497 -0.00022251288 0)
(1.0149189 -0.00087754104 0)
(1.0139341 -0.0016025179 0)
(1.0134859 -0.0023387996 0)
(1.0133031 -0.0028280296 0)
(1.013181 -0.00317229 0)
(1.0130918 -0.0033902736 0)
(1.0130318 -0.0034956904 0)
(1.0130095 -0.0035145466 0)
(1.0130139 -0.003423473 0)
(1.0130128 -0.0032098683 0)
(1.0129765 -0.0028837512 0)
(1.012887 -0.0024704738 0)
(1.0127435 -0.0020033552 0)
(1.0125626 -0.0015166776 0)
(1.0123768 -0.0010399612 0)
(1.012233 -0.00059391922 0)
(1.0121884 -0.00018659688 0)
(1.0123672 -0.01257212 0)
(1.0140624 -0.012732461 0)
(1.0145249 -0.012354981 0)
(1.016217 -0.013064025 0)
(1.0186536 -0.012282827 0)
(1.0216663 -0.010809181 0)
(1.0232263 -0.0067835927 0)
(1.0227595 -0.00322669 0)
(1.0202254 -4.7400427e-05 0)
(1.0172831 0.00034542029 0)
(1.0151043 -2.8073569e-06 0)
(1.0138906 -0.0012523079 0)
(1.0134762 -0.0021521432 0)
(1.0133699 -0.0027994513 0)
(1.0133131 -0.0031996438 0)
(1.0132486 -0.0034672148 0)
(1.0132015 -0.0036321125 0)
(1.0131939 -0.0037297674 0)
(1.01323 -0.0037251853 0)
(1.0132778 -0.0035893139 0)
(1.0132995 -0.0033219819 0)
(1.0132651 -0.0029429323 0)
(1.0131599 -0.0024849106 0)
(1.0129887 -0.0019857425 0)
(1.0127743 -0.0014814155 0)
(1.0125545 -0.0010010178 0)
(1.0123808 -0.0005634077 0)
(1.0123136 -0.00017450085 0)
(1.0127221 -0.012961528 0)
(1.0140309 -0.012576123 0)
(1.0144363 -0.012843489 0)
(1.0161281 -0.013301719 0)
(1.0187559 -0.013513402 0)
(1.0221756 -0.011207301 0)
(1.0245683 -0.0079239671 0)
(1.0242026 -0.0026368048 0)
(1.0214274 0.00025649626 0)
(1.0178607 0.00171584 0)
(1.0151011 0.00060858582 0)
(1.0137756 -0.00061853092 0)
(1.0133364 -0.0019937729 0)
(1.0133522 -0.002765825 0)
(1.0133993 -0.0032358896 0)
(1.0133775 -0.0035241209 0)
(1.0133391 -0.0037368979 0)
(1.0133342 -0.0039011451 0)
(1.013391 -0.0039877897 0)
(1.0134843 -0.0039426403 0)
(1.0135703 -0.00375026 0)
(1.0136067 -0.003421617 0)
(1.0135648 -0.0029860728 0)
(1.0134355 -0.0024831385 0)
(1.01323 -0.0019539761 0)
(1.0129776 -0.001435184 0)
(1.0127211 -0.00095458726 0)
(1.0125163 -0.00052869977 0)
(1.012426 -0.000161113 0)
(1.0131137 -0.01282637 0)
(1.0140102 -0.013110168 0)
(1.0143897 -0.012800924 0)
(1.0157708 -0.014065559 0)
(1.0188522 -0.014048162 0)
(1.0229391 -0.01285536 0)
(1.0257889 -0.0080748362 0)
(1.0258779 -0.0031140706 0)
(1.0226753 0.0017084794 0)
(1.0183966 0.002481943 0)
(1.0151143 0.0019274795 0)
(1.0133925 -0.00024716303 0)
(1.013092 -0.0017134839 0)
(1.013252 -0.0027946707 0)
(1.0134485 -0.0032893602 0)
(1.0134938 -0.0035850832 0)
(1.0134587 -0.0038117139 0)
(1.013441 -0.0040297241 0)
(1.0135001 -0.0042069952 0)
(1.0136264 -0.0042616586 0)
(1.0137748 -0.0041605527 0)
(1.0138918 -0.0039006604 0)
(1.0139327 -0.0035042462 0)
(1.0138732 -0.0030102431 0)
(1.0137114 -0.0024636271 0)
(1.0134656 -0.0019074846 0)
(1.0131712 -0.0013779591 0)
(1.012876 -0.00090087375 0)
(1.0126392 -0.00049001971 0)
(1.0125257 -0.0001465316 0)
(1.0131029 -0.012999979 2.4172531e-24)
(1.0139918 -0.012908005 0)
(1.0141312 -0.013053563 0)
(1.0155761 -0.014264228 0)
(1.0187449 -0.015297972 0)
(1.0234197 -0.013455459 0)
(1.0273612 -0.0095691174 0)
(1.0276037 -0.0024589522 0)
(1.024102 0.0021154351 0)
(1.0189868 0.0044315334 0)
(1.0148892 0.0027231169 0)
(1.0129748 0.00071617506 0)
(1.0126041 -0.0016823751 0)
(1.0130617 -0.0028091837 0)
(1.0134648 -0.0034255997 0)
(1.013616 -0.0036532377 0)
(1.0135784 -0.0038671644 0)
(1.0135257 -0.0041094773 0)
(1.0135576 -0.0043665224 0)
(1.0136968 -0.0045310313 0)
(1.0139009 -0.0045411359 0)
(1.0141035 -0.0043719365 0)
(1.0142419 -0.0040344349 0)
(1.0142753 -0.0035656133 0)
(1.0141877 -0.0030130573 0)
(1.0139853 -0.0024253207 0)
(1.0136936 -0.0018460419 0)
(1.013354 -0.0013099334 0)
(1.0130185 -0.0008402071 0)
(1.0127492 -0.00044764871 0)
(1.0126127 -0.00013086859 0)
(1.0098335 -0.012702315 -1.6727952e-23)
(1.0130536 -0.013327447 -2.5249647e-24)
(1.0140986 -0.013029835 0)
(1.0150323 -0.014996603 0)
(1.0187763 -0.015975084 0)
(1.0241467 -0.015220528 0)
(1.0286742 -0.0099356007 0)
(1.0295971 -0.003087457 0)
(1.0256032 0.0039337129 0)
(1.0195684 0.0054321455 0)
(1.014648 0.0046492671 0)
(1.0121843 0.0011045768 0)
(1.012057 -0.0012564876 0)
(1.012729 -0.0030571261 0)
(1.0134445 -0.0035759456 0)
(1.0137457 -0.0037893619 0)
(1.0137172 -0.0038910282 0)
(1.0135981 -0.0041397286 0)
(1.0135716 -0.0044554076 0)
(1.013697 -0.0047413063 0)
(1.0139422 -0.0048819299 0)
(1.0142283 -0.0048261925 0)
(1.0144735 -0.0045698949 0)
(1.0146182 -0.0041454668 0)
(1.0146311 -0.0036021177 0)
(1.0145051 -0.002992746 0)
(1.0142548 -0.0023676329 0)
(1.0139125 -0.0017697365 0)
(1.013525 -0.0012315094 0)
(1.0131481 -0.00077302514 0)
(1.0128463 -0.00040191342 0)
(1.0126871 -0.00011424596 0)
(0.99878727 -0.012148298 1.6754282e-23)
(1.0068059 -0.013031408 -1.0833407e-24)
(1.0122472 -0.013183135 0)
(1.0151504 -0.015112813 0)
(1.0185349 -0.01730291 0)
(1.0247257 -0.016194326 0)
(1.0306322 -0.011690569 0)
(1.0316929 -0.0025503307 0)
(1.027308 0.0045453399 0)
(1.0201174 0.0079848072 0)
(1.0141754 0.0056300776 0)
(1.0113233 0.0025025771 0)
(1.0111065 -0.0014835224 0)
(1.0123269 -0.0031319058 0)
(1.013385 -0.0039571879 0)
(1.013888 -0.0039085562 0)
(1.0138699 -0.0039335682 0)
(1.013672 -0.0040913972 0)
(1.0135491 -0.0044604523 0)
(1.0136242 -0.0048702736 0)
(1.0138882 -0.0051635837 0)
(1.0142522 -0.0052507099 0)
(1.0146108 -0.0051020754 0)
(1.0148815 -0.0047442222 0)
(1.0150169 -0.0042282985 0)
(1.0149963 -0.0036109634 0)
(1.0148223 -0.0029481696 0)
(1.0145175 -0.0022904108 0)
(1.0141206 -0.0016789382 0)
(1.0136834 -0.0011432105 0)
(1.0132647 -0.00069984734 0)
(1.0129306 -0.00035317388 0)
(1.0127491 -9.6792459e-05 0)
(0.97909416 -0.010645361 0)
(0.98905908 -0.012351195 1.0822245e-24)
(1.0041095 -0.012988134 0)
(1.0132381 -0.015845818 0)
(1.0188676 -0.017976045 0)
(1.0253086 -0.018029923 0)
(1.0320646 -0.012440677 0)
(1.0341264 -0.0031970689 0)
(1.0292028 0.0065508414 0)
(1.0207792 0.0093633488 0)
(1.0135786 0.0082475073 0)
(1.010037 0.0028664143 0)
(1.0101249 -0.00088913159 0)
(1.011669 -0.0038069718 0)
(1.0133046 -0.0042480076 0)
(1.0140833 -0.0042327709 0)
(1.0140707 -0.0038940719 0)
(1.0137712 -0.0039928517 0)
(1.0135044 -0.0043598898 0)
(1.013484 -0.0049031211 0)
(1.0137384 -0.0053767507 0)
(1.0141683 -0.0056368224 0)
(1.014641 -0.0056231387 0)
(1.0150479 -0.0053554112 0)
(1.0153238 -0.0048873739 0)
(1.0154334 -0.0042787579 0)
(1.015367 -0.0035902323 0)
(1.0151363 -0.0028787901 0)
(1.0147712 -0.0021939022 0)
(1.0143167 -0.0015742557 0)
(1.0138285 -0.001045753 0)
(1.013368 -0.00062125817 0)
(1.0130022 -0.00030181414 0)
(1.0127992 -7.8641358e-05 0)
(0.9535895 -0.0083192512 -3.2747905e-24)
(0.96161292 -0.01090192 0)
(0.98521331 -0.01258158 2.9214084e-24)
(1.0048274 -0.016199311 0)
(1.0176257 -0.019488372 0)
(1.0260352 -0.01932971 0)
(1.0343496 -0.014198262 0)
(1.036626 -0.0028652931 0)
(1.0312476 0.0076821144 0)
(1.0214125 0.012371407 0)
(1.0128677 0.0095078968 0)
(1.0086085 0.0047873935 0)
(1.0085963 -0.0014621552 0)
(1.0109999 -0.0039631463 0)
(1.013179 -0.0051081736 0)
(1.014359 -0.0044288593 0)
(1.0143926 -0.0040166418 0)
(1.013948 -0.0037881232 0)
(1.0134677 -0.0041687197 0)
(1.0132896 -0.0048193268 0)
(1.0134886 -0.0055024242 0)
(1.0139643 -0.0059683516 0)
(1.0145496 -0.0061226308 0)
(1.0151017 -0.0059720484 0)
(1.0155333 -0.0055741742 0)
(1.015794 -0.0049930454 0)
(1.0158623 -0.0042938559 0)
(1.015739 -0.0035388319 0)
(1.0154439 -0.0027846101 0)
(1.015014 -0.0020786931 0)
(1.0144995 -0.0014565102 0)
(1.0139597 -0.00093997208 0)
(1.0134579 -0.0005378979 0)
(1.0130614 -0.00024823278 0)
(1.0128378 -5.9928769e-05 0)
(0.92543822 -0.0052108698 6.5676974e-23)
(0.92839397 -0.008731408 -5.8649278e-25)
(0.95738432 -0.012149541 -2.9132295e-24)
(0.98656551 -0.016704197 -1.5139786e-23)
(1.0096041 -0.020496501 -2.4832594e-23)
(1.0260533 -0.021147781 0)
(1.0352296 -0.015565717 0)
(1.0388175 -0.0035487564 0)
(1.033505 0.0095380081 0)
(1.0221023 0.01444791 0)
(1.0120019 0.01274022 0)
(1.0067484 0.0051463062 0)
(1.0070565 -0.00072686357 0)
(1.0099255 -0.005254418 0)
(1.0130532 -0.0055964085 0)
(1.0147367 -0.0052018419 0)
(1.0148807 -0.0038889995 0)
(1.0141922 -0.0036537764 0)
(1.0134924 -0.0038007863 0)
(1.0130504 -0.0046174543 0)
(1.0131403 -0.0055158199 0)
(1.0136326 -0.006232826 0)
(1.0143257 -0.0065928082 0)
(1.0150299 -0.0065878532 0)
(1.01563 -0.0062834913 0)
(1.0160595 -0.005749702 0)
(1.0162856 -0.0050569431 0)
(1.0162987 -0.0042718011 0)
(1.0161084 -0.0034564168 0)
(1.0157425 -0.0026661008 0)
(1.0152441 -0.001945675 0)
(1.0146682 -0.0013266957 0)
(1.0140769 -0.00082670286 0)
(1.0135347 -0.00045044033 0)
(1.0131086 -0.00019283303 0)
(1.0128653 -4.0792999e-05 0)
(0.89771536 -0.0014968635 -9.5922168e-23)
(0.893414 -0.0058186355 7.0931539e-24)
(0.9234273 -0.011713019 0)
(0.95967206 -0.01749893 5.5451293e-23)
(0.99280085 -0.021649834 2.4629378e-23)
(1.016836 -0.022495451 7.5471171e-23)
(1.0328069 -0.016596671 3.9260605e-23)
(1.0391649 -0.0037864083 0)
(1.0370165 0.011356436 0)
(1.0229242 0.017497258 0)
(1.0110721 0.014578429 0)
(1.0048221 0.0075744275 0)
(1.0048357 -0.0016542871 0)
(1.0089184 -0.0055595148 0)
(1.0128517 -0.0071652478 0)
(1.0152092 -0.0054860826 0)
(1.0155486 -0.0043080614 0)
(1.0146182 -0.0031553804 0)
(1.0135261 -0.0034322522 0)
(1.0127962 -0.0042078042 0)
(1.0126899 -0.005405786 0)
(1.0131636 -0.0064134389 0)
(1.013956 -0.0070241251 0)
(1.0148207 -0.0071991618 0)
(1.015603 -0.0070124629 0)
(1.0162159 -0.0065450038 0)
(1.0166181 -0.0058760791 0)
(1.0167918 -0.005076453 0)
(1.0167372 -0.0042118249 0)
(1.0164716 -0.0033432535 0)
(1.0160294 -0.0025241595 0)
(1.0154599 -0.0017959787 0)
(1.014822 -0.0011859345 0)
(1.0141798 -0.00070693406 0)
(1.0135985 -0.00035958657 0)
(1.0131441 -0.00013602212 0)
(1.0128824 -2.1386439e-05 0)
(0.87355396 0.0025686152 8.7735606e-25)
(0.86075657 -0.0021836965 -6.7360461e-24)
(0.88684675 -0.011151522 7.2647022e-24)
(0.9264482 -0.018543943 -2.1647656e-23)
(0.9674883 -0.022638636 -4.183853e-23)
(0.99814484 -0.023037688 5.159679e-23)
(1.0203421 -0.017794505 2.2169361e-22)
(1.0332959 -0.0039292192 -3.796975e-23)
(1.0374436 0.013180263 0)
(1.0238229 0.020634632 0)
(1.0099199 0.017949286 0)
(1.002485 0.0081930969 0)
(1.0027321 -0.00083263411 0)
(1.007354 -0.0075800948 0)
(1.012686 -0.0079448107 0)
(1.0158606 -0.0069613506 0)
(1.0164152 -0.0040117206 0)
(1.0152379 -0.0030793322 0)
(1.0136551 -0.0026200131 0)
(1.012516 -0.0037042393 0)
(1.0121425 -0.0051052353 0)
(1.0125437 -0.0064945956 0)
(1.0134271 -0.0074087053 0)
(1.0144621 -0.0078039349 0)
(1.0154399 -0.0077584331 0)
(1.0162508 -0.0073753196 0)
(1.0168447 -0.0067470631 0)
(1.0171989 -0.0059495559 0)
(1.0173061 -0.0050504273 0)
(1.0171734 -0.004113969 0)
(1.0168252 -0.0032001657 0)
(1.0163026 -0.002359973 0)
(1.0156603 -0.0016309338 0)
(1.0149604 -0.0010354358 0)
(1.0142686 -0.00058160217 0)
(1.0136497 -0.00026609648 0)
(1.0131686 -7.8231291e-05 0)
(1.0128895 -1.9517396e-06 0)
(0.8561599 0.0066450151 3.3044612e-23)
(0.8346188 0.0020040801 4.5496893e-25)
(0.85169083 -0.010193232 0)
(0.88985692 -0.019822981 -7.7368687e-24)
(0.93588679 -0.023760128 -7.4871626e-24)
(0.97186096 -0.023345185 0)
(0.99801962 -0.017444279 -1.6647186e-22)
(1.0159383 -0.0034726675 -2.0607369e-22)
(1.0235227 0.015346866 0)
(1.022081 0.023993956 0)
(1.0083582 0.021031974 0)
(0.99983326 0.010624129 0)
(0.99991231 -0.0020377965 0)
(1.0059869 -0.0081602942 0)
(1.0124055 -0.010360917 0)
(1.0165947 -0.0074038086 0)
(1.0175987 -0.0049507884 0)
(1.0160827 -0.0020862196 0)
(1.0139032 -0.0021406458 0)
(1.0122202 -0.0027488121 0)
(1.0114729 -0.0046834568 0)
(1.0117657 -0.006430239 0)
(1.012721 -0.0077421471 0)
(1.0139412 -0.008400834 0)
(1.0151347 -0.0085249033 0)
(1.0161608 -0.0082424982 0)
(1.0169592 -0.0076675987 0)
(1.0175067 -0.0068867536 0)
(1.0177949 -0.0059691854 0)
(1.0178226 -0.0049788023 0)
(1.0176028 -0.0039789461 0)
(1.0171661 -0.0030283507 0)
(1.0165601 -0.0021750636 0)
(1.0158441 -0.0014520261 0)
(1.0150831 -0.00087649515 0)
(1.0143432 -0.00045172858 0)
(1.0136885 -0.00017072582 0)
(1.0131825 -2.0007285e-05 0)
(1.0128875 1.6847284e-05 0)
(0.84857997 0.01040386 0)
(0.81872568 0.0065434076 0)
(0.82256578 -0.0087523604 -4.6922775e-25)
(0.85327202 -0.021248602 0)
(0.90043751 -0.025108481 -1.9323615e-24)
(0.94029838 -0.023399346 6.0771663e-23)
(0.96940358 -0.016275293 3.3484937e-22)
(0.98829682 -0.0012546546 2.2621886e-22)
(1.0001176 0.017550987 0)
(1.0074832 0.028034975 0)
(1.0046145 0.024055353 0)
(0.99687625 0.012328121 0)
(0.99698854 -0.0013994985 0)
(1.0040664 -0.010919234 0)
(1.012239 -0.011606702 0)
(1.0176119 -0.0097119965 0)
(1.0189549 -0.0045129926 0)
(1.0172897 -0.0021993533 0)
(1.0143006 -0.00048317031 0)
(1.0118448 -0.0020346449 0)
(1.0107332 -0.0038276714 0)
(1.0107839 -0.006282841 0)
(1.0118208 -0.008005186 0)
(1.0132423 -0.0090001684 0)
(1.0146793 -0.0093186067 0)
(1.0159397 -0.0091484159 0)
(1.0169535 -0.0086347099 0)
(1.0177046 -0.0078825551 0)
(1.0181882 -0.0069626142 0)
(1.0183979 -0.0059349713 0)
(1.0183362 -0.0048622463 0)
(1.0180216 -0.0038079455 0)
(1.0174918 -0.0028294084 0)
(1.0168003 -0.0019710881 0)
(1.0160107 -0.001260835 0)
(1.0151899 -0.00071041883 0)
(1.014404 -0.00031826558 0)
(1.0137158 -7.3769505e-05 0)
(1.0131865 3.8472718e-05 0)
(1.0128769 3.676273e-05 0)
(0.81528714 0.01091772 -2.1677435e-25)
(0.85225124 0.013563906 0)
(0.80383359 -0.0066334937 -8.5790714e-25)
(0.82051665 -0.022341346 -1.1700332e-23)
(0.86377837 -0.026660196 -1.54716e-23)
(0.90550343 -0.023420611 2.1375089e-23)
(0.93658008 -0.014343449 5.6910533e-25)
(0.9548665 0.0022535969 -1.3309491e-23)
(0.96724794 0.020810506 -3.1611503e-22)
(0.98481005 0.030103219 0)
(0.99441034 0.028178027 2.5678061e-22)
(0.99297627 0.01367827 0)
(0.99363937 -0.0023803925 0)
(1.0021322 -0.011936532 0)
(1.0120483 -0.014882996 0)
(1.0187153 -0.010524183 0)
(1.0208236 -0.0060349955 0)
(1.0186877 -0.00068302487 0)
(1.0149879 6.422877e-05 0)
(1.011557 -9.3402153e-05 0)
(1.0097323 -0.0031598431 0)
(1.0096302 -0.0058054544 0)
(1.0106882 -0.0082263267 0)
(1.0123469 -0.0095913688 0)
(1.0140618 -0.010151871 0)
(1.0155869 -0.010102282 0)
(1.0168335 -0.0096526184 0)
(1.0177955 -0.0089341353 0)
(1.0184799 -0.0080238219 0)
(1.0188837 -0.0069762628 0)
(1.0190028 -0.0058478832 0)
(1.0188422 -0.0047019545 0)
(1.0184265 -0.0036025217 0)
(1.0177998 -0.0026051794 0)
(1.0170219 -0.0017499679 0)
(1.0161596 -0.001059035 0)
(1.0152811 -0.00053852526 0)
(1.0144514 -0.00018216323 0)
(1.0137318 2.3837194e-05 0)
(1.0131812 9.7224484e-05 0)
(1.0128584 5.634609e-05 0)
(0.79836445 -0.0034728495 2.5726077e-26)
(0.82441546 0.014953113 0)
(0.86696397 0.016227041 1.8447059e-23)
(0.79579443 -0.02274147 1.1695758e-23)
(0.82909173 -0.028203606 6.1957968e-24)
(0.86953876 -0.023591902 1.1082475e-22)
(0.9015517 -0.012054993 -2.3479031e-22)
(0.9189358 0.0067807473 -7.9321211e-23)
(0.92969537 0.024545191 -2.4169307e-22)
(0.95237289 0.032000953 -2.2904541e-23)
(0.97774544 0.029932417 2.6037865e-22)
(0.98635175 0.016570247 -2.6861772e-22)
(0.99042225 -0.0023774266 0)
(0.99963722 -0.01536447 0)
(1.011757 -0.016786265 0)
(1.0202888 -0.013610776 0)
(1.0228773 -0.005696092 0)
(1.0206728 -0.00092603913 0)
(1.0157704 0.0026350237 0)
(1.0112543 0.00086494701 0)
(1.0087411 -0.0013855789 0)
(1.0081694 -0.0054557478 0)
(1.0093084 -0.0083002257 0)
(1.0112235 -0.010226152 0)
(1.0132736 -0.011027959 0)
(1.0151006 -0.011118801 0)
(1.0166026 -0.010726883 0)
(1.0177808 -0.010038304 0)
(1.0186652 -0.0091441247 0)
(1.0192678 -0.0080930334 0)
(1.0195834 -0.0069293349 0)
(1.0196035 -0.0057093096 0)
(1.0193366 -0.004499414 0)
(1.0188142 -0.0033646626 0)
(1.0180884 -0.002357766 0)
(1.0172239 -0.0015136463 0)
(1.0162906 -0.00084828921 0)
(1.0153566 -0.00036210103 0)
(1.0144859 -4.4309539e-05 0)
(1.0137373 0.00012191105 0)
(1.0131672 0.00015560052 0)
(1.0128324 7.5995424e-05 0)
(0.78302214 -0.021790899 3.3286097e-24)
(0.80705904 0.0005689643 7.3496962e-24)
(0.84426656 0.018606129 0)
(0.88973021 0.018388373 -3.7323095e-24)
(0.79997247 -0.029299962 -6.2978614e-24)
(0.83485442 -0.024010146 -5.5818248e-23)
(0.86630875 -0.0098110956 0)
(0.8829776 0.011953912 7.8692172e-23)
(0.89137628 0.029147055 -1.7272418e-23)
(0.9143708 0.033859388 2.2571097e-23)
(0.95009547 0.030857629 -2.5678672e-22)
(0.97583851 0.018896054 -2.719615e-22)
(0.98452112 -0.0032203712 0)
(0.998163 -0.016872747 0)
(1.0114296 -0.020902779 0)
(1.0216993 -0.015070148 0)
(1.0256317 -0.0076552455 0)
(1.0229316 0.0009263876 0)
(1.017011 0.0034961672 0)
(1.0109717 0.0039740214 0)
(1.0072973 -0.00052015859 0)
(1.0065801 -0.0042392347 0)
(1.0075965 -0.0084822087 0)
(1.0098612 -0.01081453 0)
(1.0122976 -0.012018756 0)
(1.0144906 -0.012219016 0)
(1.0162753 -0.011874471 0)
(1.0176772 -0.011198477 0)
(1.0187558 -0.010316297 0)
(1.019551 -0.0092731221 0)
(1.0200663 -0.0080951943 0)
(1.0202844 -0.0068238276 0)
(1.0201961 -0.0055206698 0)
(1.0198154 -0.0042565285 0)
(1.0191823 -0.0030964144 0)
(1.0183557 -0.002089444 0)
(1.0174057 -0.0012642605 0)
(1.0164035 -0.00063031936 0)
(1.015417 -0.00018240429 0)
(1.0145081 9.4434906e-05 0)
(1.0137329 0.00021958123 0)
(1.0131453 0.00021360151 0)
(1.0127998 9.5113644e-05 0)
(0.78033515 -0.029625183 -5.311639e-24)
(0.78309154 -0.019213233 -4.1142923e-24)
(0.82700351 0.0053324765 -5.9243697e-24)
(0.87120394 0.021905227 -4.1367233e-24)
(0.91659086 0.020193218 -3.7430261e-23)
(0.80443456 -0.024577846 5.5857755e-23)
(0.83303038 -0.0079897891 3.5899291e-23)
(0.8491134 0.017032365 0)
(0.85554698 0.034179328 1.4176282e-23)
(0.87517257 0.035803015 1.1199497e-22)
(0.91394261 0.030542168 0)
(0.95508561 0.019028591 3.1355554e-22)
(0.97779114 -0.0010953968 0)
(0.99344883 -0.020838254 0)
(1.0119998 -0.023395212 0)
(1.023611 -0.018886133 0)
(1.0284292 -0.0077873274 0)
(1.0259039 0.00083742703 0)
(1.0184763 0.0070034402 0)
(1.0108499 0.0053782241 0)
(1.0059177 0.0024317332 0)
(1.0043591 -0.0039220038 0)
(1.0056344 -0.00814457 0)
(1.0081836 -0.011617079 0)
(1.0111311 -0.013030513 0)
(1.0137479 -0.013453405 0)
(1.0158691 -0.013112474 0)
(1.0175045 -0.012422373 0)
(1.0187664 -0.011533486 0)
(1.0197364 -0.010501062 0)
(1.0204436 -0.0093294202 0)
(1.0208674 -0.0080335158 0)
(1.0209808 -0.006661455 0)
(1.0207762 -0.0052836179 0)
(1.0202755 -0.0039752688 0)
(1.019528 -0.0028003945 0)
(1.0186006 -0.0018026276 0)
(1.0175667 -0.0010038275 0)
(1.0164986 -0.00040674607 0)
(1.0154627 -6.3424738e-07 0)
(1.0145186 0.00023328034 0)
(1.0137193 0.00031672235 0)
(1.0131162 0.000270705 0)
(1.0127609 0.00011403366 0)
(0.78182119 -0.025172467 3.0973235e-24)
(0.77287589 -0.02889292 5.7465852e-24)
(0.79690369 -0.014917506 2.3435068e-23)
(0.85443863 0.010427765 4.2722599e-24)
(0.90128007 0.024919322 -1.1446671e-23)
(0.94352838 0.021699785 2.2587207e-23)
(0.80421254 -0.0068574003 -6.635648e-23)
(0.81955085 0.021423 -3.0390022e-23)
(0.82489016 0.039132013 -5.2497177e-24)
(0.83917683 0.038131795 -1.0510347e-22)
(0.87539844 0.0291662 2.5038507e-22)
(0.92588585 0.016858248 -1.3502469e-22)
(0.96645328 -0.0022815766 0)
(0.98811497 -0.021752874 1.6477344e-22)
(1.0098382 -0.028394962 -1.0212813e-23)
(1.0263373 -0.02090323 0)
(1.0318852 -0.010019259 0)
(1.0290827 0.002564206 0)
(1.0204568 0.0084824951 0)
(1.0106795 0.0098871957 0)
(1.0041975 0.0036970729 0)