/*--------------------------------*- C++ -*----------------------------------*\
| =========                 |                                                 |
| \\      /  F ield         | OpenFOAM: The Open Source CFD Toolbox           |
|  \\    /   O peration     | Version:  5.0                                   |
|   \\  /    A nd           | Web:      www.OpenFOAM.org                      |
|    \\/     M anipulation  |                                                 |
\*---------------------------------------------------------------------------*/
FoamFile
{
    version     2.0;
    format      ascii;
    class       volVectorField;
    location    "60";
    object      UMean;
}
// * * * * * * * * * * * * * * * * * * * * * * * * * * * * * * * * * * * * * //

dimensions      [0 1 -1 0 0 0 0];

internalField   nonuniform List<vector> 
9520
(
(1.0011763 -0.0001487613 0)
(1.001187 -0.00043586996 0)
(1.0016286 -0.0001614425 0)
(1.0012051 -0.00070154485 0)
(1.0016362 -0.00047328433 0)
(1.0018277 -0.00016894177 0)
(1.0012287 -0.00094641605 0)
(1.0016488 -0.00076237621 0)
(1.0018346 -0.00049542478 0)
(1.0021548 -0.00018123138 0)
(1.0012557 -0.0011708749 0)
(1.0016648 -0.0010296001 0)
(1.0018457 -0.00079839167 0)
(1.00216 -0.00053154937 0)
(1.002422 -0.00019181061 0)
(1.0012842 -0.0013758654 0)
(1.0016823 -0.001275532 0)
(1.0018596 -0.0010788646 0)
(1.0021682 -0.00085694732 0)
(1.0024264 -0.00056275048 0)
(1.0027382 -0.00020500485 0)
(1.0013127 -0.0015623984 0)
(1.0017001 -0.0015012841 0)
(1.0018747 -0.0013374455 0)
(1.0021781 -0.0011586076 0)
(1.0024328 -0.00090762862 0)
(1.0027416 -0.00060162884 0)
(1.0030338 -0.00021731084 0)
(1.0013395 -0.0017314968 0)
(1.0017168 -0.001707958 0)
(1.0018897 -0.001575283 0)
(1.0021883 -0.0014372569 0)
(1.0024402 -0.0012277419 0)
(1.0027461 -0.00097081393 0)
(1.0030365 -0.00063793115 0)
(1.0033589 -0.00023133061 0)
(1.0013636 -0.0018846068 0)
(1.001731 -0.0018967022 0)
(1.0019032 -0.0017935128 0)
(1.0021976 -0.0016941536 0)
(1.0024473 -0.0015238282 0)
(1.0027507 -0.0013139916 0)
(1.0030396 -0.0010298547 0)
(1.0033612 -0.00067934914 0)
(1.0036737 -0.00024461636 0)
(1.0013839 -0.0020221866 0)
(1.0017418 -0.0020689774 0)
(1.0019142 -0.0019933437 0)
(1.0022051 -0.0019304933 0)
(1.0024531 -0.0017971336 0)
(1.0027543 -0.0016319366 0)
(1.0030421 -0.0013946445 0)
(1.0033633 -0.0010974283 0)
(1.0036758 -0.00071862838 0)
(1.0040101 -0.00025890888 0)
(1.0013997 -0.0021470168 0)
(1.0017485 -0.0022254643 0)
(1.0019218 -0.002176265 0)
(1.0022097 -0.0021475513 0)
(1.0024567 -0.0020488471 0)
(1.0027558 -0.0019258684 0)
(1.0030429 -0.0017330783 0)
(1.003364 -0.0014872646 0)
(1.0036771 -0.0011615839 0)
(1.0040126 -0.00076102043 0)
(1.0043396 -0.00027241223 0)
(1.0014104 -0.0022566703 0)
(1.0017502 -0.0023687138 0)
(1.0019251 -0.0023430911 0)
(1.0022105 -0.0023468313 0)
(1.0024571 -0.0022802713 0)
(1.0027545 -0.0021969192 0)
(1.003041 -0.0020462875 0)
(1.003362 -0.0018496089 0)
(1.0036765 -0.0015753822 0)
(1.0040142 -0.0012312072 0)
(1.0043425 -0.00080112565 0)
(1.0046851 -0.00028629345 0)
(1.001416 -0.0023593855 0)
(1.0017469 -0.0024968566 0)
(1.0019236 -0.0024963013 0)
(1.0022072 -0.002529313 0)
(1.0024539 -0.0024929422 0)
(1.0027497 -0.0024463341 0)
(1.0030356 -0.0023352789 0)
(1.0033563 -0.0021854383 0)
(1.0036724 -0.0019607866 0)
(1.0040132 -0.001671594 0)
(1.0043447 -0.001297239 0)
(1.0046896 -0.00084253522 0)
(1.0050246 -0.00029919199 0)
(1.0014159 -0.00244245 0)
(1.0017378 -0.0026173354 0)
(1.001917 -0.0026343349 0)
(1.002199 -0.0026973484 0)
(1.0024466 -0.0026880043 0)
(1.002741 -0.0026755843 0)
(1.0030264 -0.002601185 0)
(1.0033462 -0.0024955537 0)
(1.0036635 -0.0023185891 0)
(1.0040075 -0.0020828987 0)
(1.0043439 -0.0017632264 0)
(1.0046939 -0.0013659325 0)
(1.0050307 -0.00088111271 0)
(1.0053751 -0.00031186732 0)
(1.0014108 -0.002531366 0)
(1.0017238 -0.0027186139 0)
(1.0019048 -0.0027642678 0)
(1.0021859 -0.0028498856 0)
(1.0024348 -0.0028678161 0)
(1.0027283 -0.0028858842 0)
(1.003013 -0.0028453708 0)
(1.0033313 -0.0027808671 0)
(1.0036492 -0.0026493187 0)
(1.0039957 -0.0024656843 0)
(1.0043376 -0.0021998726 0)
(1.004695 -0.0018593701 0)
(1.0050377 -0.0014302221 0)
(1.0053842 -0.0009192365 0)
(1.0057191 -0.0003232908 0)
(1.0013997 -0.0025856626 0)
(1.0017034 -0.002824838 0)
(1.0018877 -0.0028752296 0)
(1.0021674 -0.0029934537 0)
(1.0024184 -0.003031744 0)
(1.0027112 -0.0030794758 0)
(1.0029955 -0.0030690706 0)
(1.0033115 -0.0030425266 0)
(1.0036289 -0.0029536085 0)
(1.0039767 -0.0028201459 0)
(1.0043237 -0.0026075267 0)
(1.0046894 -0.0023236624 0)
(1.0050416 -0.0019499684 0)
(1.0053959 -0.001494365 0)
(1.0057315 -0.00095374444 0)
(1.0060691 -0.00033391912 0)
(1.0013843 -0.0026714817 0)
(1.0016788 -0.0028966094 0)
(1.0018645 -0.0029905798 0)
(1.0021441 -0.0031182893 0)
(1.0023969 -0.0031860087 0)
(1.0026901 -0.0032561554 0)
(1.0029741 -0.003274442 0)
(1.0032873 -0.0032816565 0)
(1.0036029 -0.0032322965 0)
(1.0039501 -0.0031465162 0)
(1.0043008 -0.002985999 0)
(1.0046744 -0.0027589138 0)
(1.0050381 -0.0024413507 0)
(1.0054051 -0.0020413652 0)
(1.0057488 -0.001552862 0)
(1.0060863 -0.00098610254 0)
(1.0064113 -0.00034301236 0)
(1.0013621 -0.0026927224 0)
(1.0016476 -0.0030002811 0)
(1.0018369 -0.0030717629 0)
(1.0021147 -0.0032465007 0)
(1.0023711 -0.0033217925 0)
(1.0026646 -0.0034217414 0)
(1.0029491 -0.0034616864 0)
(1.0032591 -0.0035001864 0)
(1.0035716 -0.003486301 0)
(1.0039161 -0.0034452103 0)
(1.0042684 -0.0033350754 0)
(1.0046482 -0.0031645384 0)
(1.0050237 -0.0029043102 0)
(1.005406 -0.0025614429 0)
(1.0057644 -0.0021255947 0)
(1.0061116 -0.0016084408 0)
(1.0064338 -0.0010140022 0)
(1.0067545 -0.00035080669 0)
(1.0013376 -0.0027847162 0)
(1.0016125 -0.0030365631 0)
(1.0018033 -0.0031847652 0)
(1.0020814 -0.0033410045 0)
(1.0023397 -0.0034603085 0)
(1.0026357 -0.0035686056 0)
(1.0029206 -0.0036362261 0)
(1.0032276 -0.0036985185 0)
(1.003536 -0.0037172806 0)
(1.0038755 -0.0037167815 0)
(1.0042267 -0.0036546771 0)
(1.0046099 -0.0035397777 0)
(1.0049957 -0.003337825 0)
(1.0053941 -0.0030543598 0)
(1.0057717 -0.0026735264 0)
(1.0061368 -0.002206847 0)
(1.006468 -0.0016569826 0)
(1.0067837 -0.0010382317 0)
(1.0070885 -0.0003568186 0)
(1.0013041 -0.0027730241 0)
(1.001572 -0.0031490519 0)
(1.0017653 -0.0032293342 0)
(1.0020417 -0.0034669834 0)
(1.0023048 -0.0035656824 0)
(1.0026019 -0.0037168269 0)
(1.0028896 -0.003791435 0)
(1.0031932 -0.0038815267 0)
(1.003497 -0.0039256773 0)
(1.0038293 -0.0039624723 0)
(1.0041764 -0.0039448979 0)
(1.0045594 -0.0038839354 0)
(1.0049527 -0.0037405717 0)
(1.0053659 -0.0035186747 0)
(1.0057646 -0.0031963655 0)
(1.0061536 -0.0027833463 0)
(1.0065045 -0.0022789968 0)
(1.0068297 -0.0017000443 0)
(1.007125 -0.0010572456 0)
(1.0074183 -0.0003611406 0)
(1.0012709 -0.002869506 0)
(1.0015247 -0.0031474522 0)
(1.0017232 -0.0033528435 0)
(1.0019981 -0.0035232298 0)
(1.002264 -0.0037024351 0)
(1.0025655 -0.003832326 0)
(1.0028547 -0.0039465447 0)
(1.0031573 -0.0040435469 0)
(1.0034553 -0.0041157462 0)
(1.0037788 -0.0041824798 0)
(1.0041186 -0.0042064646 0)
(1.0044977 -0.0041965327 0)
(1.0048945 -0.0041111681 0)
(1.0053193 -0.0039524235 0)
(1.0057387 -0.0036922824 0)
(1.0061545 -0.0033376361 0)
(1.0065331 -0.0028827067 0)
(1.0068809 -0.0023445469 0)
(1.0071837 -0.0017347603 0)
(1.0074637 -0.0010713791 0)
(1.0077375 -0.00036350482 0)
(1.0012233 -0.0028409757 0)
(1.0014772 -0.0032698884 0)
(1.0016734 -0.0033563526 0)
(1.0019499 -0.0036616313 0)
(1.0022195 -0.0037686925 0)
(1.0025233 -0.0039788519 0)
(1.0028183 -0.0040692312 0)
(1.0031192 -0.0042025976 0)
(1.0034127 -0.0042826751 0)
(1.003725 -0.0043804209 0)
(1.0040548 -0.0044392205 0)
(1.0044255 -0.004477651 0)
(1.0048215 -0.0044484577 0)
(1.0052537 -0.0043534868 0)
(1.005691 -0.0041586897 0)
(1.0061337 -0.0038675496 0)
(1.006545 -0.0034679636 0)
(1.0069253 -0.0029751207 0)
(1.0072513 -0.0023990626 0)
(1.0075379 -0.0017618662 0)
(1.0077921 -0.0010797418 0)
(1.0080481 -0.0003639302 0)
(1.0011802 -0.0029192466 0)
(1.0014145 -0.0032444857 0)
(1.0016251 -0.0034934259 0)
(1.0018935 -0.0036725952 0)
(1.0021706 -0.0039202278 0)
(1.002478 -0.004054198 0)
(1.0027778 -0.0042220088 0)
(1.0030812 -0.0043282457 0)
(1.0033687 -0.0044431749 0)
(1.0036703 -0.00455233 0)
(1.0039864 -0.004646267 0)
(1.0043447 -0.0047268717 0)
(1.0047349 -0.0047518287 0)
(1.0051691 -0.0047199502 0)
(1.0056199 -0.0045927021 0)
(1.0060873 -0.0043699067 0)
(1.0065329 -0.0040323703 0)
(1.0069523 -0.0035918649 0)
(1.0073142 -0.003054452 0)
(1.0076258 -0.0024438128 0)
(1.0078827 -0.0017796065 0)
(1.0081132 -0.0010824276 0)
(1.0083464 -0.00036231708 0)
(1.0011239 -0.002910155 0)
(1.0013603 -0.0033550204 0)
(1.0015595 -0.0034674765 0)
(1.0018389 -0.0038286743 0)
(1.0021128 -0.0039385549 0)
(1.0024287 -0.0042184018 0)
(1.0027359 -0.0043030702 0)
(1.0030406 -0.004482403 0)
(1.0033266 -0.0045685375 0)
(1.0036145 -0.0047132939 0)
(1.0039161 -0.004824305 0)
(1.0042575 -0.0049466856 0)
(1.0046365 -0.0050209268 0)
(1.0050672 -0.0050503378 0)
(1.0055255 -0.0049916414 0)
(1.006013 -0.0048410753 0)
(1.0064915 -0.0045721913 0)
(1.006953 -0.0041922529 0)
(1.0073598 -0.0037014717 0)
(1.0077114 -0.0031225264 0)
(1.0079924 -0.0024759082 0)
(1.008223 -0.0017882388 0)
(1.0084225 -0.0010790623 0)
(1.0086327 -0.00035868017 0)
(1.0010555 -0.0029331431 0)
(1.0012863 -0.0033438856 0)
(1.0015057 -0.0035965421 0)
(1.0017649 -0.0038034149 0)
(1.0020577 -0.0041129751 0)
(1.0023708 -0.0042425416 0)
(1.0026914 -0.004475997 0)
(1.0030005 -0.0045628982 0)
(1.0032834 -0.0047196443 0)
(1.0035615 -0.0048363491 0)
(1.0038441 -0.0049866149 0)
(1.0041665 -0.0051343233 0)
(1.0045288 -0.0052573052 0)
(1.0049498 -0.0053446647 0)
(1.0054093 -0.0053534829 0)
(1.0059105 -0.0052775512 0)
(1.0064176 -0.0050830152 0)
(1.0069206 -0.004772084 0)
(1.0073775 -0.0043376153 0)
(1.0077803 -0.0037991175 0)
(1.0081035 -0.0031751355 0)
(1.0083581 -0.002495836 0)
(1.008552 -0.0017869193 0)
(1.0087207 -0.0010696915 0)
(1.0089052 -0.00035303037 0)
(1.0010092 -0.0029803172 0)
(1.0012089 -0.0034016378 0)
(1.0014291 -0.0035795006 0)
(1.0017031 -0.0039564068 0)
(1.0019802 -0.0040902556 0)
(1.002316 -0.0044363904 0)
(1.0026398 -0.0045036854 0)
(1.0029603 -0.0047378201 0)
(1.0032434 -0.00479401 0)
(1.0035081 -0.0049807949 0)
(1.0037748 -0.0051087828 0)
(1.0040724 -0.0053011992 0)
(1.0044149 -0.0054587914 0)
(1.0048195 -0.0056030643 0)
(1.0052738 -0.005676927 0)
(1.005781 -0.00567639 0)
(1.0063101 -0.0055603922 0)
(1.0068508 -0.0053261658 0)
(1.0073587 -0.0049582996 0)
(1.0078201 -0.0044712819 0)
(1.0081995 -0.0038791883 0)
(1.0084989 -0.0032129797 0)
(1.0087139 -0.0025020414 0)
(1.0088721 -0.0017757437 0)
(1.0090055 -0.0010543041 0)
(1.0091633 -0.00034541984 0)
(1.0009199 -0.0029227335 0)
(1.0011443 -0.0034493598 0)
(1.001354 -0.0036558494 0)
(1.001616 -0.0039337672 0)
(1.0019172 -0.0042675243 0)
(1.0022376 -0.004413418 0)
(1.0025926 -0.0047137258 0)
(1.0029154 -0.0047596805 0)
(1.0032055 -0.00496419 0)
(1.0034597 -0.0050437537 0)
(1.0037045 -0.0052470332 0)
(1.0039795 -0.0054257844 0)
(1.0042958 -0.0056349587 0)
(1.0046795 -0.0058237526 0)
(1.0051211 -0.0059622144 0)
(1.005627 -0.0060348517 0)
(1.0061698 -0.0060001758 0)
(1.0067416 -0.0058489761 0)
(1.0072978 -0.0055576133 0)
(1.0078204 -0.0051342363 0)
(1.008266 -0.0045861316 0)
(1.0086271 -0.0039424786 0)
(1.0088869 -0.0032335744 0)
(1.009064 -0.002494652 0)
(1.0091792 -0.0017545388 0)
(1.0092764 -0.0010330372 0)
(1.0094062 -0.00033592853 0)
(1.0009724 -0.0030392114 0)
(1.0010452 -0.0034230824 0)
(1.0012865 -0.0036956066 0)
(1.001529 -0.0040347019 0)
(1.001825 -0.0042436176 0)
(1.0021755 -0.0046206795 0)
(1.0025225 -0.0046897384 0)
(1.0028777 -0.0049775449 0)
(1.0031659 -0.0049718882 0)
(1.0034144 -0.0052028623 0)
(1.0036405 -0.0053001269 0)
(1.0038841 -0.005559878 0)
(1.0041758 -0.0057675846 0)
(1.0045317 -0.0060148214 0)
(1.004955 -0.0062072649 0)
(1.0054512 -0.0063528541 0)
(1.0059992 -0.0063990576 0)
(1.0065932 -0.0063352674 0)
(1.0071916 -0.0061290516 0)
(1.0077738 -0.0057814763 0)
(1.0082907 -0.0052911612 0)
(1.0087261 -0.0046830241 0)
(1.0090507 -0.0039854564 0)
(1.009273 -0.0032370197 0)
(1.009402 -0.0024731705 0)
(1.0094739 -0.0017234841 0)
(1.0095323 -0.0010061045 0)
(1.0096334 -0.00032465577 0)
(1.0006349 -0.0029085101 0)
(1.0010871 -0.0035506701 0)
(1.0011951 -0.0036814079 0)
(1.0014529 -0.0040687475 0)
(1.0017333 -0.004371383 0)
(1.0020799 -0.0045909967 0)
(1.0024712 -0.0049244258 0)
(1.0028198 -0.0049400789 0)
(1.0031362 -0.0051872103 0)
(1.0033704 -0.0051874808 0)
(1.0035776 -0.0054469825 0)
(1.0037951 -0.0056067195 0)
(1.0040516 -0.0059029459 0)
(1.0043804 -0.0061608707 0)
(1.0047779 -0.0064188909 0)
(1.0052575 -0.0066279289 0)
(1.0058018 -0.006754859 0)
(1.0064077 -0.0067802681 0)
(1.0070393 -0.0066661001 0)
(1.0076757 -0.0064055282 0)
(1.0082644 -0.0059873712 0)
(1.0087816 -0.0054300455 0)
(1.0091867 -0.0047571832 0)
(1.0094773 -0.0040080157 0)
(1.0096489 -0.0032222887 0)
(1.0097298 -0.0024377148 0)
(1.0097539 -0.0016828484 0)
(1.0097727 -0.00097377976 0)
(1.0098446 -0.00031172487 0)
(1.0009404 -0.0030668675 0)
(1.0007263 -0.0034442478 0)
(1.0012337 -0.0038045547 0)
(1.0013446 -0.0040721381 0)
(1.0016516 -0.0044044508 0)
(1.0019874 -0.0047551653 0)
(1.0023833 -0.0048889214 0)
(1.0027835 -0.005193582 0)
(1.0030898 -0.0051247692 0)
(1.0033372 -0.0053903573 0)
(1.0035189 -0.0054101839 0)
(1.0037036 -0.0057435473 0)
(1.0039326 -0.0059521116 0)
(1.0042233 -0.0063030226 0)
(1.0045949 -0.0065842896 0)
(1.0050493 -0.0068655461 0)
(1.0055813 -0.0070657918 0)
(1.0061891 -0.0071807598 0)
(1.0068428 -0.0071628897 0)
(1.0075243 -0.0069986802 0)
(1.0081806 -0.0066665062 0)
(1.0087824 -0.0061764482 0)
(1.0092788 -0.0055446506 0)
(1.0096564 -0.0048081931 0)
(1.0098966 -0.0040084575 0)
(1.010018 -0.0031893236 0)
(1.0100436 -0.0023885366 0)
(1.010019 -0.0016330231 0)
(1.0099971 -0.00093641635 0)
(1.0100397 -0.00029727344 0)
(1.0012799 -0.0029035633 1.32211e-24)
(1.0010445 -0.0036262534 0)
(1.0008673 -0.0036943084 0)
(1.0013777 -0.0041973974 0)
(1.0015369 -0.0044311588 0)
(1.0019038 -0.0047864421 0)
(1.0023065 -0.0050908556 0)
(1.0027127 -0.0051373051 0)
(1.003068 -0.0053818967 0)
(1.0032913 -0.0052895413 0)
(1.0034681 -0.0055975365 0)
(1.0036185 -0.0056890167 0)
(1.0038072 -0.0060857712 0)
(1.00407 -0.006361383 0)
(1.0044044 -0.0067395305 0)
(1.0048324 -0.0070551787 0)
(1.0053423 -0.0073352473 0)
(1.0059418 -0.0075341295 0)
(1.0066057 -0.0076145274 0)
(1.0073205 -0.0075534825 0)
(1.0080362 -0.0073196531 0)
(1.00872 -0.0069133573 0)
(1.0093134 -0.0063408654 0)
(1.009792 -0.0056342421 0)
(1.0101228 -0.0048334856 0)
(1.0103134 -0.0039863383 0)
(1.010374 -0.0031382273 0)
(1.0103436 -0.0023259882 0)
(1.0102681 -0.0015745422 0)
(1.0102052 -0.00089440837 0)
(1.0102185 -0.00028145077 0)
(1.0005362 -0.0030574687 -2.2878779e-24)
(1.0013417 -0.0034885859 -1.3814286e-24)
(1.0012068 -0.003881733 0)
(1.0009853 -0.0040926519 0)
(1.0015633 -0.0045614405 0)
(1.0017875 -0.0048461698 0)
(1.0022308 -0.0051178969 0)
(1.0026585 -0.0053678382 0)
(1.0030152 -0.0052886565 0)
(1.0032707 -0.0055375203 0)
(1.0034081 -0.0054580132 0)
(1.0035361 -0.005864023 0)
(1.0036898 -0.0060240295 0)
(1.0039078 -0.0064969626 0)
(1.004216 -0.0068141764 0)
(1.0046063 -0.0072284971 0)
(1.0050913 -0.0075544296 0)
(1.0056705 -0.0078419682 0)
(1.0063333 -0.0080166038 0)
(1.0070674 -0.0080633886 0)
(1.0078309 -0.0079379346 0)
(1.0085894 -0.007630839 0)
(1.0092799 -0.0071366188 0)
(1.0098681 -0.0064795781 0)
(1.0103073 -0.0056950518 0)
(1.0105923 -0.0048319942 0)
(1.0107191 -0.0039414893 0)
(1.0107186 -0.0030691257 0)
(1.0106279 -0.002250776 0)
(1.0105007 -0.0015080049 0)
(1.0103969 -0.00084819344 0)
(1.0103813 -0.00026441453 0)
(1.000085 -0.0028869655 2.2957745e-24)
(1.0004568 -0.0036694632 3.7411459e-24)
(1.0014643 -0.0037242251 0)
(1.00134 -0.0042914964 0)
(1.0011604 -0.0044716796 0)
(1.0018155 -0.004988504 0)
(1.0021368 -0.005217267 0)
(1.0026058 -0.0053753672 0)
(1.0029837 -0.005528232 0)
(1.0032227 -0.005387651 0)
(1.0033704 -0.0056929974 0)
(1.0034472 -0.0056905108 0)
(1.0035681 -0.0061965068 0)
(1.0037547 -0.0064374766 0)
(1.0040182 -0.0069567888 0)
(1.0043812 -0.0073230357 0)
(1.004829 -0.0077507544 0)
(1.0053826 -0.0080962454 0)
(1.0060303 -0.00836986 0)
(1.0067705 -0.0085227307 0)
(1.0075672 -0.0085131478 0)
(1.0083889 -0.0083186271 0)
(1.0091714 -0.0079211971 0)
(1.0098721 -0.0073349701 0)
(1.0104321 -0.0065873073 0)
(1.0108325 -0.0057253505 0)
(1.0110538 -0.00480317 0)
(1.0111167 -0.0038735548 0)
(1.0110476 -0.0029828937 0)
(1.0108959 -0.0021635875 0)
(1.0107166 -0.0014341113 0)
(1.0105721 -0.00079823433 0)
(1.0105282 -0.00024632689 0)
(0.99951603 -0.0029298354 0)
(0.99969517 -0.0035157882 -3.7464834e-24)
(1.0004584 -0.0038929309 0)
(1.0015497 -0.0041378975 0)
(1.0015325 -0.0046851368 0)
(1.0014019 -0.0049223118 0)
(1.0021771 -0.0053679265 0)
(1.0025446 -0.0055035313 0)
(1.0029573 -0.0054939434 0)
(1.0031982 -0.0056203689 0)
(1.003307 -0.0054816186 0)
(1.0033741 -0.0059172694 0)
(1.003443 -0.0060029985 0)
(1.0035914 -0.0066151701 0)
(1.0038298 -0.0069087914 0)
(1.0041469 -0.0074754939 0)
(1.0045659 -0.0078691696 0)
(1.0050806 -0.00832029 0)
(1.0057047 -0.0086660235 0)
(1.0064358 -0.008929255 0)
(1.0072498 -0.0090377008 0)
(1.0081197 -0.0089666481 0)
(1.0089841 -0.0086830984 0)
(1.0097945 -0.0081892028 0)
(1.010482 -0.0075013713 0)
(1.0110139 -0.0066616487 0)
(1.0113545 -0.0057237754 0)
(1.011512 -0.0047457879 0)
(1.0114997 -0.0037835476 0)
(1.0113615 -0.0028800435 0)
(1.0111468 -0.0020653689 0)
(1.0109154 -0.0013536022 0)
(1.010731 -0.00074501121 0)
(1.0106597 -0.00022735076 0)
(0.99790089 -0.002670706 -8.9599607e-25)
(0.99847609 -0.0035415516 0)
(0.9994342 -0.0037173978 -6.2845177e-24)
(1.0004201 -0.0043166749 0)
(1.0016993 -0.0045370122 0)
(1.0018023 -0.0051630282 0)
(1.0017809 -0.0053318824 0)
(1.0026141 -0.0056477724 0)
(1.0029291 -0.0056254162 0)
(1.0031826 -0.0055189254 0)
(1.0032676 -0.0057043228 0)
(1.003278 -0.005649801 0)
(1.0033244 -0.0062349273 0)
(1.003429 -0.0064137044 0)
(1.0036282 -0.0070973141 0)
(1.0039231 -0.0074423459 0)
(1.0042941 -0.008034227 0)
(1.0047758 -0.0084657006 0)
(1.0053607 -0.0089241854 0)
(1.0060705 -0.0092757478 0)
(1.006885 -0.0095069993 0)
(1.0077861 -0.009565801 0)
(1.0087178 -0.0094108355 0)
(1.0096295 -0.009029834 0)
(1.0104451 -0.0084259298 0)
(1.0111189 -0.0076327411 0)
(1.0115992 -0.0066999465 0)
(1.0118791 -0.0056882138 0)
(1.0119572 -0.0046610598 0)
(1.0118695 -0.0036714813 0)
(1.0116577 -0.0027618966 0)
(1.01138 -0.0019570944 0)
(1.0110972 -0.0012672649 0)
(1.010874 -0.00068900969 0)
(1.0107763 -0.00020764734 0)
(0.99502803 -0.0025032981 8.2992254e-24)
(0.99605002 -0.0032556747 8.7929541e-24)
(0.99780226 -0.0037337012 6.2784438e-24)
(0.99912052 -0.0041470646 8.2024816e-24)
(1.0004714 -0.0047292807 1.008008e-23)
(1.0019508 -0.0050344269 0)
(1.0022155 -0.0056040848 0)
(1.002248 -0.0056312957 0)
(1.0030347 -0.0057374662 0)
(1.0031686 -0.0056318664 0)
(1.003237 -0.0055246671 0)
(1.0032003 -0.005872787 0)
(1.0031866 -0.0059286852 0)
(1.0032641 -0.0066629214 0)
(1.0034317 -0.0068983328 0)
(1.0036857 -0.0076424951 0)
(1.0040347 -0.0080184233 0)
(1.0044616 -0.0086455173 0)
(1.0050108 -0.0091018149 0)
(1.0056805 -0.0095761306 0)
(1.0064811 -0.0099136428 0)
(1.007394 -0.010109024 0)
(1.0083753 -0.010093185 0)
(1.0093748 -0.0098437673 0)
(1.010313 -0.0093478813 0)
(1.011133 -0.0086275891 0)
(1.0117678 -0.0077246806 0)
(1.0121944 -0.0066992031 0)
(1.0123943 -0.005619563 0)
(1.0123928 -0.0045479268 0)
(1.0122216 -0.0035391618 0)
(1.0119362 -0.0026293758 0)
(1.0115952 -0.0018398503 0)
(1.011262 -0.001175902 0)
(1.0110014 -0.00063071148 0)
(1.0108785 -0.00018737404 0)
(0.99036454 -0.0020822169 -1.1972211e-23)
(0.99228385 -0.0030039059 -1.4517488e-23)
(0.9948756 -0.0034090424 0)
(0.99697487 -0.0041746736 -2.6644582e-23)
(0.9989505 -0.0045747623 -1.0031271e-23)
(1.0006401 -0.0052545859 -1.2868103e-23)
(1.0023451 -0.0054858393 -6.7821018e-24)
(1.0027167 -0.005922144 0)
(1.0027126 -0.0057084087 0)
(1.003292 -0.0056856408 0)
(1.0032111 -0.0056174435 0)
(1.0031327 -0.0056165465 0)
(1.0030575 -0.0061705115 0)
(1.0030861 -0.0063333234 0)
(1.0032274 -0.0071717605 0)
(1.0034583 -0.0074474939 0)
(1.0037619 -0.0082291221 0)
(1.0041613 -0.0086474109 0)
(1.0046492 -0.0093007209 0)
(1.0052795 -0.0097930147 0)
(1.0060435 -0.010266907 0)
(1.0069518 -0.010587009 0)
(1.007962 -0.01072073 0)
(1.0090318 -0.010618307 0)
(1.0100813 -0.01025313 0)
(1.0110452 -0.0096328686 0)
(1.0118434 -0.0087877006 0)
(1.0124357 -0.0077732909 0)
(1.0127857 -0.0066593925 0)
(1.0129044 -0.0055157489 0)
(1.0128109 -0.0044090335 0)
(1.0125565 -0.0033871086 0)
(1.0121956 -0.0024840299 0)
(1.0117923 -0.0017147461 0)
(1.0114103 -0.0010803227 0)
(1.0111138 -0.00057058722 0)
(1.0109669 -0.00016668501 0)
(0.98285446 -0.0016916238 -5.0172753e-25)
(0.98659104 -0.0024583218 2.8933366e-24)
(0.99054372 -0.0031287823 -4.9903304e-24)
(0.99334934 -0.003866934 9.5569345e-24)
(0.99639578 -0.0046275762 1.9156444e-23)
(0.99893016 -0.0051174966 -1.1989888e-23)
(1.0009293 -0.0057372535 -3.7741484e-23)
(1.0027868 -0.0058022341 7.6964343e-24)
(1.0032187 -0.0059825485 0)
(1.0029908 -0.0056090613 0)
(1.0033205 -0.0055977132 0)
(1.0030688 -0.0057060101 0)
(1.002942 -0.0058575876 0)
(1.0029058 -0.0066130165 0)
(1.0030165 -0.0068308912 0)
(1.0032219 -0.0077456436 0)
(1.0035056 -0.0080366308 0)
(1.0038488 -0.0088647075 0)
(1.0043007 -0.0093239664 0)
(1.0048637 -0.010016905 0)
(1.0055871 -0.010533843 0)
(1.006466 -0.01100595 0)
(1.0074859 -0.011283586 0)
(1.0086045 -0.011341677 0)
(1.009749 -0.011127162 0)
(1.0108482 -0.01063358 0)
(1.011812 -0.0098759274 0)
(1.0125835 -0.008901391 0)
(1.0131075 -0.0077769839 0)
(1.013378 -0.006577487 0)
(1.0133988 -0.0053796867 0)
(1.0132138 -0.0042436574 0)
(1.0128712 -0.0032175599 0)
(1.0124357 -0.0023270967 0)
(1.0119713 -0.0015829301 0)
(1.0115422 -0.0009813293 0)
(1.0112117 -0.00050909358 0)
(1.0110421 -0.00014574446 0)
(0.97169753 -0.0010259091 5.2059151e-24)
(0.97792218 -0.0019034911 -1.4213992e-24)
(0.98424671 -0.0025479161 0)
(0.98824262 -0.0035865318 8.0408457e-24)
(0.99220907 -0.0043479557 1.154007e-24)
(0.99596564 -0.0051912905 0)
(0.99901285 -0.0056012428 2.7675524e-23)
(1.0012253 -0.0060737491 3.5852154e-23)
(1.0031544 -0.0058442364 0)
(1.0035429 -0.0058370711 0)
(1.0029954 -0.0054671147 0)
(1.0031334 -0.0056138561 0)
(1.0028244 -0.0059709249 0)
(1.0027462 -0.0062625871 0)
(1.0027965 -0.0071587329 0)
(1.002986 -0.0073930361 0)
(1.0032402 -0.0083560629 0)
(1.0035596 -0.0086710365 0)
(1.0039406 -0.0095463371 0)
(1.0044571 -0.010066412 0)
(1.0051104 -0.010792486 0)
(1.0059506 -0.011335919 0)
(1.0069543 -0.011781721 0)
(1.0081002 -0.012001761 0)
(1.0093187 -0.01195618 0)
(1.0105388 -0.01161403 0)
(1.0116635 -0.010974088 0)
(1.012621 -0.01007114 0)
(1.0133377 -0.0089649501 0)
(1.0137882 -0.0077318218 0)
(1.0139584 -0.0064559752 0)
(1.0138809 -0.0052095587 0)
(1.0135953 -0.0040554697 0)
(1.0131658 -0.0030315017 0)
(1.0126559 -0.0021601934 0)
(1.0121323 -0.0014455344 0)
(1.0116584 -0.00087972074 0)
(1.0112957 -0.00044668371 0)
(1.0111051 -0.00012479214 0)
(0.95684493 -0.00040102387 0)
(0.96551012 -0.0010369408 0)
(0.97493287 -0.0019403041 1.4670948e-24)
(0.98105196 -0.0029975142 0)
(0.98643936 -0.0040926932 3.4071021e-25)
(0.99118201 -0.0049367087 -1.291539e-23)
(0.99564911 -0.0056832022 -5.7418996e-23)
(0.99907012 -0.0059185618 -5.003198e-23)
(1.0013793 -0.0060922795 0)
(1.0032889 -0.0056408289 0)
(1.0035655 -0.0056442568 0)
(1.0027583 -0.0054430837 0)
(1.0028309 -0.0058247735 0)
(1.0025766 -0.0064287169 0)
(1.002605 -0.0067830139 0)
(1.0027397 -0.007770112 0)
(1.0029845 -0.0079848577 0)
(1.0032613 -0.0090031117 0)
(1.0036088 -0.0093508074 0)
(1.0040372 -0.010295748 0)
(1.0046378 -0.010878427 0)
(1.0054062 -0.011643284 0)
(1.0063807 -0.012190455 0)
(1.0075265 -0.012595717 0)
(1.0087964 -0.01272674 0)
(1.0101176 -0.01255842 0)
(1.0113918 -0.012065441 0)
(1.0125349 -0.011267376 0)
(1.0134567 -0.010212242 0)
(1.0141108 -0.0089734453 0)
(1.014463 -0.0076390631 0)
(1.0145306 -0.0062921346 0)
(1.0143416 -0.0050099591 0)
(1.0139571 -0.003844145 0)
(1.0134386 -0.0028313685 0)
(1.0128564 -0.0019847144 0)
(1.0122759 -0.0013036813 0)
(1.0117595 -0.00077618527 0)
(1.0113667 -0.00038376171 0)
(1.0111565 -0.00010367331 0)
(0.94924592 -0.00016859072 1.8722094e-25)
(0.95672017 0.00054821507 0)
(0.96188922 -0.0010071379 3.9394742e-24)
(0.97073519 -0.0023584218 4.609771e-24)
(0.97846144 -0.0035371862 8.5621225e-25)
(0.9847152 -0.0046925975 -1.2620056e-24)
(0.99029329 -0.0054284096 -4.3124673e-25)
(0.99526194 -0.0059747685 -2.6018002e-24)
(0.99892485 -0.0059067684 6.7954793e-23)
(1.0012892 -0.0058476725 0)
(1.0031929 -0.0053680501 1.1670745e-22)
(1.0033267 -0.0055910881 0)
(1.0023908 -0.0056522644 0)
(1.0025299 -0.0062495613 0)
(1.0024011 -0.0070180755 0)
(1.0025304 -0.0073663186 0)
(1.0027197 -0.0084061734 0)
(1.0029831 -0.0086027568 0)
(1.0032669 -0.0096896007 0)
(1.0036485 -0.010101652 0)
(1.0041459 -0.011122001 0)
(1.0048594 -0.011779018 0)
(1.0057664 -0.01256344 0)
(1.0068969 -0.0130993 0)
(1.0081891 -0.01343091 0)
(1.0095884 -0.013451121 0)
(1.0109947 -0.013132567 0)
(1.012316 -0.012472852 0)
(1.013448 -0.011504459 0)
(1.0143235 -0.010293085 0)
(1.0148868 -0.0089261956 0)
(1.0151357 -0.0074952484 0)
(1.0150831 -0.0060906897 0)
(1.0147836 -0.0047793785 0)
(1.0142947 -0.0036139628 0)
(1.0136898 -0.0026184423 0)
(1.013037 -0.0018022472 0)
(1.0124023 -0.0011584371 0)
(1.011846 -0.00067143737 0)
(1.0114253 -0.00032060283 0)
(1.0111969 -8.2596439e-05 0)
(0.9450293 -8.2876392e-05 -3.6017028e-24)
(0.94929117 0.0010773141 0)
(0.97141915 0.0011455945 5.3080376e-24)
(0.95664054 -0.0013658055 -4.6084613e-24)
(0.96723104 -0.002910776 -3.1640573e-25)
(0.97588107 -0.0041505099 -2.5711438e-23)
(0.9831541 -0.0051651824 4.2760785e-23)
(0.98928505 -0.0056841126 1.6348693e-23)
(0.99461455 -0.0059039966 5.2235426e-23)
(0.99853701 -0.0056492207 2.1152463e-23)
(1.0010648 -0.0055396966 1.1446336e-22)
(1.0029093 -0.0052259103 -1.2166858e-22)
(1.0029438 -0.0057910526 0)
(1.0020267 -0.0061185551 0)
(1.0023192 -0.0068179319 0)
(1.0023123 -0.0076743359 0)
(1.0025019 -0.0079596802 0)
(1.002698 -0.0090548174 0)
(1.0029553 -0.0092515704 0)
(1.0032456 -0.010444285 0)
(1.0036853 -0.010941122 0)
(1.0042847 -0.012049709 0)
(1.0051397 -0.012767224 0)
(1.0062141 -0.013556392 0)
(1.0075099 -0.014047663 0)
(1.008958 -0.014281318 0)
(1.0104742 -0.014158254 0)
(1.0119593 -0.013668997 0)
(1.013299 -0.012824433 0)
(1.014407 -0.011677655 0)
(1.0152052 -0.010310479 0)
(1.0156689 -0.0088189257 0)
(1.0157924 -0.0073043276 0)
(1.0156189 -0.0058493569 0)
(1.0151996 -0.0045236548 0)
(1.0146094 -0.003364921 0)
(1.0139185 -0.0023951961 0)
(1.0131982 -0.0016141759 0)
(1.0125123 -0.0010108284 0)
(1.0119187 -0.00056607762 0)
(1.0114723 -0.0002575999 0)
(1.0112273 -6.1656632e-05 0)
(0.93864433 -0.00034104422 -1.2009777e-24)
(0.94521955 0.0012263813 -4.4055901e-24)
(0.96567105 0.0018853877 0)
(0.98250683 0.0017609795 -4.710759e-25)
(0.9521095 -0.0019113007 3.6166181e-25)
(0.96360651 -0.0035226157 1.3161546e-23)
(0.97350059 -0.004609406 0)
(0.98144132 -0.0053550682 -1.6231379e-23)
(0.9879725 -0.0055590274 2.0988017e-23)
(0.99370698 -0.0056019115 -2.0896517e-23)
(0.99809553 -0.0053467447 -1.1423735e-22)
(1.00079 -0.005364114 -1.1910248e-22)
(1.0025162 -0.0053738205 0)
(1.0025672 -0.0062636652 0)
(1.0017766 -0.0067519176 0)
(1.0022147 -0.0074466289 0)
(1.0022835 -0.0083350405 0)
(1.0024729 -0.0085470159 0)
(1.0026371 -0.0097225305 0)
(1.0028823 -0.0099646961 0)
(1.003202 -0.01129141 0)
(1.0037381 -0.011897821 0)
(1.0044757 -0.01308272 0)
(1.0055049 -0.01384854 0)
(1.0067631 -0.014607982 0)
(1.0082382 -0.015027436 0)
(1.009835 -0.015127593 0)
(1.0114635 -0.014836597 0)
(1.013001 -0.01415278 0)
(1.0143447 -0.013110621 0)
(1.0153954 -0.011780817 0)
(1.0161035 -0.010259041 0)
(1.0164415 -0.0086540438 0)
(1.0164359 -0.0070635666 0)
(1.0161282 -0.0055746655 0)
(1.015592 -0.0042415566 0)
(1.0148983 -0.0031015861 0)
(1.0141251 -0.0021629811 0)
(1.0133404 -0.0014219773 0)
(1.0126064 -0.00086180364 0)
(1.0119784 -0.00046071066 0)
(1.0115084 -0.00019499702 0)
(1.0112483 -4.0968351e-05 0)
(0.93313834 -0.00084838187 1.4521179e-24)
(0.93896431 0.0011115385 1.1790003e-24)
(0.96254875 0.0020925655 3.8769632e-24)
(0.97822165 0.0026340004 1.4233927e-24)
(0.99002944 0.0020818568 -1.4539739e-23)
(0.94730923 -0.0025040763 -1.3193348e-23)
(0.96023405 -0.0039538958 -7.7382861e-24)
(0.97095247 -0.0047356841 0)
(0.97941168 -0.0051365483 -2.0936211e-23)
(0.98637046 -0.0052309749 6.4478244e-24)
(0.9927858 -0.0052869517 0)
(0.99773503 -0.0051742374 1.3491822e-22)
(1.0005012 -0.0054641231 0)
(1.0021276 -0.00585277 0)
(1.0023259 -0.0069159745 0)
(1.0016616 -0.0074537421 0)
(1.0021844 -0.0080593037 0)
(1.0022545 -0.0089726532 0)
(1.0023928 -0.0091343096 0)
(1.0025091 -0.010449692 0)
(1.002767 -0.010776778 0)
(1.0031571 -0.01226553 0)
(1.0038328 -0.012980853 0)
(1.0047479 -0.014228982 0)
(1.0059754 -0.015009334 0)
(1.0074343 -0.015711479 0)
(1.0090881 -0.016020242 0)
(1.0108321 -0.015958253 0)
(1.01255 -0.015469188 0)
(1.0141246 -0.014572619 0)
(1.0154378 -0.013322104 0)
(1.0164145 -0.011807037 0)
(1.0170021 -0.010138959 0)
(1.0172063 -0.0084283336 0)
(1.0170541 -0.0067792488 0)
(1.0166136 -0.0052647507 0)
(1.0159553 -0.0039396678 0)
(1.0151628 -0.0028240948 0)
(1.0143095 -0.0019241989 0)
(1.013464 -0.0012269289 0)
(1.0126854 -0.00071226093 0)
(1.0120259 -0.00035584719 0)
(1.0115345 -0.00013310699 0)
(1.0112607 -2.0600655e-05 0)
(0.92699785 -0.001403137 -8.0545834e-25)
(0.93339357 0.00067645654 -1.4151498e-24)
(0.95758399 0.0021243339 -4.3336482e-24)
(0.97593601 0.0029238588 -1.469008e-24)
(0.98700741 0.0030483259 5.4182154e-24)
(0.99472421 0.0024378567 8.6142116e-24)
(0.94277313 -0.0029009269 1.5918101e-23)
(0.95667202 -0.0040045294 8.7859088e-24)
(0.96812097 -0.0044285288 2.2326798e-23)
(0.97707207 -0.004742899 -6.529781e-24)
(0.98474912 -0.0049393997 9.3219426e-23)
(0.99204352 -0.0051330392 -4.8508338e-23)
(0.99753179 -0.0052819891 0)
(1.0002495 -0.0059101285 1.8712842e-22)