/*--------------------------------*- C++ -*----------------------------------*\
| =========                 |                                                 |
| \\      /  F ield         | OpenFOAM: The Open Source CFD Toolbox           |
|  \\    /   O peration     | Version:  5.0                                   |
|   \\  /    A nd           | Web:      www.OpenFOAM.org                      |
|    \\/     M anipulation  |                                                 |
\*---------------------------------------------------------------------------*/
FoamFile
{
    version     2.0;
    format      ascii;
    class       volSymmTensorField;
    location    "60";
    object      UPrime2Mean;
}
// * * * * * * * * * * * * * * * * * * * * * * * * * * * * * * * * * * * * * //

dimensions      [0 2 -2 0 0 0 0];

internalField   nonuniform List<symmTensor> 
9520
(
(1.0940435e-06 -8.8752329e-08 0 8.4580926e-09 0 0)
(1.1746776e-06 -2.7184168e-07 0 7.372368e-08 0 0)
(1.6926774e-06 -1.1330502e-07 0 8.7306813e-09 0 0)
(1.325452e-06 -4.7174087e-07 0 1.9621329e-07 0 0)
(1.8070645e-06 -3.4617418e-07 0 7.6236148e-08 0 0)
(1.9727784e-06 -1.2182244e-07 0 8.6755304e-09 0 0)
(1.5420121e-06 -7.0050853e-07 0 3.7050949e-07 0 0)
(2.0207907e-06 -5.9835113e-07 0 2.0360629e-07 0 0)
(2.1036868e-06 -3.7204768e-07 0 7.5827925e-08 0 0)
(2.4575687e-06 -1.3442201e-07 0 8.6289667e-09 0 0)
(1.8204134e-06 -9.6520946e-07 0 5.932556e-07 0 0)
(2.3283316e-06 -8.849888e-07 0 3.8634542e-07 0 0)
(2.3490651e-06 -6.4285545e-07 0 2.0287351e-07 0 0)
(2.6154081e-06 -4.1024608e-07 0 7.5519929e-08 0 0)
(2.86325e-06 -1.42058e-07 0 8.4738242e-09 0 0)
(2.1553161e-06 -1.269646e-06 0 8.6263971e-07 0 0)
(2.7244459e-06 -1.2153958e-06 0 6.2221278e-07 0 0)
(2.702206e-06 -9.5046635e-07 0 3.8582067e-07 0 0)
(2.9113333e-06 -7.0783155e-07 0 2.0236374e-07 0 0)
(3.0444907e-06 -4.3340147e-07 0 7.4229245e-08 0 0)
(3.3198484e-06 -1.4834666e-07 0 8.2871941e-09 0 0)
(2.5394308e-06 -1.6143979e-06 0 1.1773131e-06 0 0)
(3.2023563e-06 -1.5953219e-06 0 9.1077427e-07 0 0)
(3.157836e-06 -1.3051694e-06 0 6.2305223e-07 0 0)
(3.338441e-06 -1.0451789e-06 0 3.8574197e-07 0 0)
(3.3849304e-06 -7.4742716e-07 0 1.992414e-07 0 0)
(3.5267914e-06 -4.5232747e-07 0 7.2646379e-08 0 0)
(3.7570385e-06 -1.5186957e-07 0 8.0607601e-09 0 0)
(2.9623952e-06 -1.9974242e-06 0 1.536033e-06 0 0)
(3.7528925e-06 -2.026799e-06 0 1.2521636e-06 0 0)
(3.7093236e-06 -1.7137827e-06 0 9.1485555e-07 0 0)
(3.891432e-06 -1.4339851e-06 0 6.2473791e-07 0 0)
(3.8770264e-06 -1.103086e-06 0 3.8057995e-07 0 0)
(3.9157401e-06 -7.7919598e-07 0 1.9520782e-07 0 0)
(3.9888353e-06 -4.6288935e-07 0 7.0725986e-08 0 0)
(4.1877492e-06 -1.5296276e-07 0 7.8319881e-09 0 0)
(3.4122084e-06 -2.4147106e-06 0 1.9377219e-06 0 0)
(4.3630134e-06 -2.5090036e-06 0 1.6468312e-06 0 0)
(4.3474457e-06 -2.1792755e-06 0 1.2621057e-06 0 0)
(4.5638782e-06 -1.882538e-06 0 9.2046792e-07 0 0)
(4.5158039e-06 -1.512871e-06 0 6.1782699e-07 0 0)
(4.4792532e-06 -1.1486922e-06 0 3.7348785e-07 0 0)
(4.4251258e-06 -7.9688113e-07 0 1.9037861e-07 0 0)
(4.4440109e-06 -4.6599049e-07 0 6.8781268e-08 0 0)
(4.6069786e-06 -1.520531e-07 0 7.6054329e-09 0 0)
(3.8756511e-06 -2.8598436e-06 0 2.3792745e-06 0 0)
(5.0171184e-06 -3.0385317e-06 0 2.095188e-06 0 0)
(5.0587211e-06 -2.701742e-06 0 1.6660791e-06 0 0)
(5.3466409e-06 -2.3951619e-06 0 1.2747279e-06 0 0)
(5.2954853e-06 -1.986007e-06 0 9.1264314e-07 0 0)
(5.2130583e-06 -1.5739778e-06 0 6.0758352e-07 0 0)
(5.0578659e-06 -1.1737863e-06 0 3.6501642e-07 0 0)
(4.9264015e-06 -8.0133919e-07 0 1.8541969e-07 0 0)
(4.8866551e-06 -4.6299985e-07 0 6.6858265e-08 0 0)
(4.9984391e-06 -1.4883177e-07 0 7.4011408e-09 0 0)
(4.3392087e-06 -3.3272253e-06 0 2.8613502e-06 0 0)
(5.6980115e-06 -3.6094139e-06 0 2.5960701e-06 0 0)
(5.8267525e-06 -3.2786017e-06 0 2.1280073e-06 0 0)
(6.225979e-06 -2.9734055e-06 0 1.6898873e-06 0 0)
(6.2074727e-06 -2.5277018e-06 0 1.2673904e-06 0 0)
(6.1126086e-06 -2.0650565e-06 0 8.9967782e-07 0 0)
(5.8832986e-06 -1.6069029e-06 0 5.9519693e-07 0 0)
(5.6269655e-06 -1.1788101e-06 0 3.5621989e-07 0 0)
(5.4136173e-06 -7.9552623e-07 0 1.8060416e-07 0 0)
(5.3005116e-06 -4.5305594e-07 0 6.5155642e-08 0 0)
(5.3736642e-06 -1.4409247e-07 0 7.2147017e-09 0 0)
(4.7900143e-06 -3.8052041e-06 0 3.3727856e-06 0 0)
(6.387164e-06 -4.2154145e-06 0 3.1508412e-06 0 0)
(6.6330622e-06 -3.9046568e-06 0 2.6477682e-06 0 0)
(7.1846455e-06 -3.6160658e-06 0 2.1683238e-06 0 0)
(7.2384784e-06 -3.1404994e-06 0 1.6850475e-06 0 0)
(7.1705083e-06 -2.6278986e-06 0 1.252678e-06 0 0)
(6.8979002e-06 -2.1063993e-06 0 8.8349892e-07 0 0)
(6.5426761e-06 -1.6115602e-06 0 5.8226613e-07 0 0)
(6.1793504e-06 -1.1689762e-06 0 3.4788007e-07 0 0)
(5.8694715e-06 -7.7777217e-07 0 1.7644562e-07 0 0)
(5.6965881e-06 -4.3848093e-07 0 6.3597665e-08 0 0)
(5.7130414e-06 -1.3752251e-07 0 7.0634493e-09 0 0)
(5.2163558e-06 -4.2942896e-06 0 3.9282371e-06 0 0)
(7.0678692e-06 -4.8449394e-06 0 3.7511978e-06 0 0)
(7.4576108e-06 -4.5742871e-06 0 3.2274276e-06 0 0)
(8.2026723e-06 -4.3193959e-06 0 2.711453e-06 0 0)
(8.3714381e-06 -3.8243161e-06 0 2.1686453e-06 0 0)
(8.3749848e-06 -3.2659821e-06 0 1.6701358e-06 0 0)
(8.0953832e-06 -2.678383e-06 0 1.233213e-06 0 0)
(7.6712382e-06 -2.1096332e-06 0 8.6663506e-07 0 0)
(7.1811304e-06 -1.5960388e-06 0 5.7039201e-07 0 0)
(6.6965861e-06 -1.1416088e-06 0 3.4096103e-07 0 0)
(6.3051856e-06 -7.5224519e-07 0 1.7269232e-07 0 0)
(6.0558259e-06 -4.1851826e-07 0 6.2381572e-08 0 0)
(6.0312281e-06 -1.2973291e-07 0 6.9224326e-09 0 0)
(5.6094892e-06 -4.7684344e-06 0 4.4842975e-06 0 0)
(7.7219985e-06 -5.4958222e-06 0 4.4098147e-06 0 0)
(8.2814162e-06 -5.27624e-06 0 3.8602099e-06 0 0)
(9.2576624e-06 -5.0787711e-06 0 3.3223301e-06 0 0)
(9.5862679e-06 -4.576815e-06 0 2.7205505e-06 0 0)
(9.7104828e-06 -3.9802959e-06 0 2.1556583e-06 0 0)
(9.4654605e-06 -3.3265643e-06 0 1.6482261e-06 0 0)
(9.0076777e-06 -2.6789159e-06 0 1.213111e-06 0 0)
(8.4172248e-06 -2.0862036e-06 0 8.5178996e-07 0 0)
(7.7792812e-06 -1.5564796e-06 0 5.6113103e-07 0 0)
(7.1899849e-06 -1.103187e-06 0 3.3488485e-07 0 0)
(6.7015426e-06 -7.177997e-07 0 1.6997377e-07 0 0)
(6.3922044e-06 -3.9484314e-07 0 6.1235039e-08 0 0)
(6.3112568e-06 -1.2060964e-07 0 6.8178625e-09 0 0)
(5.9606197e-06 -5.255753e-06 0 5.1145275e-06 0 0)
(8.3403545e-06 -6.1428627e-06 0 5.0888867e-06 0 0)
(9.084688e-06 -6.008707e-06 0 4.5586085e-06 0 0)
(1.0327942e-05 -5.8843347e-06 0 3.9967549e-06 0 0)
(1.0860159e-05 -5.3948316e-06 0 3.3445636e-06 0 0)
(1.1158243e-05 -4.7698646e-06 0 2.7123879e-06 0 0)
(1.0994251e-05 -4.0521773e-06 0 2.1324047e-06 0 0)
(1.0543455e-05 -3.322975e-06 0 1.6260216e-06 0 0)
(9.8834112e-06 -2.6446546e-06 0 1.1964412e-06 0 0)
(9.1163005e-06 -2.0311753e-06 0 8.4134594e-07 0 0)
(8.3483886e-06 -1.5024892e-06 0 5.5349895e-07 0 0)
(7.6402297e-06 -1.0522518e-06 0 3.3106013e-07 0 0)
(7.0725105e-06 -6.7716994e-07 0 1.6740592e-07 0 0)
(6.6896702e-06 -3.6731738e-07 0 6.0436745e-08 0 0)
(6.5668665e-06 -1.1043786e-07 0 6.7105944e-09 0 0)
(6.2674198e-06 -5.6848107e-06 0 5.6705493e-06 0 0)
(8.9046626e-06 -6.8090066e-06 0 5.8552867e-06 0 0)
(9.8546432e-06 -6.7457129e-06 0 5.2875019e-06 0 0)
(1.1389471e-05 -6.7344939e-06 0 4.7469819e-06 0 0)
(1.2170416e-05 -6.2705001e-06 0 4.0384262e-06 0 0)
(1.2696769e-05 -5.6328921e-06 0 3.3444995e-06 0 0)
(1.266491e-05 -4.8547619e-06 0 2.6892296e-06 0 0)
(1.2266654e-05 -4.0427682e-06 0 2.1096114e-06 0 0)
(1.1572167e-05 -3.2742185e-06 0 1.6092096e-06 0 0)
(1.0703961e-05 -2.570024e-06 0 1.1867801e-06 0 0)
(9.7789236e-06 -1.9582083e-06 0 8.3385244e-07 0 0)
(8.8688686e-06 -1.4321024e-06 0 5.4995574e-07 0 0)
(8.061281e-06 -9.9266072e-07 0 3.2747715e-07 0 0)
(7.4025355e-06 -6.3037494e-07 0 1.6588516e-07 0 0)
(6.9610679e-06 -3.3658223e-07 0 5.9588791e-08 0 0)
(6.7848429e-06 -9.9321025e-08 0 6.6337538e-09 0 0)
(6.5226453e-06 -6.1597301e-06 0 6.395876e-06 0 0)
(9.4201059e-06 -7.4238541e-06 0 6.5680282e-06 0 0)
(1.0573396e-05 -7.5112855e-06 0 6.1114735e-06 0 0)
(1.2426432e-05 -7.6042067e-06 0 5.5428528e-06 0 0)
(1.3491676e-05 -7.203915e-06 0 4.8144604e-06 0 0)
(1.4304857e-05 -6.5639583e-06 0 4.0514472e-06 0 0)
(1.4458585e-05 -5.7331059e-06 0 3.3229015e-06 0 0)
(1.416264e-05 -4.8376509e-06 0 2.6677529e-06 0 0)
(1.347277e-05 -3.9748349e-06 0 2.0948273e-06 0 0)
(1.2535334e-05 -3.1749516e-06 0 1.6030616e-06 0 0)
(1.1477856e-05 -2.473798e-06 0 1.1821198e-06 0 0)
(1.038567e-05 -1.8646199e-06 0 8.3299563e-07 0 0)
(9.3552443e-06 -1.3508589e-06 0 5.4687191e-07 0 0)
(8.4384066e-06 -9.2483622e-07 0 3.2615149e-07 0 0)
(7.7040053e-06 -5.7819993e-07 0 1.6415005e-07 0 0)
(7.1942655e-06 -3.0316453e-07 0 5.9027326e-08 0 0)
(6.9768602e-06 -8.729402e-08 0 6.5471798e-09 0 0)
(6.7327949e-06 -6.5020788e-06 0 6.8885159e-06 0 0)
(9.8642479e-06 -8.0898704e-06 0 7.4671625e-06 0 0)
(1.1239616e-05 -8.2310161e-06 0 6.8935553e-06 0 0)
(1.3415012e-05 -8.5171752e-06 0 6.4454148e-06 0 0)
(1.4805827e-05 -8.1723769e-06 0 5.6470513e-06 0 0)
(1.5958753e-05 -7.5650839e-06 0 4.8448885e-06 0 0)
(1.6357484e-05 -6.6832544e-06 0 4.0337999e-06 0 0)
(1.6215764e-05 -5.7059596e-06 0 3.3046319e-06 0 0)
(1.5572067e-05 -4.7447373e-06 0 2.6576915e-06 0 0)
(1.4600136e-05 -3.844763e-06 0 2.09571e-06 0 0)
(1.3438008e-05 -3.0502842e-06 0 1.6049283e-06 0 0)
(1.2186693e-05 -2.3525424e-06 0 1.1875675e-06 0 0)
(1.0952314e-05 -1.7586232e-06 0 8.3317967e-07 0 0)
(9.7934676e-06 -1.2595034e-06 0 5.4786501e-07 0 0)
(8.7834295e-06 -8.494901e-07 0 3.2426423e-07 0 0)
(7.9658002e-06 -5.2188237e-07 0 1.632656e-07 0 0)
(7.3999876e-06 -2.6692828e-07 0 5.8349457e-08 0 0)
(7.133242e-06 -7.4601259e-08 0 6.4828555e-09 0 0)
(6.8906898e-06 -6.9668636e-06 0 7.7439831e-06 0 0)
(1.0259305e-05 -8.6169445e-06 0 8.1401077e-06 0 0)
(1.18373e-05 -9.014114e-06 0 7.8716352e-06 0 0)
(1.4352592e-05 -9.3966493e-06 0 7.3251608e-06 0 0)
(1.6086422e-05 -9.2016423e-06 0 6.5947006e-06 0 0)
(1.7639234e-05 -8.6165429e-06 0 5.7037945e-06 0 0)
(1.8341389e-05 -7.7078094e-06 0 4.8322094e-06 0 0)
(1.8411437e-05 -6.64374e-06 0 4.0213309e-06 0 0)
(1.7856886e-05 -5.5808016e-06 0 3.3023232e-06 0 0)
(1.6885891e-05 -4.5762249e-06 0 2.6699613e-06 0 0)
(1.56483e-05 -3.6852171e-06 0 2.108863e-06 0 0)
(1.4264057e-05 -2.8961204e-06 0 1.6214634e-06 0 0)
(1.2847747e-05 -2.218082e-06 0 1.1950996e-06 0 0)
(1.1464922e-05 -1.6406555e-06 0 8.3988563e-07 0 0)
(1.0195324e-05 -1.1587988e-06 0 5.4778763e-07 0 0)
(9.0868505e-06 -7.6891007e-07 0 3.2417845e-07 0 0)
(8.1978142e-06 -4.6072524e-07 0 1.6194148e-07 0 0)
(7.5695203e-06 -2.2881218e-07 0 5.7877497e-08 0 0)
(7.2634758e-06 -6.1159434e-08 0 6.4108283e-09 0 0)
(7.015511e-06 -7.191955e-06 0 8.1116161e-06 0 0)
(1.0583525e-05 -9.2851182e-06 0 9.2164764e-06 0 0)
(1.2372717e-05 -9.6534939e-06 0 8.6296757e-06 0 0)
(1.521709e-05 -1.0357144e-05 0 8.4160678e-06 0 0)
(1.7327875e-05 -1.0213277e-05 0 7.5353802e-06 0 0)
(1.9318242e-05 -9.7470823e-06 0 6.6825724e-06 0 0)
(2.0392135e-05 -8.7893506e-06 0 5.700764e-06 0 0)
(2.0732351e-05 -7.6519319e-06 0 4.8268674e-06 0 0)
(2.0313164e-05 -6.4771209e-06 0 4.0308898e-06 0 0)
(1.9378639e-05 -5.3643297e-06 0 3.331082e-06 0 0)
(1.8095638e-05 -4.3737691e-06 0 2.7003586e-06 0 0)
(1.6605513e-05 -3.4918168e-06 0 2.1425561e-06 0 0)
(1.5032425e-05 -2.7289081e-06 0 1.6418184e-06 0 0)
(1.3447435e-05 -2.0700787e-06 0 1.2124417e-06 0 0)
(1.1936651e-05 -1.512326e-06 0 8.450207e-07 0 0)
(1.0553046e-05 -1.052153e-06 0 5.5091257e-07 0 0)
(9.357243e-06 -6.8136743e-07 0 3.2298851e-07 0 0)
(8.3924129e-06 -3.967174e-07 0 1.6121297e-07 0 0)
(7.7115435e-06 -1.8832208e-07 0 5.7305467e-08 0 0)
(7.3609036e-06 -4.7252455e-08 0 6.3560058e-09 0 0)
(7.0881099e-06 -7.650584e-06 0 9.1181043e-06 0 0)
(1.0861888e-05 -9.6745492e-06 0 9.7685831e-06 0 0)
(1.2847091e-05 -1.0459606e-05 0 9.8163148e-06 0 0)
(1.6010071e-05 -1.1172201e-05 0 9.2998093e-06 0 0)
(1.8506767e-05 -1.1330256e-05 0 8.6987245e-06 0 0)
(2.0985526e-05 -1.0877525e-05 0 7.6692651e-06 0 0)
(2.2482549e-05 -9.9603276e-06 0 6.6891167e-06 0 0)
(2.3169604e-05 -8.713301e-06 0 5.7071803e-06 0 0)
(2.292537e-05 -7.4307425e-06 0 4.8518603e-06 0 0)
(2.2061134e-05 -6.1997718e-06 0 4.0831946e-06 0 0)
(2.0760533e-05 -5.1092582e-06 0 3.3858691e-06 0 0)
(1.9195201e-05 -4.1338301e-06 0 2.7585776e-06 0 0)
(1.7491978e-05 -3.2868281e-06 0 2.1826656e-06 0 0)
(1.5730406e-05 -2.5470864e-06 0 1.6762849e-06 0 0)
(1.4001094e-05 -1.9117544e-06 0 1.2277894e-06 0 0)
(1.2360836e-05 -1.3776523e-06 0 8.5523e-07 0 0)
(1.0874034e-05 -9.3658493e-07 0 5.5186834e-07 0 0)
(9.5889652e-06 -5.9033562e-07 0 3.2301775e-07 0 0)
(8.5573398e-06 -3.2844073e-07 0 1.6006066e-07 0 0)
(7.8200131e-06 -1.4650332e-07 0 5.6885495e-08 0 0)
(7.4329235e-06 -3.2799562e-08 0 6.3031039e-09 0 0)
(7.1543507e-06 -7.749467e-06 0 9.3420901e-06 0 0)
(1.1096384e-05 -1.0358087e-05 0 1.106066e-05 0 0)
(1.3246137e-05 -1.0953847e-05 0 1.045194e-05 0 0)
(1.6732293e-05 -1.21848e-05 0 1.0645008e-05 0 0)
(1.9615357e-05 -1.2306671e-05 0 9.6690679e-06 0 0)
(2.2606664e-05 -1.2144731e-05 0 8.8872498e-06 0 0)
(2.4606278e-05 -1.1143139e-05 0 7.6956179e-06 0 0)
(2.5704888e-05 -9.8595301e-06 0 6.7052059e-06 0 0)
(2.5688683e-05 -8.4233907e-06 0 5.7549681e-06 0 0)
(2.4919178e-05 -7.076167e-06 0 4.9354407e-06 0 0)
(2.362254e-05 -5.8791285e-06 0 4.1719808e-06 0 0)
(2.2005684e-05 -4.814383e-06 0 3.4775355e-06 0 0)
(2.0204797e-05 -3.885516e-06 0 2.8268636e-06 0 0)
(1.8296553e-05 -3.0672083e-06 0 2.2423406e-06 0 0)
(1.6376358e-05 -2.3564724e-06 0 1.708501e-06 0 0)
(1.450331e-05 -1.7472761e-06 0 1.2506866e-06 0 0)
(1.2744759e-05 -1.2326974e-06 0 8.6182852e-07 0 0)
(1.1155162e-05 -8.1723527e-07 0 5.5490063e-07 0 0)
(9.7879181e-06 -4.9281533e-07 0 3.2188963e-07 0 0)
(8.6873438e-06 -2.5811272e-07 0 1.5931864e-07 0 0)
(7.9018105e-06 -1.0289191e-07 0 5.6449053e-08 0 0)
(7.4756415e-06 -1.805583e-08 0 6.2676884e-09 0 0)
(7.1412984e-06 -8.1824266e-06 0 1.0460104e-05 0 0)
(1.1289369e-05 -1.0581991e-05 0 1.1444357e-05 0 0)
(1.362807e-05 -1.1798856e-05 0 1.1898818e-05 0 0)
(1.7342653e-05 -1.2846978e-05 0 1.1418982e-05 0 0)
(2.0656588e-05 -1.3524559e-05 0 1.1129786e-05 0 0)
(2.4171669e-05 -1.3280211e-05 0 9.930103e-06 0 0)
(2.6744563e-05 -1.2486529e-05 0 8.9294249e-06 0 0)
(2.8334013e-05 -1.1009222e-05 0 7.7326225e-06 0 0)
(2.8590913e-05 -9.4823568e-06 0 6.777155e-06 0 0)
(2.7950322e-05 -7.9742718e-06 0 5.8824997e-06 0 0)
(2.6667802e-05 -6.6748567e-06 0 5.0684598e-06 0 0)
(2.5016082e-05 -5.5202845e-06 0 4.3078538e-06 0 0)
(2.3143784e-05 -4.5160352e-06 0 3.5838037e-06 0 0)
(2.1121153e-05 -3.6241023e-06 0 2.92128e-06 0 0)
(1.9042598e-05 -2.8423116e-06 0 2.2996316e-06 0 0)
(1.6967068e-05 -2.1608581e-06 0 1.7514241e-06 0 0)
(1.4962349e-05 -1.5720962e-06 0 1.2681717e-06 0 0)
(1.3087839e-05 -1.0840285e-06 0 8.7162409e-07 0 0)
(1.1399927e-05 -6.89031e-07 0 5.5549724e-07 0 0)
(9.9507321e-06 -3.9270267e-07 0 3.2152649e-07 0 0)
(8.7886171e-06 -1.8432214e-07 0 1.5837312e-07 0 0)
(7.9532667e-06 -5.8413018e-08 0 5.6158605e-08 0 0)
(7.4943643e-06 -3.0111692e-09 0 6.246863e-09 0 0)
(7.1871761e-06 -8.1834879e-06 0 1.0609491e-05 0 0)
(1.1452583e-05 -1.1282813e-05 0 1.2948799e-05 0 0)
(1.3921419e-05 -1.2099524e-05 0 1.2333643e-05 0 0)
(1.7944586e-05 -1.3924943e-05 0 1.3084197e-05 0 0)
(2.1552106e-05 -1.4359603e-05 0 1.2010636e-05 0 0)
(2.5687835e-05 -1.4721291e-05 0 1.1489492e-05 0 0)
(2.8881362e-05 -1.3701149e-05 0 1.0003386e-05 0 0)
(3.1039699e-05 -1.2330789e-05 0 8.9781805e-06 0 0)
(3.1642295e-05 -1.0519178e-05 0 7.8464892e-06 0 0)
(3.1143354e-05 -8.9139937e-06 0 6.9576157e-06 0 0)
(2.9890345e-05 -7.4768799e-06 0 6.0745497e-06 0 0)
(2.8211942e-05 -6.2422127e-06 0 5.2595615e-06 0 0)
(2.6279854e-05 -5.169253e-06 0 4.4615783e-06 0 0)
(2.4180294e-05 -4.207241e-06 0 3.7240946e-06 0 0)
(2.1974082e-05 -3.363417e-06 0 3.0130251e-06 0 0)
(1.9731276e-05 -2.614946e-06 0 2.3715229e-06 0 0)
(1.7512821e-05 -1.9553214e-06 0 1.7868569e-06 0 0)
(1.5379856e-05 -1.3937725e-06 0 1.2903408e-06 0 0)
(1.3390891e-05 -9.2426428e-07 0 8.7706521e-07 0 0)
(1.1607933e-05 -5.5784997e-07 0 5.5724265e-07 0 0)
(1.0081722e-05 -2.8688656e-07 0 3.2039734e-07 0 0)
(8.8576935e-06 -1.0911216e-07 0 1.5778791e-07 0 0)
(7.9795308e-06 -1.2854151e-08 0 5.5967347e-08 0 0)
(7.4877501e-06 1.2137971e-08 0 6.249023e-09 0 0)
(7.1100771e-06 -8.5416332e-06 0 1.171094e-05 0 0)
(1.158861e-05 -1.1336783e-05 0 1.3195737e-05 0 0)
(1.4238645e-05 -1.2986849e-05 0 1.4042603e-05 0 0)
(1.8373516e-05 -1.4360442e-05 0 1.3647233e-05 0 0)
(2.246056e-05 -1.5701178e-05 0 1.3861356e-05 0 0)
(2.705696e-05 -1.5751115e-05 0 1.2465094e-05 0 0)
(3.1037025e-05 -1.5287801e-05 0 1.1597169e-05 0 0)
(3.380999e-05 -1.3501324e-05 0 1.0084109e-05 0 0)
(3.4830285e-05 -1.1714185e-05 0 9.1254892e-06 0 0)
(3.4518503e-05 -9.8023872e-06 0 8.1071594e-06 0 0)
(3.3275299e-05 -8.2967868e-06 0 7.2221559e-06 0 0)
(3.1579995e-05 -6.9619674e-06 0 6.3352096e-06 0 0)
(2.9597042e-05 -5.8330698e-06 0 5.4714814e-06 0 0)
(2.7441523e-05 -4.8150449e-06 0 4.6557441e-06 0 0)
(2.5145474e-05 -3.9116166e-06 0 3.8593693e-06 0 0)
(2.2769903e-05 -3.1045933e-06 0 3.1238519e-06 0 0)
(2.0374716e-05 -2.3797051e-06 0 2.4337218e-06 0 0)
(1.8017079e-05 -1.7479192e-06 0 1.8290833e-06 0 0)
(1.5754515e-05 -1.2025865e-06 0 1.3055909e-06 0 0)
(1.3657744e-05 -7.6133361e-07 0 8.8405457e-07 0 0)
(1.1780198e-05 -4.182209e-07 0 5.5708426e-07 0 0)
(1.0178733e-05 -1.7909541e-07 0 3.1985307e-07 0 0)
(8.8994411e-06 -3.1539043e-08 0 1.5732816e-07 0 0)
(7.979119e-06 3.3075001e-08 0 5.5963941e-08 0 0)
(7.4592021e-06 2.7326214e-08 0 6.2773775e-09 0 0)
(7.1942338e-06 -8.518711e-06 0 1.1915442e-05 0 0)
(1.1716126e-05 -1.2032546e-05 0 1.4828879e-05 0 0)
(1.4475216e-05 -1.307566e-05 0 1.4277126e-05 0 0)
(1.8830581e-05 -1.5487016e-05 0 1.56473e-05 0 0)
(2.3103164e-05 -1.6296678e-05 0 1.4537753e-05 0 0)
(2.8460512e-05 -1.7419738e-05 0 1.4494058e-05 0 0)
(3.3092568e-05 -1.6435151e-05 0 1.2617468e-05 0 0)
(3.6710295e-05 -1.509336e-05 0 1.168901e-05 0 0)
(3.8161949e-05 -1.2699172e-05 0 1.0310656e-05 0 0)
(3.8049624e-05 -1.0821677e-05 0 9.466758e-06 0 0)
(3.684456e-05 -9.0471662e-06 0 8.4755451e-06 0 0)
(3.5099263e-05 -7.6842484e-06 0 7.5662305e-06 0 0)
(3.3076534e-05 -6.4924482e-06 0 6.6181579e-06 0 0)
(3.0875191e-05 -5.4323192e-06 0 5.7291702e-06 0 0)
(2.8530196e-05 -4.4796983e-06 0 4.8474138e-06 0 0)
(2.6055304e-05 -3.6226245e-06 0 4.0197778e-06 0 0)
(2.3521078e-05 -2.8409928e-06 0 3.2232763e-06 0 0)
(2.0977609e-05 -2.1446632e-06 0 2.505929e-06 0 0)
(1.8477125e-05 -1.5265758e-06 0 1.8612486e-06 0 0)
(1.6094759e-05 -1.0083523e-06 0 1.3228634e-06 0 0)
(1.3884232e-05 -5.8689774e-07 0 8.8724442e-07 0 0)
(1.1917561e-05 -2.7597003e-07 0 5.576163e-07 0 0)
(1.0245269e-05 -6.6875873e-08 0 3.1920364e-07 0 0)
(8.9121315e-06 4.6752065e-08 0 1.5731556e-07 0 0)
(7.9555677e-06 7.9284005e-08 0 5.6169768e-08 0 0)
(7.4094125e-06 4.2411155e-08 0 6.3360957e-09 0 0)
(7.194765e-06 -8.8299883e-06 0 1.285993e-05 0 0)
(1.1857952e-05 -1.1978437e-05 0 1.5056721e-05 0 0)
(1.4765916e-05 -1.3982176e-05 0 1.6152248e-05 0 0)
(1.9126273e-05 -1.5648835e-05 0 1.5966118e-05 0 0)
(2.3821313e-05 -1.7734609e-05 0 1.6812285e-05 0 0)
(2.9537287e-05 -1.82273e-05 0 1.5277494e-05 0 0)
(3.5263063e-05 -1.8377227e-05 0 1.473402e-05 0 0)
(3.9596229e-05 -1.6176584e-05 0 1.2746696e-05 0 0)
(4.1719533e-05 -1.4125458e-05 0 1.195761e-05 0 0)
(4.1771232e-05 -1.1561027e-05 0 1.0807527e-05 0 0)
(4.0553854e-05 -9.9005926e-06 0 9.9468866e-06 0 0)
(3.8783251e-05 -8.3352977e-06 0 8.9261625e-06 0 0)
(3.6692008e-05 -7.1469606e-06 0 7.9305242e-06 0 0)
(3.4461025e-05 -6.0469083e-06 0 6.9488701e-06 0 0)
(3.208275e-05 -5.062028e-06 0 5.9859098e-06 0 0)
(2.9558845e-05 -4.1577307e-06 0 5.0706883e-06 0 0)
(2.6921113e-05 -3.3317929e-06 0 4.1690374e-06 0 0)
(2.4233115e-05 -2.5801301e-06 0 3.3377181e-06 0 0)
(2.1536569e-05 -1.8955373e-06 0 2.5646151e-06 0 0)
(1.8905515e-05 -1.302943e-06 0 1.8962135e-06 0 0)
(1.6390283e-05 -7.9944116e-07 0 1.3335083e-06 0 0)
(1.4076972e-05 -4.0897501e-07 0 8.909944e-07 0 0)
(1.2020026e-05 -1.263855e-07 0 5.5732545e-07 0 0)
(1.0280036e-05 4.6571337e-08 0 3.1924829e-07 0 0)
(8.8994387e-06 1.2608301e-07 0 1.5776427e-07 0 0)
(7.9092792e-06 1.2527897e-07 0 5.6629655e-08 0 0)
(7.3405898e-06 5.7291382e-08 0 6.428766e-09 0 0)
(7.4843117e-06 -8.997858e-06 0 1.321356e-05 0 0)
(1.2137914e-05 -1.271477e-05 0 1.670869e-05 0 0)
(1.4973101e-05 -1.3891166e-05 0 1.6289989e-05 0 0)
(1.9430922e-05 -1.6781967e-05 0 1.8209396e-05 0 0)
(2.4259064e-05 -1.8038515e-05 0 1.7247297e-05 0 0)
(3.075441e-05 -2.0132342e-05 0 1.7871811e-05 0 0)
(3.713499e-05 -1.9342871e-05 0 1.5567979e-05 0 0)
(4.2752009e-05 -1.8194168e-05 0 1.4881116e-05 0 0)
(4.5360121e-05 -1.4908647e-05 0 1.3148004e-05 0 0)
(4.5744731e-05 -1.2744475e-05 0 1.257373e-05 0 0)
(4.447328e-05 -1.0431236e-05 0 1.1483379e-05 0 0)
(4.2578794e-05 -9.065216e-06 0 1.0514765e-05 0 0)
(4.0446557e-05 -7.7413973e-06 0 9.3867655e-06 0 0)
(3.817285e-05 -6.65665e-06 0 8.3403036e-06 0 0)
(3.5781457e-05 -5.6454142e-06 0 7.2812763e-06 0 0)
(3.3238761e-05 -4.7090027e-06 0 6.2826113e-06 0 0)
(3.0544843e-05 -3.8444909e-06 0 5.2818134e-06 0 0)
(2.7751972e-05 -3.0477293e-06 0 4.3394221e-06 0 0)
(2.4903883e-05 -2.306673e-06 0 3.4351098e-06 0 0)
(2.2067845e-05 -1.6459159e-06 0 2.6274661e-06 0 0)
(1.9286816e-05 -1.0615969e-06 0 1.9207207e-06 0 0)
(1.6655578e-05 -5.8615285e-07 0 1.3443593e-06 0 0)
(1.4228696e-05 -2.2016648e-07 0 8.9246229e-07 0 0)
(1.208878e-05 2.5273239e-08 0 5.5779621e-07 0 0)
(1.028603e-05 1.6270284e-07 0 3.1992023e-07 0 0)
(8.8612343e-06 2.0527552e-07 0 1.5883675e-07 0 0)
(7.8425967e-06 1.7077945e-07 0 5.7378478e-08 0 0)
(7.2543281e-06 7.1849247e-08 0 6.5572196e-09 0 0)
(8.1343615e-06 -9.2265589e-06 0 1.3918037e-05 0 0)
(1.2412586e-05 -1.2779313e-05 0 1.7021433e-05 0 0)
(1.5482404e-05 -1.4878249e-05 0 1.8172881e-05 0 0)
(1.969529e-05 -1.6695889e-05 0 1.8363087e-05 0 0)
(2.4695924e-05 -1.9501483e-05 0 1.9868643e-05 0 0)
(3.152823e-05 -2.0640043e-05 0 1.8413926e-05 0 0)
(3.9271285e-05 -2.1718522e-05 0 1.8354071e-05 0 0)
(4.5721007e-05 -1.907281e-05 0 1.5742594e-05 0 0)
(4.9420095e-05 -1.6719705e-05 0 1.5342872e-05 0 0)
(4.986826e-05 -1.3137179e-05 0 1.4048467e-05 0 0)
(4.8589e-05 -1.1399161e-05 0 1.3423804e-05 0 0)
(4.6572374e-05 -9.4720737e-06 0 1.2226998e-05 0 0)
(4.4285144e-05 -8.3945106e-06 0 1.1080886e-05 0 0)
(4.1999841e-05 -7.2212584e-06 0 9.8837403e-06 0 0)
(3.9598467e-05 -6.2280602e-06 0 8.7534053e-06 0 0)
(3.706213e-05 -5.2639301e-06 0 7.6624455e-06 0 0)
(3.4359987e-05 -4.3691134e-06 0 6.5727087e-06 0 0)
(3.1500242e-05 -3.5384618e-06 0 5.5245968e-06 0 0)
(2.854555e-05 -2.7539733e-06 0 4.4907474e-06 0 0)
(2.5552319e-05 -2.035602e-06 0 3.5391367e-06 0 0)
(2.2552502e-05 -1.376148e-06 0 2.6751825e-06 0 0)
(1.9642894e-05 -8.1528999e-07 0 1.9449032e-06 0 0)
(1.6872816e-05 -3.5774762e-07 0 1.3503819e-06 0 0)
(1.43474e-05 -2.7693477e-08 0 8.943933e-07 0 0)
(1.2123832e-05 1.8233539e-07 0 5.5876403e-07 0 0)
(1.0262922e-05 2.7900909e-07 0 3.2160336e-07 0 0)
(8.8001535e-06 2.8409697e-07 0 1.6063423e-07 0 0)
(7.7570641e-06 2.1541229e-07 0 5.8435881e-08 0 0)
(7.1525307e-06 8.5983155e-08 0 6.7229668e-09 0 0)
(8.4229288e-06 -9.629257e-06 0 1.4410691e-05 0 0)
(1.3453057e-05 -1.3526476e-05 0 1.8610358e-05 0 0)
(1.5711734e-05 -1.4815883e-05 0 1.8356341e-05 0 0)
(2.0106867e-05 -1.7896461e-05 0 2.0686689e-05 0 0)
(2.5051499e-05 -1.9522084e-05 0 2.0125221e-05 0 0)
(3.2384931e-05 -2.2697804e-05 0 2.1542493e-05 0 0)
(4.0882458e-05 -2.2423423e-05 0 1.8946334e-05 0 0)
(4.9150284e-05 -2.1659856e-05 0 1.8578068e-05 0 0)
(5.3435901e-05 -1.7139294e-05 0 1.6398071e-05 0 0)
(5.4449717e-05 -1.4602649e-05 0 1.6448879e-05 0 0)
(5.2896761e-05 -1.1492649e-05 0 1.5246985e-05 0 0)
(5.0672559e-05 -1.0315454e-05 0 1.4324002e-05 0 0)
(4.8295372e-05 -8.7620444e-06 0 1.2919399e-05 0 0)
(4.5896116e-05 -7.8306003e-06 0 1.1668169e-05 0 0)
(4.3520745e-05 -6.7805304e-06 0 1.0384078e-05 0 0)
(4.1007537e-05 -5.8204075e-06 0 9.2252774e-06 0 0)
(3.8321429e-05 -4.9038081e-06 0 8.0438526e-06 0 0)
(3.5450294e-05 -4.0425284e-06 0 6.9031657e-06 0 0)
(3.2428589e-05 -3.229744e-06 0 5.7461987e-06 0 0)
(2.9324522e-05 -2.4668757e-06 0 4.652056e-06 0 0)
(2.6157634e-05 -1.7434499e-06 0 3.6227688e-06 0 0)
(2.3018599e-05 -1.1014662e-06 0 2.7220018e-06 0 0)
(1.9945804e-05 -5.4907144e-07 0 1.9604351e-06 0 0)
(1.7061135e-05 -1.2342455e-07 0 1.3561237e-06 0 0)
(1.4424673e-05 1.7379817e-07 0 8.960844e-07 0 0)
(1.2126418e-05 3.4040271e-07 0 5.6097708e-07 0 0)
(1.0213293e-05 3.9594616e-07 0 3.2453997e-07 0 0)
(8.7173771e-06 3.6177178e-07 0 1.6323484e-07 0 0)
(7.6545606e-06 2.588613e-07 0 5.9820437e-08 0 0)
(7.0370362e-06 9.9594578e-08 0 6.9263468e-09 0 0)
(8.7928791e-06 -1.0471821e-05 6.6531863e-28 1.4968026e-05 -1.0787916e-27 7.4094509e-49)
(1.3583051e-05 -1.3760184e-05 0 1.9070696e-05 0 0)
(1.7118914e-05 -1.5775651e-05 0 2.0049379e-05 0 0)
(2.0272523e-05 -1.7732979e-05 0 2.0821075e-05 0 0)
(2.5498045e-05 -2.1080683e-05 0 2.2942412e-05 0 0)
(3.3071818e-05 -2.2955026e-05 0 2.194548e-05 0 0)
(4.2918935e-05 -2.5240631e-05 0 2.2451707e-05 0 0)
(5.2191456e-05 -2.226247e-05 0 1.9166751e-05 0 0)
(5.8100448e-05 -1.9473089e-05 0 1.9335508e-05 0 0)
(5.9082799e-05 -1.442275e-05 0 1.7987496e-05 0 0)
(5.7583278e-05 -1.2686251e-05 0 1.7943229e-05 0 0)
(5.4984053e-05 -1.0263266e-05 0 1.6436536e-05 0 0)
(5.2335675e-05 -9.5544787e-06 0 1.512434e-05 0 0)
(4.9935817e-05 -8.2096705e-06 0 1.3592979e-05 0 0)
(4.7508726e-05 -7.3685394e-06 0 1.2255749e-05 0 0)
(4.5060763e-05 -6.3588657e-06 0 1.0953057e-05 0 0)
(4.2412337e-05 -5.4403135e-06 0 9.7092947e-06 0 0)
(3.9565504e-05 -4.5568656e-06 0 8.4790573e-06 0 0)
(3.6520324e-05 -3.7235207e-06 0 7.2146248e-06 0 0)
(3.3347838e-05 -2.9317701e-06 0 5.9846987e-06 0 0)
(3.0067027e-05 -2.1598732e-06 0 4.7883171e-06 0 0)
(2.675348e-05 -1.4473384e-06 0 3.705305e-06 0 0)
(2.3429914e-05 -8.0203429e-07 0 2.7550094e-06 0 0)
(2.0225687e-05 -2.7430806e-07 0 1.9743261e-06 0 0)
(1.7197781e-05 1.2455306e-07 0 1.3598481e-06 0 0)
(1.446884e-05 3.7830227e-07 0 8.9892519e-07 0 0)
(1.20971e-05 5.0124681e-07 0 5.6492488e-07 0 0)
(1.0137772e-05 5.1169947e-07 0 3.2886737e-07 0 0)
(8.6149287e-06 4.3778839e-07 0 1.6670885e-07 0 0)
(7.5369388e-06 3.0081758e-07 0 6.1536075e-08 0 0)
(6.9095825e-06 1.1259404e-07 0 7.1667294e-09 0 0)
(6.4054841e-06 -8.4430108e-06 -3.5242305e-27 1.5316402e-05 5.6503133e-27 4.5593076e-48)
(1.3293268e-05 -1.484292e-05 -4.7859623e-28 2.0672754e-05 1.6610379e-27 8.0876195e-49)
(1.7127937e-05 -1.5932241e-05 0 2.0408315e-05 0 0)
(2.1693293e-05 -1.896869e-05 0 2.301353e-05 0 0)
(2.5600931e-05 -2.093605e-05 0 2.3157519e-05 0 0)
(3.3908946e-05 -2.52408e-05 0 2.5481149e-05 0 0)
(4.4500439e-05 -2.5756959e-05 0 2.2914475e-05 0 0)
(5.6006114e-05 -2.5508325e-05 0 2.2794152e-05 0 0)
(6.2590267e-05 -1.9400671e-05 0 2.0182645e-05 0 0)
(6.4418513e-05 -1.6279053e-05 0 2.1295132e-05 0 0)
(6.236996e-05 -1.2087177e-05 0 2.0095542e-05 0 0)
(5.9561593e-05 -1.1351321e-05 0 1.9363097e-05 0 0)
(5.6601502e-05 -9.4685945e-06 0 1.7420842e-05 0 0)
(5.3963408e-05 -8.9803902e-06 0 1.5878641e-05 0 0)
(5.1620305e-05 -7.7823386e-06 0 1.4259738e-05 0 0)
(4.9187563e-05 -6.928684e-06 0 1.291892e-05 0 0)
(4.6622313e-05 -5.9638592e-06 0 1.1552868e-05 0 0)
(4.3813183e-05 -5.0728976e-06 0 1.0264074e-05 0 0)
(4.0795339e-05 -4.2224797e-06 0 8.9055943e-06 0 0)
(3.7588391e-05 -3.4188264e-06 0 7.5528072e-06 0 0)
(3.424305e-05 -2.6183688e-06 0 6.1940964e-06 0 0)
(3.0810846e-05 -1.8514223e-06 0 4.9238613e-06 0 0)
(2.72971e-05 -1.1223642e-06 0 3.7675312e-06 0 0)
(2.3826124e-05 -4.9131646e-07 0 2.7843485e-06 0 0)
(2.0445024e-05 2.003241e-08 0 1.9830831e-06 0 0)
(1.7304714e-05 3.7908808e-07 0 1.3641483e-06 0 0)
(1.4471975e-05 5.8875907e-07 0 9.0362492e-07 0 0)
(1.2037231e-05 6.6144147e-07 0 5.7078629e-07 0 0)
(1.0038641e-05 6.2597031e-07 0 3.3484756e-07 0 0)
(8.4946354e-06 5.1156052e-07 0 1.7107632e-07 0 0)
(7.4060891e-06 3.4100236e-07 0 6.3579732e-08 0 0)
(6.7719525e-06 1.2490658e-07 0 7.4423847e-09 0 0)
(1.920057e-06 -4.3374333e-06 1.194626e-27 1.5707137e-05 -5.5186165e-27 4.5828695e-48)
(9.6205212e-06 -1.1933655e-05 -7.268132e-28 2.1121882e-05 -4.0025972e-27 7.0750544e-48)
(1.5951518e-05 -1.6645162e-05 0 2.197099e-05 0 0)
(2.1505248e-05 -1.8932049e-05 0 2.3255887e-05 0 0)
(2.7314583e-05 -2.267056e-05 0 2.5983354e-05 0 0)
(3.425897e-05 -2.5358368e-05 0 2.5936172e-05 0 0)
(4.6893231e-05 -2.9164873e-05 0 2.7088038e-05 0 0)
(5.9457537e-05 -2.5938218e-05 0 2.3204312e-05 0 0)
(6.8141716e-05 -2.2337279e-05 0 2.3990353e-05 0 0)
(6.9690225e-05 -1.5308717e-05 0 2.2931425e-05 0 0)
(6.77772e-05 -1.3643768e-05 0 2.3912203e-05 0 0)
(6.4258603e-05 -1.0607538e-05 0 2.1990018e-05 0 0)
(6.1014483e-05 -1.0562257e-05 0 2.0452417e-05 0 0)
(5.8219698e-05 -8.9338951e-06 0 1.8273207e-05 0 0)
(5.5717219e-05 -8.537852e-06 0 1.6628927e-05 0 0)
(5.3437119e-05 -7.3677292e-06 0 1.5014302e-05 0 0)
(5.0921855e-05 -6.5112739e-06 0 1.3636227e-05 0 0)
(4.8190713e-05 -5.5747785e-06 0 1.2246871e-05 0 0)
(4.5210051e-05 -4.7266322e-06 0 1.0825532e-05 0 0)
(4.2017317e-05 -3.9161414e-06 0 9.367842e-06 0 0)
(3.8648434e-05 -3.1083382e-06 0 7.859527e-06 0 0)
(3.5150294e-05 -2.3084176e-06 0 6.4044062e-06 0 0)
(3.1511603e-05 -1.5116054e-06 0 5.0316312e-06 0 0)
(2.7836921e-05 -7.8374375e-07 0 3.8235408e-06 0 0)
(2.4156352e-05 -1.5398019e-07 0 2.8037609e-06 0 0)
(2.0639636e-05 3.2573267e-07 0 1.9910133e-06 0 0)
(1.7357209e-05 6.437663e-07 0 1.3695922e-06 0 0)
(1.444211e-05 8.005305e-07 0 9.1059858e-07 0 0)
(1.1948039e-05 8.2142144e-07 0 5.7929061e-07 0 0)
(9.9173925e-06 7.3755488e-07 0 3.4251407e-07 0 0)
(8.3584056e-06 5.8258332e-07 0 1.7634786e-07 0 0)
(7.2637555e-06 3.7917132e-07 0 6.5938105e-08 0 0)
(6.6258386e-06 1.3647366e-07 0 7.750602e-09 0 0)
(7.102548e-06 3.724315e-06 0 1.4825218e-05 0 0)
(3.4174167e-06 -4.4210991e-06 -1.5638366e-27 2.2026587e-05 3.9893716e-27 7.0901917e-48)
(1.0810313e-05 -1.2786836e-05 0 2.2084e-05 0 0)
(1.9457926e-05 -1.9596606e-05 0 2.5437354e-05 0 0)
(2.7046453e-05 -2.2640847e-05 0 2.6279732e-05 0 0)
(3.6588623e-05 -2.8039074e-05 0 2.9752818e-05 0 0)
(4.8177343e-05 -2.9664241e-05 0 2.7679685e-05 0 0)
(6.4384773e-05 -3.0079825e-05 0 2.761926e-05 0 0)
(7.3637819e-05 -2.1822382e-05 0 2.4709093e-05 0 0)
(7.6142587e-05 -1.7587405e-05 0 2.740129e-05 0 0)