/*--------------------------------*- C++ -*----------------------------------*\
| =========                 |                                                 |
| \\      /  F ield         | OpenFOAM: The Open Source CFD Toolbox           |
|  \\    /   O peration     | Version:  5.0                                   |
|   \\  /    A nd           | Web:      www.OpenFOAM.org                      |
|    \\/     M anipulation  |                                                 |
\*---------------------------------------------------------------------------*/
FoamFile
{
    version     2.0;
    format      ascii;
    class       volScalarField;
    location    "195";
    object      p;
}
// * * * * * * * * * * * * * * * * * * * * * * * * * * * * * * * * * * * * * //

dimensions      [0 2 -2 0 0 0 0];

internalField   nonuniform List<scalar> 
9200
(
-0.00069130246
-0.00068868239
-0.0015627108
-0.00068410937
-0.0015648749
-0.0026670566
-0.00068248575
-0.0015539861
-0.0026669023
-0.0036441151
-0.00067540751
-0.0015460804
-0.0026519195
-0.0036469084
-0.0046487652
-0.00066825817
-0.0015267233
-0.0026401819
-0.003630178
-0.004654789
-0.0056006096
-0.00065711981
-0.0015052252
-0.0026120599
-0.0036176585
-0.0046389477
-0.0056133939
-0.0065316696
-0.00064403305
-0.0014749114
-0.0025789306
-0.0035846344
-0.0046295876
-0.0056019987
-0.0065530681
-0.0074223256
-0.00062801572
-0.0014390397
-0.0025321361
-0.003544369
-0.0045961607
-0.0056010248
-0.0065492528
-0.0074550688
-0.0082764612
-0.00060979186
-0.0013959936
-0.0024754924
-0.0034861345
-0.0045536887
-0.0055732341
-0.0065618163
-0.007462574
-0.0083240607
-0.0090881056
-0.00058957668
-0.0013468282
-0.0024070219
-0.0034141446
-0.0044890403
-0.0055355312
-0.0065456166
-0.0074949165
-0.0083477812
-0.0091534299
-0.0098546491
-0.00056810666
-0.0012916499
-0.002328131
-0.0033259081
-0.0044066295
-0.0054720428
-0.0065193128
-0.0074978496
-0.0084056069
-0.0091972904
-0.0099406576
-0.010572432
-0.00054632909
-0.0012310284
-0.0022392816
-0.0032230239
-0.0043033267
-0.0053872811
-0.0064640841
-0.00749161
-0.0084347418
-0.0092865731
-0.01000923
-0.010681921
-0.011238079
-0.00052554096
-0.0011653191
-0.0021417181
-0.0031060364
-0.0041808975
-0.0052771829
-0.0063846136
-0.0074538691
-0.0084570083
-0.0093498107
-0.01013766
-0.010779494
-0.011373685
-0.011848316
-0.00050698141
-0.0010948116
-0.0020367073
-0.0029764454
-0.0040400005
-0.0051434791
-0.0062754688
-0.0073887736
-0.0084460333
-0.0094094411
-0.010242735
-0.010952897
-0.011504435
-0.012012421
-0.012400201
-0.00049242114
-0.0010195476
-0.001925701
-0.0028357255
-0.0038825594
-0.0049867149
-0.0061380645
-0.0072896469
-0.0084052578
-0.0094348134
-0.010349138
-0.01110738
-0.011729114
-0.012180202
-0.012594879
-0.01289119
-0.00048187571
-0.00094058608
-0.0018100049
-0.0026855128
-0.0037106074
-0.0048089808
-0.0059726779
-0.0071575384
-0.0083263228
-0.0094288149
-0.010421461
-0.011269802
-0.011941546
-0.012461685
-0.012803196
-0.013118153
-0.01331921
-0.00047339105
-0.00085877925
-0.0016915721
-0.0025273468
-0.0035264977
-0.0046125274
-0.0057815184
-0.0069922682
-0.0082096479
-0.0093809418
-0.010461472
-0.011399509
-0.01216943
-0.012738918
-0.013146791
-0.013370025
-0.01357979
-0.013682674
-0.00046362144
-0.00077559421
-0.0015713559
-0.002363513
-0.0033325519
-0.0043999896
-0.0055671163
-0.0067959683
-0.0080543796
-0.0092906963
-0.010456374
-0.011497016
-0.012367323
-0.013041282
-0.013496335
-0.013780229
-0.013877711
-0.013977824
-0.013980578
-0.00044665799
-0.00069437947
-0.0014496406
-0.0021958464
-0.0031315857
-0.0041740466
-0.0053325616
-0.0065712342
-0.0078624107
-0.0091563073
-0.010404487
-0.011546885
-0.012534197
-0.013317831
-0.013881908
-0.014208092
-0.014358401
-0.014323688
-0.01431083
-0.014212723
-0.00041524204
-0.0006190229
-0.0013270807
-0.0020262253
-0.0029257085
-0.0039378693
-0.0050810991
-0.0063213819
-0.0076363112
-0.0089791882
-0.010302859
-0.011545974
-0.01265176
-0.013565861
-0.014247344
-0.014684595
-0.01487037
-0.014877842
-0.014705915
-0.014578032
-0.014379723
-0.00036211543
-0.00055395266
-0.001203619
-0.0018575104
-0.0027166205
-0.0036943068
-0.0048163447
-0.0060500051
-0.0073796069
-0.0087616668
-0.010152206
-0.011489862
-0.012715155
-0.013764008
-0.01458822
-0.015148495
-0.015445068
-0.015478365
-0.015335817
-0.015023048
-0.014779482
-0.014482074
-0.00028153523
-0.00050347222
-0.0010790354
-0.0016923728
-0.0025065504
-0.0034460316
-0.0045416325
-0.0057610886
-0.0070962651
-0.0085072796
-0.0099544125
-0.011378326
-0.012718199
-0.013905438
-0.014879951
-0.015593428
-0.01601628
-0.0161571
-0.016028511
-0.015730226
-0.015274715
-0.014915902
-0.014519416
-0.00017051505
-0.00047099431
-0.00095314166
-0.0015334185
-0.002297478
-0.0031962863
-0.0042599077
-0.0054585471
-0.006790694
-0.0082201861
-0.0097129059
-0.01121254
-0.01265946
-0.013981933
-0.0151135
-0.015991488
-0.016575887
-0.016843453
-0.016816277
-0.016517094
-0.016059486
-0.015461087
-0.014987763
-0.01449394
-2.9534769e-05
-0.00045841319
-0.00082595827
-0.0013829967
-0.0020914276
-0.0029481103
-0.003974487
-0.0051459898
-0.0064673504
-0.0079050918
-0.0094319635
-0.010995597
-0.012539154
-0.013990548
-0.015278338
-0.01633124
-0.017092635
-0.017527438
-0.017624461
-0.01741729
-0.016941309
-0.016321924
-0.015581683
-0.014994891
-0.014411691
0.00013724261
-0.00046581713
-0.00069782124
-0.0012430182
-0.0018904634
-0.0027043627
-0.0036887086
-0.0048273505
-0.0061303854
-0.0075669243
-0.0091165685
-0.010731695
-0.0123598
-0.013930282
-0.01536971
-0.016599603
-0.017552547
-0.018174504
-0.018441476
-0.018352656
-0.01795621
-0.017298418
-0.016516472
-0.015636332
-0.014940589
-0.01427487
0.00032275425
-0.00049130242
-0.00056931107
-0.0011148065
-0.0016965905
-0.0024677537
-0.0034059208
-0.0045066544
-0.0057841723
-0.0072104162
-0.0087721042
-0.010425938
-0.012125347
-0.013802787
-0.015385086
-0.016789723
-0.017939775
-0.018768039
-0.019229587
-0.019310034
-0.019022692
-0.018428896
-0.017586777
-0.016643145
-0.015627332
-0.014829125
-0.014085814
0.00052055404
-0.00052899073
-0.00044109619
-0.00099918035
-0.00151149
-0.0022408272
-0.0031294608
-0.0041878764
-0.005433238
-0.0068405439
-0.0084038646
-0.010084021
-0.011840906
-0.013611508
-0.015324991
-0.016897223
-0.01824509
-0.019289272
-0.019969527
-0.020248712
-0.020126342
-0.019628968
-0.018832455
-0.01780521
-0.016703089
-0.015557461
-0.014663131
-0.0138477
0.00072312978
-0.00056288736
-0.0003162822
-0.00089632221
-0.0013361966
-0.0020261645
-0.0028624451
-0.0038750166
-0.0050821197
-0.0064625215
-0.008017384
-0.0097117294
-0.011512402
-0.01336135
-0.015192079
-0.016921184
-0.018461957
-0.019726356
-0.020639499
-0.021146807
-0.02122373
-0.020883194
-0.020167041
-0.019164381
-0.01795372
-0.016697957
-0.01542948
-0.014445864
-0.013563531
0.00091805258
-0.00058576221
-0.0002085161
-0.00080543617
-0.0011715969
-0.0018259368
-0.0026075477
-0.0035720049
-0.0047354623
-0.0060816111
-0.0076184665
-0.0093151546
-0.011146063
-0.013058278
-0.014990825
-0.016863177
-0.018587678
-0.020070303
-0.021224839
-0.021979474
-0.022290492
-0.022145822
-0.021574464
-0.020632824
-0.019423275
-0.018032804
-0.01662992
-0.015246513
-0.014180473
-0.013237399
0.0011021579
-0.00061873242
-0.00011239373
-0.00072310869
-0.0010197729
-0.0016415102
-0.0023671595
-0.0032825469
-0.0043978579
-0.0057032271
-0.0072130077
-0.0089007561
-0.010748502
-0.012708814
-0.014727059
-0.016726956
-0.018622412
-0.020316299
-0.021713833
-0.022729091
-0.023298785
-0.023390215
-0.023007104
-0.022194273
-0.021023314
-0.019608336
-0.018043737
-0.016501504
-0.01501173
-0.013870557
-0.012872781
0.0012943144
-0.00066429406
-1.5218736e-05
-0.00064234527
-0.00088541958
-0.0014742109
-0.0021433338
-0.0030097545
-0.0040736441
-0.0053328015
-0.006807114
-0.0084751742
-0.010326769
-0.012320013
-0.014407477
-0.016517946
-0.018568898
-0.020462743
-0.022099231
-0.023380995
-0.024227961
-0.024585689
-0.024436363
-0.023799784
-0.022737807
-0.021336152
-0.019719661
-0.017988286
-0.01631561
-0.014728604
-0.013519675
-0.012473703
0.0014870689
-0.00071507434
7.6057927e-05
-0.00057450614
-0.00076116884
-0.0013238799
-0.0019386481
-0.0027560556
-0.003766631
-0.0049755415
-0.0064069906
-0.0080453451
-0.0098881763
-0.011899478
-0.014039473
-0.016242797
-0.0184319
-0.020511006
-0.022377311
-0.023925196
-0.025060237
-0.025708576
-0.025828948
-0.025419173
-0.02451706
-0.0232009
-0.021569972
-0.019757988
-0.017868759
-0.016075444
-0.014400714
-0.01313166
-0.012043825
0.0016719123
-0.00076574568
0.00016633079
-0.00053181386
-0.00063746769
-0.0011752303
-0.0017555235
-0.0025242149
-0.0034800022
-0.004636047
-0.0060186951
-0.0076183812
-0.0094404133
-0.011455229
-0.013631109
-0.015909083
-0.018217766
-0.02046488
-0.022547718
-0.024355504
-0.025782623
-0.026737885
-0.027158278
-0.027016884
-0.026329759
-0.025152739
-0.023580432
-0.021724187
-0.019724768
-0.017687914
-0.015784467
-0.014031805
-0.012710242
-0.011586912
0.001842397
-0.00081636005
0.00025652382
-0.00048735176
-0.00053024501
-0.0010184883
-0.0015780798
-0.0023158016
-0.0032173954
-0.0043181481
-0.005647735
-0.0072013089
-0.0089914603
-0.010995775
-0.013191006
-0.01552521
-0.017934071
-0.020330112
-0.02261292
-0.024669454
-0.026386131
-0.027657415
-0.028400138
-0.028563614
-0.028138497
-0.027159715
-0.025701689
-0.023874174
-0.021799087
-0.019622053
-0.017448903
-0.015446364
-0.01362567
-0.012259212
-0.011106529
0.0019931912
-0.00086545932
0.00034090308
-0.00043967911
-0.00043057104
-0.0008997778
-0.0013983422
-0.0021099836
-0.0029812752
-0.0040261073
-0.0052988431
-0.0068005958
-0.0085493438
-0.010530049
-0.012728403
-0.015100341
-0.017589413
-0.020114003
-0.022577744
-0.024867808
-0.026865812
-0.028455088
-0.029534986
-0.030032009
-0.029911545
-0.029183073
-0.027901675
-0.026159705
-0.024080923
-0.021795728
-0.019452466
-0.01715522
-0.015064956
-0.013186135
-0.011782233
-0.010606127
0.0021195309
-0.00091037707
0.00041580568
-0.00039655933
-0.00033390798
-0.00080318793
-0.0012557888
-0.0019031491
-0.002748521
-0.0037627206
-0.0049772743
-0.0064218765
-0.0081216256
-0.010067137
-0.012253104
-0.014644431
-0.017193357
-0.01982515
-0.02244893
-0.024954101
-0.027220321
-0.029123104
-0.030547407
-0.031399128
-0.031618591
-0.031189046
-0.030140846
-0.028549174
-0.02652374
-0.024200402
-0.021715922
-0.019219125
-0.01681062
-0.014644168
-0.012716987
-0.011282878
-0.010088991
0.0022174895
-0.00094879809
0.00048013865
-0.00036136573
-0.00024353626
-0.00070420463
-0.0011258911
-0.0017447187
-0.0025180792
-0.0035012624
-0.0046867698
-0.0060713581
-0.0077150529
-0.0096157376
-0.011775247
-0.014168169
-0.01675643
-0.019473352
-0.022234828
-0.024934172
-0.027451507
-0.029657614
-0.031426426
-0.03264605
-0.033233337
-0.033144649
-0.032383855
-0.03100287
-0.029096979
-0.026791822
-0.024233281
-0.021562159
-0.018925568
-0.016419066
-0.014187953
-0.012221941
-0.010764568
-0.0095582105
0.0022841169
-0.00097892213
0.00053291676
-0.00033303738
-0.0001654486
-0.00061006503
-0.00099637185
-0.001596131
-0.0023386223
-0.0032437707
-0.0043973135
-0.0057536963
-0.0073370441
-0.0091837245
-0.011304736
-0.013682765
-0.016290102
-0.019069598
-0.021945247
-0.024815819
-0.027563939
-0.030058358
-0.032165293
-0.033758346
-0.034733269
-0.035020373
-0.034595445
-0.03348439
-0.0317614
-0.029541035
-0.026963102
-0.024181105
-0.021337535
-0.018575681
-0.015984645
-0.013700252
-0.011704602
-0.010230553
-0.0090166938
0.0023177939
-0.0009997622
0.00057317168
-0.00031071363
-0.00010001926
-0.00052874895
-0.000873431
-0.001445348
-0.0021612927
-0.0030450318
-0.0041124715
-0.0054352783
-0.0069935541
-0.0087797297
-0.010850724
-0.013199354
-0.015806582
-0.01862604
-0.021591428
-0.024608595
-0.027564515
-0.030328223
-0.03276122
-0.034725998
-0.036100282
-0.036790114
-0.036743146
-0.03595668
-0.034480189
-0.032409941
-0.029878581
-0.02703781
-0.024046237
-0.021045673
-0.01817361
-0.015511521
-0.01318494
-0.011168424
-0.0096839017
-0.0084671321
-0.0010102938
0.002317794
0.00059954713
-0.00029403818
-4.7172552e-05
-0.0004606373
-0.000767488
-0.0013026974
-0.0019837803
-0.0028417647
-0.0038900672
-0.0051216144
-0.006647562
-0.0084110686
-0.010423285
-0.012728414
-0.015318238
-0.018155816
-0.021186015
-0.02432376
-0.027462218
-0.030472817
-0.033214973
-0.035543272
-0.037320785
-0.038431968
-0.038797385
-0.038384684
-0.037215028
-0.035361969
-0.032943413
-0.030108107
-0.027017214
-0.023831776
-0.020690627
-0.017723697
-0.015003863
-0.01264579
-0.010616703
-0.0091274779
-0.007912022
0.00061202317
-0.0010102939
0.0022841172
-0.00028365965
-7.1053556e-06
-0.00040580874
-0.00067935243
-0.0011802348
-0.0018156387
-0.0026373946
-0.0036540434
-0.0048747124
-0.0063057153
-0.0080372478
-0.010031449
-0.012281503
-0.014836937
-0.017672478
-0.02074292
-0.023974244
-0.027268019
-0.030500188
-0.033530455
-0.036208368
-0.038385694
-0.039928509
-0.04073242
-0.040735585
-0.039928736
-0.03835821
-0.036121941
-0.033358136
-0.030229377
-0.026903554
-0.023541462
-0.020276804
-0.017230396
-0.0144658
-0.012086435
-0.01005254
-0.0085639477
-0.0073536434
-0.00027908193
0.00061202321
-0.0009997624
0.00221749
1.8832703e-05
-0.00036471601
-0.00060867457
-0.0010783612
-0.0016713696
-0.0024438517
-0.0034180831
-0.0046037532
-0.006027704
-0.0076666357
-0.0096310998
-0.011869472
-0.014375852
-0.017189274
-0.02027677
-0.02357454
-0.026994848
-0.030420681
-0.03371437
-0.036723033
-0.039290203
-0.041266955
-0.042526818
-0.042979886
-0.042585606
-0.04135991
-0.039375383
-0.036753837
-0.033651903
-0.030243359
-0.026699947
-0.02317958
-0.019808865
-0.016698207
-0.013901368
-0.011510347
-0.0094788451
-0.0079957611
-0.0067940798
3.0888098e-05
-0.00027908197
0.00059954712
-0.00097892253
0.0021195315
-0.00033913445
-0.00055561842
-0.00099669999
-0.0015515369
-0.002277806
-0.0031946524
-0.0043339901
-0.0057123106
-0.0073568016
-0.0092318118
-0.011444515
-0.013947936
-0.016721003
-0.019802154
-0.023140187
-0.0266575
-0.030246887
-0.033776038
-0.037092188
-0.040033444
-0.042439068
-0.044163808
-0.045092072
-0.045152578
-0.044328904
-0.042664074
-0.040257281
-0.037253008
-0.033823951
-0.030152165
-0.026410294
-0.022750857
-0.019291643
-0.016131613
-0.013314477
-0.010920808
-0.0088983135
-0.0074251638
-0.0062352112
-0.00032853576
3.0888064e-05
-0.00028365967
0.00057317173
-0.00094879861
0.0019931919
-0.00052202079
-0.00093547202
-0.00145564
-0.0021398833
-0.0030030689
-0.0040785078
-0.005404339
-0.0069939568
-0.0088902334
-0.0110182
-0.013501826
-0.016282859
-0.019335525
-0.022687005
-0.026272187
-0.029993579
-0.033727315
-0.037323693
-0.040618086
-0.043440905
-0.045631331
-0.047051163
-0.047600102
-0.047228892
-0.04594799
-0.043828624
-0.040996372
-0.037616457
-0.033874927
-0.029958951
-0.026039156
-0.022260356
-0.018730059
-0.015535032
-0.012708877
-0.010320898
-0.0083134291
-0.0068541948
-0.0056787315
-0.0005072466
-0.0003285357
1.8832753e-05
-0.0002940383
0.00053291677
-0.00091037775
0.0018423979
-0.0008967628
-0.001383855
-0.002029563
-0.0028440777
-0.00385933
-0.0051129906
-0.0066439415
-0.0084759529
-0.010643386
-0.013050957
-0.015819909
-0.018894525
-0.022233025
-0.025855775
-0.029677325
-0.033582544
-0.037428219
-0.041050056
-0.044272403
-0.046921932
-0.04884095
-0.049902865
-0.05002645
-0.049187969
-0.047426656
-0.044842741
-0.041586922
-0.037842855
-0.033806804
-0.029667806
-0.025591648
-0.021713377
-0.018129063
-0.014912764
-0.012088122
-0.0097134649
-0.0077264686
-0.0062847172
-0.0051261352
-0.00087981149
-0.00050724648
-0.00033913447
-7.1054047e-06
-0.00031071372
0.00048013873
-0.00086546006
0.0016719133
-0.0013384652
-0.0019470616
-0.0027170545
-0.0036774627
-0.0048627084
-0.0063130481
-0.0080771945
-0.010171743
-0.012641228
-0.015348009
-0.018420782
-0.021798434
-0.025427759
-0.02931577
-0.033358245
-0.037419217
-0.04133835
-0.044937067
-0.048032326
-0.050450057
-0.052040249
-0.052691929
-0.052347001
-0.051009978
-0.048750458
-0.045697485
-0.042025083
-0.037932484
-0.033622787
-0.029283616
-0.025073313
-0.021115382
-0.017493557
-0.01426893
-0.011455525
-0.0091011714
-0.0071395547
-0.0057183752
-0.0045787485
-0.0013185464
-0.00087981149
-0.00052202075
-0.00036471594
-4.7172512e-05
-0.00033303753
0.00041580574
-0.00081636087
0.00148707
-0.0018948891
-0.0026221897
-0.0035322525
-0.0046550428
-0.006028469
-0.0077008923
-0.0097192987
-0.012105748
-0.014902178
-0.017932762
-0.021321444
-0.025010967
-0.028929643
-0.033072477
-0.037312675
-0.041494987
-0.045441684
-0.048963104
-0.05187151
-0.053996604
-0.055200138
-0.05539122
-0.054538326
-0.052676571
-0.049906859
-0.046385957
-0.042308886
-0.037887165
-0.033327171
-0.028811957
-0.024490039
-0.020471889
-0.0168283
-0.013607418
-0.010814244
-0.0084865547
-0.0065545427
-0.0051565012
-0.0040378056
-0.0018719564
-0.0013185464
-0.00089676253
-0.00055561817
-0.00040580874
-0.00010001927
-0.00036136578
0.00034090328
-0.00076574645
0.0012943155
-0.0025621722
-0.0034239073
-0.0044893495
-0.0057922725
-0.0073772892
-0.0092930448
-0.011593183
-0.014296455
-0.017449842
-0.020823678
-0.024540286
-0.028544401
-0.032746886
-0.037126599
-0.041534847
-0.04579626
-0.049718295
-0.053102501
-0.055760816
-0.057530865
-0.058290825
-0.057973855
-0.056578171
-0.054171282
-0.05088543
-0.046903364
-0.042438208
-0.037710137
-0.032925232
-0.028258967
-0.023847918
-0.019788336
-0.016137838
-0.012932011
-0.010167368
-0.0078717877
-0.0059727629
-0.0046003842
-0.0035044239
-0.0025357066
-0.0018719561
-0.0013384649
-0.00093547176
-0.00060867439
-0.00046063719
-0.00016544848
-0.00039655938
0.00025652408
-0.00071507508
0.0011021591
-0.0033553142
-0.0043658438
-0.0056038903
-0.0071087397
-0.0089262498
-0.011111245
-0.013717893
-0.016767086
-0.020303442
-0.024040893
-0.028091597
-0.032409485
-0.036883114
-0.04147531
-0.046013918
-0.050305259
-0.054143739
-0.05732624
-0.059668439
-0.061020825
-0.061282234
-0.060413765
-0.058445894
-0.055479775
-0.051677991
-0.047247027
-0.042414672
-0.037405951
-0.032423104
-0.027631203
-0.023153058
-0.019069991
-0.015426699
-0.012246505
-0.0095174629
-0.0072581304
-0.0053956771
-0.0040521787
-0.0029790152
-0.0033249633
-0.0025357063
-0.0018948888
-0.0013838547
-0.00099669945
-0.00067935197
-0.00052874887
-0.00024353613
-0.00043967899
0.00016633124
-0.00066429464
0.00091805394
-0.004287585
-0.0054635833
-0.0068946709
-0.0086217804
-0.010696289
-0.013174862
-0.016115786
-0.019537245
-0.023483729
-0.027600574
-0.031988477
-0.036612592
-0.041338394
-0.046110717
-0.050734646
-0.054999286
-0.058689696
-0.061602008
-0.063560629
-0.064433564
-0.064144644
-0.062686108
-0.060122932
-0.056590004
-0.052278712
-0.047416341
-0.042241577
-0.036980359
-0.031827589
-0.026935361
-0.022411477
-0.018322245
-0.014699549
-0.011553947
-0.0088657105
-0.0066474231
-0.0048270002
-0.003513114
-0.0024360001
-0.0042528218
-0.0033249633
-0.0025621719
-0.0019470609
-0.0014556394
-0.0010783606
-0.00076748754
-0.00061006475
-0.00033390761
-0.00048735157
7.6058538e-05
-0.00061873274
0.00072313143
-0.0053745875
-0.0067353742
-0.0083791631
-0.010351736
-0.012706886
-0.015505544
-0.018806818
-0.022627901
-0.027007815
-0.031517965
-0.036239783
-0.041156505
-0.046107859
-0.051020413
-0.055676548
-0.059851289
-0.06332397
-0.065894869
-0.067402181
-0.067735976
-0.06684917
-0.064767877
-0.06159301
-0.057492407
-0.0526841
-0.047412736
-0.041923806
-0.03644009
-0.031145814
-0.026178189
-0.021629525
-0.017550806
-0.013960011
-0.010855376
-0.0082144759
-0.0060462077
-0.0042684823
-0.0029493894
-0.0018683276
-0.0053348953
-0.0042528218
-0.0033553135
-0.0026221889
-0.0020295623
-0.0015515362
-0.0011802338
-0.00087343017
-0.00070420429
-0.00043057056
-0.00053181337
-1.521777e-05
-0.00058576205
0.00052055611
-0.0066342353
-0.0081987489
-0.010077242
-0.012318075
-0.014979169
-0.018123389
-0.021811717
-0.026056837
-0.030891804
-0.035804291
-0.040850728
-0.046039315
-0.051182082
-0.056186503
-0.060814373
-0.064829785
-0.068011103
-0.070167722
-0.071157119
-0.070895391
-0.069368316
-0.066638308
-0.062842364
-0.058179989
-0.052893056
-0.047239635
-0.04146757
-0.035792423
-0.030385142
-0.025367049
-0.020814096
-0.016759948
-0.013208886
-0.010153896
-0.0075737888
-0.005456729
-0.0036715609
-0.0023638631
-0.0012893305
-0.0065889474
-0.0053348949
-0.0042875843
-0.0034239066
-0.0027170537
-0.0021398821
-0.0016713685
-0.0013026964
-0.0009963709
-0.00080318727
-0.00053024414
-0.0005745053
-0.00011239241
-0.00056288684
0.00032275687
-0.008084081
-0.0098732565
-0.01200832
-0.01454151
-0.017533222
-0.021048749
-0.025148427
-0.029840891
-0.035148194
-0.040466903
-0.045822174
-0.051254569
-0.056545981
-0.061585989
-0.066117971
-0.069899411
-0.072712729
-0.074382057
-0.07478915
-0.073880081
-0.071676652
-0.068279092
-0.063859919
-0.058648426
-0.052906869
-0.046902172
-0.040879901
-0.035045133
-0.029553954
-0.024510155
-0.01997017
-0.015950098
-0.012450153
-0.009464148
-0.0069464544
-0.0048021845
-0.0030617158
-0.001762781
-0.00070051734
-0.0080325408
-0.0065889473
-0.0053745871
-0.0043658431
-0.0035322512
-0.0028440762
-0.0022778046
-0.0018156375
-0.0014453464
-0.0011258896
-0.00089977691
-0.00063746649
-0.00064234378
-0.00020851405
-0.00052898984
0.00013724588
-0.0097434703
-0.01177823
-0.014192778
-0.017042033
-0.02038912
-0.024299789
-0.028834002
-0.033993089
-0.039784911
-0.045509368
-0.05115047
-0.056790057
-0.062179115
-0.067190615
-0.071552717
-0.075021249
-0.077388293
-0.078498464
-0.078262421
-0.076659847
-0.073751125
-0.069674629
-0.064637501
-0.058896179
-0.052728932
-0.046406588
-0.040168642
-0.034207533
-0.028661868
-0.023613199
-0.019097679
-0.015126289
-0.011704328
-0.0087895252
-0.0062201148
-0.0041442302
-0.002430274
-0.0011510543
-0.00010177815
-0.0096849239
-0.0080325409
-0.0066342344
-0.0054635821
-0.0044893479
-0.0036774612
-0.0030030673
-0.0024438498
-0.0019837785
-0.0015961292
-0.001255787
-0.0010184867
-0.00076116702
-0.00072310661
-0.00031627939
-0.00049130115
-2.9530839e-05
-0.011631675
-0.013933806
-0.016650477
-0.019839468
-0.023565266
-0.027893947
-0.032882094
-0.038523173
-0.044806675
-0.050930813
-0.056826096
-0.062628016
-0.068055556
-0.072967153
-0.07707978
-0.080153531
-0.081995711
-0.082477595
-0.081542172
-0.079206753
-0.075571325
-0.070812345
-0.065170038
-0.058924157
-0.052364028
-0.045760321
-0.039343861
-0.033290675
-0.027715243
-0.022675444
-0.018203009
-0.014316445
-0.010975317
-0.0079702218
-0.0055031701
-0.0034573233
-0.0017876491
-0.0005273354
0.00050607715
-0.011565348
-0.0096849234
-0.00808408
-0.0067353731
-0.0056038891
-0.0046550413
-0.0038593277
-0.0031946499
-0.0026373924
-0.0021612906
-0.0017447161
-0.0013983396
-0.001175228
-0.00088541717
-0.00080543336
-0.00044109269
-0.00046581551
-0.0001705106
-0.013768669
-0.016359721
-0.019401031
-0.022952297
-0.027079099
-0.031845659
-0.03730445
-0.04343829
-0.050214134
-0.056724375
-0.06283379
-0.06874511
-0.074144033
-0.078877543
-0.082656854
-0.085252145
-0.086492242
-0.086280622
-0.084595728
-0.081495411
-0.077119842
-0.071683015
-0.06545522
-0.058734918
-0.051818561
-0.044973879
-0.038417986
-0.032301444
-0.02671237
-0.021704937
-0.017322813
-0.01352501
-0.010044896
-0.0071747446
-0.0047469578
-0.002759329
-0.0011314038
0.00010655642
0.0011226542
-0.013693714
-0.011565347
-0.0097434696
-0.0081987478
-0.0068946689
-0.0057922703
-0.0048627059
-0.0040785053
-0.0034180804
-0.0028417617
-0.0023386193
-0.001903146
-0.0015780768
-0.0013238768
-0.0010197696
-0.00089631878
-0.00056930713
-0.00045841143
-0.00028153049
-0.016174101
-0.019075414
-0.022462886
-0.026397893
-0.030945564
-0.036167228
-0.042109691
-0.048741192
-0.056001963
-0.062877389
-0.069152724
-0.075112497
-0.080407813
-0.084879742
-0.088238527
-0.090271354
-0.090835363
-0.089869678
-0.087392832
-0.08350342
-0.078382802
-0.072280405
-0.065492537
-0.058333064
-0.051103036
-0.044060907
-0.037398142
-0.031236706
-0.025663317
-0.020748714
-0.016462371
-0.012461245
-0.0091550848
-0.006327242
-0.003980908
-0.0020467363
-0.00046432665
0.00075035082
0.0017472895
-0.016089626
-0.013693713
-0.011631675
-0.009873255
-0.0083791609
-0.0071087374
-0.0060284667
-0.005112988
-0.0043339865
-0.0036540396
-0.0030450281
-0.0025180756
-0.0021099796
-0.0017555195
-0.0014742071
-0.001171593
-0.00099917635
-0.00069781696
-0.00047099252
-0.00036211072
-0.018867286
-0.022099268
-0.025853324
-0.030191441
-0.035177362
-0.040867997
-0.047301759
-0.054429329
-0.062159334
-0.069371804
-0.075756605
-0.08169516
-0.086805876
-0.090927902
-0.093776867
-0.095164945
-0.094983161
-0.093209581
-0.089905978
-0.08521194
-0.079349498
-0.072600114
-0.065283937
-0.057728542
-0.050232031
-0.043028298
-0.036279099
-0.030108912
-0.024627502
-0.01981321
-0.015242432
-0.01145716
-0.0081973791
-0.0054716597
-0.0031991542
-0.0013230792
0.00021353731
0.0014029261
0.0023793964
-0.018772352
-0.016089626
-0.013768668
-0.011778228
-0.01007724
-0.008621778
-0.0073772859
-0.0063130446
-0.0054043352
-0.0046037491
-0.0038900628
-0.0032437658
-0.0027485164
-0.0023157968
-0.0019386434
-0.0016415056
-0.0013361921
-0.0011148022
-0.00082595396
-0.00050347064
-0.00041523768
-0.021866544
-0.025448455
-0.029587631
-0.034345917
-0.039784346
-0.045953215
-0.052880372
-0.060494813
-0.068670496
-0.076184482
-0.082611897
-0.08845377
-0.093292923
-0.096972598
-0.099222611
-0.099887235
-0.09889475
-0.096267879
-0.092110863
-0.086605433
-0.080010928
-0.072640536
-0.064838142
-0.056936438
-0.049211509
-0.041867772
-0.035076066
-0.028992339
-0.023612901
-0.018411228
-0.014103488
-0.010366096
-0.0072341311
-0.0046005319
-0.0024059789
-0.00058837838
0.00090067145
0.0020634781
0.0030183338
-0.02176019
-0.018772352
-0.0161741
-0.013933804
-0.012008319
-0.010351733
-0.0089262461
-0.0077008884
-0.0066439376
-0.0057123064
-0.004874707
-0.0041124657
-0.0035012568
-0.0029812698
-0.002524209
-0.0021433282
-0.0018259318
-0.0015114852
-0.0012430138
-0.00095313748
-0.00055395133
-0.00044665427
-0.025188972
-0.029138278
-0.033678893
-0.038871511
-0.044772679
-0.051424173
-0.058840046
-0.066924951
-0.075515731
-0.083283546
-0.089681095
-0.095344722
-0.099818793
-0.10296222
-0.1045264
-0.10439318
-0.1025326
-0.099014747
-0.093986631
-0.087669669
-0.080361069
-0.072408478
-0.064170251
-0.055960828
-0.048028815
-0.040597663
-0.033881234
-0.027896951
-0.022000665
-0.017114327
-0.012854623
-0.0092732111
-0.0062557525
-0.0037183784
-0.001602043
0.0001556274
0.0015961074
0.0027309636
0.0036635428
-0.025070195
-0.02176019
-0.018867285
-0.01635972
-0.014192775
-0.012318071
-0.010696285
-0.0092930407
-0.0080771892
-0.0069939513
-0.0060276981
-0.005121608
-0.004397307
-0.0037627138
-0.0032173888
-0.0027560491
-0.0023671536
-0.0020261592
-0.0016965856
-0.0013829925
-0.0010790316
-0.00061902191
-0.00046361854
-0.028849844
-0.03318184
-0.038137467
-0.043774938
-0.050144721
-0.057277367
-0.065170415
-0.073706447
-0.082664248
-0.090634341
-0.096923094
-0.10231812
-0.10633005
-0.10884447
-0.1096393
-0.10863915
-0.10586482
-0.10142499
-0.095513648
-0.088393358
-0.08040416
-0.07191856
-0.063281175
-0.054782884
-0.046705764
-0.03933183
-0.032707054
-0.026043387
-0.020520643
-0.01568005
-0.011608949
-0.0081660965
-0.0052670992
-0.0028258081
-0.00078882256
0.00090776502
0.0022984792
0.0034049683
0.0043142088
-0.028717628
-0.025070195
-0.021866544
-0.019075412
-0.016650474
-0.014541507
-0.012706882
-0.01111124
-0.009719293
-0.0084759467
-0.0073567954
-0.0063057084
-0.0054352705
-0.0046867619
-0.0040260997
-0.0034799951
-0.0030097473
-0.0026075414
-0.002240822
-0.0018904588
-0.0015334146
-0.0012036157
-0.00069437871
-0.00047338903
-0.032862247
-0.037589548
-0.042970388
-0.049059237
-0.055898347
-0.063504599
-0.071859403
-0.080814293
-0.090083427
-0.098199936
-0.10428898
-0.10931915
-0.11277248
-0.11456682
-0.11451368
-0.11258519
-0.1088595
-0.10347453
-0.096675031
-0.088777646
-0.080153904
-0.071167027
-0.06214354
-0.053428255
-0.045382423
-0.038085764
-0.030578344
-0.024352983
-0.018870388
-0.014255603
-0.010350374
-0.0070499604
-0.0042686546
-0.0019244074
3.1867384e-05
0.0016663888
0.0030078047
0.0040842641
0.0049696168
-0.032715569
-0.028717628
-0.025188971
-0.022099266
-0.019401028
-0.017042029
-0.014979164
-0.013174857
-0.011593177
-0.010171737
-0.0088902253
-0.0076666275
-0.0066475535
-0.0057536876
-0.0049772656
-0.0043181397
-0.0037666231
-0.0032825396
-0.002862439
-0.0024677487
-0.0020914233
-0.0016923694
-0.0013270781
-0.00077559369
-0.00048187451
-0.037236594
-0.042368586
-0.048181063
-0.054723179
-0.062027001
-0.070094528
-0.078886207
-0.088213178
-0.09774153
-0.1059343
-0.11172157
-0.11629311
-0.11909075
-0.12007743
-0.1191039
-0.11619696
-0.1114842
-0.10513931
-0.097468835
-0.088835302
-0.079600234
-0.07011482
-0.06078725
-0.052068744
-0.044077909
-0.035645573
-0.028648239
-0.022452897
-0.017238563
-0.012820102
-0.0090845364
-0.0059250617
-0.0032621025
-0.0010164214
0.00085853812
0.0024323966
0.0037217904
0.0047680742
0.0056290451
-0.037074433
-0.032715569
-0.028849843
-0.025448454
-0.022462885
-0.019839464
-0.017533217
-0.015505538
-0.013717887
-0.01210574
-0.010643377
-0.0092318022
-0.0080372387
-0.0069935448
-0.0060713482
-0.0052988335
-0.0046360382
-0.0040736363
-0.0035719976
-0.003129455
-0.0027043583
-0.0022974743
-0.0018575075
-0.0014496385
-0.00085877882
-0.00049242058
-0.041980117
-0.047522555
-0.05376882
-0.06076126
-0.068520036
-0.077029576
-0.086218102
-0.095878174
-0.1055999
-0.11377658
-0.11916689
-0.12318308
-0.12522947
-0.12532699
-0.12336979
-0.11943994
-0.11370892
-0.10641241
-0.097907447
-0.08854846
-0.078688771
-0.0687961
-0.059422953
-0.050727612
-0.041287882
-0.033444793
-0.026461001
-0.020582206
-0.015598054
-0.011379688
-0.007811362
-0.0047931085
-0.0022500746
-0.00010348006
0.0016934805
0.0032024886
0.0044395404
0.0054552446
0.0062917988
-0.04180147
-0.037074433
-0.032862247
-0.029138277
-0.025853321
-0.022952293
-0.020389115
-0.018123383
-0.016115778
-0.014296446
-0.012641219
-0.01101819
-0.0096310885
-0.0084110579
-0.0073370334
-0.0064218661
-0.0056477253
-0.0049755326
-0.00439785
-0.0038750097
-0.0034059156
-0.0029481064
-0.0025065471
-0.0020262229
-0.0015713543
-0.00094058574
-0.00050698129
-0.047096497
-0.053051065
-0.059728752
-0.067163618
-0.075361137
-0.084286172