/*--------------------------------*- C++ -*----------------------------------*\
| =========                 |                                                 |
| \\      /  F ield         | OpenFOAM: The Open Source CFD Toolbox           |
|  \\    /   O peration     | Version:  5.0                                   |
|   \\  /    A nd           | Web:      www.OpenFOAM.org                      |
|    \\/     M anipulation  |                                                 |
\*---------------------------------------------------------------------------*/
FoamFile
{
    version     2.0;
    format      ascii;
    class       surfaceScalarField;
    location    "195";
    object      phi;
}
// * * * * * * * * * * * * * * * * * * * * * * * * * * * * * * * * * * * * * //

dimensions      [0 3 -1 0 0 0 0];

internalField   nonuniform List<scalar> 
18180
(
0.0015107108
-1.3932187
0.0029196294
-1.3032567
0.0014609999
-1.3946797
0.0042293502
-1.2193773
0.0028171622
-1.3046129
0.0014093169
-1.396089
0.0054490957
-1.1410523
0.0040835239
-1.2206436
0.0027214824
-1.305925
0.0013622293
-1.3974513
0.006579278
-1.0679033
0.0052634552
-1.1422322
0.0039481488
-1.2218703
0.0026319768
-1.3071948
0.0013145806
-1.3987658
0.007625006
-0.99951949
0.0063598238
-1.0689997
0.0050923959
-1.1433765
0.0038225114
-1.2230608
0.0025432975
-1.3084235
0.0012669689
-1.4000328
0.0085876694
-0.93555825
0.0073756303
-1.0005353
0.0061584683
-1.0700658
0.0049372674
-1.1444912
0.0036985992
-1.2242161
0.0024544483
-1.309611
0.0012174264
-1.4012502
0.0094706523
-0.8757012
0.0083129328
-0.93649555
0.0071484286
-1.0015253
0.0059802883
-1.0711088
0.004784783
-1.1455774
0.0035753182
-1.225337
0.0023624294
-1.310756
0.0011655171
-1.4024158
0.010276758
-0.81966526
0.0091741747
-0.87656244
0.0080645006
-0.93741162
0.0069535293
-1.0024985
0.0058059141
-1.0721299
0.0046349151
-1.146637
0.0034479215
-1.2264225
0.0022657972
-1.3118562
0.0011105621
-1.4035263
0.011009625
-0.76718928
0.009961842
-0.82045292
0.0089085761
-0.87740651
0.007858735
-0.93831683
0.0067637231
-1.0034563
0.0056372313
-1.0731323
0.004480198
-1.1476693
0.0033141909
-1.2274709
0.0021632793
-1.312909
0.0010517762
-1.4045781
0.011673388
-0.71803936
0.010678759
-0.7679062
0.0096828793
-0.82122723
0.0086973025
-0.87824508
0.0076594984
-0.9392126
0.0065839596
-1.004403
0.0054632409
-1.0741153
0.0043181782
-1.1486733
0.0031715066
-1.2284791
0.0020534355
-1.3139106
0.00098896218
-1.4055671
0.012273231
-0.67199643
0.011328068
-0.71868867
0.010389901
-0.76861322
0.0094708172
-0.82200074
0.0084940558
-0.87907964
0.0074759117
-0.94010455
0.0063986157
-1.0053384
0.0052819118
-1.075079
0.004144923
-1.1496467
0.0030182951
-1.229444
0.0019357392
-1.3148574
0.00092200161
-1.4064891
0.012815993
-0.62885685
0.01191352
-0.67258188
0.011032608
-0.71933138
0.01018109
-0.76932349
0.0092683099
-0.82277499
0.0083132521
-0.87991698
0.0072866937
-0.94099263
0.0062068808
-1.0062634
0.0050873376
-1.0760214
0.0039582293
-1.1505866
0.002853966
-1.2303622
0.0018098384
-1.3157452
0.00085102649
-1.4073401
0.013311134
-0.58842282
0.012440105
-0.62938344
0.011614676
-0.67316395
0.010830347
-0.71998063
0.0099833685
-0.77003855
0.0090961344
-0.82355788
0.0081267614
-0.88075705
0.0070928568
-0.94187861
0.0060000981
-1.0071761
0.0048767105
-1.0769399
0.0037566542
-1.1514893
0.002677336
-1.2312297
0.0016759362
-1.3165701
0.00077632198
-1.4081164
0.013771638
-0.55049194
0.012915395
-0.58889812
0.012140978
-0.62990974
0.011421399
-0.673755
0.010640792
-0.72063806
0.0098248493
-0.77076727
0.0089182044
-0.82434932
0.0079387794
-0.88160297
0.006882514
-0.94276102
0.0057755934
-1.008075
0.0046482412
-1.0778315
0.0035388178
-1.1523508
0.0024887194
-1.2320425
0.0015344916
-1.3173283
0.00069832363
-1.4088147
0.014214586
-0.5148476
0.01335154
-0.55092809
0.012618599
-0.58937574
0.011958065
-0.6304464
0.01124274
-0.67435695
0.010500087
-0.7213133
0.0096604243
-0.77150948
0.008743132
-0.82515367
0.0077329551
-0.88245341
0.00665382
-0.94363925
0.0055302469
-1.008957
0.0043994951
-1.0786922
0.00330537
-1.1531675
0.0022885662
-1.2327966
0.0013862896
-1.3180163
0.00061758281
-1.4094323
0.014659215
-0.48125118
0.013766917
-0.51526298
0.013058301
-0.55136779
0.012446131
-0.5898638
0.011792366
-0.63099603
0.011123055
-0.67497992
0.010353201
-0.72200607
0.0095043466
-0.7722707
0.0085490074
-0.82596972
0.0075090138
-0.88330861
0.0064012827
-0.94451029
0.0052610804
-1.0098186
0.0041312045
-1.079518
0.0030558675
-1.1539348
0.0020779612
-1.2334882
0.0012323351
-1.318631
0.00053474863
-1.4099671
0.015123606
-0.44944133
0.014185934
-0.48167019
0.013475763
-0.51568044
0.012894951
-0.55181661
0.012294636
-0.59036607
0.011695819
-0.63156879
0.010996864
-0.67562358
0.010221183
-0.72272291
0.0093281468
-0.77304984
0.0083379774
-0.82679869
0.0072585377
-0.88416586
0.0061221003
-0.94537131
0.0049684708
-1.0106559
0.0038422541
-1.0803044
0.0027921323
-1.1546489
0.0018582058
-1.2341141
0.0010738422
-1.3191701
0.00045053519
-1.4104176
0.015620019
-0.41915403
0.01463646
-0.44989185
0.013891392
-0.48208582
0.01331914
-0.51610463
0.012757725
-0.5522797
0.012222023
-0.59089228
0.011592617
-0.63216455
0.010892909
-0.6762953
0.010068116
-0.72346288
0.0091372411
-0.7738491
0.0080980439
-0.82763819
0.0069792741
-0.88502303
0.0058154831
-0.94621832
0.0046505576
-1.0114642
0.0035349603
-1.0810472
0.0025151846
-1.1553059
0.0016310059
-1.2346713
0.00091214965
-1.3196317
0.00036568704
-1.4107833
0.016149909
-0.3901505
0.015143599
-0.41966117
0.014328364
-0.45032882
0.013739078
-0.48250576
0.013194597
-0.5165415
0.012708259
-0.55276593
0.012143197
-0.59144286
0.011519599
-0.63279124
0.010767166
-0.67699435
0.00990348
-0.72422912
0.0089154202
-0.77466648
0.0078279423
-0.82848686
0.0066687332
-0.88587628
0.0054792714
-0.94704703
0.0043099431
-1.0122392
0.0032097414
-1.0817418
0.0022274192
-1.1559023
0.0013982195
-1.2351573
0.00074868013
-1.3200147
0.00028095368
-1.4110642
0.01670123
-0.36224815
0.015722118
-0.39072902
0.01480741
-0.42014022
0.014179565
-0.45076931
0.013623673
-0.48293484
0.013165831
-0.51699907
0.012654093
-0.55327683
0.012102701
-0.59202596
0.011424353
-0.63344842
0.01063384
-0.67772471
0.0097063199
-0.72502002
0.0086628764
-0.77550141
0.0075230169
-0.82934115
0.0063246996
-0.88672171
0.0051156466
-0.94785273
0.0039463625
-1.0129758
0.0028699087
-1.0823843
0.0019308668
-1.156435
0.0011619173
-1.2355706
0.00058489868
-1.3203187
0.00019709394
-1.4112613
0.017249007
-0.33534416
0.016370181
-0.36289621
0.01534046
-0.39126207
0.014664732
-0.42062538
0.014067962
-0.4512136
0.013611905
-0.48338091
0.013135226
-0.51748021
0.012646181
-0.55382031
0.012040056
-0.59264166
0.011326205
-0.63414079
0.010466816
-0.67848521
0.0094787437
-0.72583588
0.0083723678
-0.77635076
0.0071811985
-0.83019764
0.0059484434
-0.88755451
0.0047239541
-0.94863033
0.0035637199
-1.0136696
0.0025171543
-1.0829706
0.0016282931
-1.1569013
0.00092425293
-1.2359099
0.00042229415
-1.3205439
0.00011494629
-1.4113763
0.017759087
-0.30942184
0.017066826
-0.33604081
0.015925287
-0.36348104
0.015211057
-0.39180839
0.014550736
-0.42110816
0.014069197
-0.45167089
0.013602249
-0.48384793
0.013158217
-0.51799224
0.012617017
-0.55439727
0.011979688
-0.59329515
0.011193688
-0.63486766
0.010270516
-0.67927698
0.0092105523
-0.72667407
0.0080421879
-0.77721175
0.0068024695
-0.83105167
0.0055390464
-0.8883696
0.0043081061
-0.94937471
0.0031633151
-1.0143158
0.0021552463
-1.0834975
0.0013222128
-1.1572993
0.00068748603
-1.2361751
0.0002623798
-1.3206913
3.5520242e-05
-1.4114118
0.018193825
-0.28453877
0.017774082
-0.3101291
0.016543333
-0.33665885
0.015820859
-0.36409084
0.015089109
-0.39234677
0.014562023
-0.42160098
0.014076589
-0.45214523
0.013652801
-0.48434252
0.013161949
-0.51853717
0.012595571
-0.55501315
0.011884892
-0.59398635
0.011033825
-0.63563097
0.010031524
-0.68009795
0.0089006254
-0.72753251
0.007670707
-0.77807999
0.0063857001
-0.83189832
0.0051000117
-0.88916151
0.0038691874
-0.95008058
0.0027496435
-1.0149102
0.0017867202
-1.083962
0.0010157316
-1.1576275
0.00045367453
-1.2363664
0.00010692338
-1.3207627
-3.9336149e-05
-1.4113725
0.018518141
-0.26080273
0.018442851
-0.28520753
0.017161636
-0.3107474
0.016478849
-0.33731684
0.015687508
-0.36468924
0.015109823
-0.39289457
0.014582107
-0.4221065
0.014150207
-0.45264264
0.013687255
-0.48486782
0.01317888
-0.51912048
0.012540403
-0.55566866
0.011765371
-0.59471789
0.010829818
-0.63642927
0.00974952
-0.68094685
0.0085454571
-0.72840726
0.0072566314
-0.77895092
0.0059336622
-0.83273197
0.0046322328
-0.88992455
0.0034119645
-0.9507429
0.002325204
-1.0154486
0.0014154583
-1.0843618
0.00071151207
-1.1578854
0.00022507748
-1.2364846
-4.2703124e-05
-1.3207593
-0.00011317484
-1.4112593
0.018704631
-0.23834142
0.019020608
-0.26138049
0.017738198
-0.2857841
0.017153115
-0.31142167
0.016333589
-0.33796292
0.015720009
-0.36529942
0.015139063
-0.39345152
0.014674242
-0.42263054
0.014211808
-0.45316719
0.013740233
-0.48542918
0.013163708
-0.51974379
0.012463716
-0.55636701
0.011600954
-0.59548903
0.010582326
-0.63726207
0.0094188987
-0.68182029
0.0081436448
-0.72929427
0.0068017271
-0.77981899
0.0054470115
-0.83354675
0.0041404199
-0.89065301
0.0029390004
-0.9513567
0.0018946127
-1.0159278
0.0010443613
-1.0846946
0.00041208435
-1.1580724
3.1788879e-06
-1.2365305
-0.00018731181
-1.3206852
-0.00018414697
-1.4110751
0.018736875
-0.21727337
0.019459084
-0.2387799
0.018228743
-0.26187103
0.017800329
-0.28643131
0.016998243
-0.31208632
0.016383056
-0.33862597
0.015756858
-0.36591722
0.015246492
-0.39402377
0.014758804
-0.42317753
0.014296978
-0.45372393
0.013763695
-0.48602916
0.013130691
-0.52041076
0.012342167
-0.55710822
0.011393382
-0.59630009
0.010283514
-0.63812669
0.009038224
-0.68271487
0.0076957134
-0.73018825
0.0063063486
-0.78067832
0.0049301294
-0.83433646
0.0036271615
-0.89134117
0.0024553698
-0.95191746
0.0014610337
-1.0163445
0.00067691799
-1.0849594
0.00011978759
-1.158189
-0.00021105727
-1.2365067
-0.00032527107
-1.3205441
-0.0002504184
-1.4108247
0.018609713
-0.19768738
0.019720618
-0.2175349
0.018593137
-0.23914429
0.018372859
-0.26244356
0.017639483
-0.28707255
0.017071881
-0.31277514
0.016428471
-0.33929758
0.015878832
-0.36654956
0.015350384
-0.39461535
0.014871603
-0.42375216
0.014356059
-0.4543163
0.013773332
-0.4866718
0.013053719
-0.52112232
0.012178569
-0.55789341
0.011132534
-0.59714911
0.0099319784
-0.63902044
0.0086065869
-0.68362574
0.007201658
-0.73108356
0.0057742996
-0.78152249
0.0043855288
-0.83509483
0.0030977643
-0.89198356
0.0019645733
-0.952421
0.0010287844
-1.0166963
0.00031591851
-1.0851556
-0.0001633971
-1.1582367
-0.00041586474
-1.2364161
-0.00045569756
-1.3203388
-0.00031241763
-1.4105123
0.018323943
-0.17962689
0.019783007
-0.19774977
0.018800563
-0.21774233
0.018826065
-0.2395975
0.01821002
-0.2630141
0.017745584
-0.28774625
0.017128947
-0.31347562
0.016567132
-0.33998588
0.016000128
-0.3671993
0.015486793
-0.39523054
0.014962275
-0.42435837
0.014405543
-0.45494851
0.013740839
-0.48735892
0.012936553
-0.5218803
0.011960569
-0.55872144
0.010817102
-0.59803423
0.0095252321
-0.63993909
0.0081235794
-0.68454766
0.0066644809
-0.73197374
0.005207894
-0.78234486
0.0038185304
-0.83581559
0.0025560099
-0.892575
0.0014715645
-0.95286378
0.00060119128
-1.0169816
-3.5661718e-05
-1.0852833
-0.00043537571
-1.1582171
-0.0006101116
-1.2362617
-0.00057785727
-1.3200734
-0.00036941305
-1.4101429
0.017895061
-0.1631111
0.019645801
-0.17948968
0.018834019
-0.19778323
0.019123501
-0.21803976
0.018664933
-0.24005241
0.018356302
-0.26362482
0.017818731
-0.28843603
0.017288773
-0.31419726
0.016706212
-0.34069197
0.016157896
-0.3678704
0.015605143
-0.39587341
0.015047618
-0.42500045
0.014415573
-0.45562324
0.013670689
-0.48809306
0.012764759
-0.52268449
0.011686983
-0.55959132
0.010442932
-0.59895193
0.0090624381
-0.64087795
0.0075912032
-0.68547438
0.0060861653
-0.73285202
0.0046122445
-0.78313857
0.0032330834
-0.83649267
0.0020073336
-0.89311077
0.00098023403
-0.95324282
0.00018205646
-1.0171993
-0.00037530042
-1.0853434
-0.0006944376
-1.1581328
-0.00079263527
-1.2360469
-0.00069108176
-1.3197517
-0.00042166796
-1.4097212
0.015642638
-0.17360067
0.019306956
-0.16277225
0.018691927
-0.17934759
0.019238157
-0.19789788
0.01896777
-0.2183426
0.018856828
-0.24055294
0.018449828
-0.26425591
0.018005016
-0.28915228
0.017448174
-0.31493922
0.016885523
-0.3414196
0.016301355
-0.36856662
0.015722295
-0.39654809
0.015096833
-0.42568171
0.014391069
-0.45634362
0.013546639
-0.48887494
0.012537267
-0.52353478
0.011351953
-0.56050034
0.010008743
-0.59989823
0.0085444314
-0.64183117
0.0070109894
-0.68639921
0.0054713989
-0.73371117
0.0039913236
-0.78389681
0.0026349396
-0.83712027
0.0014561432
-0.89358668
0.00049512151
-0.95355588
-0.00022550195
-1.0173491
-0.0007005772
-1.0853372
-0.00093905752
-1.1579864
-0.00096262259
-1.2357754
-0.00079516141
-1.3193782
-0.0004689384
-1.4092523
0.013672925
-0.16801523
0.017198926
-0.17149264
0.018373022
-0.16245334
0.019151646
-0.17926108
0.019094662
-0.19802478
0.019207062
-0.21869283
0.018973685
-0.2410768
0.018667438
-0.26491834
0.01818862
-0.28989272
0.017651421
-0.31570512
0.017053672
-0.34217191
0.016447493
-0.36929182
0.015806993
-0.39725825
0.015115047
-0.42640569
0.014314317
-0.4571113
0.013367678
-0.48970535
0.01224655
-0.52442937
0.010953753
-0.56144535
0.0095140751
-0.60086788
0.0079721858
-0.64279237
0.0063869923
-0.6873148
0.0048240142
-0.73454386
0.0033510131
-0.78461288
0.0020289305
-0.83769306
0.0009076375
-0.89399919
2.0009311e-05
-0.9538014
-0.00061833657
-1.0174314
-0.0010094993
-1.0852668
-0.0011680218
-1.157781
-0.0011194957
-1.235451
-0.00088982156
-1.3189573
-0.00051138043
-1.4087409
0.011896824
-0.16238113
0.015330632
-0.16614693
0.016348793
-0.16946841
0.01887239
-0.16217409
0.019034701
-0.17920112
0.019377968
-0.19819568
0.019348499
-0.21906765
0.019225983
-0.24163534
0.018879183
-0.2656089
0.018419428
-0.29066073
0.017845984
-0.31649743
0.017228061
-0.34295248
0.016564888
-0.37004971
0.015864424
-0.39800762
0.015083452
-0.42717482
0.014184296
-0.45792792
0.013124707
-0.49058351
0.011890426
-0.52536604
0.010490543
-0.56242182
0.0089592572
-0.60185495
0.0073489303
-0.64375431
0.0057227373
-0.68821352
0.0041498242
-0.73534267
0.002696441
-0.78528039
0.0014208163
-0.83820624
0.00036627114
-0.89434545
-0.00044121366
-0.95397852
-0.00099386593
-1.017447
-0.0013003384
-1.0851345
-0.001380434
-1.1575201
-0.0012628825
-1.235078
-0.00097511221
-1.3184936
-0.00054901546
-1.4081919
0.010231396
-0.15687431
0.013592376
-0.16064287
0.01455783
-0.16435597
0.016929367
-0.16752539
0.018785718
-0.16192511
0.019353147
-0.1791763
0.019544358
-0.19839154
0.019636388
-0.21947805
0.019468667
-0.24222483
0.01914112
-0.26633059
0.018643486
-0.29145823
0.018050028
-0.3173194
0.017377254
-0.34376485
0.016658749
-0.37084404
0.015875026
-0.3987992
0.015000951
-0.42799147
0.013990493
-0.4587937
0.012815074
-0.49150815
0.01146563
-0.52634113
0.009961934
-0.5634245
0.0083465293
-0.60285255
0.0066777225
-0.64470929
0.0050237603
-0.68908746
0.0034540936
-0.73610032
0.0020337953
-0.78589337
0.00081567991
-0.83865565
-0.00016331185
-0.89462335
-0.00088527347
-0.95408711
-0.00134974
-1.0173976
-0.0015717776
-1.0849431
-0.0015756614
-1.1572073
-0.0013926583
-1.2346604
-0.0010510853
-1.3179915
-0.00058199906
-1.4076099
0.0086081179
-0.15168204
0.011890679
-0.15517261
0.012898117
-0.15898316
0.015195113
-0.16262172
0.016920955
-0.16566063
0.019132766
-0.16170472
0.019545644
-0.17917758
0.019865484
-0.19862064
0.019910952
-0.21992033
0.019764064
-0.24284777
0.01939788
-0.26708499
0.018879923
-0.29228813
0.018232185
-0.31817433
0.017506522
-0.34461262
0.016709056
-0.37167806
0.01583761
-0.39963586
0.014855816
-0.4288568
0.013729771
-0.4597084
0.012434097
-0.49247662
0.010971006
-0.5273502
0.009369044
-0.56444701
0.0076783331
-0.60385316
0.0059636161
-0.64564915
0.0042952861
-0.68992865
0.0027432786
-0.73680981
0.001368705
-0.7864464
0.00021890094
-0.83903786
-0.00067708998
-0.89483154
-0.0013091136
-0.95412774
-0.0016841103
-1.0172853
-0.0018228129
-1.084696
-0.0017533726
-1.1568466
-0.0015088532
-1.2342027
-0.0011179638
-1.3174556
-0.00061048621
-1.4069994
0.0069761688
-0.14699314
0.010151656
-0.14994302
0.011279393
-0.15355389
0.013562839
-0.15735088
0.015247285
-0.16094805
0.017332023
-0.16385989
0.019349252
-0.16150833
0.019893902
-0.179206
0.020170878
-0.19888057
0.020240072
-0.22039634
0.020055658
-0.24350555
0.019669526
-0.26787459
0.01909758
-0.29315352
0.018397855
-0.31906567
0.017595619
-0.34549918
0.01671455
-0.372555
0.015739445
-0.40051949
0.014644428
-0.42977146
0.013396081
-0.46067038
0.011979813
-0.49348543
0.010406447
-0.52838761
0.008713567
-0.56548225
0.0069590442
-0.60484859
0.0052116089
-0.64656547
0.0035438529
-0.69072923
0.0020234304
-0.73746453
0.00070721934
-0.78693472
-0.00036473997
-0.83935021
-0.0011712355
-0.89496942
-0.0017102365
-0.95410161
-0.0019954745
-1.0171126
-0.0020528071
-1.0843966
-0.0019134688
-1.1564419
-0.0016116817
-1.233709
-0.0011760196
-1.31689
-0.00063467572
-1.4063647
0.0053042243
-0.14298762
0.0083249793
-0.14516646
0.009629224
-0.14829285
0.011938775
-0.15192982
0.013659703
-0.1557633
0.01570011
-0.15931613
0.017609756
-0.16212039
0.019717364
-0.16133179
0.020227394
-0.17926252
0.02053156
-0.19917205
0.020566756
-0.22090744
0.020364179
-0.2442002
0.019925358
-0.26870236
0.019302004
-0.29405767
0.018526786
-0.31999683
0.017643297
-0.34642793
0.016661691
-0.37347725
0.01557645
-0.40145151
0.014359472
-0.43073485
0.012986641
-0.46167721
0.011450829
-0.49452981
0.0097727904
-0.52944683
0.007999027
-0.56652223
0.0061932489
-0.60583023
0.0044281203
-0.64744974
0.002775779
-0.69148158
0.0013011619
-0.73805848
5.4863887e-05
-0.78735432
-0.00093059374
-0.83959085
-0.0016424989
-0.89503715
-0.0020865235
-0.95401056
-0.0022827742
-1.0168826
-0.0022614266
-1.0840486
-0.0020560872
-1.1559975
-0.0017014814
-1.2331835
-0.0012256097
-1.3162991
-0.00065478919
-1.4057099
0.0035798299
-0.13982554
0.0063861274
-0.14104877
0.0078980655
-0.1434353
0.010248845
-0.14660292
0.012064734
-0.15033485
0.014131404
-0.15419459
0.016024365
-0.15773074
0.018028824
-0.16043185
0.020073743
-0.16117814
0.020615133
-0.17934609
0.020891408
-0.1994967
0.02091184
-0.2214551
0.020659744
-0.24493459
0.020170967
-0.26957133
0.019473186
-0.29500407
0.018617847
-0.32097138
0.01763537
-0.34740161
0.016545986
-0.37444679
0.015340166
-0.4024322
0.013997347
-0.43174555
0.012498746
-0.46272513
0.010847035
-0.49560405
0.0090725552
-0.53052036
0.0072294206
-0.5675584
0.0053870418
-0.60678915
0.0036195556
-0.64829351
0.0019980996
-0.69217851
0.00058267748
-0.73858629
-0.0005828975
-0.78770202
-0.0014745949
-0.83975876
-0.0020880359
-0.89503564
-0.002436365
-0.95385697
-0.0025453177
-1.0165987
-0.002448638
-1.083656
-0.0021815529
-1.1555175
-0.001778712
-1.2326304
-0.0012671408
-1.3156867
-0.00067106377
-1.4050389
0.0018067015
-0.13763693
0.0043353001
-0.13777471
0.0060606862
-0.13921139
0.0084434857
-0.14162994
0.010387821
-0.14492601
0.012531821
-0.14873527
0.014485534
-0.15265576
0.016476255
-0.15617817
0.018437299
-0.1587954
0.020482653
-0.16104566
0.021004126
-0.17945881
0.021270445
-0.19985531
0.02124674
-0.2220421
0.020947739
-0.24571136
0.020386929
-0.27048507
0.019610221
-0.29599644
0.018656353
-0.32199237
0.017567011
-0.34842263
0.016357973
-0.37546459
0.015026209
-0.40346106
0.013554059
-0.43280086
0.011931285
-0.46380938
0.010169826
-0.49670132
0.0083089863
-0.53159992
0.0064103144
-0.56858167
0.0045467189
-0.60771631
0.0027932004
-0.64908862
0.0012175855
-0.69281342
-0.00012577445
-0.73904341
-0.0012011386
-0.78797547
-0.001993074
-0.83985372
-0.0025055578
-0.89496645
-0.0027585809
-0.95364371
-0.0027827873
-1.0162646
-0.0026146624
-1.0832229
-0.0022903627
-1.1550058
-0.0018439231
-1.2320536
-0.0013010602
-1.3150567
-0.00068375203
-1.4043551
-0.13651348
2.9355801e-08
0.0021941435
-0.13549577
0.0041161938
-0.13583022
0.0065003318
-0.13726824
0.0085795758
-0.1398217
0.010827171
-0.14322136
0.01289551
-0.14714524
0.014951122
-0.15113063
0.016920843
-0.15466172
0.018891476
-0.15720423
0.020894833
-0.16093637
0.021412345
-0.17960071
0.02164204
-0.20025061
0.02157619
-0.22267055
0.021209742
-0.24653417
0.020572623
-0.27144747
0.019698083
-0.29703818
0.018637252
-0.32306261
0.017427884
-0.34949254
0.016092527
-0.37653091
0.014629349
-0.40453635
0.013027469
-0.43389705
0.011284439
-0.46492399
0.0094215528
-0.49781389
0.0074869336
-0.53267654
0.0055476973
-0.56958265
0.0036796239
-0.60860273
0.001956246
-0.64982728
0.00044119258
-0.69338039
-0.00081841479
-0.73942614
-0.0017953038
-0.78817324
-0.0024829542
-0.83987632
-0.0028932627
-0.89483177
-0.0030524397
-0.95337406
-0.0029951903
-1.0158841
-0.0027599526
-1.0827533
-0.0023831499
-1.1544666
-0.0018977342
-1.2314569
-0.0013278462
-1.3144126
-0.00069311101
-1.403662
-0.13431937
3.1513765e-08
-0.13651348
-0.0018066432
0.0020844038
-0.13346398
0.0044238131
-0.1337537
0.0066185668
-0.13530723
0.0089680351
-0.13796256
0.011177777
-0.14150363
0.013354922
-0.14554905
0.015412317
-0.1496221
0.017402716
-0.15317296
0.019348778
-0.15565817
0.021325837
-0.16084986
0.021815925
-0.17977459
0.02200963
-0.20068405
0.021883265
-0.22334407
0.021445406
-0.24740695
0.020712875
-0.27246226
0.019731632
-0.29813255
0.018549471
-0.32418419
0.01721219
-0.3506122
0.015743256
-0.37764482
0.01414642
-0.4056553
0.012416495
-0.4350291
0.01055955
-0.46606199
0.0086061755
-0.49893313
0.0066118785
-0.53374072
0.0046487623
-0.57055179
0.0027931923
-0.60943968
0.00111623
-0.65050231
-0.00032449187
-0.69387431
-0.0014897756
-0.73973166
-0.0023614337
-0.78829476
-0.0029416803
-0.8398279
-0.0032498669
-0.89463434
-0.0033176091
-0.95305164
-0.0031828357
-1.0154612
-0.0028851538
-1.0822513
-0.0024606568
-1.1539037
-0.0019408197
-1.230844
-0.001347993
-1.3137578
-0.0006994018
-1.4029626
-0.132235
3.0714526e-08
-0.13431937
-0.002194081
-0.13763692
-0.0035797725
0.0022419345
-0.1312821
0.0045110961
-0.13164623
0.0069341171
-0.13327331
0.0092825329
-0.13606732
0.011608962
-0.13975767
0.013811017
-0.14394775
0.015903818
-0.1481232
0.017888544
-0.15171272
0.019821219
-0.15415355
0.02175494
-0.16078888
0.022216288
-0.17998125
0.022358259
-0.20115904
0.022167787
-0.22406645
0.021639643
-0.24833372
0.020802603
-0.27353323
0.019699217
-0.2992823
0.018386628
-0.32535863
0.016912462
-0.35178141
0.015305993
-0.37880439
0.01357507
-0.40681388
0.011721398
-0.43619095
0.0097595486
-0.46721536
0.0077284839
-0.50004974
0.0056906563
-0.53478262
0.0037209956
-0.57147959
0.0018953844
-0.61021883
0.00028046648
-0.65110727
-0.001073099
-0.69429099
-0.0021349524
-0.73995815
-0.0028961106
-0.78834033
-0.0033672796
-0.83971049
-0.0035745607
-0.89437739
-0.003554136
-0.95268034
-0.0033462901
-1.015
-0.0029910692
-1.0817209
-0.0025237127
-1.1533208
-0.0019738866
-1.2302181
-0.0013620046
-1.3130952
-0.00070288298
-1.4022597
-0.12999309
3.1128135e-08
-0.13223499
-0.0020843427
-0.13549576
-0.0043352389
-0.13982553
-0.0053041684
0.0022882839
-0.12905929
0.0047346394
-0.12944675
0.0071907639
-0.13118154
0.0096626022
-0.13412096
0.012037198
-0.13798385
0.014292055
-0.14233598
0.016399401
-0.14663406
0.018386131
-0.15027763
0.020292616
-0.15269123
0.022181429
-0.16075402
0.022600683
-0.18022367
0.022687744
-0.201679
0.022415013
-0.22484182
0.021787543
-0.24931866
0.020829786
-0.2746638
0.019594011
-0.30048969
0.018140278
-0.32658645
0.016523561
-0.35299898
0.014777127
-0.38000645
0.012914432
-0.40800691
0.010943966
-0.43737537
0.0088883662
-0.46837524
0.006794751
-0.50115383
0.0047305951
-0.53579222
0.0027725934
-0.5723568
0.00099410899
-0.61093248
-0.00054383996
-0.65163653
-0.0017987668
-0.69462717
-0.0027495803
-0.74010468
-0.0033965409
-0.78831107
-0.0037583198
-0.83952673
-0.0038669944
-0.89406453
-0.0037623995
-0.95226423
-0.0034863386
-1.0145048
-0.0030786317
-1.081166
-0.0025732054
-1.1527215
-0.0019976638
-1.2295824
-0.0013703842
-1.3124277
-0.00070380864
-1.4015559
-0.12770484
3.0751249e-08
-0.12999309
-0.002241873
-0.13346397
-0.0041161342
-0.1377747
-0.0063860684
-0.14298761
-0.0069761146
0.0024050298
-0.12672968
0.0049154547
-0.12717144
0.00749824
-0.12901718
0.010040261
-0.13212402
0.012485937
-0.13617773
0.014776683
-0.14071326
0.016904171
-0.1451521
0.018882708
-0.14886773
0.020760483
-0.15127028
0.022594162
-0.1607475
0.022968767
-0.18050469
0.022983992
-0.20224798
0.02262026
-0.22567454
0.021876965
-0.25036584
0.020787324
-0.27585711
0.019406725
-0.30175613
0.017804368
-0.32786725
0.016040644
-0.35426249
0.014154642
-0.38124666
0.012165081
-0.40922803
0.010087142
-0.43857414
0.0079515267
-0.46953202
0.0058119368
-0.50223517
0.003739925
-0.53675955
0.0018118931
-0.57317458
9.7318752e-05
-0.61157364
-0.0013498859
-0.65208541
-0.0024961259
-0.69488063
-0.0033299344
-0.74017128
-0.00386053
-0.78820886
-0.0041139109
-0.83927981
-0.0041272326
-0.8936997
-0.0039430686
-0.9518075
-0.0036039506
-1.0139795
-0.0031488684
-1.0805903
-0.0026100637
-1.1521091
-0.0020128853
-1.2289399
-0.0013736286
-1.3117578
-0.00070242546
-1.4008535
-0.12529984
3.0264184e-08
-0.12770483
-0.0022882232
-0.13128209
-0.0044237529
-0.1358302
-0.0060606287
-0.14104875
-0.0083249229
-0.14699312
-0.0086080656
0.002497784
-0.12431201
0.0051317608
-0.12480496
0.0078036711
-0.12678059
0.010434107
-0.13007219
0.012937609
-0.13433865
0.015268498
-0.13907759
0.017407475
-0.14367687
0.019374831
-0.14748207
0.021214637
-0.14989076
0.022992834
-0.16077156
0.023307421
-0.18082812
0.023242475
-0.20287019
0.022771538
-0.22656911
0.02190073
-0.25147925
0.020665279
-0.27711567
0.01913049
-0.30308225
0.017372856
-0.32919946
0.015460532
-0.35556838
0.013437857
-0.38251943
0.011328877
-0.41046976
0.0091555421
-0.43977816
0.006955422
-0.4706755
0.0047880919
-0.50328334
0.0027272204
-0.53767487
0.00084745372
-0.57392472
-0.00078732492
-0.6121362
-0.0021312952
-0.65245024
-0.0031604432
-0.69505012
-0.0038729283
-0.74015888
-0.004286497
-0.78803628
-0.0044336595
-0.83897339
-0.0043557106
-0.89328705
-0.0040970636
-0.95131439
-0.0037002371
-1.0134281
-0.0032028768
-1.0799975
-0.0026352358
-1.1514867
-0.0020202817
-1.2282933
-0.0013722222
-1.311088
-0.0006989702
-1.4001545
-0.12280208
2.9568456e-08
-0.12529983
-0.0024049697
-0.12905928
-0.0045110367
-0.13375368
-0.0065002741
-0.13921137
-0.0078980107
-0.14516644
-0.010151603
-0.15168203
-0.010231345
0.0026094188
-0.12178967
0.0053466143
-0.12234791
0.0081213171
-0.1244678
0.010830438
-0.12796502
0.013394852
-0.13246501
0.015758474
-0.13742859
0.017905842
-0.14220788
0.019854248
-0.14612169
0.021655136
-0.14855306
0.023365413
-0.16082956
0.023612108
-0.18119776
0.023451639
-0.2035503
0.022861756
-0.22753014
0.021848508
-0.25266248
0.020456143
-0.27844132
0.018758156
-0.30446755
0.016841401
-0.33058033
0.014781245
-0.35691177
0.012627471
-0.38381803
0.0104094
-0.41172362
0.0081548126
-0.44097755
0.0059077115
-0.47179512
0.0037318213
-0.50428794
0.0017014698
-0.53852889
-0.00011229886
-0.57459975
-0.0016524624
-0.61261503
-0.0028822787
-0.65272841
-0.0037876325
-0.69513542
-0.0043761474
-0.74006923
-0.0046734409
-0.78779649
-0.0047176326
-0.83861147
-0.0045531935
-0.89283092
-0.0042255065
-0.95078912
-0.0037764198
-1.0128545
-0.0032417964
-1.079391
-0.0026496751
-1.1508573
-0.0020205697
-1.2276449
-0.0013666315
-1.3104204
-0.00069366774
-1.3994608
-0.12019269
2.8874014e-08
-0.12280208
-0.0024977252
-0.12672967
-0.0047345811
-0.13164621
-0.0066185101
-0.13726822
-0.0084434308
-0.14343528
-0.009629172
-0.14994301
-0.011890628
-0.1568743
-0.011896775
0.0027202794
-0.11916333
0.0055696272
-0.11979622
0.0084408017
-0.12207816
0.011230743
-0.12580091
0.013850048
-0.13055658
0.016243793
-0.13576654
0.018392807
-0.14074644
0.020320246
-0.1447868
0.022071705
-0.14725935
0.023707321
-0.16092477
0.023871962
-0.18161808
0.023604575
-0.20429312
0.022880479
-0.22856211
0.021712378
-0.25391871
0.020151817
-0.27983498
0.018284252
-0.3059104
0.016206686
-0.33200577
0.014002257
-0.35828656
0.011725932
-0.38513456
0.0094114063
-0.41298021
0.0070920285
-0.44216187
0.0048168182
-0.47288012
0.0026523447
-0.50523882
0.00067171914
-0.53931291
-0.0010591163
-0.57519309
-0.0024912565
-0.61300605
-0.0035976798
-0.65291836
-0.0043743187
-0.69513724
-0.0048378299
-0.73990485
-0.0050209091
-0.78749322
-0.0049663129
-0.83819835
-0.004720721
-0.89233571
-0.0043296837
-0.95023585
-0.003833797
-1.0122625
-0.0032667894
-1.0787739
-0.0026543253
-1.1502236
-0.0020144419
-1.2269971
-0.001357301
-1.3097567
-0.00068673415
-1.3987741
-0.11747244
2.7777744e-08
-0.12019269
-0.002609362
-0.124312
-0.0049153978
-0.12944673
-0.0069340612
-0.1353072
-0.0085795219
-0.14162992
-0.010248793
-0.14829283
-0.011279344
-0.1551726
-0.013592328
-0.16238112
-0.013672878
0.0028352539
-0.11642896
0.0057939061
-0.11714932
0.0087631162
-0.11961053
0.011629381
-0.12358024
0.014301054
-0.12861384
0.016718731
-0.13409246
0.018866932
-0.13929312
0.020764835
-0.14347993
0.02246011
-0.14601214
0.024008446
-0.16106125
0.024080261
-0.18209376
0.023691026
-0.20510366
0.02281962
-0.22966935
0.021483547
-0.25525044
0.019745833
-0.28129656
0.017704133
-0.30740785
0.015466888
-0.3334704
0.013124781
-0.35968541
0.010736982
-0.38646014
0.0083412186
-0.4142294
0.0059752294
-0.44332028
0.0036919834
-0.47391976
0.0015591435
-0.50612624
-0.00035300668
-0.54001902
-0.0019851518
-0.5756992
-0.0032974422
-0.61330629
-0.0042730605
-0.65301962
-0.0049178351
-0.69505724
-0.0052568474
-0.73966891
-0.0053289594
-0.78713057
-0.0051805444
-0.83773852
-0.004859565
-0.89180583
-0.0044110051
-0.94965864
-0.0038737169
-1.0116556
-0.0032790189
-1.0781492
-0.0026501032
-1.1495879
-0.0020025624
-1.2263518
-0.0013446612
-1.3090988
-0.00067836841
-1.3980957
-0.11463721
2.6106164e-08
-0.11747244
-0.0027202248
-0.12178965
-0.0051317054
-0.12717142
-0.0071907094
-0.13327328
-0.0089679825
-0.13982167
-0.01038777
-0.1466029
-0.011938727
-0.15355387
-0.01289807
-0.16064286
-0.015330586
-0.16801523
-0.015642592
0.0029508631
-0.11358592
0.00601999
-0.11440619
0.0090840639
-0.11706522
0.012024149
-0.12130334
0.014742855
-0.12663797
0.017181685
-0.13240722
0.019321561