/*--------------------------------*- C++ -*----------------------------------*\
| =========                 |                                                 |
| \\      /  F ield         | OpenFOAM: The Open Source CFD Toolbox           |
|  \\    /   O peration     | Version:  5.0                                   |
|   \\  /    A nd           | Web:      www.OpenFOAM.org                      |
|    \\/     M anipulation  |                                                 |
\*---------------------------------------------------------------------------*/
FoamFile
{
    version     2.0;
    format      ascii;
    class       volScalarField;
    location    "195";
    object      pMean;
}
// * * * * * * * * * * * * * * * * * * * * * * * * * * * * * * * * * * * * * //

dimensions      [0 2 -2 0 0 0 0];

internalField   nonuniform List<scalar> 
9200
(
-0.00061019144
-0.00060396884
-0.0013686354
-0.00059741094
-0.0013617462
-0.0023370565
-0.00058988516
-0.0013450889
-0.0023231532
-0.0031992931
-0.0005783547
-0.0013238071
-0.0022967592
-0.0031832749
-0.0040906233
-0.00056542418
-0.0012927322
-0.0022626579
-0.0031493553
-0.0040725876
-0.0049446005
-0.00054923789
-0.0012569567
-0.0022133952
-0.0031055555
-0.0040328653
-0.0049275205
-0.0057873904
-0.00053114741
-0.0012133654
-0.0021556392
-0.0030417118
-0.00398212
-0.0048849936
-0.0057730411
-0.006604317
-0.00051076299
-0.0011643912
-0.0020853723
-0.0029661311
-0.0039067644
-0.0048317556
-0.0057304493
-0.0065953063
-0.0073997628
-0.00048869888
-0.0011095238
-0.0020057604
-0.0028737156
-0.0038166587
-0.0047499459
-0.0056788937
-0.0065560114
-0.0073987309
-0.0081677174
-0.00046520517
-0.001049876
-0.0019163798
-0.0027682677
-0.003705381
-0.0046510402
-0.0055953656
-0.0065112159
-0.0073663897
-0.008177335
-0.0089078094
-0.00044079014
-0.00098590948
-0.0018189087
-0.0026492991
-0.003577297
-0.0045268915
-0.0054929156
-0.0064318168
-0.007333512
-0.0081556054
-0.0089308456
-0.0096154596
-0.00041597666
-0.00091837291
-0.0017143245
-0.0025189132
-0.0034318141
-0.0043822257
-0.0053613967
-0.0063323792
-0.0072643527
-0.0081401262
-0.0089238108
-0.0096546041
-0.010288707
-0.000391357
-0.00084786806
-0.0016040466
-0.0023784126
-0.0032714418
-0.0042160425
-0.0052058448
-0.0062002893
-0.0071748931
-0.0080877949
-0.0089318028
-0.009666161
-0.010346627
-0.01092349
-0.00036741645
-0.0007749838
-0.0014893914
-0.0022296571
-0.0030978222
-0.0040311575
-0.0050246301
-0.0060405875
-0.0070496393
-0.0080156993
-0.0089031772
-0.0097033117
-0.010380829
-0.011002669
-0.011517331
-0.00034459331
-0.00070027989
-0.0013716789
-0.0020743775
-0.002913331
-0.0038294335
-0.0048206607
-0.0058508811
-0.0068934286
-0.0079051267
-0.0088564434
-0.0097054099
-0.010453159
-0.011063327
-0.011620089
-0.012066907
-0.00032243909
-0.00062468803
-0.0012521162
-0.0019143283
-0.0027202445
-0.0036136582
-0.0045958942
-0.0056340789
-0.0067027855
-0.0077605739
-0.0087692316
-0.0096922217
-0.010493365
-0.01117642
-0.011710917
-0.01219531
-0.012569667
-0.00029947748
-0.00054920949
-0.0011319522
-0.0017511822
-0.0025209086
-0.0033865445
-0.0043534611
-0.0053920766
-0.0064804059
-0.0075771822
-0.0086453742
-0.0096373202
-0.01052221
-0.011261706
-0.011870355
-0.012319633
-0.012725576
-0.013023241
-0.00027331963
-0.00047524534
-0.0010119777
-0.0015867445
-0.0023175489
-0.0031509238
-0.0040964907
-0.0051282225
-0.0062279541
-0.0073571977
-0.0084783413
-0.0095436486
-0.010509074
-0.011341093
-0.01200794
-0.012530418
-0.012886533
-0.013208129
-0.013425789
-0.00024036375
-0.00040495631
-0.00089269392
-0.0014226845
-0.0021123526
-0.0029095307
-0.0038283091
-0.0048459638
-0.0059488793
-0.0071018463
-0.0082696929
-0.0094027141
-0.010455727
-0.011379289
-0.012146283
-0.012726783
-0.013153319
-0.013408384
-0.01364079
-0.013775924
-0.00019638353
-0.00034084535
-0.00077457678
-0.0012606402
-0.001907195
-0.0026650508
-0.0035521661
-0.0045490552
-0.0056468737
-0.0068145134
-0.0080199962
-0.0092151259
-0.010351413
-0.011376701
-0.012245502
-0.0129322
-0.01341479
-0.013735125
-0.013882526
-0.014021787
-0.01407279
-0.00013726349
-0.0002856418
-0.0006577417
-0.0011025369
-0.0017037132
-0.0024199193
-0.0032712363
-0.0042412275
-0.0053260867
-0.0064990057
-0.0077324029
-0.0089805327
-0.010195523
-0.011320043
-0.012304426
-0.013101984
-0.013695099
-0.014067177
-0.014272654
-0.014306634
-0.014349858
-0.014316012
-5.9832703e-05
-0.00024191087
-0.00054219468
-0.00095029055
-0.00150353
-0.0021763302
-0.0029884278
-0.003926149
-0.004990732
-0.0061597799
-0.0074106873
-0.0087016426
-0.0099865175
-0.01120721
-0.01230698
-0.013233195
-0.013944705
-0.014429423
-0.014680244
-0.014762794
-0.014678934
-0.014624273
-0.014505532
3.7417128e-05
-0.0002116451
-0.00042800129
-0.00080571687
-0.0013081107
-0.0019365062
-0.0027063413
-0.0036072637
-0.0046450124
-0.0058014795
-0.0070595207
-0.0083820136
-0.0097264212
-0.011035185
-0.012249288
-0.013306771
-0.014158895
-0.014767613
-0.015130881
-0.015249861
-0.015203032
-0.014998166
-0.014844782
-0.014641703
0.0001538586
-0.00019600664
-0.00031541097
-0.00067042805
-0.0011188313
-0.0017025787
-0.0024274765
-0.003287704
-0.0042929358
-0.0054288126
-0.0066839266
-0.0080263895
-0.0094183725
-0.010805032
-0.01212656
-0.013316814
-0.014315451
-0.015075117
-0.015565723
-0.01579426
-0.015772675
-0.015591166
-0.015263519
-0.015011468
-0.014725897
0.00028664372
-0.0001952802
-0.00020487181
-0.00054571345
-0.00093702474
-0.0014765723
-0.0021541951
-0.0029704647
-0.0039382009
-0.0050463541
-0.0062891145
-0.0076400765
-0.0090670184
-0.010519228
-0.011938614
-0.013256464
-0.01440622
-0.015326484
-0.015976351
-0.016332963
-0.016415294
-0.016245362
-0.015925483
-0.015474544
-0.015124889
-0.014759762
0.00043122271
-0.00020837988
-9.680915e-05
-0.00043244992
-0.00076399134
-0.0012603935
-0.0018887346
-0.0026584215
-0.0035843198
-0.0046583931
-0.0058802537
-0.0072287231
-0.0086778225
-0.010182113
-0.011686982
-0.013123986
-0.014421999
-0.015511122
-0.016334053
-0.016855755
-0.017064024
-0.016989439
-0.016665272
-0.016204741
-0.015631318
-0.015186389
-0.014745138
0.00058269453
-0.00023128627
8.1635905e-06
-0.00033111872
-0.00060082736
-0.0010557604
-0.0016332525
-0.0023543396
-0.003234645
-0.0042690297
-0.005462279
-0.0067980519
-0.0082568033
-0.0097991385
-0.011375461
-0.012919661
-0.014359183
-0.015617228
-0.016625656
-0.017330733
-0.01770707
-0.017753205
-0.017512949
-0.017030118
-0.016428339
-0.015734585
-0.015197637
-0.014684152
0.00073561267
-0.00025567839
0.0001073147
-0.0002417764
-0.00044830835
-0.00086432924
-0.0013897662
-0.0020609011
-0.002892383
-0.0038822031
-0.0050399267
-0.0063536331
-0.007810209
-0.0093765647
-0.011009281
-0.012646454
-0.014216481
-0.015639025
-0.016836547
-0.017742071
-0.01830947
-0.018523441
-0.018395476
-0.017982273
-0.017338315
-0.016596252
-0.015785551
-0.01516061
-0.014579215
0.00088104149
-0.00027802124
0.00019372316
-0.00016403784
-0.0003072263
-0.00068743749
-0.0011600316
-0.0017806778
-0.0025606441
-0.0035016997
-0.0046177579
-0.005900869
-0.0073442573
-0.0089210796
-0.010594788
-0.012309128
-0.013995708
-0.015573311
-0.016958491
-0.01807219
-0.018852745
-0.019262363
-0.019298535
-0.01898593
-0.018394623
-0.017588792
-0.016708987
-0.015785831
-0.015077567
-0.014432938
0.0010195575
-0.0003057451
0.00027043442
-9.6277277e-05
-0.00017926985
-0.00052590294
-0.00094557861
-0.0015160241
-0.0022424032
-0.0031312402
-0.0042001685
-0.0054450042
-0.0068650505
-0.0084394978
-0.010139003
-0.011913904
-0.013700866
-0.015420407
-0.016986038
-0.018310143
-0.019316259
-0.019948921
-0.02018183
-0.020025993
-0.019520359
-0.018747686
-0.017781119
-0.016767455
-0.015737353
-0.014951025
-0.014248025
0.0011680125
-0.00034029862
0.00034224094
-3.257495e-05
-6.7301783e-05
-0.00038044296
-0.00074769915
-0.0012689067
-0.0019404519
-0.0027744535
-0.0037914671
-0.0049911317
-0.0063785549
-0.0079386145
-0.0096492786
-0.011467968
-0.013337801
-0.015183223
-0.016917661
-0.018447918
-0.019686152
-0.020559411
-0.021021909
-0.021060058
-0.020700062
-0.019995018
-0.019039875
-0.017915397
-0.016773038
-0.015642345
-0.014783628
-0.014027363
0.0013189836
-0.00037851635
0.00040568431
2.4016423e-05
3.574216e-05
-0.00025070031
-0.00056819427
-0.0010409149
-0.0016572265
-0.0024347417
-0.003395864
-0.004544279
-0.0058905975
-0.0074251467
-0.0091330827
-0.010979092
-0.012913667
-0.014866926
-0.016754808
-0.018481768
-0.019951564
-0.021076928
-0.021792081
-0.022062528
-0.021889686
-0.021315378
-0.020406906
-0.0192702
-0.017992314
-0.016727558
-0.015503244
-0.014578129
-0.013774068
0.0014653787
-0.00041742059
0.00047070197
6.0328443e-05
0.00013556906
-0.0001265046
-0.00040865696
-0.00083388832
-0.0013947554
-0.0021150665
-0.0030173879
-0.0041094121
-0.0054069475
-0.0069057217
-0.0085978869
-0.010455345
-0.012436501
-0.01447838
-0.016501629
-0.018411299
-0.020106174
-0.021487525
-0.022472339
-0.023003902
-0.023061831
-0.02266361
-0.021867301
-0.020753672
-0.019438352
-0.018013051
-0.016633174
-0.015322727
-0.014337489
-0.013491071
0.00160204
-0.00045711778
0.00053671105
9.4109386e-05
0.00021810152
-4.7754529e-06
-0.00025690638
-0.00064880669
-0.0011555333
-0.0018179382
-0.0026596595
-0.0036913165
-0.0049333344
-0.0063869429
-0.0080511348
-0.0099049262
-0.011914868
-0.014025673
-0.016164389
-0.018239258
-0.020147352
-0.02178198
-0.023045479
-0.023861106
-0.024184462
-0.024010928
-0.023375373
-0.022351856
-0.021033734
-0.019544632
-0.017979264
-0.016492366
-0.015103692
-0.014064789
-0.013181232
0.0017243635
-0.0004962304
0.00059895999
0.00013122226
0.00029487503
8.4397952e-05
-0.00010698383
-0.00047026157
-0.00094129047
-0.0015463318
-0.0023258063
-0.0032943411
-0.0044753614
-0.00587542
-0.0075002919
-0.0093361106
-0.011357638
-0.013517709
-0.01575097
-0.01797095
-0.020076027
-0.021955035
-0.023499097
-0.024613591
-0.025231573
-0.025323138
-0.024901433
-0.024019139
-0.022765891
-0.021246224
-0.019589944
-0.01789302
-0.016307853
-0.01484912
-0.013762991
-0.012847372
0.001827976
-0.00053246444
0.0006544733
0.00016561125
0.00036963951
0.00016235908
8.7817377e-06
-0.0002947765
-0.00073438401
-0.0013022468
-0.0020195043
-0.0029222889
-0.0040382278
-0.005377685
-0.0069528815
-0.0087572711
-0.010773887
-0.012963924
-0.01527041
-0.017613737
-0.01989615
-0.022005376
-0.023824937
-0.025245552
-0.026179278
-0.026571543
-0.02640959
-0.02572547
-0.024589907
-0.02310706
-0.021391015
-0.019575736
-0.017756741
-0.01608254
-0.014562036
-0.013435032
-0.012492257
0.0019090823
-0.00056380538
0.00070236944
0.00019403864
0.00044090799
0.00024283713
0.00011372535
-0.00016400697
-0.00053188848
-0.0010651568
-0.0017434955
-0.002579585
-0.0036265647
-0.0048998833
-0.0064164209
-0.0081769125
-0.01017289
-0.012374135
-0.014732554
-0.017176521
-0.019614188
-0.021935161
-0.024019017
-0.025745411
-0.027008234
-0.027729031
-0.027868802
-0.027433804
-0.026475944
-0.025083532
-0.023373876
-0.021468663
-0.019503953
-0.017573144
-0.015819458
-0.01424547
-0.013083791
-0.012118604
0.0019646938
-0.00058861789
0.00074183171
0.00021712292
0.00050353441
0.00031944589
0.00021737202
-4.2996145e-05
-0.00037928921
-0.00083374374
-0.0014744606
-0.0022697131
-0.0032456949
-0.0044475677
-0.005898111
-0.0076036174
-0.0095641517
-0.011758504
-0.014147852
-0.016669349
-0.019238592
-0.021749547
-0.024081244
-0.026106107
-0.027703278
-0.028772686
-0.029248963
-0.029111198
-0.028386412
-0.027146609
-0.025496825
-0.023565689
-0.021480383
-0.019376972
-0.017345182
-0.015521716
-0.013902427
-0.012712067
-0.011728995
0.0019929503
-0.00060585705
0.0007720589
0.0002354379
0.00055668212
0.00038541298
0.00031705965
7.9289867e-05
-0.00023344779
-0.0006617165
-0.001211433
-0.0019663478
-0.0029001322
-0.0040270642
-0.0054045766
-0.0070457374
-0.0089573626
-0.011127548
-0.01352728
-0.016103144
-0.018779336
-0.021456148
-0.024015008
-0.026324832
-0.028253897
-0.029683577
-0.030523653
-0.030724897
-0.030287009
-0.029258818
-0.027732228
-0.02582756
-0.023682668
-0.021427983
-0.019197538
-0.017075989
-0.015192459
-0.013535853
-0.012322555
-0.011325872
-0.0006146022
0.0019929503
0.00079204007
0.00024919873
0.00059997673
0.00044076531
0.00040430978
0.00019707075
-8.8574595e-05
-0.00049319868
-0.0010151434
-0.0016692922
-0.0025605439
-0.0036440413
-0.0049433025
-0.0065110611
-0.0083620977
-0.010492106
-0.012882329
-0.015489582
-0.018247599
-0.021064538
-0.023826651
-0.026402721
-0.028654118
-0.030447426
-0.031670095
-0.032245175
-0.032142784
-0.031385112
-0.030043413
-0.028228617
-0.026074498
-0.023725759
-0.021313807
-0.018968709
-0.016768825
-0.014834834
-0.013148612
-0.011917816
-0.010911513
0.00080163525
-0.00061460225
0.0019646939
0.00025797171
0.00063294352
0.00048564591
0.00047808331
0.00029935591
5.0923675e-05
-0.00032479315
-0.00081780547
-0.0014479783
-0.0022268709
-0.0032660843
-0.0045213392
-0.0060083503
-0.0077874373
-0.009863033
-0.012224972
-0.014841057
-0.017655588
-0.020585874
-0.023524959
-0.026344369
-0.02890232
-0.031054673
-0.032670009
-0.033645443
-0.03392103
-0.033488916
-0.032395271
-0.030733682
-0.028632717
-0.02623736
-0.023696634
-0.021140666
-0.018693787
-0.016427026
-0.014451947
-0.012743455
-0.011500261
-0.010488042
0.00026203112
0.00080163525
-0.00060585708
0.0019090824
0.00065444547
0.00051969341
0.00053804546
0.00038541852
0.00017244935
-0.00016214194
-0.00062191888
-0.0012198325
-0.0019762249
-0.0028935117
-0.0041032253
-0.0055462362
-0.0072435812
-0.0092508014
-0.01156738
-0.014170643
-0.017016465
-0.020032659
-0.02312072
-0.026157321
-0.02900084
-0.031500452
-0.033509889
-0.034903289
-0.035591511
-0.035534984
-0.034750262
-0.033308301
-0.031324325
-0.028942606
-0.026316794
-0.023597617
-0.020911772
-0.018376261
-0.016053957
-0.014046828
-0.012322991
-0.011072146
-0.010057446
0.00066452141
0.00026203106
0.00079203994
-0.00058861805
0.0018279761
0.00054161509
0.00058365132
0.0004552651
0.00027497094
-2.0521113e-05
-0.00043288658
-0.00099380058
-0.0017108812
-0.0026103904
-0.0036893127
-0.0050861178
-0.006741001
-0.008667142
-0.010921478
-0.013491818
-0.016344309
-0.019418643
-0.022626444
-0.025851595
-0.028955485
-0.031784307
-0.034181153
-0.036000969
-0.03712767
-0.037489734
-0.037071174
-0.035914706
-0.034116259
-0.031811321
-0.029157499
-0.026314325
-0.023431622
-0.020630662
-0.018019742
-0.01565296
-0.013622386
-0.011889676
-0.010635587
-0.0096215757
0.00055158865
0.00066452134
0.00025797162
0.00077205876
-0.00056380552
0.0017243637
0.00061332043
0.00050819755
0.00035819391
9.8755978e-05
-0.00026820542
-0.00077556117
-0.0014498663
-0.002302499
-0.0033698236
-0.0046285266
-0.0062379764
-0.0081245735
-0.010300642
-0.012817989
-0.015653844
-0.018758757
-0.022056206
-0.025439344
-0.02877504
-0.031909774
-0.034680021
-0.036925772
-0.038507341
-0.039322589
-0.039321518
-0.038514401
-0.036971311
-0.034812564
-0.032191977
-0.029277712
-0.026232275
-0.023202067
-0.020301131
-0.017627904
-0.015227294
-0.013181379
-0.011445818
-0.010192563
-0.009182113
0.00062714522
0.00055158864
0.00065444538
0.00024919851
0.00074183144
-0.00053246469
0.0016020401
0.0005422621
0.00042129801
0.00019545109
-0.00012947723
-0.0005853236
-0.0011982043
-0.0020024479
-0.0030125848
-0.0042704738
-0.005735138
-0.0075783034
-0.0097196913
-0.012164244
-0.014959958
-0.018068862
-0.021425575
-0.024934651
-0.028470877
-0.031883887
-0.035007199
-0.037670079
-0.039713336
-0.041006899
-0.041466965
-0.041068572
-0.039850474
-0.037910508
-0.03539211
-0.032464928
-0.029304607
-0.026073694
-0.022912804
-0.019927156
-0.017204395
-0.014780078
-0.012726413
-0.010993602
-0.0097449178
-0.0087405841
0.00055765607
0.00062714522
0.0005416149
0.00063294326
0.00023543766
0.00070236915
-0.00049623064
0.0014653788
0.00046214785
0.00026872363
-1.7021854e-05
-0.00042511333
-0.00097869079
-0.0017135288
-0.0026675261
-0.0038582004
-0.0053346713
-0.0070291581
-0.0091308732
-0.011547908
-0.014279473
-0.017365262
-0.020751362
-0.024353429
-0.02805669
-0.031716754
-0.035167412
-0.038231202
-0.04073373
-0.042520751
-0.043476455
-0.043539561
-0.042713317
-0.041066476
-0.038724278
-0.03585132
-0.032630112
-0.029240517
-0.025842282
-0.022568031
-0.019512775
-0.016752742
-0.014314281
-0.01226001
-0.010535112
-0.00929432
-0.0082984473
0.00048098015
0.00055765598
0.00061332023
0.00051969319
0.00059997646
0.00021712254
0.00065447289
-0.00045711812
0.0013189837
0.00031614252
6.8148329e-05
-0.00029532734
-0.00079388506
-0.0014612069
-0.0023361362
-0.0034619786
-0.0048591981
-0.0065825896
-0.0085351594
-0.010918343
-0.013632418
-0.016666475
-0.020051152
-0.023713185
-0.027548371
-0.031421224
-0.035168967
-0.038610965
-0.041561883
-0.043847514
-0.045323233
-0.045892122
-0.045519433
-0.044239238
-0.042151024
-0.039406283
-0.036188172
-0.032688713
-0.029088692
-0.025542297
-0.022172129
-0.019061942
-0.01627635
-0.013832872
-0.011784653
-0.010072192
-0.0088421844
-0.0078569684
0.00033800119
0.00048098003
0.00054226199
0.0005836511
0.00048564551
0.00055668168
0.00019403823
0.00059895957
-0.00041742093
0.0011680126
0.00012332624
-0.00019708866
-0.00064426174
-0.0012487984
-0.0020464768
-0.0030824668
-0.0044046831
-0.0060354614
-0.0080385866
-0.010276793
-0.012965406
-0.015995384
-0.019345066
-0.023032568
-0.026963776
-0.031012717
-0.035023346
-0.038815301
-0.042196119
-0.044976072
-0.046985651
-0.04809468
-0.048229792
-0.047386357
-0.045631225
-0.043094484
-0.039951945
-0.036402175
-0.032643123
-0.028853201
-0.025178349
-0.021729455
-0.018578535
-0.015778744
-0.01333886
-0.011302401
-0.0096061643
-0.0083897959
-0.007416714
0.00014888155
0.00033800119
0.00046214776
0.00050819727
0.00053804504
0.00044076487
0.00050353395
0.00016561071
0.00053671051
-0.00037851679
0.0010195576
-0.00013340925
-0.00053109256
-0.0010769179
-0.0018026464
-0.0027505168
-0.0039706247
-0.0055152397
-0.0074103448
-0.0097265409
-0.01227997
-0.015295937
-0.01865894
-0.022333112
-0.026322312
-0.030509009
-0.034744986
-0.038853751
-0.042639393
-0.045900648
-0.048447654
-0.050120384
-0.05080817
-0.050465593
-0.049121263
-0.046875875
-0.043889127
-0.040358494
-0.036494363
-0.032496864
-0.028538682
-0.024755118
-0.021244374
-0.018066737
-0.015263604
-0.01283455
-0.010814331
-0.0091384639
-0.0079390233
-0.0069784353
-0.00010383026
0.00014888157
0.00031614233
0.00042129769
0.00045526481
0.0004780829
0.00038541238
0.00044090737
0.00013122171
0.00047070143
-0.00034029903
0.00088104152
-0.00045767522
-0.00094700951
-0.0016054413
-0.002471078
-0.0035907061
-0.0050198763
-0.006815996
-0.0090072257
-0.011672494
-0.014570048
-0.017934136
-0.021643619
-0.025646638
-0.029929861
-0.034351049
-0.03873918
-0.042898683
-0.04662061
-0.049698787
-0.051947857
-0.053222467
-0.053436439
-0.052576416
-0.050706624
-0.047961748
-0.044529248
-0.040625014
-0.03646724
-0.032254298
-0.028149974
-0.02427742
-0.02072181
-0.017531038
-0.014733503
-0.012320679
-0.010322344
-0.0086728462
-0.0074917332
-0.0065254553
-0.0004234339
-0.00010383038
0.000123326
0.00026872343
0.0003581936
0.00038541807
0.00040430919
0.00031944527
0.00036963887
9.4108712e-05
0.0004056837
-0.00030574559
0.00073561277
-0.00086267231
-0.0014565184
-0.0022452132
-0.0032708774
-0.0045859413
-0.0062517089
-0.008329875
-0.01085155
-0.013902322
-0.017173076
-0.020902892
-0.024968436
-0.029298644
-0.033861144
-0.038487531
-0.042984642
-0.047139729
-0.050734214
-0.053561487
-0.055445723
-0.056261656
-0.055952442
-0.0545404
-0.052126803
-0.048879562
-0.045011306
-0.040752427
-0.036324467
-0.031920167
-0.027692237
-0.023750958
-0.020167188
-0.016974294
-0.014188669
-0.01179982
-0.0098335761
-0.0082120798
-0.0070208923
-0.0060527343
-0.00082319501
-0.00042343408
-0.00013340939
6.8148134e-05
0.00019545069
0.00027497041
0.00029935547
0.00031705908
0.00024283636
0.00029487425
6.0327775e-05
0.00034224038
-0.00027802166
0.00058269463
-0.0013597645
-0.0020747994
-0.0030125347
-0.0042205606
-0.005756969
-0.0076885435
-0.010081568
-0.012968957
-0.01644265
-0.020114156
-0.024223924
-0.028649725
-0.033298825
-0.038117637
-0.042911302
-0.047465744
-0.051553879
-0.054951538
-0.057456784
-0.058908589
-0.059207282
-0.058329948
-0.056337371
-0.053368363
-0.049622444
-0.045333981
-0.04074314
-0.036070301
-0.03149976
-0.027171949
-0.023182201
-0.019583633
-0.016396032
-0.013632642
-0.01128345
-0.0093515196
-0.0077127063
-0.006531678
-0.005568742
-0.0013142973
-0.00082319502
-0.00045767539
-0.00019708904
-1.7022296e-05
9.8755597e-05
0.00017244885
0.00019707016
0.00021737131
0.00016235832
0.00021810077
2.4015714e-05
0.00027043384
-0.00025567885
0.00043122293
-0.0019640085
-0.0028177911
-0.0039255794
-0.0053402647
-0.0071256905
-0.0093543606
-0.012096286
-0.015385867
-0.019319432
-0.023417486
-0.027916616
-0.032700808
-0.037652568
-0.042695996
-0.047610033
-0.052161845
-0.056113572
-0.059240311
-0.061350206
-0.062302639
-0.062028901
-0.060544076
-0.057949256
-0.054420417
-0.050186085
-0.045497788
-0.040600399
-0.035709839
-0.031000245
-0.02659669
-0.022574501
-0.018969778
-0.015800988
-0.013082746
-0.010775855
-0.0088027608
-0.0072009317
-0.0060284834
-0.0050755106
-0.0019117592
-0.0013142974
-0.00086267272
-0.00053109308
-0.00029532773
-0.00012947761
-2.0521662e-05
5.0922993e-05
7.9289321e-05
0.00011372469
8.439712e-05
0.00013556825
-3.2575571e-05
0.00019372272
-0.00023128661
0.00028664401
-0.0026910998
-0.0037033989
-0.0050040011
-0.0066514155
-0.0087154608
-0.011273854
-0.014399971
-0.018128341
-0.022557829
-0.027105211
-0.031997666
-0.03713091
-0.042360483
-0.047587604
-0.052566044
-0.057047236
-0.060786963
-0.063565054
-0.065205345
-0.06559357
-0.064696936
-0.062571804
-0.059360568
-0.055274926
-0.050568376
-0.045504302
-0.040328634
-0.035250749
-0.03043033
-0.025969946
-0.021925353
-0.018331903
-0.01521392
-0.012543896
-0.010165417
-0.0082478793
-0.0066710284
-0.0055152841
-0.0045724895
-0.0026311395
-0.0019117595
-0.0013597648
-0.00094700995
-0.00064426224
-0.00042511393
-0.00026820602
-0.00016214245
-8.8575225e-05
-4.2996779e-05
8.7810305e-06
-4.7761628e-06
3.5741465e-05
-9.6277845e-05
0.00010731433
-0.0002083802
0.00015385905
-0.0035587731
-0.0047509184
-0.0062688023
-0.0081767731
-0.010550451
-0.013472461
-0.01701844
-0.021221852
-0.026181022
-0.031197265
-0.036479907
-0.041944578
-0.047417941
-0.052778282
-0.057756126
-0.062091316
-0.065538252
-0.067887647
-0.068984596
-0.06874732
-0.067183294
-0.064392588
-0.060558845
-0.055926347
-0.050768481
-0.045356644
-0.039935692
-0.034702795
-0.029793464
-0.025287741
-0.021242958
-0.017703807
-0.014640264
-0.011853575
-0.0095576832
-0.0076700172
-0.0061309021
-0.0049909161
-0.0040605383
-0.0034901094
-0.0026311396
-0.0019640088
-0.001456519
-0.0010769187
-0.00079388589
-0.00058532418
-0.00043288708
-0.00032479378
-0.00023344855
-0.00016400749
-0.0001069844
-0.00012650528
-6.7302424e-05
-0.00016403825
8.1633944e-06
-0.00019528039
3.7417684e-05
-0.0045860967
-0.00598099
-0.0077422535
-0.0099399237
-0.012655586
-0.015975721
-0.019977119
-0.024690484
-0.030210297
-0.035709959
-0.041371595
-0.047141268
-0.052814661
-0.058247946
-0.063151628
-0.067258804
-0.070328188
-0.072167792
-0.072649866
-0.0717308
-0.069462112
-0.065988974
-0.06153434
-0.056370581
-0.050787425
-0.04506236
-0.039432235
-0.034069117
-0.029083736
-0.0245606
-0.020571918
-0.017091533
-0.013854387
-0.011175806
-0.0089199468
-0.007081993
-0.005578541
-0.0044568074
-0.0035398578
-0.0045076352
-0.0034901094
-0.0026911003
-0.0020748002
-0.001605442
-0.0012487992
-0.00097869157
-0.00077556194
-0.00062191957
-0.00049319921
-0.00037928983
-0.000294777
-0.00025690693
-0.00025070082
-0.00017927028
-0.00024177669
-9.6809276e-05
-0.00019600679
-5.9832039e-05
-0.0057934561
-0.0074154815
-0.009447459
-0.011965353
-0.015056071
-0.018808925
-0.023300626
-0.02855664
-0.034663424
-0.040655166
-0.046676106
-0.052714849
-0.058534191
-0.06397058
-0.068718602
-0.072510052
-0.075114582
-0.076363776
-0.076163379
-0.074512782
-0.071510552
-0.067346338
-0.0622788
-0.056605696
-0.050631788
-0.044632706
-0.038820652
-0.033341223
-0.028314405
-0.023846042
-0.019919044
-0.01619082
-0.013092717
-0.010459198
-0.0082730355
-0.0064812817
-0.0050160242
-0.0039131536
-0.0030110302
-0.0057039471
-0.0045076354
-0.0035587737
-0.0028177918
-0.0022452141
-0.0018026475
-0.0014612081
-0.0011982054
-0.00099380127
-0.000817806
-0.00066171707
-0.0005318891
-0.0004702619
-0.00040865728
-0.00038044336
-0.00030722663
-0.00033111883
-0.00020487179
-0.00021164518
-0.00013726277
-0.0072024349
-0.0090772138
-0.011408479
-0.014277904
-0.017776918
-0.021996771
-0.027011867
-0.032839775
-0.039553863
-0.046040269
-0.052391395
-0.05865287
-0.064553735
-0.069914339
-0.074418011
-0.077801671
-0.07985314
-0.080433456
-0.079488662
-0.077064876
-0.07330861
-0.068451457
-0.062786342
-0.056636521
-0.050312974
-0.044068733
-0.038088986
-0.0325355
-0.027558426
-0.023151836
-0.018883651
-0.01532755
-0.012280869
-0.0097350851
-0.0076130688
-0.005870462
-0.0044433784
-0.0033608276
-0.0024745095
-0.0071004759
-0.0057039474
-0.004586097
-0.0037033995
-0.0030125358
-0.0024710793
-0.002046478
-0.0017135299
-0.0014498673
-0.0012198333
-0.001015144
-0.00083374411
-0.00073438439
-0.00064880689
-0.0005681945
-0.00052590314
-0.00044830847
-0.00043244994
-0.00031541092
-0.00024191095
-0.00019638282
-0.0088356791
-0.010989908
-0.013649774
-0.016902228
-0.020842718
-0.025562563
-0.031131529
-0.037556006
-0.044891162
-0.05186762
-0.058509011
-0.064936209
-0.070844264
-0.076041624
-0.080206177
-0.083087322
-0.084498138
-0.084335545
-0.082591748
-0.07936143
-0.074837438
-0.069293505
-0.063059184
-0.056473978
-0.04982988
-0.04335381
-0.037257137
-0.031743379
-0.026824728
-0.021959257
-0.017900551
-0.014400327
-0.011463715
-0.0089983566
-0.0069429699
-0.0052494573
-0.0038617417
-0.0028004893
-0.001930839
-0.0087198257
-0.007100476
-0.0057934563
-0.0047509192
-0.0039255805
-0.0032708786
-0.0027505181
-0.0023361376
-0.0020024494
-0.0017108825
-0.001447979
-0.0012114333
-0.0010651571
-0.00094129078
-0.00083388825
-0.00074769915
-0.00068743761
-0.00060082742
-0.00054571335
-0.00042800117
-0.00028564188
-0.00024036306
-0.010716646
-0.013177666
-0.016195621
-0.019862664
-0.024276928
-0.029527713
-0.035677852
-0.042717935
-0.050680531
-0.058133255
-0.065013492
-0.071539277
-0.077370443
-0.082309329
-0.086035474
-0.088318459
-0.08900366
-0.088030892
-0.085441276
-0.081377519
-0.076080396
-0.069871136
-0.063107092
-0.056113744
-0.049159589
-0.042511617
-0.036438625
-0.030975227
-0.02545051
-0.02083583
-0.016836681
-0.013470972
-0.010634796
-0.0082519886
-0.0062629636
-0.0046195652
-0.0032719245
-0.0022330088
-0.0013804675
-0.010585322
-0.0087198256
-0.0072024354
-0.0059809908
-0.005004002
-0.0042205618
-0.0035907077
-0.0030824685
-0.0026675275
-0.0023025003
-0.001976226
-0.0016692929
-0.0014744611
-0.0013022469
-0.0011555334
-0.0010409147
-0.00094557858
-0.00086432925
-0.00076399129
-0.00067042795
-0.00054219459
-0.00034084543
-0.00027331905
-0.012869161
-0.015664357
-0.019070022
-0.023182594
-0.02810137
-0.033911397
-0.040665497
-0.048334732
-0.05692124
-0.064826022
-0.07188279
-0.078429914
-0.084090545
-0.088669538
-0.091855153
-0.093445316
-0.093325836
-0.091482898
-0.088006168
-0.08309
-0.07703168
-0.070192256
-0.062921182
-0.055524541
-0.048329697
-0.041682132
-0.035645604
-0.029392437
-0.024164634
-0.019611049
-0.01577498
-0.012531098
-0.0097970598
-0.0074962977
-0.0055742437
-0.003981762
-0.0026750472
-0.0016586122
-0.00082412138
-0.012720629
-0.010585322
-0.0088356796
-0.007415482
-0.006268803
-0.0053402659
-0.0045859429
-0.0039706263
-0.0034619803
-0.0030125864
-0.0026103919
-0.0022268721
-0.0019663483
-0.0017434957
-0.0015463319
-0.0013947554
-0.0012689063
-0.0011600315
-0.0010557605
-0.00093702477
-0.00080571676
-0.0006577416
-0.00040495641
-0.00029947696
-0.01531692
-0.018473674
-0.022296176
-0.026883929
-0.03233574
-0.038729613
-0.046105396
-0.054412186
-0.063605047
-0.071928288
-0.079088369
-0.085568652
-0.090957206
-0.09507034
-0.097612454
-0.098418925
-0.097422868
-0.094654637
-0.09025644
-0.084487944
-0.077696655
-0.070241992
-0.062459174
-0.054737845
-0.047511889
-0.040879753
-0.033825161
-0.027920101
-0.02275206
-0.018394156
-0.014704267
-0.01158367
-0.0089507232
-0.0067323953
-0.0048781545
-0.0033374077
-0.0020707985
-0.0010782935
-0.00026238887
-0.015149367
-0.012720629
-0.010716646
-0.0090772141
-0.0077422543
-0.0066514167
-0.0057569703
-0.0050198777
-0.0044046851
-0.0038582025
-0.0033698251
-0.0028935131
-0.0025605448
-0.0022697137
-0.0020195046
-0.0018179382
-0.0016572264
-0.0015160239
-0.0013897662
-0.0012603936
-0.0011188314
-0.00095029053
-0.00077457675
-0.0004752454
-0.00032243872
-0.018083367
-0.021628629
-0.025895865
-0.030986586
-0.036996975
-0.043994701
-0.052005889
-0.060944558
-0.070717275
-0.079416835
-0.086593218
-0.092909718
-0.097918172
-0.10145686
-0.10325462
-0.1031932
-0.10125186
-0.097508732
-0.092175689
-0.085573825
-0.078052976
-0.069963773
-0.061756181
-0.053963299
-0.046723403
-0.038790731
-0.032140705
-0.026289823
-0.02135476
-0.017170131
-0.013627681
-0.010628674
-0.0080969128
-0.0059619944
-0.004176101
-0.0026851882
-0.0014611701
-0.00049263439
0.00030414869
-0.017894873
-0.015149367
-0.01286916
-0.010989908
-0.0094474597
-0.0081767738
-0.0071256914
-0.0062517104
-0.0055152416
-0.0048591999
-0.0042704756
-0.0036893143
-0.0032660858
-0.0029001333
-0.0025795855
-0.0023258065
-0.0021150666
-0.0019404519
-0.0017806776
-0.0016332525
-0.0014765726
-0.0013081109
-0.0011025369
-0.00089269391
-0.00054920956
-0.00034459298
-0.021191213
-0.025150809
-0.029889006
-0.035507932
-0.042098557
-0.049716583
-0.058364758
-0.06792103
-0.078240084
-0.08725843
-0.094353506
-0.10040162
-0.10491742
-0.10777299
-0.10873109
-0.1077218
-0.10476875
-0.10002271
-0.093763692
-0.086316464
-0.078026062
-0.069395643
-0.061067439
-0.053221712
-0.044333663
-0.036867333
-0.030259708
-0.024684219
-0.019952561
-0.0159424
-0.012544847
-0.0096671982
-0.0072376861
-0.0051865121
-0.0034654528
-0.0020279822
-0.00084683661
9.7429996e-05
0.00087493242
-0.020979738
-0.017894872
-0.01531692
-0.013177666
-0.011408479
-0.0099399241
-0.0087154617
-0.0076885449
-0.0068159974
-0.0060354631
-0.0053346733
-0.0046285286
-0.0041032269
-0.0036440427
-0.003245696
-0.0029222896