/*--------------------------------*- C++ -*----------------------------------*\
| =========                 |                                                 |
| \\      /  F ield         | OpenFOAM: The Open Source CFD Toolbox           |
|  \\    /   O peration     | Version:  5.0                                   |
|   \\  /    A nd           | Web:      www.OpenFOAM.org                      |
|    \\/     M anipulation  |                                                 |
\*---------------------------------------------------------------------------*/
FoamFile
{
    version     2.0;
    format      ascii;
    class       volScalarField;
    location    "195";
    object      pPrime2Mean;
}
// * * * * * * * * * * * * * * * * * * * * * * * * * * * * * * * * * * * * * //

dimensions      [0 4 -4 0 0 0 0];

internalField   nonuniform List<scalar> 
9200
(
2.286827e-08
2.3092036e-08
1.2185532e-07
2.3062879e-08
1.2405326e-07
3.5295996e-07
2.357698e-08
1.2407807e-07
3.5813844e-07
6.5854472e-07
2.3715113e-08
1.2621033e-07
3.5961358e-07
6.6904976e-07
1.0664823e-06
2.4017126e-08
1.2682414e-07
3.6611983e-07
6.7376538e-07
1.0846912e-06
1.5383477e-06
2.4120537e-08
1.2794398e-07
3.6940867e-07
6.8750081e-07
1.095824e-06
1.5678805e-06
2.0761829e-06
2.4202698e-08
1.2809655e-07
3.735901e-07
6.9640811e-07
1.121926e-06
1.58946e-06
2.1206709e-06
2.656597e-06
2.4194305e-08
1.2785533e-07
3.7540727e-07
7.067885e-07
1.1417678e-06
1.634296e-06
2.1576474e-06
2.7206503e-06
3.2702742e-06
2.4167593e-08
1.2687876e-07
3.7592756e-07
7.1310146e-07
1.1641693e-06
1.6722287e-06
2.2292572e-06
2.7793922e-06
3.3588937e-06
3.9003715e-06
2.4173259e-08
1.2532276e-07
3.7440383e-07
7.1676111e-07
1.1804919e-06
1.7148991e-06
2.2944772e-06
2.8880973e-06
3.4462425e-06
4.0183671e-06
4.5318406e-06
2.4307327e-08
1.2322019e-07
3.7116813e-07
7.1635842e-07
1.1922993e-06
1.7498713e-06
2.3680094e-06
2.9930029e-06
3.6023133e-06
4.1414382e-06
4.6842547e-06
5.1506057e-06
2.4690746e-08
1.206874e-07
3.6637879e-07
7.1227988e-07
1.197114e-06
1.7787515e-06
2.432858e-06
3.112037e-06
3.7600228e-06
4.3565185e-06
4.8510117e-06
5.3416842e-06
5.7421185e-06
2.546681e-08
1.1782984e-07
3.6043865e-07
7.0466594e-07
1.1952827e-06
1.7975443e-06
2.4904592e-06
3.2226857e-06
3.9409131e-06
4.5823939e-06
5.1378574e-06
5.559075e-06
5.9757497e-06
6.2943003e-06
2.6765549e-08
1.1475295e-07
3.5379876e-07
6.9408206e-07
1.1868686e-06
1.806093e-06
2.5345924e-06
3.3255277e-06
4.115999e-06
4.8436747e-06
5.4475596e-06
5.9289019e-06
6.2506842e-06
6.5731477e-06
6.7947698e-06
2.8765217e-08
1.1154649e-07
3.4696081e-07
6.8118738e-07
1.1726854e-06
1.8039359e-06
2.5641423e-06
3.4115242e-06
4.2845688e-06
5.1046476e-06
5.8099638e-06
6.3384999e-06
6.7150067e-06
6.9108027e-06
7.1208425e-06
7.2350073e-06
3.1471125e-08
1.0853459e-07
3.4031455e-07
6.6674487e-07
1.153789e-06
1.7917817e-06
2.5777163e-06
3.4782252e-06
4.4339414e-06
5.3634441e-06
6.1819252e-06
6.8232687e-06
7.2406979e-06
7.4782653e-06
7.5257061e-06
7.6086191e-06
7.6077328e-06
3.4717433e-08
1.0598356e-07
3.3438806e-07
6.5149191e-07
1.1314351e-06
1.770798e-06
2.5756955e-06
3.5227385e-06
4.5596161e-06
5.6028564e-06
6.5598466e-06
7.3325766e-06
7.869468e-06
8.1335913e-06
8.2040256e-06
8.0830562e-06
8.0276483e-06
7.9086275e-06
3.8221098e-08
1.0427508e-07
3.2925873e-07
6.3643749e-07
1.1068932e-06
1.742533e-06
2.5592531e-06
3.544606e-06
4.6564418e-06
5.8154664e-06
6.921407e-06
7.8614207e-06
8.5442012e-06
8.9268609e-06
9.0021538e-06
8.8762643e-06
8.5719696e-06
8.3724659e-06
8.1353019e-06
4.1378104e-08
1.0410269e-07
3.2464016e-07
6.2225349e-07
1.0816759e-06
1.7086727e-06
2.5302926e-06
3.5445457e-06
4.7224182e-06
5.9929299e-06
7.2555505e-06
8.3818022e-06
9.258659e-06
9.7945318e-06
9.9781838e-06
9.8253152e-06
9.4820047e-06
8.9845713e-06
8.6393628e-06
8.2878434e-06
4.3332585e-08
1.0602527e-07
3.2033966e-07
6.0954458e-07
1.0568186e-06
1.6713036e-06
2.4911029e-06
3.5244085e-06
4.7572457e-06
6.1307595e-06
7.549697e-06
8.8782989e-06
9.9790208e-06
1.0730035e-05
1.1065034e-05
1.0999065e-05
1.0588103e-05
1.0009398e-05
9.3152827e-06
8.8272594e-06
8.3684928e-06
4.3158399e-08
1.1034344e-07
3.1600589e-07
5.991484e-07
1.0328727e-06
1.6322907e-06
2.4444116e-06
3.4867909e-06
4.7623696e-06
6.2267238e-06
7.7957971e-06
9.3330108e-06
1.0685043e-05
1.1694119e-05
1.2257091e-05
1.2328329e-05
1.1970764e-05
1.1273127e-05
1.0449505e-05
9.561176e-06
8.9374057e-06
8.3812946e-06
4.0204723e-08
1.1692764e-07
3.1132086e-07
5.9152065e-07
1.0105441e-06
1.5932266e-06
2.3927799e-06
3.435003e-06
4.7404954e-06
6.2810516e-06
7.988544e-06
9.7331372e-06
1.1352519e-05
1.2661592e-05
1.3510466e-05
1.3810053e-05
1.3561352e-05
1.2869988e-05
1.1868122e-05
1.079606e-05
9.7217394e-06
8.9732112e-06
8.3317589e-06
3.4492682e-08
1.2518716e-07
3.0613337e-07
5.8685635e-07
9.9024828e-07
1.5558596e-06
2.3382956e-06
3.3724813e-06
4.6954126e-06
6.2958412e-06
8.1259985e-06
1.0068927e-05
1.1962601e-05
1.3601261e-05
1.4795437e-05
1.5397438e-05
1.5362254e-05
1.473512e-05
1.3679445e-05
1.2361409e-05
1.1045912e-05
9.7990699e-06
8.9398578e-06
8.2264271e-06
2.6978778e-08
1.342927e-07
3.0055253e-07
5.850945e-07
9.7220709e-07
1.5215897e-06
2.2831508e-06
3.3024343e-06
4.6313967e-06
6.2748468e-06
8.2088858e-06
1.0334832e-05
1.2499598e-05
1.4487056e-05
1.6073541e-05
1.7057337e-05
1.7326037e-05
1.6878715e-05
1.5825498e-05
1.4380442e-05
1.2745923e-05
1.1198705e-05
9.7974985e-06
8.8438727e-06
8.072732e-06
1.9513164e-08
1.4368394e-07
2.9496276e-07
5.8590494e-07
9.565322e-07
1.4912875e-06
2.2293625e-06
3.2283495e-06
4.5526014e-06
6.222888e-06
8.2403487e-06
1.0528877e-05
1.2952704e-05
1.5295756e-05
1.7310583e-05
1.8744436e-05
1.9418037e-05
1.9255946e-05
1.8328049e-05
1.6806196e-05
1.4960309e-05
1.3016603e-05
1.1256655e-05
9.7229215e-06
8.6927459e-06
7.8790165e-06
1.4417344e-08
1.5311156e-07
2.8954815e-07
5.8861672e-07
9.4326134e-07
1.4652407e-06
2.1785952e-06
3.1535645e-06
4.4635083e-06
6.145128e-06
8.2253435e-06
1.0652423e-05
1.3315649e-05
1.6009425e-05
1.8474295e-05
2.041607e-05
2.1587317e-05
2.1833433e-05
2.1148616e-05
1.9674893e-05
1.7656433e-05
1.5407598e-05
1.3172395e-05
1.1224177e-05
9.5826246e-06
8.4947772e-06
7.6542407e-06
1.3981249e-08
1.6169541e-07
2.8406525e-07
5.9236669e-07
9.3214608e-07
1.4432228e-06
2.1321237e-06
3.0808955e-06
4.3686359e-06
6.0474325e-06
8.169737e-06
1.0709597e-05
1.3586606e-05
1.6615421e-05
1.9537658e-05
2.2029753e-05
2.3783146e-05
2.4556921e-05
2.4258809e-05
2.2958836e-05
2.0888663e-05
1.8356786e-05
1.5716566e-05
1.321504e-05
1.1107938e-05
9.3851123e-06
8.2589651e-06
7.4070992e-06
2.0083809e-08
1.675297e-07
2.7892074e-07
5.9611875e-07
9.2250185e-07
1.4250203e-06
2.0907091e-06
3.0126427e-06
4.2721271e-06
5.9361007e-06
8.0805462e-06
1.0706328e-05
1.376767e-05
1.7106673e-05
2.0479384e-05
2.3547509e-05
2.5952274e-05
2.7369059e-05
2.7604434e-05
2.6639118e-05
2.4644661e-05
2.1939333e-05
1.8893911e-05
1.5884463e-05
1.3149836e-05
1.0916222e-05
9.1396503e-06
7.9944953e-06
7.1453616e-06
3.3183006e-08
1.7305078e-07
2.7540275e-07
5.984665e-07
9.1367136e-07
1.4102014e-06
2.0545028e-06
2.9503446e-06
4.1777634e-06
5.8172625e-06
7.9656364e-06
1.0650452e-05
1.386389e-05
1.7481317e-05
2.1284748e-05
2.493697e-05
2.8044284e-05
3.0206248e-05
3.1124231e-05
3.0666219e-05
2.8920181e-05
2.6163023e-05
2.2803168e-05
1.9258339e-05
1.5913576e-05
1.2984498e-05
1.0658834e-05
8.8558758e-06
7.7101335e-06
6.8764916e-06
5.2904959e-08
1.8120422e-07
2.6924127e-07
5.9765714e-07
9.0553246e-07
1.3978956e-06
2.023203e-06
2.8947203e-06
4.0887025e-06
5.6966111e-06
7.8330108e-06
1.0551461e-05
1.3883183e-05
1.7741867e-05
2.1945574e-05
2.6172938e-05
3.0013396e-05
3.300489e-05
3.4745908e-05
3.4979069e-05
3.3675999e-05
3.1043781e-05
2.7476603e-05
2.3460671e-05
1.9446772e-05
1.5809594e-05
1.2729329e-05
1.0346825e-05
8.5435773e-06
7.4139743e-06
6.6076569e-06
8.1174254e-08
1.8709664e-07
2.599649e-07
5.9568678e-07
8.9906974e-07
1.3868603e-06
1.9958275e-06
2.8456854e-06
4.0070258e-06
5.5789838e-06
7.6906124e-06
1.0419676e-05
1.3836066e-05
1.7895003e-05
2.245973e-05
2.7237891e-05
3.1820982e-05
3.5703924e-05
3.8393088e-05
3.9499906e-05
3.8856784e-05
3.6559239e-05
3.2955944e-05
2.8552109e-05
2.389974e-05
1.9460757e-05
1.5582088e-05
1.2396286e-05
9.991786e-06
8.2121904e-06
7.1138263e-06
6.3446814e-06
1.1754641e-07
1.9050257e-07
2.5300009e-07
6.0214609e-07
8.9076262e-07
1.3751259e-06
1.9716219e-06
2.8026831e-06
3.9335912e-06
5.4680823e-06
7.5458394e-06
1.0265808e-05
1.3734807e-05
1.7951341e-05
2.2830812e-05
2.8122033e-05
3.3436845e-05
3.8248418e-05
4.1988444e-05
4.4141521e-05
4.4384294e-05
4.2666716e-05
3.9242712e-05
3.4605383e-05
2.936444e-05
2.4114546e-05
1.930727e-05
1.5243364e-05
1.1998505e-05
9.6051477e-06
7.8709313e-06
6.8168775e-06
6.0914948e-06
1.6014594e-07
1.931617e-07
2.5149817e-07
6.0258047e-07
8.8065162e-07
1.3622307e-06
1.9503841e-06
2.7651168e-06
3.8681575e-06
5.3660901e-06
7.4048615e-06
1.0100191e-05
1.3592875e-05
1.7924703e-05
2.3067936e-05
2.8823118e-05
3.4839967e-05
4.0591861e-05
4.5458424e-05
4.881071e-05
5.0164321e-05
4.9294281e-05
4.63149e-05
4.1653142e-05
3.5949156e-05
2.9896118e-05
2.4106662e-05
1.899765e-05
1.4808041e-05
1.1549602e-05
9.1980326e-06
7.5281231e-06
6.5289111e-06
5.8517792e-06
2.0628777e-07
1.9549542e-07
2.5421136e-07
5.9166034e-07
8.6710668e-07
1.3498394e-06
1.9269683e-06
2.7316537e-06
3.8104271e-06
5.2737425e-06
7.2719558e-06
9.9320367e-06
1.3424048e-05
1.7831369e-05
2.3185195e-05
2.934634e-05
3.6018771e-05
4.2697846e-05
4.8736723e-05
5.3414032e-05
5.6090056e-05
5.634674e-05
5.4115411e-05
4.9702749e-05
4.3724409e-05
3.6952633e-05
3.0139139e-05
2.3884087e-05
1.8547171e-05
1.4292175e-05
1.1063232e-05
8.7807181e-06
7.1908069e-06
6.2541978e-06
5.6288874e-06
2.5267574e-07
1.9770313e-07
2.5955739e-07
5.831661e-07
8.5345726e-07
1.3326232e-06
1.897456e-06
2.6936395e-06
3.7594429e-06
5.1916055e-06
7.1493632e-06
9.7684627e-06
1.3241323e-05
1.7688918e-05
2.3200866e-05
2.9704125e-05
3.697129e-05
4.4541068e-05
5.1767171e-05
5.7862512e-05
6.2048561e-05
6.3708293e-05
6.2556356e-05
5.8721889e-05
5.2735815e-05
4.5398397e-05
3.7592706e-05
3.0094443e-05
2.346103e-05
1.7974023e-05
1.3712618e-05
1.0552561e-05
8.3624539e-06
6.8649125e-06
5.9965662e-06
5.4254493e-06
2.9561914e-07
1.9980747e-07
2.6622522e-07
5.7661436e-07
8.4400082e-07
1.313249e-06
1.8642498e-06
2.6481608e-06
3.7024295e-06
5.1187758e-06
7.0389477e-06
9.6139953e-06
1.305559e-05
1.7514775e-05
2.3136086e-05
2.991543e-05
3.7705277e-05
4.6108071e-05
5.4505787e-05
6.2075946e-05
6.7926592e-05
7.1249158e-05
7.1520207e-05
6.8640399e-05
6.2986691e-05
5.5325647e-05
4.6629827e-05
3.7857783e-05
2.9772026e-05
2.2856763e-05
1.7298472e-05
1.3086319e-05
1.0029923e-05
7.9513776e-06
6.5554295e-06
5.759008e-06
5.2434057e-06
3.3149265e-07
2.017258e-07
2.7337241e-07
5.7096176e-07
8.3943812e-07
1.2976754e-06
1.8332447e-06
2.6015468e-06
3.6406739e-06
5.0364873e-06
6.9407136e-06
9.4726163e-06
1.287473e-05
1.7324503e-05
2.3013065e-05
3.0004281e-05
3.8237873e-05
4.7397879e-05
5.6922384e-05
6.5986319e-05
7.3616421e-05
7.8832211e-05
8.0865858e-05
7.9349119e-05
7.4436821e-05
6.67844e-05
5.7396577e-05
4.7387341e-05
3.7748838e-05
2.9189969e-05
2.2094651e-05
1.6541937e-05
1.2429742e-05
9.5065719e-06
7.5544724e-06
6.2663223e-06
5.5437879e-06
5.0838658e-06
3.5718249e-07
2.0332188e-07
2.8021662e-07
5.6613051e-07
8.3795973e-07
1.2857032e-06
1.8063457e-06
2.5571e-06
3.5717499e-06
4.9504562e-06
6.8279072e-06
9.3458311e-06
1.270589e-05
1.7130319e-05
2.2852781e-05
2.9997592e-05
3.85942e-05
4.8422232e-05
5.9001964e-05
6.9540625e-05
7.9020846e-05
8.6320203e-05
9.0435467e-05
9.0704441e-05
8.6998225e-05
7.9777774e-05
7.0000146e-05
5.8888369e-05
4.7655831e-05
3.727865e-05
2.8373339e-05
2.1200918e-05
1.5726097e-05
1.1758438e-05
8.9924591e-06
7.1776006e-06
6.0006769e-06
5.3523868e-06
4.947323e-06
3.7057565e-07
2.0448072e-07
2.8603366e-07
5.6221492e-07
8.3830815e-07
1.2757001e-06
1.7864853e-06
2.5144095e-06
3.4969104e-06
4.8553179e-06
6.7119042e-06
9.1963664e-06
1.2553284e-05
1.6943618e-05
2.2672853e-05
2.9922146e-05
3.8804943e-05
4.9204543e-05
6.0745719e-05
7.2703385e-05
8.4057587e-05
9.3582463e-05
0.00010006267
0.00010253439
0.00010053701
9.4253946e-05
8.4500632e-05
7.2534207e-05
5.9760449e-05
4.7436488e-05
3.6471122e-05
2.7352787e-05
2.0203439e-05
1.4872169e-05
1.1086616e-05
8.4961443e-06
6.8254104e-06
5.760676e-06
5.1856134e-06
4.8337204e-06
2.0505808e-07
3.705757e-07
2.9010992e-07
5.5927778e-07
8.3954877e-07
1.2673368e-06
1.7726809e-06
2.4814887e-06
3.4274124e-06
4.7466065e-06
6.5748144e-06
9.0432306e-06
1.2365997e-05
1.6772471e-05
2.2490508e-05
2.9801886e-05
3.8902675e-05
4.9777358e-05
6.2170789e-05
7.5458706e-05
8.8663237e-05
0.00010050115
0.00010958089
0.00011464725
0.00011487777
0.00011010444
0.00010089892
8.8454852e-05
7.4308798e-05
5.9993342e-05
4.6746817e-05
3.5359561e-05
2.6162863e-05
1.9130584e-05
1.4000187e-05
1.0426883e-05
8.0246704e-06
6.5013928e-06
5.5476989e-06
5.0436651e-06
4.7426725e-06
2.9210714e-07
2.0505801e-07
3.5718254e-07
5.5730267e-07
8.409516e-07
1.2608166e-06
1.7634923e-06
2.456985e-06
3.3723609e-06
4.6418272e-06
6.4090627e-06
8.855405e-06
1.2171723e-05
1.6549028e-05
2.2319667e-05
2.966118e-05
3.8918278e-05
5.0178101e-05
6.3307959e-05
7.7811192e-05
9.2796761e-05
0.00010697696
0.00011883151
0.00012684098
0.00012981138
0.00012716528
0.00011913025
0.00010672069
9.1511762e-05
7.5271704e-05
5.9590044e-05
4.5619108e-05
3.3984874e-05
2.4840465e-05
1.8010105e-05
1.3128485e-05
9.7899657e-06
7.5835875e-06
6.207935e-06
5.3623669e-06
4.9263317e-06
4.673567e-06
5.5631447e-07
2.9210713e-07
2.0448058e-07
3.314928e-07
8.4183594e-07
1.25634e-06
1.7576418e-06
2.438774e-06
3.3308673e-06
4.5571047e-06
6.25188e-06
8.6183734e-06
1.1910247e-05
1.6313912e-05
2.2071349e-05
2.9521581e-05
3.8884532e-05
5.0444225e-05
6.4196978e-05
7.9784414e-05
9.6441857e-05
0.00011293451
0.00012767166
0.00013891317
0.00014510481
0.00014522281
0.00013906122
0.00012733101
0.00011152516
9.3571338e-05
7.5399755e-05
5.857526e-05
4.4098524e-05
3.2393246e-05
2.3423076e-05
1.6868224e-05
1.2273173e-05
9.1846395e-06
7.1769707e-06
5.9464965e-06
5.204759e-06
4.8330747e-06
4.6256621e-06
8.4200504e-07
5.5631434e-07
2.9010988e-07
2.0332161e-07
2.9561928e-07
1.2538698e-06
1.7543734e-06
2.4260929e-06
3.3006857e-06
4.4933053e-06
6.1226817e-06
8.3919905e-06
1.1566403e-05
1.5954993e-05
2.1801433e-05
2.9266982e-05
3.8833112e-05
5.0617629e-05
6.4880747e-05
8.1416146e-05
9.9606955e-05
0.00011832646
0.00013598164
0.00015067096
0.00016051238
0.00016402263
0.00016049178
0.00015020543
0.00013443292
0.00011514687
9.4568757e-05
7.4699744e-05
5.6993802e-05
4.2240277e-05
3.0633898e-05
2.1947364e-05
1.5728723e-05
1.1447861e-05
8.6176813e-06
6.8076343e-06
5.7177453e-06
5.0744871e-06
4.7631304e-06
4.5980282e-06
1.2533137e-06
8.4200485e-07
5.5730231e-07
2.8603359e-07
2.0172546e-07
2.5267595e-07
1.753025e-06
2.4177248e-06
3.2796047e-06
4.4459484e-06
6.0239132e-06
8.2028509e-06
1.1243149e-05
1.5466208e-05
2.1317551e-05
2.8975468e-05
3.8614786e-05
5.074216e-05
6.5410202e-05
8.2751795e-05
0.00010232095
0.0001231356
0.00014367134
0.00016194069
0.00017578738
0.00018328117
0.0001831617
0.00017518072
0.00016023251
0.00014018636
0.00011746013
9.4478075e-05
7.3207929e-05
5.4907536e-05
4.0106604e-05
2.8756707e-05
2.0447643e-05
1.4612321e-05
1.0663493e-05
8.0941138e-06
6.4773005e-06
5.5217388e-06
4.9708312e-06
4.7155119e-06
4.5895457e-06
1.7530028e-06
1.2533134e-06
8.4183544e-07
5.5927716e-07
2.8021649e-07
1.99807e-07
2.0628797e-07
2.4124166e-06
3.2656982e-06
4.4118351e-06
5.9499252e-06
8.0575494e-06
1.0969941e-05
1.5018338e-05
2.0633629e-05
2.8356603e-05
3.833715e-05
5.0628101e-05
6.5843392e-05
8.3849388e-05
0.00010462621
0.0001273721
0.00015068476
0.00017257683
0.00019069412
0.0002026983
0.00020676116
0.00020201289
0.000188825
0.00016879033
0.00014438217
0.00011838643
9.3313981e-05
7.0987239e-05
5.2391659e-05
3.7763362e-05
2.6810032e-05
1.8954747e-05
1.3536235e-05
9.9285836e-06
7.6174542e-06
6.1867951e-06
5.3579456e-06
4.8927844e-06
4.6890909e-06
4.5989636e-06
2.4094621e-06
1.7530023e-06
1.2538688e-06
8.409507e-07
5.6221404e-07
2.7337222e-07
1.977026e-07
1.6014618e-07
3.257819e-06
4.3889279e-06
5.8964313e-06
7.9480179e-06
1.0758673e-05
1.4635918e-05
2.0017386e-05
2.7436478e-05
3.7561953e-05
5.0424063e-05
6.5941939e-05
8.4781996e-05
0.00010658433
0.00013106672
0.00015699994
0.00018246936
0.00020501911
0.0002219713
0.00023094295
0.00023038479
0.00022001094
0.00020095442
0.00017556213
0.00014686483
0.00011790023
9.1130373e-05
6.8123186e-05
4.9530111e-05
3.5276775e-05
2.4838612e-05
1.7495094e-05
1.2514391e-05
9.2495599e-06
7.1899158e-06
5.9360356e-06
5.2254251e-06
4.8392059e-06
4.6826162e-06
4.6251878e-06
3.2549086e-06
2.4094615e-06
1.7530237e-06
1.2563384e-06
8.3954751e-07
5.6612934e-07
2.6622493e-07
1.9549477e-07
1.1754664e-07
4.3757895e-06
5.8602283e-06
7.8681138e-06
1.0598489e-05
1.4338112e-05
1.9488391e-05
2.6600161e-05
3.6339391e-05
4.9476812e-05
6.5908199e-05
8.525215e-05
0.0001082832
0.00013427763
0.00016262354
0.00019154716
0.00021858161
0.00024080797
0.00025533745
0.000259916
0.00025349267
0.00023655729
0.00021112099
0.00018028659
0.0001475434
0.00011603015
8.8016447e-05
6.4718194e-05
4.6410809e-05
3.2710145e-05
2.2882097e-05
1.6090815e-05
1.1557855e-05
8.6309947e-06
6.8123228e-06
5.7242623e-06
5.1230435e-06
4.8088103e-06
4.6948674e-06
4.6671239e-06
4.3707862e-06
3.2549078e-06
2.4124147e-06
1.7543711e-06
1.2608143e-06
8.3830642e-07
5.709603e-07
2.5955698e-07
1.9316098e-07
8.1174513e-08
5.839468e-06
7.8137189e-06
1.0481165e-05
1.4111154e-05
1.9074392e-05
2.5878442e-05
3.5218044e-05
4.7880892e-05
6.4779496e-05
8.5534549e-05
0.00010935358
0.0001371045
0.0001675992
0.00019977585
0.00023124095
0.00025894
0.00027956667
0.00029017747
0.00028887934
0.00027535527
0.0002510525
0.00021892657
0.00018277628
0.00014639789
0.00011285689
8.4090353e-05
6.0885075e-05
4.3120797e-05
3.0121367e-05
2.0974545e-05
1.4760111e-05
1.0675072e-05
8.0753802e-06
6.4844249e-06
5.5505102e-06
5.0495457e-06
4.8001177e-06
4.7245692e-06
4.7229932e-06
5.8317628e-06
4.370785e-06
3.2578164e-06
2.4177216e-06
1.7576385e-06
1.2673338e-06
8.3795757e-07
5.7661257e-07
2.5421078e-07
1.9050174e-07
5.2905175e-08
7.7824959e-06
1.0400951e-05
1.3944336e-05
1.8757737e-05
2.5312219e-05
3.4246208e-05
4.6402708e-05
6.2729289e-05
8.4230863e-05
0.00011016517
0.00013909046
0.0001720322
0.00020716835
0.00024289978
0.00027613448
0.00030325956
0.00032070434
0.00032569938
0.00031697949
0.00029520779
0.00026293104
0.00022405072
0.00018293102
0.00014348053
0.00010850658
7.9490909e-05
5.6739955e-05
3.9742352e-05
2.7561739e-05
1.9145108e-05
1.3517624e-05
9.8714619e-06
7.5835327e-06
6.2057091e-06
5.4136377e-06
5.0029861e-06
4.8114818e-06
4.7702372e-06
4.7916647e-06
7.7709934e-06
5.8317611e-06
4.375786e-06
3.2656939e-06
2.4260883e-06
1.7634879e-06
1.2756963e-06
8.394354e-07
5.8316397e-07
2.5149741e-07
1.8709576e-07
3.3183222e-08
1.035475e-05
1.3829913e-05
1.8524497e-05
2.4878143e-05
3.3482372e-05
4.5116163e-05
6.0807587e-05
8.1645176e-05
0.00010871612
0.0001407314
0.00017535888
0.0002138248
0.0002535181
0.00029220405
0.00032606746
0.00035101184
0.00036340863
0.00036094405
0.00034328194
0.0003122907
0.00027169972
0.00022627376
0.00018074556
0.00013891093
0.00010314142
7.4368018e-05
5.2396331e-05
3.6350722e-05
2.507638e-05
1.7417994e-05
1.2373642e-05
9.1498548e-06
7.1558845e-06
5.9753443e-06
5.3111221e-06
4.9810801e-06
4.8418465e-06
4.8311731e-06
4.8783766e-06
1.0337669e-05
7.7709915e-06
5.8394633e-06
4.3889218e-06
3.2795983e-06
2.4387679e-06
1.7726754e-06
1.2856986e-06
8.4399754e-07
5.9165783e-07
2.529991e-07
1.8120323e-07
2.0083938e-08
1.3763886e-05
1.8364064e-05
2.4557567e-05
3.2895731e-05
4.4102889e-05
5.9128855e-05
7.9187408e-05
0.00010551792
0.00013920301
0.00017823828
0.00021904983
0.00026317444
0.00030702671
0.00034768204
0.00038061335
0.00040140455
0.00040664478
0.00039481468
0.00036681584
0.00032589882
0.00027697309
0.00022549365
0.00017630894
0.00013286587
9.69472e-05
6.8873766e-05
4.7961493e-05
3.3013969e-05
2.270403e-05
1.5811424e-05
1.1334592e-05
8.5124262e-06
6.7923215e-06
5.7899854e-06
5.2398309e-06
4.983639e-06
4.8910895e-06
4.9084896e-06
4.9859169e-06
1.3739508e-05
1.0337667e-05
7.7824895e-06
5.8602202e-06
4.4118266e-06
3.3006774e-06
2.4569772e-06
1.7864785e-06
1.2976699e-06
8.5345333e-07
6.0257758e-07
2.5996367e-07
1.7304974e-07
1.3981285e-08
1.8271304e-05
2.43365e-05
3.2461411e-05
4.3323065e-05
5.7804704e-05
7.7032222e-05
0.00010242359
0.00013533341
0.00017674503
0.00022370869
0.00027101022
0.0003206354
0.00036786274
0.00040904653
0.00043904462
0.00045336716
0.00044917633
0.00042612063
0.00038663006
0.0003354308
0.00027850312
0.00022173328
0.00016979537
0.00012556479
9.0121268e-05
6.3156585e-05
4.3535506e-05
2.9792366e-05
2.0475448e-05
1.4337875e-05
1.0405704e-05
7.9604865e-06
6.4885436e-06
5.6451816e-06
5.2008375e-06
5.0113817e-06
4.9551563e-06
5.0063157e-06
5.1112489e-06
1.8237032e-05
1.3739504e-05
1.0354742e-05
7.8137084e-06
5.8964198e-06
4.4459369e-06
3.3308566e-06
2.4814792e-06
1.8063375e-06
1.3132424e-06
8.6710205e-07
6.0214275e-07
2.6923975e-07
1.6752857e-07
1.4417243e-08
2.4208476e-05
3.2161396e-05
4.2744337e-05
5.6783492e-05
7.532971e-05
9.9699663e-05
0.00013150479
0.00017217926
0.00022243041
0.00027814817
0.00033196847
0.00038656496
0.00043590878
0.00047567981
0.00050030291
0.00050555911
0.00048960176
0.00045363934
0.00040185542
0.00034043429
0.00027619804
0.00021513559
0.00016144823
0.00011725382
8.286321e-05
5.735923e-05
3.9209664e-05
2.6735779e-05
1.8413098e-05
1.3007825e-05
9.5908732e-06
7.4888811e-06
6.2381456e-06
5.5441693e-06
5.1958706e-06
5.0512132e-06
5.039724e-06
5.1243697e-06
5.2562964e-06
2.4161198e-05
1.8237028e-05
1.3763876e-05
1.0400937e-05
7.8680984e-06
5.9499096e-06
4.4932908e-06
3.3723477e-06
2.5143979e-06
1.8332349e-06
1.3326155e-06
8.8064621e-07
5.9568292e-07
2.7540088e-07
1.6169427e-07
1.9512901e-08
3.1987418e-05
4.2343925e-05
5.602375e-05
7.401346e-05
9.7545241e-05
0.00012811968
0.00016752684
0.00021720136
0.00027734534
0.00034246943
0.00040247436
0.0004610371
0.0005106968
0.00054658747
0.00056299135
0.00055639567
0.00052641699
0.00047619169
0.00041176959
0.0003406413
0.00027012649
0.00020594789
0.00015156073
0.00010819288
7.5370802e-05
5.1616442e-05
3.5062541e-05
2.3882718e-05
1.6536041e-05
1.1829508e-05
8.8843976e-06
7.0885912e-06
6.0471734e-06
5.4896947e-06
5.1991862e-06
5.1144176e-06
5.1472905e-06
5.2631779e-06
5.4213633e-06
3.1923238e-05
2.4161193e-05
1.8271291e-05
1.3829894e-05
1.0481144e-05
7.9479976e-06
6.0238937e-06
4.5570865e-06
3.4273964e-06
2.5570862e-06
1.8642384e-06
1.3498305e-06
8.9075632e-07
5.9765271e-07
2.7891845e-07
1.531104e-07
2.6978368e-08
4.211144e-05
5.5497284e-05
7.3031599e-05
9.5875683e-05
0.00012543986
0.00016339343
0.00021166118
0.00027156694
0.00034249794
0.00041743077
0.0004828028
0.0005437642
0.00059134567
0.00062037344
0.0006253842
0.00060410409
0.00055809813
0.00049272706
0.00041585641
0.00033598686
0.00026050561
0.00019449991
0.00014045864
9.8648127e-05
6.7836582e-05
4.6048871e-05
3.1157721e-05
2.1266081e-05
1.4859666e-05
1.0797366e-05
8.2737821e-06
6.7684645e-06
5.9198262e-06
5.4378475e-06
5.232258e-06
5.2051531e-06
5.2774069e-06
5.4238942e-06
5.6072859e-06
4.2025856e-05
3.1923231e-05
2.4208459e-05
1.8364042e-05
1.394431e-05
1.0598462e-05
8.057523e-06
6.1226572e-06
4.6418053e-06
3.4968914e-06
2.6015305e-06
1.8974428e-06
1.3622204e-06
8.9906249e-07
5.9846148e-07
2.8406252e-07
1.4368278e-07
3.4492137e-08
5.5191048e-05
7.2350681e-05
9.4626668e-05
0.00012335976
0.00016012015
0.00020671262
0.00026512213
0.00033640715
0.00041876101
0.0005035321
0.00057286315
0.00063401995
0.00067651897
0.00069522875
0.00068547068
0.00064680569
0.00058320314
0.00050239835
0.00041384244
0.00032660618
0.00024767852
0.00018118231
0.0001284886
8.8887204e-05
6.0441014e-05
4.0758429e-05
2.7549585e-05
1.8912611e-05
1.3379729e-05
9.8945198e-06
7.770796e-06
6.5353541e-06
5.7880327e-06
5.4278936e-06
5.297718e-06
5.3219021e-06
5.4315662e-06
5.6071463e-06
5.8146513e-06
5.5078449e-05
4.2025847e-05
3.1987399e-05
2.4336472e-05
1.8524464e-05
1.4111118e-05
1.0758638e-05
8.2028185e-06
6.2518505e-06
4.7465801e-06
3.5717273e-06
2.6481419e-06
1.9269531e-06
1.3751141e-06
9.0552415e-07
5.9611309e-07
2.8954496e-07
1.3429152e-07
4.0204101e-08
7.1954039e-05
9.3760582e-05
0.0001217981
0.00015757519
0.00020279363
0.00025933101
0.00032912525
0.00041276215
0.00050677004
0.00060091417
0.00067210807
0.00073058303
0.00076438986
0.00076895675
0.00074103172
0.00068262364
0.00060047497
0.00050462738
0.00040571011
0.00031281599
0.00023208929
0.00016642993
0.00011601185
7.9171391e-05
5.3343546e-05
3.5832649e-05
2.4282539e-05
1.6821653e-05
1.2074198e-05
9.1358087e-06
7.3864864e-06
6.2894376e-06
5.7184229e-06
5.45543e-06
5.3945456e-06
5.4667783e-06
5.6103392e-06
5.8139269e-06
6.0442381e-06
7.180909e-05
5.507844e-05
4.2111418e-05
3.2161362e-05
2.4557525e-05
1.8757693e-05
1.4338068e-05
1.0969898e-05
8.3919505e-06
6.4090268e-06
4.8552869e-06
3.6406478e-06
2.6936176e-06
1.9503667e-06
1.386847e-06
9.1366192e-07
5.9236038e-07
2.9495913e-07
1.2518596e-07
4.3157757e-08
9.3255888e-05
0.00012071327
0.00015565647
0.00019973879
0.00025474627
0.00032252501
0.00040482438
0.00050148845
0.00060681896
0.00070925575
0.00077946841
0.00083167629
0.00085264236
0.00083903838
0.00078974922
0.00070981543
0.00060894166
0.00049914651
0.00039168701
0.0002950872
0.0002142607
0.00015071412
0.00010339694
6.9743597e-05
4.6681812e-05
3.1342059e-05
2.1363142e-05
1.4965465e-05
1.096141e-05
8.5385338e-06
6.9803228e-06
6.1374639e-06
5.6904082e-06
5.5226594e-06
5.5255113e-06
5.6404247e-06
5.81503e-06
6.0450086e-06
6.2967917e-06
9.3073933e-05
7.1809082e-05
5.5191021e-05
4.2343885e-05
3.2461363e-05
2.487809e-05
1.9074335e-05
1.4635862e-05
1.1243096e-05
8.6183257e-06
6.5747723e-06
4.9504199e-06
3.7023993e-06
2.7316288e-06
1.9716023e-06
1.3978806e-06
9.2249119e-07
5.8860971e-07
3.0054847e-07
1.1692639e-07
4.3331962e-08
0.0001200807
0.0001543189
0.00019742473
0.00025116039
0.00031730378
0.00039753808
0.00049323472
0.00060315239
0.00071875948
0.00082770775
0.00089326537
0.00093493865
0.00093852265
0.00090273292
0.00082934933
0.00072690553
0.00060797896
0.00048601123
0.00037222247
0.00027401706
0.00019478467
0.00013453968
9.1002846e-05
6.0816026e-05
4.0564549e-05
2.7306352e-05
1.8758941e-05
1.3366513e-05
1.0067975e-05
7.9102606e-06
6.7156584e-06
6.030085e-06
5.7136109e-06
5.6323089e-06
5.6910559e-06
5.8441671e-06
6.0464847e-06
6.3012635e-06
6.5730216e-06
0.00011985622
9.3073922e-05
7.1954007e-05
5.5497239e-05
4.274428e-05
3.2895665e-05
2.5312148e-05
1.9488319e-05
1.5018269e-05
1.156634e-05
8.8553478e-06
6.7118547e-06
5.0364457e-06
3.7594086e-06
2.7650886e-06
1.9958053e-06
1.4101847e-06
9.3213422e-07
5.8589722e-07
3.0612892e-07
1.103421e-07
4.1377564e-08
0.00015353937
0.00019580477
0.00024842823
0.00031320293
0.00039178189
0.00048551241
0.00059513221
0.00071793743
0.00084195456
0.00095477574
0.001011147
0.0010374658
0.0010189222
0.00095722104
0.00085776253
0.00073278894
0.00059734534
0.00046558079
0.0003479555
0.00025031656
0.00017432925
0.00011842411
7.9148976e-05
5.2553118e-05
3.5034127e-05
2.3692377e-05
1.6498046e-05
1.206517e-05
9.1350553e-06
7.4932395e-06
6.4968869e-06
5.9903951e-06
5.7908514e-06
5.7849313e-06
5.8923725e-06
6.078919e-06
6.3057302e-06
6.583307e-06
6.87339e-06
0.00015326802
0.0001198562
9.3255856e-05
7.2350631e-05
5.6023683e-05
4.3322986e-05
3.3482288e-05
2.5878354e-05
2.0017298e-05
1.5466124e-05
1.1910171e-05
9.0431646e-06
6.8278509e-06
5.1187283e-06
3.8103881e-06
2.8026513e-06
2.0231783e-06
1.4250017e-06
9.4324819e-07
5.8508605e-07
3.1131603e-07
1.0602383e-07
3.8220621e-08
0.00019486286
0.00024650795
0.00031005613
0.00038723648
0.0004794248
0.00058739721
0.00071096328
0.00084561444
0.00097514609
0.0010882147
0.0011301267
0.0011358745
0.0010905016
0.00099978875
0.00087327116
0.00072679411
0.00057720577
0.00043848578
0.00031969859
0.00022483605
0.00015362004
0.00010283697
6.8079234e-05
4.5033623e-05
3.0065285e-05
2.053688e-05
1.4639679e-05
1.071872e-05
8.5139034e-06
7.1210068e-06
6.3692458e-06
6.0205547e-06
5.9224502e-06
5.982038e-06
6.1305808e-06
6.3457017e-06
6.5933211e-06
6.8913461e-06
7.1980233e-06
0.00019454364
0.000153268
0.00012008067
9.3760524e-05
7.3031522e-05
5.6783402e-05
4.4102789e-05
3.42461e-05
2.6600051e-05
2.0633524e-05
1.5954895e-05
1.2171636e-05
9.1962902e-06
6.9406491e-06
5.1915521e-06
3.8681139e-06
2.8456499e-06
2.0544753e-06
1.4432023e-06
9.5651779e-07
5.8684714e-07
3.1600071e-07
1.0410109e-07
3.4717059e-08
0.0002453915
0.00030783408
0.00038371591
0.00047458241
0.00058132095
0.00070385935
0.00084079266
0.00098551178
0.001116286
0.001225073
0.0012466419
0.0012263795
0.0011498906
0.0010280102
0.00087462259
0.00070872809
0.00054808525
0.00040559623
0.00028848746
0.00019856219
0.00013333352
8.8130821e-05
5.7929236e-05
3.8256466e-05
2.5708614e-05
1.7923546e-05
1.2735536e-05
9.827129e-06
7.9332601e-06
6.8729944e-06
6.3324357e-06
6.1207389e-06
6.1099768e-06
6.2245362e-06
6.4062756e-06
6.64497e-06
6.9092541e-06
7.2252001e-06
7.5463769e-06
0.00024502634
0.00019454363
0.00015353933
0.00012071321
9.4626585e-05
7.4013358e-05
5.7804586e-05
4.5116035e-05
3.5217913e-05
2.7436347e-05
2.1317424e-05
1.6313797e-05
1.2365896e-05
9.3457451e-06
7.0388754e-06
5.2736824e-06
3.9335423e-06
2.894681e-06
2.0906789e-06
1.4652182e-06
9.7219132e-07
5.9151068e-07
3.2033415e-07
1.0427337e-07
3.1470795e-08
0.00030654041
0.00038121367
0.00047078298
0.00057643525
0.00069831724
0.00083521675
0.00098426297
0.0011359446
0.0012626025
0.0013617729
0.0013565405
0.0013050044
0.0011938933
0.0010399021
0.000861114
0.00067890038
0.0005108247
0.00036809292
0.00025561858
0.00017244849
0.00011396769
7.4526302e-05
4.87509e-05
3.2296227e-05
2.2077993e-05
1.527137e-05
1.1489027e-05
8.9671263e-06
7.5230291e-06
6.744039e-06
6.3869135e-06
6.2923348e-06
6.3543314e-06
6.5128373e-06
6.7201728e-06
6.9764195e-06
7.2532275e-06
7.5842067e-06
7.9172813e-06
0.00030613665
0.00024502632
0.00019486282
0.00015431884
0.00012179801
9.5875568e-05
7.5329575e-05
5.9128707e-05
4.6402551e-05
3.6339231e-05
2.8356446e-05
2.1801287e-05
1.6548898e-05
1.255317e-05
9.4725192e-06
7.149282e-06
5.3660235e-06