/*--------------------------------*- C++ -*----------------------------------*\
| =========                 |                                                 |
| \\      /  F ield         | OpenFOAM: The Open Source CFD Toolbox           |
|  \\    /   O peration     | Version:  5.0                                   |
|   \\  /    A nd           | Web:      www.OpenFOAM.org                      |
|    \\/     M anipulation  |                                                 |
\*---------------------------------------------------------------------------*/
FoamFile
{
    version     2.0;
    format      ascii;
    class       volVectorField;
    location    "195";
    object      U;
}
// * * * * * * * * * * * * * * * * * * * * * * * * * * * * * * * * * * * * * //

dimensions      [0 1 -1 0 0 0 0];

internalField   nonuniform List<vector> 
9200
(
(1.0393006 -0.00061937411 -5.9159706e-24)
(1.0396686 -0.0018721475 -1.0331756e-20)
(1.0410683 -0.00061565596 0)
(1.0402709 -0.0029879371 5.3136959e-21)
(1.0414255 -0.0018787425 -7.8864863e-21)
(1.0418639 -0.00061185949 0)
(1.041017 -0.0040655196 5.3110382e-22)
(1.0420212 -0.0029882126 -3.6768663e-22)
(1.0422179 -0.0018839204 0)
(1.0430255 -0.00060711702 0)
(1.0419071 -0.0050410843 -1.0170487e-20)
(1.0427608 -0.0040735904 -5.8891894e-21)
(1.0428126 -0.0029932187 -4.4045537e-21)
(1.0433742 -0.0018928277 -2.7031094e-22)
(1.0439672 -0.00060122526 -2.9141656e-25)
(1.0428796 -0.0059595728 -9.4068397e-21)
(1.0436374 -0.0050510326 7.1500736e-22)
(1.0435483 -0.0040870796 -1.4214841e-20)
(1.0439706 -0.0030008546 -5.3851572e-21)
(1.0443142 -0.0018994733 3.934794e-23)
(1.0449574 -0.00059327958 1.0977977e-20)
(1.0439072 -0.0067993621 -8.8389628e-21)
(1.044593 -0.0059773131 -9.7559724e-21)
(1.0444197 -0.0050698802 8.58245e-21)
(1.0447065 -0.0041078577 5.1406606e-22)
(1.0449135 -0.0030064609 -5.4259285e-21)
(1.0453057 -0.0019040962 -5.2760612e-21)
(1.0458751 -0.00058292638 -8.2805315e-22)
(1.0449525 -0.0075749583 -3.8925304e-21)
(1.0455962 -0.0068236818 -6.8256821e-21)
(1.0453673 -0.0060059284 -9.3606796e-21)
(1.045577 -0.005100771 1.8849946e-22)
(1.045651 -0.0041263889 1.2950155e-20)
(1.0459135 -0.003008188 5.6330144e-21)
(1.0462261 -0.0019035955 6.6750241e-21)
(1.0467699 -0.0005695841 -1.0119059e-20)
(1.0459907 -0.0082829846 1.071192e-20)
(1.046611 -0.0076080366 -7.8817185e-21)
(1.0463595 -0.0068622959 2.7312026e-22)
(1.0465204 -0.006053973 -4.7307627e-21)
(1.0465225 -0.0051301546 3.5396862e-22)
(1.0466606 -0.004142019 1.9854079e-20)
(1.0468429 -0.0030021982 -3.6293668e-21)
(1.0471285 -0.0018966532 1.1103924e-20)
(1.0476196 -0.00055284942 2.113649e-20)
(1.0469996 -0.0089286769 -8.0820115e-21)
(1.0476119 -0.0083248806 3.8939929e-21)
(1.04736 -0.0076587178 2.1999803e-22)
(1.0475048 -0.0069288816 -8.9894451e-22)
(1.0474644 -0.006101483 1.6481883e-21)
(1.0475423 -0.0051584906 4.3836783e-22)
(1.0476008 -0.0041482246 -6.9323097e-21)
(1.0477612 -0.0029856501 -1.1905593e-20)
(1.0479877 -0.001881272 -6.4680721e-21)
(1.0484286 -0.00053214642 -1.6233754e-21)
(1.0479619 -0.0095142529 3.7154313e-21)
(1.0485774 -0.0089798192 -2.3077282e-22)
(1.0483433 -0.0083884744 -6.3378655e-21)
(1.0484929 -0.007747575 6.4791687e-21)
(1.048444 -0.0069965639 -9.0909223e-21)
(1.0484928 -0.0061517076 2.0166572e-20)
(1.0484941 -0.0051765764 8.3748017e-23)
(1.0485402 -0.0041414882 -1.9240024e-20)
(1.0486383 -0.0029555481 9.3226844e-21)
(1.0488096 -0.0018552666 -1.9350545e-20)
(1.0491918 -0.00050718026 2.7812279e-21)
(1.0488617 -0.010043837 -1.3654158e-22)
(1.0494912 -0.0095740987 1.3938008e-21)
(1.0492878 -0.0090573998 5.4143959e-21)
(1.0494593 -0.0085015431 0)
(1.0494235 -0.0078394875 -1.2226863e-22)
(1.0494784 -0.0070722082 -2.5093951e-22)
(1.0494548 -0.0061915161 4.0971143e-21)
(1.049457 -0.005180724 9.7321804e-21)
(1.0494391 -0.0041170714 5.4638212e-22)
(1.0494826 -0.0029089988 1.1503631e-20)
(1.0495889 -0.0018172437 7.558872e-21)
(1.0499067 -0.00047767954 -1.6476114e-21)
(1.0496786 -0.010522163 -1.3897517e-22)
(1.0503395 -0.010111079 7.5701062e-22)
(1.0501774 -0.009666406 0)
(1.0503824 -0.0091966798 0)
(1.0503772 -0.008619964 3.2829367e-21)
(1.0504603 -0.0079462723 -4.1568071e-21)
(1.0504484 -0.0071379533 8.8195837e-21)
(1.0504415 -0.0062180164 -1.100474e-20)
(1.0503806 -0.0051643279 -9.5764639e-22)
(1.0503168 -0.0040710233 -1.0762892e-23)
(1.0502878 -0.0028436636 -1.3055001e-20)
(1.0503228 -0.001765721 1.3252292e-20)
(1.05057 -0.00044348357 -2.4699797e-20)
(1.0503747 -0.010955613 4.1682253e-22)
(1.0511066 -0.010594238 -1.6516753e-22)
(1.050999 -0.010218948 2.9380822e-21)
(1.0512466 -0.0098330548 -3.2595128e-21)
(1.0512835 -0.0093438264 3.475022e-21)
(1.0514122 -0.0087615633 -8.6042046e-22)
(1.051435 -0.0080442088 -2.9206748e-21)
(1.0514574 -0.0071925114 3.4814066e-23)
(1.0513907 -0.0062219702 -1.0712782e-20)
(1.0512965 -0.0051222096 -9.8624511e-21)
(1.0511584 -0.0039999443 -3.6536911e-21)
(1.0510518 -0.0027568925 -9.9299063e-21)
(1.051008 -0.0016996256 -6.4679153e-21)
(1.0511788 -0.00040451563 6.4731291e-21)
(1.0508711 -0.011354035 5.3669809e-21)
(1.0517638 -0.011028579 -3.3753077e-21)
(1.0517382 -0.010718532 1.4118067e-21)
(1.0520397 -0.010413612 4.4047798e-23)
(1.052127 -0.010010305 5.7649922e-25)
(1.0523123 -0.0095237652 8.1664552e-22)
(1.0523877 -0.0088958095 -2.8182086e-21)
(1.0524622 -0.0081347713 3.7393836e-21)
(1.0524311 -0.0072235101 -1.0814689e-22)
(1.0523465 -0.0061977117 1.0564221e-21)
(1.0521771 -0.0050502288 2.251358e-22)
(1.0519657 -0.0039001489 1.2282776e-21)
(1.0517706 -0.0026471782 1.2527304e-20)
(1.0516414 -0.0016181282 -5.7497207e-21)
(1.0517305 -0.00036079272 4.4961973e-21)
(1.0510156 -0.011727748 -1.7857736e-21)
(1.0522481 -0.011422898 3.7214086e-21)
(1.0523697 -0.011170162 -1.3376334e-21)
(1.0527495 -0.010941084 2.9937185e-21)
(1.0528959 -0.010621886 -3.3075891e-21)
(1.0531452 -0.010231043 8.6095127e-21)
(1.053284 -0.0096981143 -7.5885205e-21)
(1.0534291 -0.0090282624 1.4797532e-22)
(1.0534593 -0.0082016365 2.7487221e-21)
(1.0534264 -0.0072256221 9.420432e-23)
(1.0532709 -0.0061396654 2.5213377e-20)
(1.0530375 -0.0049429645 -6.2374682e-21)
(1.0527333 -0.0037692446 -4.1637176e-21)
(1.0524411 -0.0025131092 -2.0531707e-21)
(1.0522201 -0.0015207311 -8.005034e-22)
(1.0522229 -0.00031241914 -4.6852419e-21)
(1.0505525 -0.012095649 0)
(1.0524302 -0.011788282 2.69361e-21)
(1.0528377 -0.011582042 -2.462264e-21)
(1.0533556 -0.011419645 0)
(1.0535798 -0.011180746 0)
(1.0538995 -0.010885144 0)
(1.0541086 -0.010448102 -4.0720662e-23)
(1.0543349 -0.0098779113 -6.5283824e-21)
(1.054446 -0.0091375307 1.5274757e-21)
(1.0544914 -0.0082406767 -7.7962679e-21)
(1.0543957 -0.0071909305 -2.0409859e-22)
(1.054188 -0.0060409377 -5.3918414e-21)
(1.0538604 -0.0047981304 1.2620455e-22)
(1.0534581 -0.0036047689 4.686444e-21)
(1.0530597 -0.0023539269 1.5331353e-21)
(1.0527413 -0.0014072362 2.5061934e-21)
(1.0526541 -0.00025958161 0)
(1.0490944 -0.012471723 7.8152771e-22)
(1.0520786 -0.012146222 -5.8532424e-21)
(1.0530244 -0.011964132 5.1591731e-21)
(1.0538112 -0.011856378 1.4728429e-21)
(1.0541616 -0.011690544 2.9898882e-21)
(1.054566 -0.011487294 0)
(1.0548504 -0.011146714 3.148356e-21)
(1.0551639 -0.010679314 -2.1283975e-22)
(1.0553669 -0.01003565 -1.1431454e-20)
(1.0555111 -0.0092217151 1.309522e-21)
(1.0555049 -0.0082407931 4.5802506e-21)
(1.055371 -0.0071119072 -4.9822813e-22)
(1.0550728 -0.0058985375 -1.0050344e-20)
(1.0546506 -0.0046111528 1.6416055e-20)
(1.054136 -0.0034055068 4.772886e-21)
(1.0536236 -0.0021692379 1.8101683e-20)
(1.0532031 -0.001277761 6.691037e-21)
(1.0530228 -0.00020253844 4.7234846e-21)
(1.0461458 -0.012871301 7.748284e-23)
(1.0508234 -0.012518063 -2.3128961e-21)
(1.0527128 -0.012335292 -1.7891072e-21)
(1.0540134 -0.012260678 3.3958894e-21)
(1.0546018 -0.012157553 -3.0470697e-22)
(1.0551305 -0.012040153 4.4634437e-21)
(1.0555011 -0.011794294 2.8204408e-21)
(1.0559052 -0.011432393 -6.2420406e-21)
(1.056206 -0.010890132 -2.2825699e-21)
(1.0564605 -0.010172703 7.7100383e-21)
(1.0565662 -0.0092659654 -1.2379988e-22)
(1.0565377 -0.0081945957 1.0845461e-20)
(1.0563212 -0.0069840965 -3.492337e-21)
(1.0559367 -0.0057061506 -1.1556817e-21)
(1.0553981 -0.0043810732 -2.1497095e-21)
(1.0547636 -0.0031703732 -3.0855401e-21)
(1.0541299 -0.0019591996 5.5298981e-21)
(1.0536035 -0.0011327124 2.2435621e-22)
(1.0533281 -0.00014161081 3.4708847e-21)
(1.0411568 -0.013301247 8.51346e-22)
(1.0481674 -0.012929441 2.9648988e-21)
(1.0515481 -0.012713933 -1.2846371e-20)
(1.0537642 -0.012650923 -7.57151e-22)
(1.0548097 -0.012590473 2.5198097e-21)
(1.0555601 -0.012548653 1.8866379e-21)
(1.0560493 -0.012392718 4.6358544e-22)
(1.0565509 -0.012136304 6.4833605e-21)
(1.0569521 -0.011699815 -9.0734618e-22)
(1.0573226 -0.011086201 -1.0269682e-20)
(1.0575529 -0.010269844 1.3685736e-20)
(1.057654 -0.0092635882 -2.3582475e-21)
(1.0575547 -0.0080954095 -5.1293723e-21)
(1.0572625 -0.0067999252 4.4957699e-22)
(1.056763 -0.0054628273 -1.2917518e-21)
(1.0561021 -0.0041053909 -1.0980457e-20)
(1.0553372 -0.0028993102 7.4675008e-22)
(1.0545763 -0.0017243763 -9.1019454e-21)
(1.0539415 -0.00097276887 -2.0990281e-21)
(1.05357 -7.7186597e-05 -3.0120106e-21)
(1.0336116 -0.013757793 -3.4892989e-22)
(1.0435304 -0.013399205 3.6857018e-21)
(1.0490403 -0.013122264 -1.4862167e-21)
(1.0527271 -0.013047125 3.3402985e-21)
(1.054604 -0.013006124 1.592477e-21)
(1.0557761 -0.013020457 -2.3575573e-21)
(1.0564678 -0.012945983 4.2390984e-21)
(1.0570917 -0.012791741 6.8484957e-21)
(1.0575978 -0.012462648 -9.0685704e-21)
(1.0580858 -0.011959822 0)
(1.0584468 -0.011243353 -9.0723299e-21)
(1.0586915 -0.010321721 3.5555603e-22)
(1.0587362 -0.0092052207 1.0050926e-20)
(1.0585752 -0.0079348985 -4.5820418e-21)
(1.0581741 -0.0065575563 5.4433042e-21)
(1.0575557 -0.005163933 -9.7774732e-21)
(1.0567562 -0.0037843179 -2.6453951e-21)
(1.055854 -0.0025926474 2.2951359e-21)
(1.0549612 -0.0014657837 -3.9757491e-21)
(1.0542163 -0.00079885663 -7.6085708e-22)
(1.053749 -9.7483107e-06 -1.962712e-21)
(1.0231245 -0.014225214 -4.5584255e-21)
(1.036337 -0.013934174 2.7252178e-21)
(1.0446026 -0.013576474 6.3818705e-21)
(1.0504199 -0.013474451 -7.7059982e-21)
(1.0536661 -0.013423722 -4.1984249e-21)
(1.0556143 -0.013470822 1.8798264e-21)
(1.0566889 -0.013461055 0)
(1.0575054 -0.013401278 6.7232454e-21)
(1.0581356 -0.013178224 1.6341311e-21)
(1.0587429 -0.012790065 -1.2858507e-20)
(1.0592359 -0.012182847 -3.9479907e-21)
(1.0596309 -0.011358267 1.1713661e-21)
(1.0598356 -0.010315854 6.4398033e-23)
(1.0598353 -0.0090821221 -4.4649145e-21)
(1.0595759 -0.0077096329 4.6049363e-21)
(1.0590623 -0.0062509005 -4.0854051e-21)
(1.0583033 -0.0048102921 1.2606705e-21)
(1.0573579 -0.0034173583 -6.5065471e-21)
(1.0563112 -0.0022515203 -2.7185154e-21)
(1.0552832 -0.0011847697 -5.447235e-22)
(1.0544281 -0.00061213641 -1.3614901e-21)
(1.0538657 6.0057123e-05 0)
(1.0095162 -0.014677716 -2.9082998e-21)
(1.0261208 -0.014524721 -1.0998424e-21)
(1.0376351 -0.014082119 2.8785913e-22)
(1.0462438 -0.013953613 -6.6846346e-21)
(1.0515251 -0.013867718 -2.2171137e-21)
(1.0547766 -0.013919199 2.5822511e-21)
(1.0565644 -0.013951674 -5.0969333e-21)
(1.0577342 -0.013970563 6.978856e-21)
(1.0585477 -0.013847906 3.6385302e-21)
(1.0592876 -0.013575142 2.1786463e-22)
(1.0599128 -0.013083314 2.0265761e-23)
(1.0604592 -0.012368214 -1.5930072e-21)
(1.0608319 -0.011414986 1.1913351e-21)
(1.0610106 -0.010243469 -7.9183272e-21)
(1.0609257 -0.0088888137 -1.0991176e-20)
(1.0605645 -0.0074123194 -9.4537685e-21)
(1.0599127 -0.0058801807 1.7448681e-21)
(1.0590056 -0.0043994772 1.2112435e-20)
(1.0579027 -0.0030060587 -1.8792285e-23)
(1.056707 -0.0018776189 -2.6718981e-21)
(1.055542 -0.00088303305 0)
(1.0545774 -0.00041398364 1.9463311e-21)
(1.0539212 0.00013103291 2.2120699e-22)
(0.99285071 -0.015083804 1.5219989e-20)
(1.0126171 -0.015144544 -2.3719434e-21)
(1.0276317 -0.014630134 7.4402289e-21)
(1.0395638 -0.014494907 3.8144481e-21)
(1.0475778 -0.014359434 -8.384087e-21)
(1.0528056 -0.014390934 0)
(1.0558157 -0.014436996 -1.0666295e-21)
(1.0576459 -0.014511527 5.0778247e-21)
(1.058785 -0.014476202 3.6548835e-21)
(1.0597055 -0.014314866 -5.5371684e-22)
(1.0604721 -0.013941579 -7.1970272e-21)
(1.0611687 -0.013344914 -4.3789628e-21)
(1.0617108 -0.012496207 5.9164226e-21)
(1.0620781 -0.011405094 -8.7004348e-21)
(1.0621891 -0.010096683 1.2657881e-20)
(1.0620167 -0.0086169637 2.0365753e-20)
(1.0615245 -0.007041964 4.6455128e-22)
(1.0607256 -0.0054416865 4.979674e-21)
(1.0596545 -0.0039338055 -1.0985178e-20)
(1.0583882 -0.0025516113 3.5645734e-23)
(1.0570395 -0.0014737686 4.0562454e-21)
(1.0557377 -0.00056286806 -1.3562875e-21)
(1.0546649 -0.0002062233 -4.5474937e-22)
(1.0539194 0.00019918563 1.7297506e-22)
(0.97342673 -0.015411602 4.2178872e-21)
(0.99581643 -0.015754468 -2.6557421e-22)
(1.01428 -0.015196581 9.0646541e-23)
(1.0298192 -0.015092879 -1.6097929e-20)
(1.0411636 -0.014910935 5.8829269e-21)
(1.0490968 -0.014910054 -9.9808689e-21)
(1.0540011 -0.014941921 -9.1897387e-22)
(1.0569829 -0.015042691 -8.9668305e-21)
(1.0587303 -0.015073476 4.2567606e-21)
(1.0599558 -0.01501219 2.7993383e-21)
(1.0609025 -0.014755967 -6.6641618e-21)
(1.0617541 -0.01428359 4.3752765e-21)
(1.0624641 -0.013551245 -5.6074791e-21)
(1.0630223 -0.012559211 -3.6893911e-23)
(1.063341 -0.011318042 1.0409227e-20)
(1.0633819 -0.0098662735 1.3514357e-21)
(1.0630899 -0.0082639048 -1.0830692e-22)
(1.0624566 -0.0065935975 8.2819138e-21)
(1.0614909 -0.0049373563 0)
(1.060248 -0.0034131721 1.6037304e-21)
(1.0588113 -0.0020569077 3.8910312e-22)
(1.0573077 -0.0010425523 -5.6402624e-22)
(1.0558699 -0.00022812012 -8.9968849e-22)
(1.0546916 7.1501507e-06 4.0850634e-22)
(1.0538642 0.00027381172 1.2010107e-21)
(0.9517307 -0.015633359 -1.4526774e-20)
(0.97596902 -0.016308527 -8.1393608e-22)
(0.997524 -0.015746209 2.211996e-21)
(1.0166334 -0.015724938 1.7701171e-21)
(1.0316762 -0.015519204 1.6182492e-20)
(1.0429657 -0.015491945 9.7731893e-23)
(1.0505174 -0.015491529 -8.8018457e-22)
(1.0553209 -0.015588864 6.7633379e-22)
(1.0581459 -0.015657338 6.7544006e-21)
(1.0599356 -0.015675615 -4.046008e-21)
(1.0611701 -0.015527909 4.693339e-21)
(1.0622068 -0.015180853 -1.989516e-22)
(1.0630866 -0.014573656 -1.8448835e-21)
(1.0638337 -0.013695845 2.6349551e-21)
(1.0643639 -0.012543813 2.4804695e-22)
(1.0646329 -0.011143893 -1.4842239e-20)
(1.0645695 -0.0095475531 -2.1760107e-20)
(1.0641466 -0.0078233934 -1.2281195e-20)
(1.0633486 -0.0060682384 -1.6201354e-20)
(1.0622059 -0.0043661775 -4.1285246e-22)
(1.0607806 -0.0028411632 1.2803174e-20)
(1.0591701 -0.0015246345 -6.6830777e-23)
(1.0575114 -0.00058642299 -8.5503949e-22)
(1.05594 0.0001204508 -5.4411112e-22)
(1.0546607 0.00023056233 1.2819646e-21)
(1.0537515 0.00035234092 -2.709126e-23)
(0.92836686 -0.015728741 6.5467066e-22)
(0.95354647 -0.016760202 -1.3017584e-21)
(0.97757702 -0.016238618 -9.5058026e-21)
(0.99989066 -0.016354543 9.6230228e-21)
(1.0186814 -0.016163777 -1.4252791e-20)
(1.0337597 -0.016136628 8.4797962e-21)
(1.04466 -0.016103274 3.6870689e-21)
(1.0520625 -0.016176781 8.6326015e-21)
(1.0566266 -0.016252121 -9.5939448e-21)
(1.0594275 -0.016321453 -4.0364247e-21)
(1.0611853 -0.01626412 1.5564293e-21)
(1.0624989 -0.016036326 -1.1482834e-20)
(1.0635713 -0.015558326 1.1371797e-20)
(1.064507 -0.014806815 -1.3772265e-21)
(1.0652472 -0.013762349 3.0656155e-21)
(1.0657501 -0.012439576 -5.1012931e-22)
(1.0659333 -0.010875687 -5.1526025e-21)
(1.0657534 -0.009132959 4.9706196e-21)
(1.0651726 -0.007295071 -5.9108584e-21)
(1.0641975 -0.0054638349 -8.5117491e-22)
(1.0628633 -0.0037315867 0)
(1.0612499 -0.0022197651 4.1372098e-21)
(1.0594627 -0.00095839353 1.7901957e-21)
(1.0576503 -0.00010882077 0)
(1.0559495 0.00048181634 9.294186e-22)
(1.0545747 0.00046015908 -5.9885005e-22)
(1.05359 0.00042869753 -2.3098224e-21)
(0.90398199 -0.015692724 5.0091684e-21)
(0.92917181 -0.01706899 -1.9152811e-22)
(0.95488871 -0.016635797 -8.136733e-21)
(0.97976032 -0.016937326 9.8901473e-22)
(1.0020065 -0.016809033 -2.4408307e-21)
(1.0209824 -0.016825647 -9.466328e-21)
(1.0357331 -0.016779723 -4.8465559e-22)
(1.0464866 -0.016826749 -6.9651349e-21)
(1.0535829 -0.016885459 -1.9580194e-23)
(1.0580471 -0.0169734 8.1462692e-21)
(1.0607501 -0.01697939 -3.9445443e-21)
(1.0625532 -0.016854697 1.009272e-21)
(1.0638958 -0.016503037 -2.911198e-21)
(1.0650362 -0.015885114 3.2580277e-21)
(1.0659848 -0.014963745 -9.3463569e-22)
(1.0667211 -0.013740083 3.9815731e-21)
(1.0671595 -0.012237082 4.1891632e-21)
(1.0672445 -0.010504528 2.7900042e-20)
(1.0669183 -0.0086203835 9.6513582e-21)
(1.0661646 -0.0066756821 1.0610583e-20)
(1.0649938 -0.0047832222 7.7071771e-21)
(1.0634596 -0.0030351418 -2.7710857e-21)
(1.0616523 -0.0015534394 -5.364774e-22)
(1.0596884 -0.000361609 0)
(1.0577256 0.00038788776 0)
(1.0559006 0.00085277884 3.0826308e-23)
(1.0544362 0.00069392531 3.8660779e-21)
(1.0533784 0.00050548209 5.2387572e-21)
(0.87920455 -0.015523561 0)
(0.90353043 -0.017222588 -7.371259e-22)
(0.93008252 -0.01690706 7.1886239e-21)
(0.95666946 -0.01742838 3.3356618e-21)
(0.98177458 -0.017409836 1.0100931e-20)
(1.0043937 -0.01752321 4.7862374e-22)
(1.0231818 -0.017504251 -6.2139736e-21)
(1.0378559 -0.017544592 -1.0987582e-20)
(1.0482812 -0.017579728 1.316757e-20)
(1.055216 -0.017659924 -3.9445076e-21)
(1.0595014 -0.017696496 5.1268284e-22)
(1.0621909 -0.017648891 4.035643e-21)
(1.0639938 -0.017410429 -1.0314402e-20)
(1.0654034 -0.016926499 5.9760819e-21)
(1.0665715 -0.016139076 3.8191358e-21)
(1.0675388 -0.015033758 -1.8083918e-22)
(1.0682338 -0.013617058 3.8128635e-21)
(1.0685954 -0.01192614 -3.0773026e-21)
(1.0685499 -0.010026262 1.4206262e-20)
(1.0680601 -0.0080051689 1.6947728e-21)
(1.0671113 -0.0059670187 6.7143923e-21)
(1.0657331 -0.0040273118 4.1676375e-21)
(1.0639895 -0.0022815267 -8.3804743e-22)
(1.0619861 -0.00084577098 -7.4228403e-21)
(1.0598471 0.00026163027 -3.4807128e-21)
(1.0577385 0.00089975229 1.3601457e-21)
(1.0557958 0.0012309156 -3.5513404e-21)
(1.0542478 0.00093037665 3.2902528e-21)
(1.053124 0.00058072527 -9.3654358e-21)
(0.8546309 -0.015221596 -1.5364417e-20)
(0.87727154 -0.017199722 0)
(0.90388811 -0.017007513 0)
(0.93123711 -0.017788067 0)
(0.95838626 -0.017920181 -2.6469946e-21)
(0.9840647 -0.01818305 8.9950251e-21)
(1.0067057 -0.018242155 -1.0020043e-21)
(1.0255541 -0.018316163 -1.4813325e-21)
(1.0399467 -0.018343398 1.7116102e-20)
(1.0501914 -0.018405663 -1.6219805e-20)
(1.0568744 -0.018444272 9.9852342e-21)
(1.0610713 -0.018440499 -3.463614e-21)
(1.0637049 -0.018291367 1.6624679e-21)
(1.0655524 -0.017931382 -8.2921988e-21)
(1.0669928 -0.017282028 4.1064028e-21)
(1.068198 -0.016309734 4.827545e-21)
(1.0691475 -0.015002304 7.6851113e-22)
(1.0697896 -0.013381873 -1.0033156e-20)
(1.0700406 -0.011500316 -4.1182735e-21)
(1.0698454 -0.0094346522 -8.5316689e-21)
(1.0691661 -0.0072876594 -8.0989741e-21)
(1.0680068 -0.0051690859 3.1644025e-21)
(1.066408 -0.0032006022 8.1698903e-21)
(1.0644499 -0.0014744337 -2.9284838e-21)
(1.0622495 -0.00010189092 -1.9159502e-21)
(1.0599391 0.00090710246 -1.3839843e-22)
(1.0576911 0.0014234403 -2.6620578e-21)
(1.0556379 0.0016132821 2.2774454e-21)
(1.0540131 0.0011671633 -1.4134844e-20)
(1.0528277 0.00065510877 -6.3228283e-21)
(0.82872664 -0.014756146 -1.2233144e-21)
(0.85115628 -0.016982053 -1.0807302e-21)
(0.87708762 -0.016966405 0)
(0.90418928 -0.017987713 0)
(0.932459 -0.018298973 0)
(0.96036599 -0.018755774 0)
(0.98631996 -0.018945907 0)
(1.0092113 -0.019107151 3.2556235e-22)
(1.0279043 -0.019164543 -8.3584261e-21)
(1.0421624 -0.01922207 1.815156e-20)
(1.052121 -0.019249187 -9.5531636e-22)
(1.0586458 -0.01925846 1.1217314e-20)
(1.0627109 -0.019165994 -1.4602062e-20)
(1.0653403 -0.01890827 1.9381166e-21)
(1.0672013 -0.018390722 -7.5848245e-23)
(1.0686871 -0.01755953 5.3157957e-21)
(1.069895 -0.016380039 -1.0170482e-20)
(1.0708166 -0.01485689 -9.5079796e-22)
(1.0713711 -0.013025659 1.3843402e-20)
(1.0714908 -0.01095166 6.19249e-21)
(1.0711169 -0.0087282339 1.0912556e-21)
(1.0702294 -0.0064666451 9.60791e-21)
(1.0688423 -0.004285763 5.3289189e-22)
(1.0670142 -0.0023066362 -3.1047906e-21)
(1.0648375 -0.00061958619 4.5379208e-21)
(1.0624421 0.00067340171 4.2573493e-21)
(1.0599656 0.0015702404 9.7491693e-22)
(1.0575856 0.0019551878 1.123894e-21)
(1.0554299 0.0019973758 2.3816351e-22)
(1.0537349 0.0014034751 1.129989e-20)
(1.0524949 0.0007278686 4.2074909e-21)
(0.80101325 -0.01405437 1.6858746e-20)
(0.82361093 -0.016577324 -5.896298e-22)
(0.85020158 -0.016767973 5.1774447e-21)
(0.87627743 -0.01801801 5.039961e-21)
(0.90474276 -0.018507675 0)
(0.93390558 -0.019194488 0)
(0.96235688 -0.019563445 -4.1289556e-22)
(0.9887824 -0.019868549 9.9109106e-21)
(1.011716 -0.020009769 -1.6334627e-20)
(1.0303944 -0.02009974 1.9209517e-20)
(1.0443984 -0.020125424 2.3633291e-21)
(1.0541639 -0.02013098 -1.025854e-20)
(1.0604813 -0.020062968 -4.3604213e-22)
(1.0644718 -0.01987556 -6.2599027e-22)
(1.0670707 -0.019471145 -4.4016724e-21)
(1.0689663 -0.018778837 1.2500146e-21)
(1.0704666 -0.017739603 1.5528351e-21)
(1.0716699 -0.016336562 -4.646112e-22)
(1.0725288 -0.014586133 4.7049379e-21)
(1.0729743 -0.012538677 2.7985663e-20)
(1.0729309 -0.010276586 8.3655333e-21)
(1.0723562 -0.0079042785 -7.2382467e-21)
(1.0712389 -0.0055449591 1.0650519e-20)
(1.0696114 -0.0033201325 9.3801294e-21)
(1.0675463 -0.0013513798 3.0695994e-21)
(1.0651505 0.00027770872 2.8824391e-21)
(1.0625637 0.0014744778 1.3551279e-21)
(1.0599282 0.0022464961 -1.7784401e-21)
(1.0574247 0.0024914497 2.5729454e-21)
(1.055175 0.0023808096 -1.0616963e-21)
(1.0534173 0.0016375318 6.57872e-21)
(1.0521282 0.00079900408 4.7106757e-22)
(0.77349369 -0.013121389 -5.6495265e-21)
(0.79412454 -0.015920506 1.8405508e-21)
(0.82194241 -0.016360375 -7.437444e-21)
(0.84826642 -0.017837605 -4.9212125e-21)
(0.87603313 -0.018548492 0)
(0.90544167 -0.019458172 0)
(0.9354123 -0.020044631 0)
(0.96455875 -0.020545276 -1.7323996e-21)
(0.99127288 -0.020829072 1.2626784e-20)
(1.0143778 -0.021006209 1.4089876e-20)
(1.0329145 -0.021066093 2.5092978e-21)
(1.0467535 -0.021075046 -2.1709168e-21)
(1.0562672 -0.021011892 2.0536862e-20)
(1.0624366 -0.020861279 -1.6023588e-20)
(1.0663283 -0.020539685 5.0104042e-21)
(1.0689247 -0.019970926 0)
(1.0708291 -0.019074234 1.299763e-21)
(1.0723408 -0.017808075 1.3065941e-21)
(1.0735057 -0.016165408 1.2545336e-20)
(1.0742807 -0.014178488 -1.083532e-21)
(1.0745832 -0.011914972 -1.3873082e-20)
(1.074352 -0.0094705674 -4.7275597e-21)
(1.0735508 -0.006964154 -1.1257142e-20)
(1.0721868 -0.0045248592 -1.1044424e-20)
(1.070307 -0.0022780207 7.0562058e-22)
(1.068001 -0.00034046166 2.4095876e-21)
(1.0653873 0.001210995 -1.4094716e-21)
(1.0626151 0.0022959245 -1.6469243e-22)
(1.0598291 0.0029312884 4.0255138e-21)
(1.0572114 0.0030288757 1.0440101e-21)
(1.0548767 0.0027613685 1.1053301e-21)
(1.0530634 0.001868504 -1.9683439e-20)
(1.0517317 0.00086817801 7.4885758e-21)
(0.74696557 -0.011960731 -5.1199881e-21)
(0.76464615 -0.014991773 3.4355975e-22)
(0.79170482 -0.015707397 -1.3301649e-20)
(0.8188027 -0.017451083 -6.947552e-21)
(0.84705392 -0.018414843 3.4236416e-21)
(0.87578819 -0.019546068 -2.5382419e-23)
(0.90625805 -0.020342674 1.5393187e-20)
(0.93711987 -0.021082715 -8.2565422e-21)
(0.96682021 -0.021564673 -2.3133882e-23)
(0.99393589 -0.021890358 -3.0706457e-20)
(1.0170877 -0.022039852 1.3781926e-20)
(1.0355656 -0.022086452 1.6750294e-20)
(1.0491708 -0.022032388 -1.703174e-21)
(1.0584906 -0.021896185 -5.0912619e-21)
(1.0644857 -0.021623371 -6.6245253e-21)
(1.0683122 -0.021149864 -4.6345688e-21)
(1.0708857 -0.020384383 6.0146685e-22)
(1.0728015 -0.019262131 1.4482359e-20)
(1.0742935 -0.017748609 -2.959124e-22)
(1.0754002 -0.015853265 -2.6731941e-21)
(1.0760559 -0.013625455 -3.8965822e-21)
(1.0761886 -0.011147988 -1.8967302e-20)
(1.0757399 -0.0085331129 2.9578008e-21)
(1.0746911 -0.0059089085 -2.7324279e-21)
(1.0730639 -0.0034116198 -1.3943038e-20)
(1.0709238 -0.0011650963 -3.6563218e-21)
(1.0683749 0.00071902144 -2.1591315e-21)
(1.0655475 0.0021740234 -3.3039607e-21)
(1.0625976 0.0031320368 3.9561111e-22)
(1.0596708 0.0036202389 -8.2087153e-22)
(1.056949 0.0035642509 1.9840341e-21)
(1.0545386 0.0031371476 -9.028326e-23)
(1.0526773 0.0020951854 8.2775932e-21)
(1.0513088 0.00093523566 -1.4500078e-20)
(0.72224549 -0.010577063 5.3343056e-21)
(0.73603272 -0.013776849 -4.8750851e-22)
(0.76129574 -0.014785032 1.5315818e-20)
(0.78724031 -0.016802314 4.0469496e-21)
(0.81660332 -0.018031636 -1.1684516e-20)
(0.84576839 -0.019451162 -1.5819759e-20)
(0.87574284 -0.020462286 -1.9932919e-21)
(0.90724573 -0.021428835 0)
(0.93891646 -0.022158037 -8.8604136e-21)
(0.96926343 -0.022691479 -3.3650535e-20)
(0.99667009 -0.022994648 2.379095e-21)
(1.0199444 -0.023135103 -6.3115407e-21)
(1.0382885 -0.023122965 0)
(1.0517132 -0.023002476 -3.3091738e-21)
(1.0608066 -0.022753784 1.2751248e-20)
(1.0666634 -0.022341328 6.7676271e-21)
(1.0704082 -0.021681511 -5.9919124e-21)
(1.0729681 -0.020696286 0)
(1.0748687 -0.019323937 -7.2531719e-21)
(1.0763239 -0.017546209 -9.5559216e-21)
(1.077337 -0.015388991 -1.9603169e-20)
(1.0778452 -0.012918278 -5.5040526e-21)
(1.0777748 -0.010235023 0)
(1.0770834 -0.0074636746 -1.3593912e-20)
(1.0757658 -0.0047428245 7.4298512e-22)
(1.0738629 -0.0022105974 9.8785045e-23)
(1.0714566 1.119401e-05 -5.7526229e-21)
(1.0686662 0.0018200822 2.1146809e-21)
(1.0656312 0.0031600177 4.3323156e-22)
(1.0625131 0.0039773744 5.2046005e-21)
(1.0594564 0.0043091304 -8.9761775e-21)
(1.0566409 0.0040947068 -4.3077167e-21)
(1.0541643 0.0035063567 0)
(1.0522622 0.0023167773 -3.1707561e-22)
(1.050863 0.0010000015 -4.4798303e-21)
(0.70014172 -0.008983252 3.871534e-21)
(0.70919494 -0.012273124 9.1483686e-22)
(0.73164394 -0.013581177 1.4054626e-20)
(0.75536497 -0.015859991 1.2849202e-21)
(0.7840239 -0.017380401 -3.358541e-21)
(0.81419345 -0.019050383 -7.8623562e-22)
(0.84470919 -0.020384057 -1.280036e-20)
(0.87581448 -0.02159212 4.9350343e-22)
(0.90834663 -0.022551855 0)
(0.94089432 -0.023346676 1.079551e-20)
(0.97180147 -0.023866924 -1.1728549e-20)
(0.99956704 -0.02416798 2.9097751e-21)
(1.0228896 -0.024254908 -6.5380497e-21)
(1.0411477 -0.02418148 8.7299101e-21)
(1.0543518 -0.02395553 7.0375862e-25)
(1.0632533 -0.023577407 1.4298555e-20)
(1.0689557 -0.022989616 -9.2016387e-21)
(1.0726337 -0.022119109 4.066691e-21)
(1.0751589 -0.020885997 1.4261703e-20)
(1.0770319 -0.019243097 -7.2866149e-21)
(1.0784164 -0.017187076 1.4198688e-20)
(1.079307 -0.014761525 1.2783081e-21)
(1.0796318 -0.01205175 0)
(1.0793296 -0.0091735712 -3.7152851e-21)
(1.0783694 -0.0062650937 1.8990617e-22)
(1.0767653 -0.0034705416 5.4174616e-21)
(1.0745763 -0.00092924139 4.5655349e-21)
(1.0719017 0.0012433189 2.3788678e-21)
(1.0688737 0.0029549679 6.5780667e-22)
(1.0656395 0.0041624386 0)
(1.062364 0.0048265537 -3.3860708e-21)
(1.0591891 0.0049940626 -9.5339046e-21)
(1.0562909 0.0046175791 1.8354638e-20)
(1.0537574 0.0038675028 -6.1133388e-21)
(1.0518218 0.0025324721 4.9398066e-22)
(1.0503975 0.0010623428 1.5798937e-20)
(0.68141272 -0.0072017496 -3.595456e-21)
(0.68505771 -0.010490308 -1.6138236e-22)
(0.7037281 -0.012095081 -4.2270976e-21)
(0.72413842 -0.014607745 3.2821597e-23)
(0.75090867 -0.016431774 1.3683485e-20)
(0.7803573 -0.018403002 1.1101236e-20)
(0.81204134 -0.020001121 -1.8196665e-22)
(0.84372938 -0.021535056 -1.0410772e-20)
(0.87601548 -0.022757589 5.1909653e-22)
(0.90961638 -0.023792786 -9.2920945e-21)
(0.94298645 -0.024589463 -4.5159391e-22)
(0.97451369 -0.025118472 5.721043e-21)
(1.0025729 -0.025374309 -1.0291615e-21)
(1.0259871 -0.025405988 1.0456881e-20)
(1.0441136 -0.025232795 -3.0443955e-20)
(1.0571275 -0.024884993 6.5889096e-21)
(1.065817 -0.024340941 7.334885e-22)
(1.0713827 -0.023552574 5.7085989e-21)
(1.0749777 -0.022440281 -3.0842146e-21)
(1.0774616 -0.020935566 -9.2685802e-22)
(1.0792763 -0.019003215 1.1139328e-20)
(1.0805624 -0.016657801 -9.7573355e-21)
(1.081293 -0.013962934 5.0078379e-21)
(1.0814025 -0.011021092 0)
(1.0808377 -0.0079645949 1.7011499e-20)
(1.0795861 -0.0049408526 1.3664412e-20)
(1.0776802 -0.0020990972 -2.3008442e-21)
(1.0751985 0.00042465402 7.0821635e-21)
(1.0722561 0.002522747 5.7215074e-22)
(1.068997 0.0041160477 -5.0832884e-22)
(1.0655741 0.0051746892 4.8460274e-21)
(1.0621535 0.0056745407 -8.9837121e-21)
(1.0588724 0.0056714164 -2.2330252e-22)
(1.0559026 0.0051305443 1.8676445e-20)
(1.0533216 0.0042192529 -1.1483742e-21)
(1.0513595 0.0027416383 -5.5036825e-22)
(1.0499155 0.0011221645 5.7396657e-21)
(0.66672546 -0.0052637426 3.7771071e-22)
(0.6645046 -0.0084535803 -1.0536678e-21)
(0.67854413 -0.010335864 -5.3591751e-21)
(0.69460848 -0.013042411 -6.7784702e-22)
(0.71829673 -0.015154708 -3.5772397e-24)
(0.74584226 -0.017424795 1.9733032e-22)
(0.77704623 -0.019339102 -7.1086284e-21)
(0.80992093 -0.021147345 4.1269006e-21)
(0.84286419 -0.022725053 0)
(0.87636154 -0.024044698 1.9091334e-21)
(0.91101184 -0.025092899 0)
(0.94525585 -0.025914708 0)
(0.97735446 -0.026411425 6.0119177e-21)
(1.005748 -0.026621185 -5.6833778e-22)
(1.0292082 -0.026560023 -5.1314735e-21)
(1.0472292 -0.026271223 -6.5588108e-21)
(1.0600266 -0.025764476 1.6894749e-20)
(1.0685207 -0.025028727 -9.0038977e-21)
(1.073935 -0.024006413 1.0236624e-21)
(1.0774459 -0.022625874 9.313342e-22)
(1.0798629 -0.020826142 -1.4478313e-20)
(1.0815947 -0.018588562 -5.6028217e-21)
(1.0827447 -0.015947585 4.4615243e-21)
(1.0832812 -0.012985907 1.1000424e-20)
(1.0831404 -0.0098249796 2.1414182e-21)
(1.0822854 -0.0066099702 1.9075298e-21)
(1.0807216 -0.0034971179 -4.6250321e-21)
(1.0785022 -0.00063617608 -4.8677806e-21)
(1.0757243 0.0018419987 -6.7713457e-22)
(1.072518 0.0038408443 -3.3827675e-21)
(1.0690369 0.0052954893 -5.0406187e-21)
(1.0654374 0.0061904997 -2.6979907e-21)
(1.0618847 0.0065165791 1.3389074e-21)
(1.0585103 0.0063379442 1.3746116e-20)
(1.0554799 0.005631544 -3.6012867e-20)
(1.0528605 0.0045605088 -5.9557688e-21)
(1.0508785 0.0029437501 -5.5944064e-21)
(1.04942 0.0011793929 0)
(0.65661794 -0.003207584 3.1193877e-21)
(0.64832284 -0.0062025512 -1.4356187e-22)
(0.65704738 -0.0083281187 -1.3857487e-21)
(0.66786133 -0.011170416 -5.7964142e-22)
(0.68732314 -0.013548155 -6.26776e-21)
(0.71171225 -0.016093105 -4.72818e-21)
(0.7411463 -0.018342341 -6.5480015e-22)