/*--------------------------------*- C++ -*----------------------------------*\
| =========                 |                                                 |
| \\      /  F ield         | OpenFOAM: The Open Source CFD Toolbox           |
|  \\    /   O peration     | Version:  5.0                                   |
|   \\  /    A nd           | Web:      www.OpenFOAM.org                      |
|    \\/     M anipulation  |                                                 |
\*---------------------------------------------------------------------------*/
FoamFile
{
    version     2.0;
    format      ascii;
    class       volVectorField;
    location    "195";
    object      UMean;
}
// * * * * * * * * * * * * * * * * * * * * * * * * * * * * * * * * * * * * * //

dimensions      [0 1 -1 0 0 0 0];

internalField   nonuniform List<vector> 
9200
(
(1.025026 -0.00058520367 -1.424491e-23)
(1.0253893 -0.0017290265 -9.126793e-21)
(1.0266639 -0.00058974193 0)
(1.0257538 -0.0027711852 4.6746802e-21)
(1.0270119 -0.0017480373 -6.9585685e-21)
(1.0274165 -0.00059241767 0)
(1.0261247 -0.0037530374 4.6834729e-22)
(1.0273633 -0.0027955337 -3.9381894e-22)
(1.0277593 -0.0017642268 0)
(1.0285137 -0.00059745214 0)
(1.0265356 -0.0046466675 -8.8021702e-21)
(1.0277172 -0.0037907875 -4.8462917e-21)
(1.0281056 -0.0028200132 -3.869134e-21)
(1.0288478 -0.0017915851 -2.4045202e-22)
(1.0294158 -0.00060148631 8.874559e-25)
(1.026959 -0.0054779047 -8.1088707e-21)
(1.0281072 -0.0046939624 7.137446e-22)
(1.0284514 -0.0038287654 -1.2359743e-20)
(1.0291894 -0.0028596977 -4.5816776e-21)
(1.0297446 -0.0018182412 1.2323546e-22)
(1.0303804 -0.0006054848 9.9977572e-21)
(1.0273795 -0.0062361574 -7.3684866e-21)
(1.028506 -0.0055383673 -8.4390111e-21)
(1.0288325 -0.0047429182 7.4762609e-21)
(1.0295282 -0.0038902237 4.1720882e-22)
(1.0300832 -0.0028991655 -4.851598e-21)
(1.0307056 -0.0018485957 -4.6721896e-21)
(1.0312813 -0.00060792674 -6.7867655e-22)
(1.0277712 -0.0069319149 -2.9802713e-21)
(1.0288965 -0.0063086463 -5.6565562e-21)
(1.0292198 -0.0056010937 -7.9497929e-21)
(1.0299015 -0.0048234147 3.6340918e-22)
(1.0304172 -0.0039519074 1.121544e-20)
(1.0310456 -0.00294396 4.8601202e-21)
(1.0316042 -0.0018767009 6.2718451e-21)
(1.0321847 -0.00060884648 -9.4869701e-21)
(1.028115 -0.0075648748 8.7480816e-21)
(1.0292538 -0.0070176271 -6.7789491e-21)
(1.0295967 -0.0063848672 4.0049031e-22)
(1.0302782 -0.0057052288 -4.0995693e-21)
(1.0307854 -0.0049050197 7.814925e-22)
(1.0313811 -0.0040230346 1.7445548e-20)
(1.0319465 -0.002985263 -4.1391607e-21)
(1.0325087 -0.001903311 1.0519112e-20)
(1.0330504 -0.00060730531 2.0012276e-20)
(1.028392 -0.0081402734 -6.4410217e-21)
(1.0295592 -0.0076635714 3.6182577e-21)
(1.0299381 -0.0071084325 1.3584134e-22)
(1.0306415 -0.0065129787 -1.3818703e-21)
(1.0311544 -0.0058114567 1.3364133e-21)
(1.0317512 -0.0050007428 1.2234478e-21)
(1.0322847 -0.0040901912 -6.0883582e-21)
(1.0328591 -0.0030240984 -1.0807373e-20)
(1.033377 -0.0019245936 -5.7796723e-21)
(1.0339005 -0.00060306091 -1.4336697e-21)
(1.0285861 -0.0086613443 2.9674176e-21)
(1.0297946 -0.008252097 1.7155865e-22)
(1.0302255 -0.0077691347 -5.475194e-21)
(1.0309662 -0.0072626239 5.3331708e-21)
(1.0315075 -0.0066444626 -8.5324717e-21)
(1.0321203 -0.0059380483 1.8032986e-20)
(1.0326582 -0.0050924414 3.6897448e-22)
(1.0332081 -0.0041558291 -1.7863515e-20)
(1.0337367 -0.0030544395 8.8339637e-21)
(1.034233 -0.0019399729 -1.8111046e-20)
(1.0347166 -0.00059551026 2.8347952e-21)
(1.028681 -0.0091325498 -1.5776244e-22)
(1.029945 -0.0087859538 5.4856464e-22)
(1.0304413 -0.0083727656 4.2885561e-21)
(1.0312341 -0.0079501421 0)
(1.0318193 -0.0074215243 -6.2247085e-23)
(1.0324713 -0.0068036147 -1.0329075e-21)
(1.033029 -0.0060609771 3.6914604e-21)
(1.0335942 -0.0051845493 8.9397199e-21)
(1.0340985 -0.0042107525 -6.8543082e-22)
(1.0346075 -0.0030755489 1.0902304e-20)
(1.0350571 -0.0019468136 7.343597e-21)
(1.0355062 -0.0005843757 -1.548805e-21)
(1.0286581 -0.0095584246 -1.206061e-22)
(1.0299958 -0.0092694187 8.3787577e-22)
(1.030571 -0.0089218201 0)
(1.031428 -0.0085813847 0)
(1.0320717 -0.0081372412 2.9782916e-21)
(1.0327779 -0.0076165685 -4.7662847e-21)
(1.0333795 -0.0069598464 8.6130923e-21)
(1.0339769 -0.0061877904 -9.6982558e-21)
(1.0344996 -0.0052645033 -7.7095055e-22)
(1.0349908 -0.004254472 5.1593344e-24)
(1.0354489 -0.0030832252 -1.3077583e-20)
(1.035858 -0.0019440709 1.4192235e-20)
(1.0362594 -0.00056931339 -2.5631391e-20)
(1.0284906 -0.0099441908 5.2420418e-22)
(1.0299311 -0.00970666 -1.5877012e-22)
(1.0306005 -0.0094205843 2.6385454e-21)
(1.031534 -0.0091582583 -3.0110957e-21)
(1.032248 -0.0087974149 3.2588304e-21)
(1.033022 -0.0083697888 -1.1245389e-21)
(1.0336829 -0.0078097529 -2.4476837e-21)
(1.0343374 -0.0071247364 9.9245738e-23)
(1.0348969 -0.0063017377 -8.6901917e-21)
(1.0354166 -0.0053323831 -7.8648911e-21)
(1.0358568 -0.0042806625 -3.4654457e-21)
(1.0362718 -0.0030758127 -9.4234427e-21)
(1.0366249 -0.0019300184 -6.27506e-21)
(1.0369774 -0.00055012019 6.8602683e-21)
(1.0281331 -0.010296119 3.7933328e-21)
(1.0297284 -0.010102648 -3.4602239e-21)
(1.0305152 -0.0098731731 9.9108403e-22)
(1.0315392 -0.0096847476 1.0099861e-22)
(1.0323347 -0.0094033292 -6.9173105e-23)
(1.0331871 -0.0090689474 1.2012731e-21)
(1.0339212 -0.0086019575 -2.315774e-21)
(1.0346476 -0.0080177198 3.1019465e-21)
(1.0352706 -0.0072768025 -5.8029784e-22)
(1.0358392 -0.006404219 7.4570645e-22)
(1.0363107 -0.005379738 2.0951566e-22)
(1.036712 -0.0042872502 3.526432e-22)
(1.0370638 -0.0030506121 1.2717438e-20)
(1.0373594 -0.0019036551 -6.2534043e-21)
(1.0376547 -0.00052665389 5.0857212e-21)
(1.0275075 -0.010620791 -1.758748e-21)
(1.0293495 -0.010463723 3.1384908e-21)
(1.0302945 -0.010284427 -1.4187393e-21)
(1.03143 -0.010164539 2.7529087e-21)
(1.0323197 -0.0099586802 -3.0716531e-21)
(1.0332601 -0.0097144683 7.2939357e-21)
(1.0340778 -0.0093418297 -7.4612412e-21)
(1.0348891 -0.0088560408 2.6287114e-22)
(1.0355918 -0.0082136057 2.415381e-21)
(1.0362369 -0.00741946 -1.430144e-21)
(1.0367634 -0.0064841135 2.2976775e-20)
(1.037204 -0.0054040661 -7.2832821e-21)
(1.0375407 -0.0042701321 -4.2058022e-21)
(1.0378276 -0.0030059962 -1.6921927e-21)
(1.0380555 -0.0018639777 -2.5769556e-22)
(1.0382895 -0.00049885486 -5.4263656e-21)
(1.026489 -0.010927348 0)
(1.0287259 -0.010797582 2.5408172e-21)
(1.0299037 -0.010660257 -1.7351911e-21)
(1.0311887 -0.010602129 0)
(1.0321908 -0.010466834 0)
(1.0332297 -0.010309505 0)
(1.03414 -0.010028865 1.5975082e-22)
(1.0350455 -0.0096446417 -5.376301e-21)
(1.0358415 -0.0090995243 3.2523518e-21)
(1.0365793 -0.0084035748 -6.7183695e-21)
(1.0371909 -0.0075384632 4.0405723e-22)
(1.0376971 -0.0065388533 -4.819751e-21)
(1.0380752 -0.0054000655 4.5390731e-22)
(1.0383479 -0.0042269142 4.6599251e-21)
(1.038556 -0.0029403764 1.1234482e-21)
(1.0387115 -0.0018103478 2.8451243e-21)
(1.0388788 -0.00046673898 0)
(1.0248952 -0.011222925 -1.5709991e-22)
(1.0277428 -0.011115566 -4.8758651e-21)
(1.0292796 -0.011007578 5.3198685e-21)
(1.0307847 -0.011003087 2.0425036e-21)
(1.031932 -0.010931962 3.2268625e-21)
(1.0330845 -0.010856776 0)
(1.0340969 -0.010665617 3.9271496e-21)
(1.035104 -0.010381851 -8.4054666e-22)
(1.0360024 -0.0099390024 -1.1247378e-20)
(1.0368466 -0.0093417993 3.8345116e-21)
(1.0375612 -0.0085698149 3.9077933e-21)
(1.0381648 -0.0076317033 3.4387045e-22)
(1.0386148 -0.0065614926 -1.0305591e-20)
(1.0389338 -0.0053643173 1.5493845e-20)
(1.0391244 -0.0041551328 3.4425088e-21)
(1.0392479 -0.002852661 2.0315449e-20)
(1.039324 -0.001742364 7.4136218e-21)
(1.0394206 -0.0004303861 6.07155e-21)
(1.0224942 -0.011514207 1.479574e-22)
(1.0262236 -0.011429325 -2.0370535e-21)
(1.0283139 -0.0113362 -1.4356798e-21)
(1.0301616 -0.011374228 3.3768377e-21)
(1.0315164 -0.01135922 -3.6292935e-22)
(1.0328107 -0.01135989 3.2677051e-21)
(1.0339383 -0.011254158 -1.9571404e-22)
(1.0350543 -0.011069407 -8.200525e-21)
(1.0360622 -0.010729135 -3.164152e-21)
(1.037021 -0.010237966 5.9667141e-21)
(1.0378533 -0.0095613629 -7.936114e-22)
(1.0385736 -0.0087111964 9.6687401e-21)
(1.0391303 -0.0076902265 -4.747733e-21)
(1.03953 -0.0065477628 -5.0912765e-22)
(1.039767 -0.0052936645 -1.1769249e-21)
(1.0398701 -0.0040529394 -3.3538458e-21)
(1.0398989 -0.0027421834 6.4942394e-21)
(1.0398907 -0.00165985 -1.0273293e-22)
(1.0399128 -0.00038995692 5.1228037e-21)
(1.019029 -0.011803565 1.3618111e-21)
(1.0239327 -0.011751476 2.4697048e-21)
(1.0268364 -0.011655998 -1.2129615e-20)
(1.0292194 -0.011725398 -1.04513e-21)
(1.0308932 -0.011755065 2.0773266e-21)
(1.0323846 -0.011823408 1.3469153e-21)
(1.0336517 -0.011797582 6.6528253e-22)
(1.0348869 -0.011708512 5.3842907e-21)
(1.0360105 -0.011470762 -1.2770914e-21)
(1.03709 -0.011087752 -1.1355309e-20)
(1.0380485 -0.010516286 1.1403366e-20)
(1.0389008 -0.0097584128 -1.3255139e-21)
(1.0395861 -0.0088164015 -4.0609858e-21)
(1.0401037 -0.0077092593 3.3134373e-22)
(1.0404262 -0.0064935743 -3.5472044e-22)
(1.0405767 -0.0051852577 -1.1772191e-20)
(1.0405792 -0.003919145 2.317042e-21)
(1.0405066 -0.0026086201 -1.0440462e-20)
(1.0404093 -0.0015629192 -2.4848447e-21)
(1.0403542 -0.00034567139 -4.8781817e-21)
(1.0142577 -0.012087867 -1.7040215e-22)
(1.020595 -0.012091026 3.1609109e-21)
(1.0246143 -0.011977668 -6.1872061e-22)
(1.0277954 -0.012067748 3.1864372e-21)
(1.0299696 -0.012128693 8.6761412e-22)
(1.0317611 -0.012253324 -2.4374218e-21)
(1.0332165 -0.012299909 5.5441846e-21)
(1.0345909 -0.012301502 1.0274777e-20)
(1.0358387 -0.01216414 -6.5751331e-21)
(1.0370434 -0.011890914 0)
(1.0381339 -0.011428762 -7.3871684e-21)
(1.039127 -0.010775801 2.5376599e-21)
(1.0399577 -0.0099191306 9.9059687e-21)
(1.0406174 -0.0088804807 -6.6503087e-21)
(1.0410666 -0.0076832996 4.5837327e-21)
(1.0413085 -0.006394732 -9.7999263e-21)
(1.041355 -0.005037391 -1.16306e-21)
(1.0412492 -0.0037529461 3.4436023e-21)
(1.041068 -0.0024520986 -5.6108345e-21)
(1.0408781 -0.001451926 -6.2249198e-22)
(1.0407438 -0.0002978086 -3.9999018e-21)
(1.0079983 -0.012357908 -4.2992828e-21)
(1.015935 -0.012450562 2.3483465e-21)
(1.0213679 -0.012308724 5.8773386e-21)
(1.0256589 -0.012413519 -6.8569595e-21)
(1.0285907 -0.012490757 -4.29386e-21)
(1.0308554 -0.012658359 1.3811099e-21)
(1.0325928 -0.012766644 0)
(1.0341486 -0.012851655 4.6350949e-21)
(1.0355371 -0.012810805 -4.9222915e-22)
(1.0368731 -0.012646554 -1.2357352e-20)
(1.0380992 -0.01229738 -2.367157e-21)
(1.0392382 -0.011755919 2.0508665e-21)
(1.0402241 -0.011000155 -3.8832093e-22)
(1.0410446 -0.01003864 -3.7092542e-21)
(1.0416479 -0.0088961681 5.2593946e-21)
(1.0420254 -0.0076071903 -4.8802555e-21)
(1.0421656 -0.0062491763 1.2441319e-21)
(1.0421002 -0.0048484925 -7.189398e-21)
(1.0418765 -0.0035542506 -1.7891854e-21)
(1.0415812 -0.0022730821 -3.5279745e-22)
(1.0412958 -0.0013274607 -2.4637605e-21)
(1.0410811 -0.00024670433 0)
(1.000166 -0.012599401 -2.3843688e-21)
(1.0097266 -0.012823943 -9.997015e-22)
(1.0168086 -0.012651055 1.5415273e-22)
(1.0225226 -0.012772764 -6.3326038e-21)
(1.0265299 -0.012853344 -2.6494119e-21)
(1.0295213 -0.013049431 2.5374966e-21)
(1.0317028 -0.013205922 -3.4653386e-21)
(1.0335248 -0.013363837 7.5791413e-21)
(1.0350904 -0.013413258 3.2551638e-21)
(1.0365705 -0.013355189 5.0801522e-22)
(1.0379367 -0.013119971 -9.2916389e-23)
(1.0392241 -0.012696032 -3.9666891e-21)
(1.0403706 -0.012050389 9.9335707e-22)
(1.0413625 -0.01118477 -2.8669448e-21)
(1.0421411 -0.010107745 -8.8479543e-21)
(1.0426852 -0.0088574967 -8.7924363e-21)
(1.0429674 -0.0074777556 9.3872518e-22)
(1.0429976 -0.0060538605 1.2824656e-20)
(1.0428068 -0.0046182054 3.6162067e-22)
(1.0424582 -0.0033233736 -3.4759451e-21)
(1.0420442 -0.0020724203 0)
(1.0416616 -0.0011903147 4.7118553e-21)
(1.041366 -0.00019277128 1.6139564e-22)
(0.99079213 -0.012795188 1.2920608e-20)
(1.001837 -0.01319606 -2.1139245e-21)
(1.0106885 -0.01299884 6.4973265e-21)
(1.0180777 -0.013149951 3.2084181e-21)
(1.0234966 -0.013226763 -7.6622064e-21)
(1.0275376 -0.013439117 0)
(1.030409 -0.013628413 -7.0404792e-22)
(1.0326495 -0.013845518 4.2697919e-21)
(1.0344678 -0.013975653 4.7787836e-21)
(1.0361226 -0.014018358 3.4294276e-21)
(1.0376386 -0.013895926 -6.3008741e-21)
(1.0390771 -0.013592529 -4.9838362e-21)
(1.0403862 -0.013065707 6.5667718e-21)
(1.0415554 -0.012308109 -7.6362248e-21)
(1.0425218 -0.011318455 1.1965376e-20)
(1.0432562 -0.010119786 1.7201185e-20)
(1.0437156 -0.0087598228 -2.8729198e-21)
(1.0438933 -0.007290907 5.0754682e-21)
(1.0437964 -0.0058083609 -1.3759103e-20)
(1.0434719 -0.0043463899 2.6175908e-21)
(1.0429916 -0.0030612745 6.5508999e-21)
(1.0424557 -0.0018512867 -4.4826805e-21)
(1.0419751 -0.0010414767 2.0235885e-21)
(1.0415992 -0.00013665548 1.286007e-22)
(0.9800205 -0.0129279 3.0318796e-21)
(0.99225469 -0.013544577 -6.013384e-22)
(1.0028482 -0.013338307 -3.7472929e-22)
(1.0120449 -0.01354128 -1.4511209e-20)
(1.0191681 -0.013616354 5.099514e-21)
(1.0246113 -0.013839182 -9.221266e-21)
(1.0284967 -0.014046843 -5.8769555e-22)
(1.0313943 -0.014307142 -9.1913525e-21)
(1.0336064 -0.014504737 3.2811923e-21)
(1.0355028 -0.014639334 3.2204966e-21)
(1.037194 -0.01462571 -4.9310227e-21)
(1.0387903 -0.014443469 6.8364446e-21)
(1.0402633 -0.014040941 -4.7045844e-21)
(1.0416114 -0.01340306 -3.4763851e-22)
(1.0427724 -0.012515926 7.2787107e-21)
(1.0437119 -0.011393968 1.5633925e-21)
(1.0443757 -0.010068434 -6.5962789e-22)
(1.0447402 -0.0085979748 8.1584143e-21)
(1.0447935 -0.0070453062 0)
(1.0445598 -0.0055113345 1.4624111e-21)
(1.0440916 -0.0040339815 3.9055338e-22)
(1.0434747 -0.0027694064 -6.4944209e-22)
(1.0428148 -0.0016112621 -3.9701143e-22)
(1.0422364 -0.00088224993 -2.8584656e-21)
(1.0417822 -7.8950821e-05 -6.4322603e-22)
(0.96808427 -0.012982684 -1.1404291e-20)
(0.98109457 -0.013842802 -3.2435415e-22)
(0.99324966 -0.013649548 1.9609653e-21)
(1.0042284 -0.013933706 1.590759e-21)
(1.0132409 -0.014019474 1.4646394e-20)
(1.0204058 -0.014256691 4.8046421e-22)
(1.0256725 -0.014473611 -5.4397935e-22)
(1.0295523 -0.014761613 6.4724621e-22)
(1.0323868 -0.015010488 7.1694672e-21)
(1.0346551 -0.015224004 -2.5406875e-21)
(1.0365799 -0.015311599 4.8131191e-21)
(1.0383542 -0.015248053 -6.3405801e-22)
(1.0399954 -0.014972697 -3.340097e-21)
(1.0415226 -0.014462762 1.8589725e-21)
(1.0428801 -0.013693083 -1.107861e-21)
(1.0440329 -0.012666155 -1.0162648e-20)
(1.0449186 -0.011403174 -1.2516108e-20)
(1.0455009 -0.0099474016 -1.1730865e-20)
(1.0457485 -0.0083693416 -1.6364347e-20)
(1.0456655 -0.0067386913 -2.3238139e-22)
(1.0452817 -0.0051637929 1.4451386e-20)
(1.0446629 -0.0036822074 1.7440477e-21)
(1.0439057 -0.0024495408 -3.9954846e-21)
(1.0431211 -0.0013541945 2.7503954e-21)
(1.0424461 -0.00071381024 -1.3421825e-21)
(1.0419156 -1.8849665e-05 8.6989813e-23)
(0.9552702 -0.01294964 4.974703e-22)
(0.96858089 -0.014063782 -7.6845796e-22)
(0.98198428 -0.01391007 -7.8332003e-21)
(0.99455506 -0.014306344 8.2715651e-21)
(1.0054867 -0.014424222 -1.2215041e-20)
(1.014591 -0.014690807 7.9554735e-21)
(1.0215888 -0.014917058 4.4248884e-21)
(1.0268314 -0.015222242 7.6740944e-21)
(1.0306103 -0.015505762 -1.0228614e-20)
(1.0334696 -0.015781753 -4.4253521e-21)
(1.0357468 -0.015958507 8.9674012e-22)
(1.0377495 -0.016007372 -1.211386e-20)
(1.0395745 -0.015858762 1.1648771e-20)
(1.0412827 -0.015482209 -3.1390707e-21)
(1.0428364 -0.014841315 2.360722e-21)
(1.044205 -0.013927806 6.1345956e-22)
(1.045323 -0.012748823 -6.0406279e-21)
(1.0461439 -0.011338653 6.4136852e-21)
(1.0466208 -0.0097525295 -6.5862021e-21)
(1.0467376 -0.0080705613 1.2255919e-22)
(1.0465019 -0.0063713891 0)
(1.045959 -0.0047662082 5.2434371e-21)
(1.0451832 -0.0032931371 1.2347817e-21)
(1.0442834 -0.0021038559 0)
(1.0433747 -0.0010817095 -2.9980415e-21)
(1.0426053 -0.00053699602 -4.5810188e-22)
(1.0420012 4.2651365e-05 -4.132208e-22)
(0.94188186 -0.012826014 3.7832365e-21)
(0.95501028 -0.014185038 -1.151032e-22)
(0.9692599 -0.014098024 -6.5331752e-21)
(0.98309024 -0.014633581 7.4803411e-22)
(0.99579894 -0.01481044 -2.3186019e-21)
(1.0069036 -0.015130818 -8.7579411e-21)
(1.0158925 -0.015377723 -4.6545158e-22)
(1.0228742 -0.015698818 -6.6975144e-21)
(1.0279881 -0.016004489 5.3182736e-22)
(1.0317569 -0.016325268 7.9638351e-21)
(1.034594 -0.016575034 -6.1708984e-21)
(1.0369327 -0.016725203 -1.2174762e-21)
(1.0389843 -0.016698892 -4.4582354e-21)
(1.0408849 -0.016457593 2.5033206e-21)
(1.0426349 -0.015953896 -3.2811064e-21)
(1.0442187 -0.015168521 3.1622641e-21)
(1.0455728 -0.014095473 -1.7825881e-21)
(1.0466452 -0.012755403 2.4978481e-20)
(1.0473763 -0.011194495 8.3643954e-21)
(1.0477322 -0.0094791863 5.3877904e-21)
(1.0476988 -0.007700908 8.2618011e-21)
(1.0472987 -0.0059432155 -1.740679e-21)
(1.0465871 -0.0043208598 -5.3682341e-22)
(1.0456502 -0.0028690556 0)
(1.0446072 -0.0017347511 0)
(1.0435761 -0.00079572896 2.7949061e-22)
(1.0427155 -0.00035327518 2.6611175e-22)
(1.0420409 0.00010509466 1.5927755e-21)
(0.92821441 -0.012612828 0)
(0.94070386 -0.014196383 -6.0981086e-22)
(0.95537399 -0.014193634 5.7437051e-21)
(0.97002743 -0.014889216 2.9836106e-21)
(0.98421317 -0.015152376 8.8251659e-21)
(0.99719862 -0.015556335 7.3004876e-22)
(1.0082878 -0.015846021 -5.665499e-21)
(1.0173047 -0.016193615 -1.0589619e-20)
(1.0241552 -0.0165177 1.2127432e-20)
(1.0292325 -0.016869027 -3.1163189e-21)
(1.0329417 -0.017173502 6.1067834e-22)
(1.0358123 -0.017409182 3.0621187e-21)
(1.0381869 -0.017495575 -1.3602134e-20)
(1.0403154 -0.017387139 4.4816001e-21)
(1.0422695 -0.017025284 3.173804e-21)
(1.0440674 -0.016379752 -2.8729445e-21)
(1.0456573 -0.015430967 3.2238745e-21)
(1.0469871 -0.014186523 -4.6870249e-21)
(1.0479884 -0.012678119 1.5342329e-20)
(1.0486126 -0.010964646 -1.7370641e-21)
(1.0488255 -0.0091252599 6.9128403e-21)
(1.0486273 -0.0072592754 4.4261712e-21)
(1.0480499 -0.0054560617 -5.4867953e-22)
(1.0471632 -0.0038298227 -1.1219432e-20)
(1.0460622 -0.0024128997 -3.7008021e-21)
(1.0448768 -0.0013448576 1.0257796e-21)
(1.0437263 -0.00049827936 5.8053531e-22)
(1.0427782 -0.00016392174 8.7103131e-22)
(1.042037 0.00016804915 -3.8653045e-21)
(0.91452726 -0.012310699 -1.1388339e-20)
(0.9259831 -0.014084805 0)
(0.9406799 -0.014175132 0)
(0.95565697 -0.015049513 0)
(0.97090386 -0.01542328 -2.2436005e-21)
(0.98548099 -0.015940907 7.8509778e-21)
(0.99859355 -0.016302337 -6.3345093e-22)
(1.0097926 -0.01669833 -8.2458671e-22)
(1.0187153 -0.017049185 1.6176231e-20)
(1.025526 -0.017425323 -1.6207961e-20)
(1.0305115 -0.017768707 8.4894102e-21)
(1.034219 -0.018071082 -3.0646048e-21)
(1.0370997 -0.018255285 3.5986261e-21)
(1.0395418 -0.018271858 -6.0669119e-21)
(1.0417288 -0.018052008 7.777297e-21)
(1.0437453 -0.017554077 4.0492154e-21)
(1.0455692 -0.0167449 -2.6565587e-21)
(1.047157 -0.015618177 -8.6390776e-21)
(1.048437 -0.014191274 -2.3570607e-22)
(1.0493494 -0.012509392 -5.8516052e-21)
(1.0498425 -0.010645322 -8.0556372e-21)
(1.049895 -0.008688448 1.8047077e-21)
(1.0495158 -0.0067468039 9.5888268e-21)
(1.0487515 -0.0049117182 -4.9548636e-21)
(1.0476839 -0.0032964282 -1.1070872e-21)
(1.0464181 -0.0019277578 -1.212737e-21)
(1.0450926 -0.00093706339 1.1600964e-21)
(1.0438268 -0.00019149685 1.7934011e-21)
(1.0427957 2.963803e-05 -4.9265976e-21)
(1.0419919 0.00023125102 -3.0446466e-21)
(0.89992147 -0.011890705 -7.7175897e-22)
(0.91118305 -0.013842281 -8.5689708e-22)
(0.92552314 -0.014057798 0)
(0.94032373 -0.015094924 0)
(0.95615663 -0.015598153 0)
(0.97190446 -0.016255567 0)
(0.98677944 -0.016719512 0)
(1.0001172 -0.017193722 1.7332792e-22)
(1.0113057 -0.017592037 -7.2177019e-21)
(1.020221 -0.017999536 1.7799993e-20)
(1.026929 -0.018374022 -5.9822754e-22)
(1.0318815 -0.018725849 9.4513264e-21)
(1.035564 -0.018989037 -1.5323286e-20)
(1.0384899 -0.01911685 5.406756e-21)
(1.040985 -0.019033417 -4.9268247e-22)
(1.0432428 -0.018686159 5.8206579e-21)
(1.0453028 -0.01802788 -9.6480616e-21)
(1.0471466 -0.017038108 1.006032e-21)
(1.0487077 -0.015718613 1.0451231e-20)
(1.0499199 -0.014100577 5.0160667e-21)
(1.0507177 -0.012243539 1.0529788e-21)
(1.0510597 -0.010232751 7.4548661e-21)
(1.0509321 -0.0081687654 3.2214329e-22)
(1.0503588 -0.0061646894 -3.6478441e-21)
(1.0493987 -0.0043134853 3.3802269e-21)
(1.0481473 -0.0027240234 7.8832386e-21)
(1.0467175 -0.0014171702 1.8810349e-21)
(1.0452553 -0.00051429422 -4.6729764e-22)
(1.0438793 0.00012244748 1.9051159e-22)
(1.04277 0.00022616886 4.7634058e-21)
(1.0419081 0.00029425529 2.1498549e-21)
(0.88413237 -0.01129202 1.2917947e-20)
(0.89536255 -0.01345959 -3.6171786e-22)
(0.91016857 -0.013826526 3.7058944e-21)
(0.92438823 -0.01502085 4.0536662e-21)
(0.9403268 -0.015652709 0)
(0.9567453 -0.016472078 0)
(0.97297318 -0.017067153 -1.9015966e-22)
(0.98821193 -0.01765189 8.9463534e-21)
(1.0016664 -0.018127568 -1.4681865e-20)
(1.0129223 -0.018586138 1.7655703e-20)
(1.0217609 -0.018996405 1.4324456e-21)
(1.0284236 -0.01938785 -1.0954951e-20)
(1.0333168 -0.019711684 8.9521868e-22)
(1.0370121 -0.019932146 -9.8715128e-22)
(1.039972 -0.019973031 -6.5270505e-21)
(1.0425363 -0.019773491 9.4550287e-22)
(1.0448497 -0.01927256 7.5072163e-21)
(1.0469497 -0.018434888 -6.3382116e-22)
(1.0487905 -0.017246104 -1.7862036e-21)
(1.0503075 -0.015721572 2.5480992e-20)
(1.0514254 -0.013906702 2.9821701e-21)
(1.0520863 -0.011875086 -6.8341026e-21)
(1.0522545 -0.0097254594 1.2781203e-20)
(1.05193 -0.0075664747 7.9438109e-21)
(1.0511501 -0.0055158633 5.8504883e-22)
(1.0499882 -0.0036648186 4.7386745e-21)
(1.0485514 -0.0021167434 2.2973351e-21)
(1.0469601 -0.00088475261 -3.7888431e-22)
(1.0453661 -7.9456852e-05 2.6845007e-22)
(1.0438858 0.00044149097 -7.8371023e-22)
(1.0427038 0.00042436653 3.3982453e-21)
(1.0417883 0.00035676708 2.5917265e-22)
(0.86829341 -0.010522482 -4.3727691e-21)
(0.87823081 -0.01288829 1.3292611e-21)
(0.89381517 -0.013448136 -5.2316571e-21)
(0.90821127 -0.014810012 -3.9163225e-21)
(0.92379048 -0.015592758 0)
(0.94036029 -0.01656482 0)
(0.95743958 -0.017314684 0)
(0.97417704 -0.018040734 -1.3404328e-21)
(0.98969148 -0.018627446 1.2550284e-20)
(1.0033289 -0.01916711 1.3516886e-20)
(1.0145803 -0.019631796 1.4694263e-21)
(1.0233957 -0.020065578 -2.1450613e-21)
(1.0299821 -0.020438393 2.2209219e-20)
(1.0348547 -0.020732275 -1.5025466e-20)
(1.0385532 -0.020879651 3.5442938e-21)
(1.0415676 -0.020817787 0)
(1.0441901 -0.020474398 2.6874056e-21)
(1.046559 -0.019799047 -8.927428e-22)
(1.0486786 -0.018760287 8.5339019e-21)
(1.0505003 -0.017356712 6.0564332e-23)
(1.0519463 -0.01561721 -1.201961e-20)
(1.0529463 -0.013602284 -2.0278451e-21)
(1.0534448 -0.011400741 -1.0443893e-20)
(1.0534188 -0.0091224168 -1.1525254e-20)
(1.052881 -0.0068837542 2.4652718e-21)
(1.0518848 -0.0048035957 1.6942636e-21)
(1.0505167 -0.0029701769 -1.0392309e-21)
(1.0488952 -0.0014787943 -3.6225034e-23)
(1.0471465 -0.00033430958 7.001049e-22)
(1.0454268 0.00036447418 -4.9308881e-22)
(1.0438485 0.0007635918 9.036829e-22)
(1.0425995 0.00062306105 -1.1020177e-20)
(1.0416354 0.00041857332 4.555819e-21)
(0.85287179 -0.009581445 -3.9615165e-21)
(0.86090584 -0.012113839 2.0757827e-22)
(0.87609606 -0.01287741 -9.5895268e-21)
(0.89093811 -0.014429825 -5.6489443e-21)
(0.90689372 -0.015405398 2.5803693e-21)
(0.92313951 -0.01653487 1.2455127e-22)
(0.94053891 -0.017432065 1.3181977e-20)
(0.95826264 -0.018327236 -7.3142771e-21)
(0.97545017 -0.019058068 -5.7752504e-22)
(0.99129366 -0.019713643 -2.8506057e-20)
(1.005045 -0.020262888 1.2701821e-20)
(1.01634 -0.020756452 1.7049221e-20)
(1.0250962 -0.021179125 -1.0688349e-21)
(1.0316435 -0.021533023 -7.4688079e-21)
(1.0364855 -0.021767219 -8.5578635e-21)
(1.040211 -0.021826353 -3.3395791e-21)
(1.0432728 -0.021633096 1.2213406e-21)
(1.0459576 -0.021123838 1.1372359e-20)
(1.048365 -0.0202495 -8.4829996e-22)
(1.0504902 -0.01899057 -1.9855497e-21)
(1.0522665 -0.017357996 -5.2991501e-22)
(1.0536174 -0.015396157 -1.776175e-20)
(1.0544715 -0.013181938 1.4391672e-21)
(1.054784 -0.010817829 9.5619376e-22)
(1.0545433 -0.008424639 -1.4725942e-20)
(1.0537785 -0.0061233399 -4.4314311e-21)
(1.052558 -0.0040323969 -3.3689166e-21)
(1.0509818 -0.0022342344 -2.4916263e-21)
(1.0491783 -0.00081478077 -1.0469002e-21)
(1.0472777 0.00023037857 -4.054565e-22)
(1.0454391 0.00081461274 7.9864451e-22)
(1.0437699 0.001086987 -1.4717872e-22)
(1.04246 0.00082134247 4.9003458e-21)
(1.0414519 0.00047983638 -9.2363875e-21)
(0.83836545 -0.0084689672 4.2380676e-21)
(0.84389497 -0.011120727 -3.0152357e-22)
(0.85803842 -0.012103093 1.1084773e-20)
(0.87218239 -0.013856657 3.0356255e-21)
(0.88887792 -0.01503525 -8.781887e-21)
(0.90548164 -0.016369554 -1.1806089e-20)
(0.9226762 -0.017425311 -1.6796389e-21)
(0.94082866 -0.018477744 0)
(0.95917505 -0.019383751 -8.1520621e-21)
(0.97685249 -0.020190524 -3.1601766e-20)
(0.99296517 -0.020860472 6.4750384e-22)
(1.0068724 -0.021443955 -6.318832e-21)
(1.0181716 -0.021932838 0)
(1.0269026 -0.022345746 -1.5607689e-21)
(1.033398 -0.022651906 1.583223e-20)
(1.0382345 -0.022812272 4.756031e-21)
(1.0419831 -0.022754194 -1.0793822e-20)
(1.045101 -0.022406742 0)
(1.0478351 -0.021704663 -2.6892462e-21)
(1.05027 -0.02060927 -2.9281568e-21)
(1.0523763 -0.019111804 -1.6804204e-20)
(1.0540833 -0.017238539 -1.4564033e-21)
(1.0553095 -0.015050731 0)
(1.0559912 -0.012641024 -1.3772584e-20)
(1.0560932 -0.010125792 3.0753341e-21)
(1.0556197 -0.0076339295 -1.2437611e-22)
(1.0546158 -0.0052894437 -5.9863313e-21)
(1.0531659 -0.003207188 3.5469165e-21)
(1.0513818 -0.0014622452 3.3347647e-22)
(1.0494007 -0.00012932501 -5.5600577e-23)
(1.0473552 0.00080552464 -2.2982038e-21)
(1.0454054 0.0012681941 -1.4581566e-21)
(1.0436528 0.0014098525 0)
(1.042288 0.001018171 -1.9161155e-22)
(1.0412408 0.00053969816 -2.9842404e-21)
(0.82528314 -0.0071922671 3.0429367e-21)
(0.82776743 -0.0099030461 7.9572178e-22)
(0.84020349 -0.011110298 1.0087656e-20)
(0.85298108 -0.013058676 1.0628519e-21)
(0.86933339 -0.014454214 -2.3769897e-21)
(0.88660683 -0.015989096 -9.2684746e-22)
(0.90426112 -0.017277749 -1.063482e-20)
(0.92229403 -0.018500592 1.9966018e-22)
(0.94122346 -0.019567144 0)
(0.96021744 -0.020559555 9.982156e-21)
(0.97834002 -0.021387833 -1.0760828e-20)
(0.99475784 -0.022098485 1.970521e-21)
(1.0087818 -0.022683839 -6.7607721e-21)
(1.0201154 -0.023170943 9.5639654e-21)
(1.0288046 -0.023546329 3.1591708e-21)
(1.0352725 -0.02379185 1.4551819e-20)
(1.0401008 -0.023849621 -2.0436435e-20)
(1.0438849 -0.023651253 -3.120222e-21)
(1.0470505 -0.023120847 1.3590014e-20)
(1.0498271 -0.022201316 -1.3098854e-20)
(1.0522675 -0.020862606 1.4598084e-20)
(1.0543318 -0.019110571 -4.8970945e-21)
(1.0559392 -0.016988244 0)
(1.0570122 -0.014574063 -3.6567522e-21)
(1.0574935 -0.011977021 7.1147602e-22)
(1.0573625 -0.0093250766 6.2161e-21)
(1.0566396 -0.0067537946 3.2933033e-21)
(1.0553873 -0.004386928 1.7276211e-21)
(1.0537051 -0.0023336875 2.0203833e-21)
(1.0517158 -0.00065960457 0)
(1.0495631 0.00057284305 5.4524403e-22)
(1.0473807 0.0013874706 -2.5244511e-21)
(1.0453281 0.0017226008 1.0273688e-20)
(1.0434998 0.0017305665 -3.9776448e-21)
(1.0420863 0.0012125774 2.6736084e-22)
(1.0410047 0.00059810506 1.0740386e-20)
(0.81411571 -0.0057668424 -2.8823058e-21)
(0.81312105 -0.0084649689 -1.0233418e-22)
(0.82321375 -0.0098944664 -3.0853062e-21)
(0.83391284 -0.012018643 -9.3702243e-24)
(0.84916113 -0.01364768 1.0456763e-20)
(0.86606624 -0.015405463 8.9858525e-21)
(0.88456329 -0.01690049 -5.1623394e-23)
(0.90310251 -0.018369052 -8.4487826e-21)
(0.92202501 -0.01961925 2.2017983e-22)
(0.94174099 -0.020779304 -8.4444009e-21)
(0.96135817 -0.021804126 -2.2666877e-22)
(0.9799564 -0.022681724 5.5966427e-21)
(0.9966451 -0.023402158 -2.0245467e-22)
(1.0108127 -0.023993803 9.443362e-21)
(1.0221611 -0.02445253 -3.491202e-20)
(1.0308305 -0.024778824 3.7505391e-21)
(1.0372668 -0.024935546 5.4993105e-21)
(1.0421016 -0.024867845 9.9144116e-21)
(1.045917 -0.02449924 -8.6835958e-21)
(1.049128 -0.023759201 -2.7228714e-21)
(1.0519287 -0.022596453 9.3112524e-21)
(1.0543539 -0.020994196 -1.3147939e-20)
(1.0563464 -0.018974328 9.0823478e-21)
(1.0578242 -0.016597825 0)
(1.0587127 -0.013961326 1.3253388e-20)
(1.058967 -0.011188589 1.4012956e-20)
(1.0585816 -0.0084180322 -4.0771966e-21)
(1.0575953 -0.0057886568 9.4425839e-21)
(1.0560878 -0.0034217008 4.2622542e-22)
(1.0541732 -0.0014179357 -2.0925849e-21)
(1.0519832 0.00016805553 3.599955e-22)
(1.0496668 0.0012870892 -4.8958769e-21)
(1.0473564 0.0019726915 -2.7488007e-22)
(1.0452099 0.0021753825 1.0906187e-20)
(1.0433139 0.0020475893 -1.0749613e-21)
(1.0418577 0.0014037471 -3.9414681e-22)
(1.0407464 0.00065485209 4.0135828e-21)
(0.80530485 -0.0042159799 3.328093e-22)
(0.8005441 -0.0068236274 -8.4072212e-22)
(0.80772297 -0.0084589261 -3.9772754e-21)
(0.81565038 -0.010730307 -6.7060303e-22)
(0.82899704 -0.012582139 5.5716686e-23)
(0.8447785 -0.01457081 4.4446524e-23)
(0.86312137 -0.016300047 -5.5719597e-21)
(0.8825293 -0.017986109 2.9793895e-21)
(0.90204246 -0.019505659 0)
(0.92186346 -0.020863642 1.7257225e-21)
(0.94236446 -0.022063585 0)
(0.96263044 -0.023150059 0)
(0.98167964 -0.024047828 6.0623288e-21)
(0.99866392 -0.024783955 -7.4628461e-22)
(1.0129553 -0.025356628 -5.5826483e-21)
(1.0243377 -0.025776766 -9.0569086e-21)
(1.0329807 -0.026026643 2.0199327e-20)
(1.0394003 -0.026072252 -7.3140723e-22)
(1.0442396 -0.025848537 6.2918751e-21)
(1.0480882 -0.025281565 3.0500442e-21)
(1.0513308 -0.024303151 -1.4035332e-20)
(1.0541382 -0.02287306 1.3401235e-21)
(1.0565198 -0.020989118 3.3624444e-21)
(1.05841 -0.018691266 3.9532124e-21)
(1.0597249 -0.016059867 1.0442375e-21)
(1.0603985 -0.01320899 2.420514e-21)
(1.0603996 -0.01027645 -3.0982969e-21)
(1.0597408 -0.0074081979 -6.0054975e-21)
(1.0584798 -0.0047442624 -6.5981942e-22)
(1.0567133 -0.0024002243 -7.11312e-21)
(1.0545685 -0.00046638727 -3.9768183e-21)
(1.0521846 0.0010151126 -1.9409583e-21)
(1.0497135 0.0020088806 -1.7283175e-21)
(1.0472849 0.0025578728 7.7921375e-21)
(1.0450536 0.0026242885 -2.1418873e-20)
(1.0430978 0.0023595849 -3.6045828e-21)
(1.0416049 0.0015909605 -3.7925097e-21)
(1.0404684 0.00070985329 0)
(0.79921354 -0.0025696578 2.5297004e-21)
(0.79057363 -0.005008685 -9.4016746e-23)
(0.79437805 -0.0068202005 -1.0432769e-21)
(0.79891729 -0.0091943022 -5.4587657e-22)
(0.80958032 -0.011251853 -5.0273985e-21)
(0.82339453 -0.013455983 -3.8242709e-21)