/*--------------------------------*- C++ -*----------------------------------*\
| =========                 |                                                 |
| \\      /  F ield         | OpenFOAM: The Open Source CFD Toolbox           |
|  \\    /   O peration     | Version:  5.0                                   |
|   \\  /    A nd           | Web:      www.OpenFOAM.org                      |
|    \\/     M anipulation  |                                                 |
\*---------------------------------------------------------------------------*/
FoamFile
{
    version     2.0;
    format      ascii;
    class       volSymmTensorField;
    location    "195";
    object      UPrime2Mean;
}
// * * * * * * * * * * * * * * * * * * * * * * * * * * * * * * * * * * * * * //

dimensions      [0 2 -2 0 0 0 0];

internalField   nonuniform List<symmTensor> 
9200
(
(7.0862066e-05 -7.2978923e-07 2.7248328e-26 1.672369e-08 -2.2664092e-28 3.4278444e-47)
(7.1247607e-05 -2.3787588e-06 -1.5560886e-23 1.5943671e-07 8.7190347e-25 5.1722918e-42)
(7.5419102e-05 -7.3896192e-07 0 1.6305642e-08 0 0)
(7.4909165e-05 -3.8497491e-06 8.3036076e-24 4.0239967e-07 -7.1676686e-25 1.3815213e-42)
(7.585171e-05 -2.4792184e-06 -1.2680591e-23 1.596347e-07 6.5830633e-25 3.0747209e-42)
(7.7411656e-05 -7.2813311e-07 0 1.5817393e-08 0 0)
(8.0837423e-05 -5.5076145e-06 8.5857098e-25 7.506457e-07 -9.7545085e-26 1.3729112e-44)
(7.9677185e-05 -3.9793379e-06 -3.133867e-25 3.9966113e-07 3.140891e-26 7.2617645e-45)
(7.7868347e-05 -2.5024977e-06 0 1.5828767e-07 0 0)
(8.0451816e-05 -7.1045318e-07 0 1.5211369e-08 0 0)
(8.8787179e-05 -7.1659642e-06 -1.7935749e-23 1.1592923e-06 2.3894611e-24 5.2724328e-42)
(8.5848857e-05 -5.7067815e-06 -1.1607687e-23 7.4876478e-07 1.1832278e-24 2.0672922e-42)
(8.1781862e-05 -4.0043046e-06 -7.5018037e-24 3.953122e-07 5.8376654e-25 9.647685e-43)
(8.0947325e-05 -2.526782e-06 -4.5166947e-25 1.5639563e-07 2.2146141e-26 3.5492263e-45)
(8.2887735e-05 -6.8362338e-07 -5.4580084e-27 1.4570595e-08 4.0841535e-29 7.7325062e-49)
(9.8470112e-05 -8.9524698e-06 -1.7604255e-23 1.629599e-06 2.6378126e-24 4.5625883e-42)
(9.4031579e-05 -7.408713e-06 9.2506766e-25 1.1567927e-06 -1.2518345e-25 2.4505334e-44)
(8.8055156e-05 -5.7576059e-06 -2.568376e-23 7.4321445e-07 2.6293393e-24 1.0307089e-41)
(8.5002735e-05 -4.023288e-06 -1.0144646e-23 3.8914901e-07 7.373242e-25 1.5827881e-42)
(8.3427217e-05 -2.5217448e-06 -3.1948524e-25 1.53685e-07 7.8096796e-27 4.6189666e-45)
(8.5388295e-05 -6.4438017e-07 1.8222741e-23 1.3851406e-08 -2.4605037e-25 5.5596919e-42)
(0.00010989792 -1.0793731e-05 -1.8481581e-23 2.1331434e-06 2.9754406e-24 4.422643e-42)
(0.00010395598 -9.2505841e-06 -1.9239365e-23 1.6298764e-06 2.6846843e-24 4.943832e-42)
(9.6345765e-05 -7.4753989e-06 1.6158652e-23 1.1496114e-06 -1.9688344e-24 3.7443563e-42)
(9.1454411e-05 -5.8103383e-06 1.0929743e-24 7.3553665e-07 -1.0302009e-25 1.6524129e-44)
(8.7607445e-05 -3.9997333e-06 -9.4406077e-24 3.8153478e-07 6.8485156e-25 1.414599e-42)
(8.5993332e-05 -2.4887785e-06 -9.4001922e-24 1.4997039e-07 4.2201231e-25 1.3745191e-42)
(8.7710299e-05 -5.9508464e-07 -1.7423606e-24 1.3122527e-08 1.8962327e-26 4.1609882e-44)
(0.00012307365 -1.2713841e-05 -9.6350945e-24 2.6619303e-06 1.6241716e-24 1.1909789e-42)
(0.00011559042 -1.1136017e-05 -1.5316048e-23 2.1370045e-06 2.2946371e-24 2.6994273e-42)
(0.00010637118 -9.3444471e-06 -1.943712e-23 1.6236749e-06 2.6498198e-24 4.7532562e-42)
(9.9938818e-05 -7.552006e-06 -5.3637924e-25 1.1409002e-06 2.8917388e-26 2.73245e-44)
(9.4212605e-05 -5.8056115e-06 2.5029346e-23 7.2510009e-07 -2.3619375e-24 8.7330657e-42)
(9.0328216e-05 -3.9300248e-06 1.0873143e-23 3.7162475e-07 -7.2664364e-25 1.6785957e-42)
(8.8384466e-05 -2.4281253e-06 1.0561688e-23 1.4553575e-07 -4.8563631e-25 1.9344594e-42)
(8.9812393e-05 -5.319463e-07 -1.641953e-23 1.2373829e-08 1.9741621e-25 4.4698745e-42)
(0.00013809165 -1.4682229e-05 2.5676494e-23 3.1996047e-06 -4.5623128e-24 6.9332348e-42)
(0.00012893146 -1.3099107e-05 -1.753658e-23 2.6719508e-06 2.8027332e-24 3.3101494e-42)
(0.00011809195 -1.1257737e-05 -1.6415029e-25 2.1335047e-06 9.6479076e-28 2.4307385e-44)
(0.00011016014 -9.4644097e-06 -9.7656222e-24 1.6184524e-06 1.3001358e-24 1.1676028e-42)
(0.00010286551 -7.560823e-06 -1.482901e-24 1.1284919e-06 7.4875435e-26 1.4409294e-43)
(9.7131992e-05 -5.7429536e-06 3.8264164e-23 7.1075416e-07 -3.5016069e-24 1.992369e-41)
(9.2870284e-05 -3.8170608e-06 -2.561507e-24 3.6028449e-07 3.1169244e-25 6.6979459e-43)
(9.0584534e-05 -2.3286563e-06 1.7633503e-23 1.4003508e-07 -7.8148567e-25 5.2940702e-42)
(9.1791052e-05 -4.5725945e-07 3.4249908e-23 1.1670591e-08 -3.8114436e-25 1.9260936e-41)
(0.00015508116 -1.6691662e-05 -2.1052558e-23 3.7363968e-06 3.8498303e-24 4.3079538e-42)
(0.00014404985 -1.5101308e-05 7.9780663e-24 3.2172959e-06 -1.324586e-24 7.9514116e-43)
(0.00013149199 -1.3254877e-05 7.3867949e-25 2.674022e-06 -1.1062667e-25 6.9810862e-45)
(0.00012206457 -1.142646e-05 8.7021051e-25 2.1356294e-06 -1.6105618e-26 2.9066168e-43)
(0.00011325782 -9.5084699e-06 3.9210773e-24 1.6086665e-06 -4.8655284e-25 1.6987012e-43)
(0.00010600954 -7.5031871e-06 -3.0873331e-24 1.1110938e-06 1.4846547e-25 4.2645528e-43)
(9.9871177e-05 -5.622835e-06 -1.3716353e-23 6.9358706e-07 1.1978236e-24 2.4487643e-42)
(9.5253156e-05 -3.641109e-06 -2.1630681e-23 3.466052e-07 1.3701302e-24 6.6973089e-42)
(9.2666636e-05 -2.1955168e-06 -1.2131991e-23 1.3387526e-07 4.6413454e-25 2.0625406e-42)
(9.3473678e-05 -3.683483e-07 -3.1550015e-24 1.1044e-08 2.6661118e-26 1.3417618e-43)
(0.00017423113 -1.8726813e-05 1.0157293e-23 4.2626768e-06 -1.8998216e-24 9.0262147e-43)
(0.00016106394 -1.7134453e-05 -2.2088782e-24 3.7631323e-06 3.920712e-25 1.7322297e-43)
(0.00014663115 -1.5294446e-05 -1.5004781e-23 3.2274875e-06 2.4843955e-24 2.150034e-42)
(0.0001356207 -1.3485609e-05 1.6195205e-23 2.6890478e-06 -2.4685928e-24 2.5096807e-42)
(0.00012532339 -1.1515549e-05 -1.709699e-23 2.1329452e-06 2.5763657e-24 3.9415385e-42)
(0.00011664288 -9.4839631e-06 4.1136217e-23 1.5936144e-06 -5.2768185e-24 2.0130116e-41)
(0.00010897287 -7.3767397e-06 -1.2565531e-24 1.089675e-06 5.8139863e-26 5.0362848e-44)
(0.00010250024 -5.4179041e-06 -3.4398217e-23 6.7172784e-07 3.0640781e-24 1.6839937e-41)
(9.751663e-05 -3.4096597e-06 1.5573556e-23 3.3159844e-07 -9.9407308e-25 3.7803905e-42)
(9.447127e-05 -2.0176659e-06 -3.3251915e-23 1.2701145e-07 1.2748829e-24 1.6732477e-41)
(9.4974796e-05 -2.6689339e-07 3.7943321e-24 1.0563273e-08 -4.1972602e-26 3.0372136e-43)
(0.00019577312 -2.0779807e-05 -1.8001803e-25 4.7719223e-06 3.9780069e-26 6.8213955e-45)
(0.00018015636 -1.9176874e-05 6.5011738e-24 4.2986463e-06 -1.1942327e-24 7.0208021e-43)
(0.00016361572 -1.7369352e-05 1.5330422e-23 3.7840966e-06 -2.585797e-24 1.9412083e-42)
(0.00015087396 -1.5596506e-05 0 3.2607493e-06 0 0)
(0.00013901561 -1.3636809e-05 -5.0030429e-25 2.6996543e-06 6.6262632e-26 3.0577338e-45)
(0.00012895262 -1.1540744e-05 3.4736982e-24 2.1262629e-06 -2.5813566e-25 4.6505285e-43)
(0.00011984949 -9.3815518e-06 8.4323526e-24 1.5731974e-06 -1.0544327e-24 8.2536335e-43)
(0.0001118903 -7.147663e-06 1.8700459e-23 1.0613844e-06 -1.9862521e-24 4.4605592e-42)
(0.00010500081 -5.1354333e-06 6.7748365e-24 6.4664493e-07 -2.5052842e-25 7.9047926e-43)
(9.9522358e-05 -3.1071831e-06 1.967331e-23 3.1527848e-07 -1.1725664e-24 5.8077642e-42)
(9.6105456e-05 -1.7996656e-06 1.2020026e-23 1.199389e-07 -4.6121919e-25 2.4018524e-42)
(9.6166956e-05 -1.523575e-07 -2.8838661e-24 1.0289698e-08 2.0434022e-26 1.2212995e-43)
(0.00021993736 -2.2847116e-05 -3.6618691e-25 5.2605528e-06 7.4772392e-26 1.2989043e-45)
(0.00020157115 -2.1213509e-05 1.3866152e-24 4.8158665e-06 -1.8514898e-25 7.9048147e-44)
(0.00018261752 -1.9457645e-05 0 4.3326631e-06 0 0)
(0.0001679172 -1.7752906e-05 0 3.8411049e-06 0 0)
(0.00015436564 -1.5823486e-05 7.4873709e-24 3.2907882e-06 -1.2288284e-24 5.5997954e-43)
(0.00014287841 -1.3737658e-05 -4.1399598e-24 2.7096624e-06 9.4583022e-25 1.4140688e-42)
(0.00013240847 -1.1481845e-05 1.5735432e-23 2.1131874e-06 -2.4072688e-24 3.6781662e-42)
(0.00012309314 -9.1631742e-06 -2.4337862e-23 1.5436296e-06 2.8560963e-24 6.2953011e-42)
(0.00011467182 -6.8210173e-06 -2.4294861e-24 1.0277753e-06 2.1018745e-25 6.0093773e-44)
(0.00010730379 -4.753402e-06 -9.4375252e-26 6.181114e-07 3.1657847e-27 1.2982406e-46)
(0.00010136193 -2.7390442e-06 -1.9467136e-23 2.9882756e-07 1.2289034e-24 6.9355244e-42)
(9.7441963e-05 -1.5361287e-06 1.5459211e-23 1.1299418e-07 -7.430977e-25 6.8375054e-42)
(9.7111064e-05 -2.6082914e-08 -3.3221416e-23 1.0298167e-08 2.9919108e-25 2.4113823e-41)
(0.00024681002 -2.4929335e-05 1.1823906e-25 5.7288958e-06 -1.4554869e-25 9.9162749e-44)
(0.00022558624 -2.3230392e-05 -4.3978569e-25 5.3090185e-06 6.5136664e-26 2.1330795e-45)
(0.0002038737 -2.1545946e-05 7.8515701e-24 4.8648744e-06 -1.348359e-24 5.1118286e-43)
(0.0001869122 -1.9930632e-05 -7.9871546e-24 4.418296e-06 1.373356e-24 6.1426944e-43)
(0.00017145214 -1.8070366e-05 7.8946226e-24 3.8969595e-06 -1.3579606e-24 6.6470744e-43)
(0.00015843739 -1.6023657e-05 -2.4762103e-25 3.3264332e-06 1.4526363e-25 1.2545307e-43)
(0.00014657467 -1.3750625e-05 -7.660663e-24 2.7125035e-06 1.086656e-24 5.0306154e-43)
(0.00013600146 -1.1299321e-05 -2.7909156e-25 2.0894787e-06 1.1748548e-26 2.6843334e-45)
(0.00012619894 -8.8280416e-06 -2.8156216e-23 1.5057022e-06 2.886724e-24 7.3945179e-42)
(0.00011733232 -6.368186e-06 -2.593154e-23 9.8834299e-07 2.0560806e-24 6.5803916e-42)
(0.00010943338 -4.2763802e-06 -6.6204235e-24 5.8800579e-07 5.0834119e-25 5.9656776e-43)
(0.00010291242 -2.2966824e-06 -1.7631654e-23 2.8319693e-07 8.8189251e-25 4.4040391e-42)
(9.8539186e-05 -1.2303147e-06 -1.0731665e-23 1.0680874e-07 3.3845495e-25 1.8041256e-42)
(9.7742673e-05 1.1100217e-07 8.2600439e-24 1.0661968e-08 -7.0203426e-26 1.6590642e-42)
(0.00027602359 -2.7029785e-05 2.0067874e-23 6.1836694e-06 -3.8821226e-24 3.1255324e-42)
(0.00025240476 -2.5216679e-05 -9.2383309e-24 5.7759034e-06 1.0856671e-24 1.3976609e-42)
(0.00022766533 -2.3623384e-05 5.2027013e-24 5.374398e-06 -9.3126001e-25 1.9631772e-43)
(0.00020809393 -2.2114507e-05 -1.6132783e-25 4.98312e-06 2.8966981e-26 4.9203376e-45)
(0.00019042442 -2.0351924e-05 3.4404626e-25 4.5058522e-06 -4.8427085e-26 5.1016106e-45)
(0.00017569124 -1.8395094e-05 -3.5543532e-25 3.9676977e-06 -7.2361075e-26 2.1579707e-43)
(0.00016234692 -1.6133457e-05 -8.0334565e-24 3.3542452e-06 1.2024552e-24 4.9622534e-43)
(0.00015051915 -1.3640221e-05 1.0243075e-23 2.7046666e-06 -1.3945316e-24 8.5678115e-43)
(0.00013946092 -1.0983104e-05 2.3555154e-24 2.0540522e-06 -1.0344238e-25 1.2849194e-43)
(0.00012927271 -8.3427994e-06 3.4283667e-24 1.4587016e-06 -2.9208477e-25 1.030185e-43)
(0.00011979763 -5.7917889e-06 4.4867664e-25 9.4544888e-07 -4.0859278e-26 2.3870985e-45)
(0.00011130271 -3.6924811e-06 6.2846332e-24 5.5790007e-07 -1.7857907e-25 4.3121279e-43)
(0.00010422601 -1.7845313e-06 1.8724966e-23 2.6996312e-07 -1.0317015e-24 6.4074875e-42)
(9.9328377e-05 -8.822817e-07 -6.6524986e-24 1.0202214e-07 2.9069956e-25 1.3118725e-42)
(9.8084875e-05 2.5732557e-07 4.4810799e-24 1.1453156e-08 -5.1620708e-26 8.2904442e-43)
(0.00030623277 -2.9123543e-05 -2.3955521e-24 6.6341486e-06 1.1883278e-24 4.0081866e-43)
(0.00028188837 -2.7166665e-05 1.3445155e-23 6.2207154e-06 -2.0236354e-24 9.3615727e-43)
(0.00025422595 -2.5684824e-05 -3.1797288e-24 5.8584034e-06 4.7116504e-25 2.4175092e-43)
(0.00023175906 -2.4291304e-05 8.4880136e-24 5.5279388e-06 -1.4302156e-24 5.8670134e-43)
(0.00021150789 -2.2652167e-05 -8.7433463e-24 5.1074264e-06 1.5198468e-24 6.7418744e-43)
(0.00019477502 -2.0825299e-05 2.5400819e-23 4.6208411e-06 -4.2707089e-24 4.4623455e-42)
(0.00017977053 -1.8628511e-05 -1.6149773e-23 4.0303356e-06 2.9254204e-24 3.2906581e-42)
(0.00016663362 -1.6131415e-05 -3.4891568e-25 3.3740403e-06 -1.12906e-27 1.1280074e-44)
(0.00015435686 -1.3382138e-05 6.9642664e-24 2.6814095e-06 -9.6510716e-25 4.1441911e-43)
(0.00014299357 -1.0497973e-05 8.5725612e-24 2.0063908e-06 -3.7151645e-25 1.2362249e-42)
(0.00013215537 -7.7047879e-06 5.5557193e-23 1.4045397e-06 -5.7939042e-24 3.1764114e-41)
(0.00012208242 -5.0741869e-06 -5.0098205e-24 9.0123356e-07 1.0033084e-24 1.8927855e-42)
(0.00011293749 -3.0049001e-06 -6.5714036e-24 5.3053393e-07 5.036002e-25 7.2156893e-43)
(0.00010522954 -1.2025956e-06 -4.9579176e-24 2.6079007e-07 1.2786241e-25 2.6347282e-43)
(9.9831753e-05 -4.9584833e-07 -3.6561299e-24 9.9390805e-08 3.4976225e-27 1.5048452e-43)
(9.8117533e-05 4.1116175e-07 -4.2679951e-24 1.2735626e-08 5.1720591e-26 9.4062354e-43)
(0.0003344751 -3.1180753e-05 0 7.1045677e-06 0 0)
(0.0003130664 -2.9060903e-05 1.0260724e-23 6.6522202e-06 -1.0523519e-24 8.3582251e-43)
(0.00028349921 -2.7730751e-05 -9.8658632e-24 6.3195666e-06 1.7892878e-24 5.8798621e-43)
(0.00025818774 -2.6451283e-05 0 6.0478424e-06 0 0)
(0.00023499907 -2.4956475e-05 0 5.6926572e-06 0 0)
(0.0002159024 -2.3297218e-05 0 5.2750455e-06 0 0)
(0.00019896544 -2.1207757e-05 -1.1836816e-24 4.7279895e-06 1.3817825e-25 3.2316168e-44)
(0.00018437453 -1.8774412e-05 -2.0083039e-23 4.0910067e-06 3.1086371e-24 2.7351335e-42)
(0.00017085131 -1.5969767e-05 -6.8651505e-24 3.3745629e-06 1.3457933e-25 2.1018352e-42)
(0.00015837902 -1.2942675e-05 -2.0997425e-23 2.6431315e-06 2.7296249e-24 3.5102561e-42)
(0.00014635622 -9.830716e-06 -3.7938785e-24 1.946554e-06 1.5751565e-25 1.879726e-43)
(0.00013493029 -6.8895944e-06 -1.2631857e-23 1.3459986e-06 1.1775206e-24 1.5249944e-42)
(0.0001241065 -4.2183633e-06 -1.4900981e-24 8.5967112e-07 -2.4613146e-26 4.3434573e-44)
(0.00011426952 -2.2120672e-06 7.8985576e-24 5.0895618e-07 -5.15803e-25 9.3751269e-43)
(0.00010594263 -5.5654317e-07 4.3681053e-24 2.5761786e-07 -5.7086741e-26 1.9137087e-43)
(0.00010002252 -7.465706e-08 2.5196253e-24 9.9662569e-08 -1.1521657e-25 2.6283861e-43)
(9.7849907e-05 5.7048791e-07 0 1.4564603e-08 0 0)
(0.00035552998 -3.305677e-05 1.0948929e-23 7.6138216e-06 -8.8430878e-25 8.4213176e-43)
(0.00034343755 -3.0893051e-05 -2.5597373e-23 7.0947592e-06 3.2404747e-24 2.8000606e-42)
(0.00031467667 -2.9747474e-05 1.5422151e-23 6.7646149e-06 -2.1053007e-24 3.5328668e-42)
(0.00028744491 -2.8590471e-05 2.2326999e-24 6.5426671e-06 -4.1879893e-26 1.1188433e-42)
(0.00026121001 -2.7257248e-05 7.0577944e-24 6.2553755e-06 -1.1351364e-24 1.1160347e-42)
(0.00023936912 -2.5794652e-05 0 5.9199441e-06 0 0)
(0.00022013377 -2.3853455e-05 3.169672e-24 5.4357719e-06 -8.8116747e-25 1.6325496e-42)
(0.00020384414 -2.1540647e-05 3.128217e-24 4.8431878e-06 -2.6008017e-25 3.1201169e-43)
(0.00018895234 -1.8750927e-05 -2.5299478e-23 4.128729e-06 4.6213295e-24 7.2334285e-42)
(0.00017537992 -1.5622605e-05 -1.2312131e-23 3.3585426e-06 3.7896467e-25 3.8706721e-42)
(0.00016227528 -1.2292444e-05 1.2845986e-23 2.5861942e-06 -1.5647712e-24 1.2517786e-42)
(0.00014969489 -8.9522984e-06 -5.7493046e-24 1.8782135e-06 2.1763879e-25 3.5469498e-43)
(0.00013744736 -5.8970237e-06 -1.6695614e-23 1.2876696e-06 2.0161903e-24 4.4025525e-42)
(0.00012587388 -3.2171759e-06 3.33469e-23 8.2526976e-07 -2.3290495e-24 1.2659362e-41)
(0.00011530652 -1.3200337e-06 1.4502838e-23 4.9683524e-07 -3.1062937e-25 1.9331922e-42)
(0.00010633095 1.4779916e-07 1.9623063e-23 2.6239287e-07 -1.2840317e-24 1.3689368e-41)
(9.9909867e-05 3.7592065e-07 7.6664987e-24 1.0360169e-07 -2.6163451e-25 1.8638198e-42)
(9.7284491e-05 7.3307237e-07 2.1622706e-24 1.6979203e-08 -7.0833874e-26 1.2605103e-42)
(0.00036218501 -3.4502787e-05 -8.8244191e-25 8.18834e-06 -4.4520795e-26 9.0491917e-45)
(0.00036818085 -3.2589292e-05 -1.1555171e-23 7.574031e-06 1.0123587e-24 6.9505456e-43)
(0.00034551 -3.1725035e-05 -7.1626907e-24 7.2136524e-06 1.2209479e-24 2.2979724e-43)
(0.00031895333 -3.0698228e-05 1.133133e-23 7.0176167e-06 -1.5162158e-24 1.2985281e-42)
(0.00029029015 -2.9553502e-05 -6.5820525e-25 6.7936473e-06 8.6730669e-26 2.034861e-44)
(0.00026550961 -2.8307788e-05 1.8201784e-23 6.5472366e-06 -3.1442811e-24 1.7115677e-42)
(0.00024356677 -2.6548222e-05 2.3627032e-23 6.1421462e-06 -3.5569775e-24 7.1624663e-42)
(0.00022522705 -2.4411504e-05 -3.6142192e-24 5.6188589e-06 1.6817834e-24 7.2343811e-42)
(0.00020874397 -2.1696853e-05 1.2298686e-25 4.9323966e-06 5.4995553e-25 1.0122033e-42)
(0.00019398787 -1.8548217e-05 2.7332279e-23 4.1504931e-06 -3.8073587e-24 4.5197625e-42)
(0.0001798445 -1.5038538e-05 3.8337783e-24 3.3165588e-06 -1.4039291e-25 2.4478089e-43)
(0.00016624699 -1.140038e-05 2.8591293e-23 2.5153623e-06 -3.4772893e-24 6.4764928e-42)
(0.00015280362 -7.8548144e-06 6.2526287e-25 1.8055758e-06 8.1109784e-25 1.1448296e-42)
(0.00013976151 -4.712707e-06 -5.689439e-24 1.2358436e-06 1.7738684e-25 2.6132102e-43)
(0.00012732743 -2.0779428e-06 -8.839565e-24 8.0386245e-07 1.5120265e-25 6.5881984e-43)
(0.00011600842 -3.3528209e-07 -3.9635201e-24 4.9801074e-07 3.066269e-25 3.9419999e-43)
(0.00010640046 9.0201025e-07 4.8498688e-24 2.7707962e-07 -4.0380449e-25 1.3725701e-42)
(9.9491258e-05 8.4966564e-07 1.7030331e-24 1.1188963e-07 3.6107029e-26 3.8525344e-44)
(9.6433689e-05 8.9668128e-07 -8.2419701e-25 2.0001459e-08 -9.0851521e-26 1.1339172e-42)
(0.00034672132 -3.5072524e-05 -6.5370819e-24 8.8481239e-06 -4.7406956e-25 5.3799927e-43)
(0.00038009855 -3.4010207e-05 1.6003803e-23 8.1260594e-06 -1.5605798e-24 1.0699436e-42)
(0.00037147769 -3.3584782e-05 -4.8665191e-23 7.6891864e-06 6.9052013e-24 1.5820516e-41)
(0.00035079985 -3.277173e-05 -2.0761362e-24 7.4910133e-06 -2.7190518e-26 3.5098905e-43)
(0.00032183416 -3.1839046e-05 1.0008571e-23 7.3105314e-06 -1.6695609e-24 4.4991619e-43)
(0.0002945485 -3.0833114e-05 8.2347752e-24 7.1520764e-06 -1.4379745e-24 3.2862213e-43)
(0.00026961417 -2.9281273e-05 1.9859713e-25 6.8369663e-06 -7.1380342e-26 7.719392e-44)
(0.00024880336 -2.7367604e-05 2.315534e-23 6.4053205e-06 -4.0094928e-24 2.8562465e-42)
(0.00023039376 -2.4788674e-05 5.1787972e-26 5.7740335e-06 2.2174397e-25 1.8482941e-43)
(0.00021426637 -2.1691783e-05 -1.6920884e-23 5.0092209e-06 4.1301524e-24 7.6341876e-42)
(0.00019903537 -1.8085979e-05 4.4632821e-23 4.138705e-06 -6.346875e-24 1.2260019e-41)
(0.00018450416 -1.4187333e-05 -1.1461525e-23 3.2547135e-06 1.0495549e-24 8.2500573e-43)
(0.00017003812 -1.0245491e-05 -1.6917882e-23 2.4331305e-06 1.597559e-24 1.8976708e-42)
(0.0001557684 -6.5169677e-06 1.5666161e-24 1.7367321e-06 -9.9904866e-26 1.7045563e-44)
(0.00014174931 -3.3450271e-06 -7.5903507e-24 1.1982647e-06 9.5941829e-26 4.7435553e-43)
(0.00012844984 -8.0559429e-07 -1.5526721e-23 8.0145753e-07 1.4200598e-24 5.0623956e-42)
(0.00011637413 7.3135199e-07 -6.1460383e-24 5.1649808e-07 -4.0284794e-25 8.1321096e-43)
(0.00010614371 1.6962642e-06 -9.2815471e-24 3.0342415e-07 5.5470536e-25 3.6246377e-42)
(9.8776387e-05 1.3397021e-06 -1.832819e-24 1.2511004e-07 8.160053e-26 2.0554089e-43)
(9.5312495e-05 1.0590506e-06 2.1756432e-24 2.3632833e-08 1.0941467e-25 1.2513417e-42)
(0.0003039798 -3.4089471e-05 -1.5006339e-24 9.6034318e-06 4.3505694e-25 3.0916799e-44)
(0.00037073147 -3.4841775e-05 2.2527396e-23 8.785417e-06 -1.7019564e-24 2.5331521e-42)
(0.00038556027 -3.5169836e-05 -7.4025504e-24 8.222089e-06 1.8526081e-24 7.6417198e-43)
(0.000378841 -3.4751278e-05 1.4045683e-23 7.985787e-06 -1.6993728e-24 1.2711892e-42)
(0.00035420989 -3.4108994e-05 8.2542403e-24 7.8206741e-06 -1.5972143e-24 4.7788142e-43)
(0.00032624748 -3.3365081e-05 -7.4110075e-24 7.7346246e-06 1.1317625e-24 6.2317333e-43)
(0.00029856217 -3.2049212e-05 5.9260887e-24 7.513065e-06 -1.0909248e-24 4.6348971e-42)
(0.00027492918 -3.0395945e-05 -7.5870582e-25 7.1904001e-06 -1.0219901e-24 1.7728608e-41)
(0.00025416911 -2.8005587e-05 -3.9144689e-23 6.6402253e-06 6.3632146e-24 7.4277491e-42)
(0.00023636187 -2.5035102e-05 0 5.9242508e-06 0 0)
(0.0002198903 -2.140908e-05 -3.2380894e-23 5.0453864e-06 4.8389342e-24 5.77547e-42)
(0.00020442116 -1.7338913e-05 -1.3469223e-23 4.1012708e-06 4.4005605e-25 2.5431781e-42)
(0.00018905457 -1.3029996e-05 2.2575463e-23 3.1722386e-06 -3.5097937e-24 5.0971742e-42)
(0.00017376451 -8.8002247e-06 3.4134174e-24 2.3490806e-06 1.3010952e-24 2.6724545e-42)
(0.00015842449 -4.9430785e-06 1.5817632e-23 1.6810696e-06 -1.0686495e-24 1.8337967e-42)
(0.00014343666 -1.7904949e-06 -1.829676e-23 1.1840234e-06 1.4983949e-24 4.2190466e-42)
(0.00012921348 5.8734095e-07 -1.2329265e-23 8.248609e-07 -1.4360332e-25 1.2730199e-42)
(0.00011638629 1.867037e-06 -1.3873834e-24 5.5601999e-07 -4.3716694e-25 5.5143834e-43)
(0.00010556706 2.5194026e-06 3.1626191e-25 3.4294075e-07 4.7388765e-25 1.267961e-42)
(9.7777239e-05 1.8387745e-06 -1.7466386e-24 1.4368193e-07 -2.0841887e-26 3.3951908e-44)
(9.3940533e-05 1.2179546e-06 4.2360795e-24 2.7852299e-08 1.353072e-25 1.2794266e-42)
(0.00023534991 -3.0667375e-05 -4.5496486e-25 1.0449079e-05 3.5929925e-24 2.0304006e-42)
(0.00033325584 -3.4506715e-05 1.7771829e-23 9.5809917e-06 -1.3251971e-24 1.8085393e-42)
(0.00037915018 -3.6151593e-05 2.6886271e-23 8.8422734e-06 -3.8900946e-24 3.7649374e-42)
(0.00039627606 -3.651243e-05 -3.5527529e-23 8.5364154e-06 4.7551053e-24 5.6601084e-42)
(0.00038363923 -3.6311684e-05 -1.64058e-23 8.3463635e-06 1.9751518e-24 2.3244512e-42)
(0.00035925973 -3.589849e-05 8.8239526e-24 8.3059206e-06 -1.5410307e-24 3.1301009e-43)
(0.00033031696 -3.4850499e-05 0 8.168248e-06 0 0)
(0.00030393734 -3.3490461e-05 3.2366169e-23 7.9638925e-06 -5.5527759e-24 4.6156131e-42)
(0.00028042687 -3.1333001e-05 1.783252e-23 7.5172267e-06 -2.4670339e-24 3.1117008e-42)
(0.00026052313 -2.8555787e-05 -3.7431086e-23 6.8820326e-06 7.2816912e-24 1.0654316e-41)
(0.00024253454 -2.4991421e-05 -2.0570273e-23 6.0280046e-06 2.7649031e-24 2.1138388e-42)
(0.00022601874 -2.0833688e-05 -3.1591772e-24 5.0514342e-06 -2.4464822e-25 5.2942863e-43)
(0.00020979095 -1.6244833e-05 3.1965562e-24 4.0322569e-06 -1.1203606e-25 1.0373361e-43)
(0.00019364379 -1.1533262e-05 -1.4758211e-23 3.0797321e-06 1.5309851e-24 1.3191505e-42)
(0.00017722156 -7.0596673e-06 5.5170277e-24 2.2736792e-06 -1.2823611e-24 1.0929321e-42)
(0.00016080921 -3.1226178e-06 -3.4264999e-24 1.6507774e-06 9.6426239e-25 8.8113773e-43)
(0.00014473345 -6.8663715e-08 2.4866391e-24 1.2028112e-06 -1.6030738e-25 7.1079205e-44)
(0.00012959875 2.0857821e-06 -8.3070502e-24 8.8029823e-07 7.1800636e-25 1.7970377e-42)
(0.00011604633 3.0565845e-06 -8.9029116e-24 6.1998717e-07 -2.1482478e-25 7.0198695e-43)
(0.00010467784 3.3594243e-06 -1.6825025e-24 3.9672286e-07 -5.4061339e-26 2.7722217e-44)
(9.6511028e-05 2.3394922e-06 1.9732776e-24 1.6783858e-07 2.0062862e-25 4.0083923e-43)
(9.2339531e-05 1.3711665e-06 0 3.2611892e-08 0 0)
(0.00015217711 -2.3829756e-05 -2.212214e-24 1.1360111e-05 2.613242e-24 7.2223815e-43)
(0.0002667427 -3.210728e-05 -7.8914205e-24 1.0529546e-05 5.1543017e-25 5.0710483e-43)
(0.00034475556 -3.5952429e-05 1.1514959e-24 9.573981e-06 -3.4796689e-25 1.6928882e-44)
(0.00039425376 -3.7768078e-05 -3.3054601e-23 9.1784228e-06 3.6776321e-24 5.8831904e-42)
(0.00040359368 -3.8321339e-05 -8.8022041e-24 8.9197784e-06 5.4202575e-25 1.3930408e-42)
(0.0003901885 -3.8389142e-05 1.0446132e-23 8.8867284e-06 -1.4370903e-24 7.0667222e-43)
(0.00036378624 -3.7681865e-05 -2.6075238e-23 8.8103442e-06 4.6097206e-24 2.7647836e-42)
(0.00033585887 -3.6648661e-05 1.9657461e-23 8.7198892e-06 -3.5409971e-24 5.5161993e-42)
(0.00030953552 -3.4763546e-05 1.3483032e-23 8.3923473e-06 -2.4713448e-24 9.2890272e-43)
(0.0002870999 -3.2237188e-05 -1.3015845e-24 7.8676784e-06 7.1906117e-26 6.8493323e-44)
(0.00026719641 -2.8809968e-05 8.3409766e-25 7.0737555e-06 -7.4243724e-26 7.8311789e-45)
(0.00024939792 -2.4658427e-05 1.2577249e-23 6.0996163e-06 -1.5501326e-25 3.496528e-42)
(0.00023224685 -1.9874994e-05 4.3039891e-24 5.014146e-06 -6.0018291e-25 9.7086749e-44)
(0.00021533118 -1.4765843e-05 -5.3449591e-23 3.9427403e-06 3.6228624e-24 1.6014527e-41)
(0.000198028 -9.6780913e-06 -3.8854809e-23 2.9876794e-06 3.3933852e-24 8.6118848e-42)
(0.00018045625 -5.0054989e-06 -2.4280346e-23 2.2219869e-06 2.1750292e-24 4.5983166e-42)
(0.00016279849 -1.0746857e-06 8.3310115e-24 1.6591146e-06 -5.1833816e-26 4.5276123e-43)
(0.0001456473 1.8127473e-06 1.9211667e-23 1.2649758e-06 -1.5607811e-24 6.2256246e-42)
(0.00012959313 3.6702368e-06 -1.9291015e-24 9.7387402e-07 -1.5375676e-25 5.0056168e-44)
(0.00011535525 4.2830986e-06 -9.5731192e-25 7.110691e-07 3.4701947e-25 4.3171029e-43)
(0.00010349087 4.2040921e-06 0 4.6541694e-07 0 0)
(9.4998534e-05 2.8345204e-06 -6.9796167e-24 1.976019e-07 -5.4803414e-25 2.3063774e-42)
(9.0532273e-05 1.5161815e-06 5.2452666e-25 3.7820084e-08 8.6476832e-27 3.1028001e-45)
(7.6842531e-05 -1.2724181e-05 5.990949e-24 1.2290489e-05 -1.2540626e-23 1.3646619e-41)
(0.00018036161 -2.6475892e-05 -1.4759565e-23 1.1627569e-05 1.8664667e-24 2.6187809e-42)
(0.00028027248 -3.3701872e-05 3.0320312e-23 1.0429555e-05 -5.4995182e-24 4.7783879e-42)
(0.00036434926 -3.7974251e-05 1.8403749e-23 9.9436895e-06 -2.9146924e-24 1.384921e-42)
(0.00040515351 -3.985565e-05 -3.9721899e-23 9.5773737e-06 5.3793291e-24 6.8105302e-42)
(0.00041282873 -4.0723747e-05 0 9.5107666e-06 0 0)
(0.00039593732 -4.0505739e-05 -5.7537963e-24 9.4583746e-06 1.0383927e-24 1.3080224e-43)
(0.00036984466 -3.9867274e-05 2.2636698e-23 9.461992e-06 -3.9221307e-24 1.9750666e-42)
(0.00034163189 -3.8295883e-05 5.1864126e-24 9.2566048e-06 -1.2736196e-24 2.8486414e-42)
(0.00031648379 -3.6069176e-05 -2.8323406e-23 8.8659976e-06 3.4218831e-24 1.0965597e-41)
(0.0002942137 -3.2846694e-05 -2.7118384e-23 8.1674013e-06 4.9474962e-24 3.5586688e-42)
(0.00027476307 -2.8790828e-05 -7.6335104e-24 7.23504e-06 2.2092854e-24 1.5743598e-42)
(0.00025649924 -2.3912473e-05 1.0688477e-23 6.1164608e-06 -2.8595499e-24 2.3875734e-42)
(0.00023880641 -1.8492315e-05 -2.9381101e-23 4.9445912e-06 4.1327546e-24 4.7349251e-42)
(0.00022075885 -1.2863942e-05 3.4958457e-23 3.8417117e-06 -4.7903431e-24 8.644601e-42)
(0.00020226493 -7.43707e-06 6.7588893e-23 2.9134884e-06 -5.5558335e-24 2.6570871e-41)
(0.00018331022 -2.6515373e-06 2.2493876e-23 2.2110599e-06 9.0147394e-25 4.6557653e-42)
(0.00016439823 1.1970341e-06 9.5186883e-24 1.7208951e-06 -7.5422221e-25 1.0893991e-42)
(0.0001461208 3.8239617e-06 -5.8462292e-24 1.3798851e-06 2.169044e-24 6.6708826e-42)
(0.00012919014 5.3192501e-06 -1.2615864e-23 1.1105302e-06 -1.2315712e-24 2.2539009e-42)
(0.00011432277 5.5280094e-06 -4.0789837e-24 8.3100373e-07 -1.0622287e-24 2.3365085e-42)
(0.00010202545 5.0410795e-06 9.9947608e-24 5.4909699e-07 1.0742084e-24 2.9519059e-42)
(9.3262794e-05 3.3166213e-06 -9.2913552e-24 2.3274985e-07 -5.6904732e-25 1.8144516e-42)
(8.8545346e-05 1.6483557e-06 3.9092987e-25 4.3233731e-08 7.18797e-27 1.7641452e-45)
(4.0518929e-05 3.1292209e-06 -3.3932218e-24 1.3176017e-05 -4.4709192e-24 1.7065595e-42)
(9.5529127e-05 -1.6379976e-05 -7.4979768e-24 1.2842834e-05 9.2239106e-26 1.6169715e-42)
(0.00019352047 -2.8288955e-05 -1.5343692e-24 1.140233e-05 -8.165693e-25 3.0924355e-43)
(0.00030288174 -3.6255981e-05 -7.9696754e-23 1.0853613e-05 1.1409754e-23 3.2305377e-41)
(0.00037921964 -4.0373709e-05 2.8373757e-23 1.0352809e-05 -4.3704544e-24 3.1109284e-42)
(0.00041825879 -4.2629973e-05 -4.8196354e-23 1.0217672e-05 6.6831266e-24 9.7564461e-42)
(0.00042090784 -4.3207763e-05 -5.1433622e-24 1.0144395e-05 9.6466125e-25 1.0525479e-43)
(0.0004032266 -4.3112855e-05 -3.4099834e-23 1.0206176e-05 5.3605775e-24 8.4005848e-42)
(0.00037608174 -4.192855e-05 2.1195415e-23 1.0109662e-05 -3.737921e-24 1.5562317e-42)
(0.00034890038 -4.004911e-05 6.5100358e-24 9.8643089e-06 -1.4919967e-24 9.2210745e-43)
(0.00032399126 -3.7089593e-05 -3.3096705e-23 9.29207e-06 5.6183632e-24 4.0883637e-42)
(0.00030243354 -3.3211763e-05 -5.3915259e-24 8.4431797e-06 -1.3157719e-24 5.6097785e-42)
(0.00028272724 -2.8337447e-05 -2.2451091e-23 7.3317131e-06 3.6379477e-24 2.2488172e-42)
(0.00026412197 -2.271275e-05 2.2565473e-24 6.0892632e-06 -5.7886986e-26 5.0242887e-44)
(0.00024537649 -1.6624043e-05 4.9743115e-23 4.8483856e-06 -4.8097071e-24 1.094581e-41)
(0.00022614609 -1.0501208e-05 1.7161497e-24 3.7480539e-06 -5.077024e-25 1.0640087e-43)
(0.00020616097 -4.8137949e-06 3.5699512e-24 2.8776813e-06 1.8269544e-25 1.2903352e-43)
(0.00018578407 4.3529925e-09 1.866821e-23 2.2606438e-06 -1.5093557e-24 3.1898364e-42)
(0.00016552254 3.6597152e-06 0 1.8502495e-06 0 0)
(0.00014615653 5.9462422e-06 3.8180992e-24 1.5567947e-06 -4.2352302e-27 1.2668526e-43)
(0.00012839031 7.0081761e-06 6.8684157e-25 1.2940423e-06 -2.0954523e-27 6.3152991e-45)
(0.00011296179 6.7714488e-06 -5.7515473e-25 9.8025291e-07 2.6938877e-26 1.391373e-44)
(0.00010030347 5.8570886e-06 -3.3033251e-24 6.4699506e-07 -2.3072685e-25 1.184712e-43)
(9.1327483e-05 3.7770333e-06 1.1554968e-23 2.7256633e-07 8.0175172e-25 3.1229143e-42)
(8.641975e-05 1.7649875e-06 7.5361254e-24 4.8660114e-08 2.0066212e-25 1.068226e-42)
(7.797401e-05 2.3649442e-05 2.7181455e-23 1.394226e-05 1.3917396e-23 1.4419098e-41)
(4.4499781e-05 -8.4752606e-07 3.9211117e-24 1.4107923e-05 8.092404e-25 5.7639672e-43)
(0.00010498931 -1.8546913e-05 6.4624195e-24 1.2461519e-05 -1.7745988e-24 4.8552422e-43)
(0.00021584024 -3.1429677e-05 8.0523727e-24 1.1911377e-05 -1.3779448e-24 4.1317966e-43)
(0.00032076406 -3.8997215e-05 7.6667224e-23 1.1270588e-05 -1.1688918e-23 2.6614575e-41)
(0.00039676113 -4.357467e-05 4.1214123e-25 1.1047213e-05 5.3234956e-25 2.130831e-43)
(0.00042985051 -4.5519113e-05 -4.9779778e-24 1.0910236e-05 9.9960608e-25 1.0506526e-43)
(0.00043052239 -4.6274964e-05 3.0195297e-24 1.0983414e-05 -4.7068627e-25 4.197e-44)
(0.00041055805 -4.5634164e-05 2.4065839e-23 1.0964329e-05 -4.0991468e-24 4.9238528e-42)
(0.00038391339 -4.4175978e-05 -2.4591554e-23 1.0857521e-05 4.2532111e-24 2.1077112e-42)
(0.00035682538 -4.1535489e-05 1.4902143e-23 1.0432059e-05 -3.1759085e-24 1.7762202e-42)
(0.0003328172 -3.7907066e-05 2.6658515e-24 9.7063182e-06 -1.5719214e-25 1.2554323e-43)
(0.00031122787 -3.3131149e-05 6.1421145e-24 8.647489e-06 4.188681e-25 1.6231419e-42)
(0.00029142925 -2.7412068e-05 1.3583735e-23 7.3741454e-06 -1.7977127e-24 7.0711289e-43)
(0.0002719107 -2.0969714e-05 1.1304638e-23 6.0181175e-06 -3.2278875e-25 9.2630215e-43)
(0.00025204864 -1.4220716e-05 -7.4090078e-23 4.7446982e-06 6.0487694e-24 2.3348036e-41)