/*--------------------------------*- C++ -*----------------------------------*\
| =========                 |                                                 |
| \\      /  F ield         | OpenFOAM: The Open Source CFD Toolbox           |
|  \\    /   O peration     | Version:  5.0                                   |
|   \\  /    A nd           | Web:      www.OpenFOAM.org                      |
|    \\/     M anipulation  |                                                 |
\*---------------------------------------------------------------------------*/
FoamFile
{
    version     2.0;
    format      ascii;
    class       volScalarField;
    location    "180";
    object      p;
}
// * * * * * * * * * * * * * * * * * * * * * * * * * * * * * * * * * * * * * //

dimensions      [0 2 -2 0 0 0 0];

internalField   nonuniform List<scalar> 
9200
(
0.0010597076
0.0010762033
0.0027562646
0.0010899781
0.0027951243
0.0045813442
0.0011196273
0.0028391348
0.0046401002
0.0062328892
0.0011489193
0.0029194253
0.0047136426
0.0063061835
0.007849267
0.0011827586
0.0030151569
0.0048381374
0.006402635
0.0079350257
0.0093521086
0.0012125742
0.0031360476
0.0049897969
0.0065604139
0.008050386
0.0094471915
0.01076272
0.0012372796
0.0032744297
0.0051781284
0.0067562304
0.0082351574
0.0095763775
0.010864025
0.012077203
0.0012583001
0.0034273357
0.0053981098
0.006999811
0.0084648387
0.0097790879
0.011002089
0.012182966
0.013302218
0.0012704672
0.0035757792
0.0056518038
0.0072910949
0.0087485152
0.010027862
0.011214629
0.012327396
0.013411239
0.014442066
0.0012553471
0.0037056786
0.005928519
0.0076360667
0.0090879665
0.010328972
0.011471893
0.01254638
0.013560575
0.014553374
0.015502006
0.0011538946
0.0038664122
0.0062217682
0.0080407354
0.00948958
0.010681679
0.011776074
0.012809798
0.013784683
0.014706571
0.015614795
0.016486958
0.00092683189
0.0040388374
0.0065411339
0.0085317771
0.0099646139
0.01108803
0.01212123
0.013115658
0.014053312
0.014934302
0.015771308
0.016600425
0.017401792
0.00055890376
0.004162155
0.0068945998
0.0091140067
0.010531721
0.011560906
0.012503931
0.013454638
0.014359353
0.015206816
0.016002417
0.016759981
0.017514988
0.018251307
4.349829e-05
0.0041908326
0.0072568473
0.0097836483
0.011201197
0.012116803
0.012934425
0.013820943
0.014689794
0.015512461
0.016279362
0.016994849
0.017676917
0.018363083
0.019040317
-0.00064928218
0.0040877371
0.0075873692
0.010546057
0.011994873
0.012766082
0.013383627
0.014199843
0.015027621
0.015837166
0.016590562
0.017278158
0.017914753
0.018526154
0.019149329
0.019773609
-0.0015372354
0.0037878852
0.0078250054
0.011400252
0.012939111
0.013523112
0.013885886
0.014531583
0.01534384
0.016160363
0.016922336
0.01760003
0.018205891
0.018765236
0.019311876
0.019878398
0.020455861
-0.0025461353
0.0032569654
0.0079115678
0.01234027
0.014062832
0.014413385
0.014460954
0.014822363
0.015633612
0.016453288
0.017254002
0.017949579
0.018540222
0.019062323
0.019549559
0.020038482
0.020554961
0.021091619
-0.0037614164
0.0024153574
0.0077748082
0.013376418
0.015400946
0.015467481
0.015102894
0.015104514
0.015852494
0.016715572
0.017562972
0.018307954
0.018912306
0.019408213
0.019849039
0.020271546
0.020710498
0.021183603
0.021685329
-0.0059087809
0.0011954169
0.0073141986
0.014516517
0.016958333
0.016714319
0.015827236
0.015366731
0.015938913
0.016911373
0.017849308
0.018669507
0.019310003
0.019801431
0.020202154
0.020569058
0.020935529
0.02133247
0.021768822
0.022241224
-0.0081299653
-0.00056400226
0.0064257154
0.015677803
0.018704591
0.01816715
0.016647988
0.015577422
0.015873884
0.016970561
0.018075415
0.019029971
0.019736676
0.020235763
0.020609521
0.020922856
0.021226417
0.021546098
0.021908996
0.022314988
0.022763167
-0.010892354
-0.0032681148
0.0049053828
0.016692395
0.020631638
0.01982591
0.017579774
0.01570863
0.015617311
0.016839087
0.018201346
0.019357699
0.020181137
0.020713463
0.021067621
0.021335705
0.0215744
0.021825875
0.022108121
0.022444625
0.022826104
0.023254764
-0.014594222
-0.0071217616
0.0021840523
0.017419312
0.022846133
0.021663294
0.018627543
0.015734054
0.015102958
0.016451741
0.018176157
0.019632266
0.020636024
0.021231351
0.021580065
0.021805026
0.021983679
0.022162098
0.022372718
0.022626441
0.022943385
0.02330584
0.023719554
-0.018308464
-0.011270046
-0.0016486258
0.017899011
0.025441467
0.023675515
0.01979369
0.015625894
0.014254648
0.015722962
0.0179402
0.019824997
0.021095512
0.021796173
0.022150817
0.022334919
0.022451326
0.022560026
0.022691974
0.022872107
0.023105049
0.02340894
0.023758219
0.024160899
-0.021433972
-0.015351945
-0.0057370086
0.018416216
0.028442081
0.025773972
0.021067881
0.015348771
0.012937093
0.014529773
0.017428759
0.019908746
0.021555815
0.022414199
0.022788428
0.022929501
0.022980315
0.023015602
0.023072052
0.023169742
0.023328073
0.023547727
0.02384568
0.024187207
0.024581666
-0.023801967
-0.019553553
-0.0095886307
0.018690804
0.031661078
0.027819511
0.022401917
0.014829453
0.011011384
0.012716358
0.016569111
0.019837761
0.02201672
0.023096757
0.023504233
0.023596295
0.023572337
0.023529833
0.023508019
0.023527079
0.023600054
0.023745014
0.023959952
0.024257842
0.024595006
0.024984231
-0.025455611
-0.023636316
-0.013079281
0.018458729
0.034486615
0.029519111
0.023704387
0.013948041
0.0082661917
0.010105019
0.015263072
0.019551117
0.022463077
0.023849963
0.024311712
0.024345728
0.02423146
0.024100864
0.023998921
0.023938465
0.023931003
0.023989104
0.024129588
0.024346525
0.024647556
0.024983458
0.025370803
-0.02651305
-0.027374198
-0.016216222
0.017819288
0.036569166
0.030608725
0.02485885
0.012597081
0.0045300268
0.0065620978
0.013360484
0.018956124
0.022867232
0.02468114
0.025223651
0.025189165
0.024963694
0.024727755
0.024539415
0.024401964
0.02431492
0.024287839
0.024343278
0.0244859
0.024708243
0.025016767
0.025355447
0.025743298
-0.027098373
-0.030629491
-0.01897677
0.016716603
0.037832445
0.031197598
0.025821377
0.010796216
-0.00023792492
0.0021094656
0.010700933
0.017914317
0.023178591
0.025591522
0.026252679
0.026138152
0.025772961
0.025408703
0.025122409
0.024909413
0.024749803
0.024641664
0.024608214
0.024662485
0.024812408
0.025046387
0.025368744
0.025713704
0.026103507
-0.02735915
-0.033347442
-0.021306771
0.015198956
0.037859759
0.031651795
0.026203
0.008554928
-0.0060551917
-0.003583419
0.0070167347
0.016245256
0.023342267
0.026567856
0.027403273
0.02720025
0.026662261
0.026137351
0.025737027
0.025448083
0.025226385
0.025048214
0.024926675
0.024891251
0.024946795
0.025112005
0.025366427
0.025706932
0.026060292
0.026453177
-0.027294339
-0.035437744
-0.023175418
0.013352554
0.036685535
0.031828434
0.025496565
0.0054331489
-0.013726148
-0.011322998
0.0021552245
0.013631193
0.023246137
0.027584648
0.028666729
0.028373648
0.027631105
0.026906302
0.026367082
0.025999744
0.02572887
0.025498727
0.025302629
0.025173766
0.025134341
0.025203816
0.025394473
0.025673738
0.026033653
0.026396799
0.026793676
-0.027040515
-0.037117915
-0.024681638
0.011227957
0.034582608
0.031256809
0.023730282
0.0016388215
-0.022739245
-0.021048251
-0.0041772161
0.0099819594
0.022613397
0.028577781
0.030012138
0.029642719
0.028669819
0.027702666
0.02699192
0.026539175
0.026234937
0.025977452
0.025730292
0.025516767
0.025378164
0.025345482
0.02544132
0.02566298
0.025969257
0.026350092
0.026724591
0.027126077
-0.026343916
-0.03844868
-0.02621722
0.0088897482
0.031651147
0.029914527
0.021315127
-0.0028690839
-0.032226122
-0.032815027
-0.01237808
0.0048323471
0.021291238
0.029426683
0.031367548
0.03096586
0.029753975
0.028504824
0.027584205
0.027031816
0.026712524
0.026461385
0.026195835
0.025921056
0.025685336
0.025542367
0.025531186
0.025661219
0.02591673
0.026253722
0.026658084
0.027044938
0.027451225
-0.025023205
-0.03878951
-0.027677603
0.0058199755
0.028285126
0.027809927
0.018413154
-0.0078475232
-0.041799985
-0.045894957
-0.022822358
-0.0031093696
0.018997928
0.029989299
0.032649023
0.03227119
0.030838423
0.029278518
0.028107394
0.02743522
0.027115387
0.026919468
0.026677245
0.02637949
0.026062264
0.025805674
0.025673565
0.025694699
0.025865135
0.026160314
0.026531122
0.026959722
0.027358881
0.027769871
-0.02328606
-0.03818021
-0.028556925
0.002463736
0.023613719
0.025286975
0.015071888
-0.013094235
-0.051311422
-0.059281674
-0.035006682
-0.013597288
0.015410826
0.030577632
0.033704194
0.033474233
0.031858219
0.029975056
0.028514934
0.027694479
0.027387971
0.027294196
0.027162571
0.026879874
0.026511849
0.026148732
0.025883911
0.025775517
0.025838627
0.026057037
0.02639685
0.026802917
0.02725569
0.027667123
0.028082537
-0.02120952
-0.036690081
-0.028776589
-0.0011684738
0.018462366
0.021668185
0.011291224
-0.01836791
-0.060561097
-0.072664742
-0.048683155
-0.024138418
0.010836152
0.030994573
0.034575039
0.034377888
0.032716621
0.030522888
0.02873889
0.027735518
0.027449445
0.027520429
0.027570536
0.027404913
0.027032825
0.026581906
0.026180467
0.025922034
0.025851388
0.02596754
0.026240728
0.026627953
0.027070032
0.027546846
0.027970336
0.02838958
-0.01881122
-0.034427693
-0.028436161
-0.0049704361
0.01237143
0.017367937
0.0073513356
-0.023735699
-0.069214092
-0.085516867
-0.062765157
-0.03373428
0.0059331543
0.030122615
0.034780409
0.034847478
0.033294637
0.030824824
0.028692467
0.027462497
0.027197257
0.027511361
0.027851516
0.027907476
0.027615296
0.027114076
0.026581136
0.026157505
0.025924329
0.025907059
0.026086132
0.026419236
0.026855925
0.02733453
0.027834421
0.028268977
0.028691379
-0.01611969
-0.031443456
-0.027618761
-0.0090122718
0.0054934081
0.011709849
0.0038163227
-0.027702699
-0.077401522
-0.097281551
-0.076245783
-0.042740389
0.00063275283
0.027009402
0.034227159
0.03443426
0.033428006
0.030777223
0.028275383
0.026773397
0.026514522
0.027148922
0.027928086
0.028337498
0.028236692
0.027748703
0.027104983
0.026506112
0.026085033
0.025898416
0.025948775
0.026199247
0.026595457
0.027082668
0.027597226
0.028118649
0.028563304
0.028988014
-0.013162813
-0.027690772
-0.026261761
-0.013233116
-0.002107872
0.004652584
-0.00016159793
-0.03088925
-0.082884908
-0.10883824
-0.0894111
-0.051272692
-0.0050902724
0.022941024
0.032775934
0.033131078
0.032900084
0.030280939
0.027380381
0.025556852
0.025260472
0.026283432
0.02767266
0.028625224
0.028867408
0.028483126
0.027768125
0.026995266
0.026361139
0.025969879
0.025849704
0.025980119
0.026309181
0.026772317
0.027309797
0.027858506
0.02839991
0.028853541
0.029279627
-0.010051598
-0.0232842
-0.024414703
-0.017421408
-0.010290678
-0.0035557321
-0.0049414787
-0.033926407
-0.087913894
-0.11779343
-0.10174944
-0.05931367
-0.011195607
0.018460325
0.030699207
0.031502267
0.031556926
0.029238385
0.025895755
0.023688202
0.023265297
0.024710107
0.026922542
0.028661131
0.029453142
0.029307277
0.028584106
0.027651396
0.026786013
0.026151348
0.025817042
0.025782752
0.026006658
0.026419924
0.026952078
0.027538462
0.028119312
0.02867862
0.029139767
0.029566297
-0.018362314
-0.0069000038
-0.022185719
-0.021550574
-0.01895773
-0.012700918
-0.010588068
-0.036890012
-0.091871029
-0.12775933
-0.1125364
-0.066061938
-0.017228161
0.013411265
0.027626052
0.029000695
0.029349644
0.027516976
0.023732281
0.021026465
0.020326654
0.02217455
0.025435482
0.028302698
0.029918271
0.030195188
0.029560259
0.028500777
0.02739372
0.026480702
0.025883161
0.025635483
0.025707443
0.026035649
0.026536432
0.027136177
0.027769182
0.02837984
0.028954719
0.029421987
0.029847904
-0.019512444
-0.013040437
-0.0037930573
-0.025629541
-0.027968109
-0.022477184
-0.017006578
-0.039978555
-0.09444656
-0.13493438
-0.1246785
-0.073055549
-0.023107815
0.0081696559
0.023230157
0.025482166
0.026202364
0.02498237
0.020815262
0.017448437
0.016225005
0.018366534
0.022901013
0.027322325
0.030144836
0.031106523
0.030694532
0.029564694
0.028219757
0.026996988
0.026087754
0.025569754
0.025437576
0.025633659
0.026072074
0.026660443
0.0273253
0.028002448
0.028640037
0.029228274
0.029700161
0.030124526
-0.029400802
-0.016493279
-0.0075181512
-0.00077716184
-0.037101533
-0.032691538
-0.023837915
-0.043158677
-0.095546273
-0.13971687
-0.13471603
-0.082178552
-0.031512345
0.0026896893
0.01784355
0.020966674
0.022013304
0.021558216
0.017100476
0.012855202
0.010770972
0.01289554
0.018935665
0.025413453
0.029970031
0.031966372
0.031970555
0.030856577
0.029295116
0.027741822
0.026472052
0.025624454
0.025226401
0.025236684
0.025567828
0.026118434
0.026793644
0.027520682
0.028238524
0.028900161
0.029499229
0.029974196
0.030395999
-0.046164971
-0.032646415
-0.013375739
-0.0020498545
0.0020885891
-0.043106811
-0.030783799
-0.046175628
-0.094964289
-0.14156746
-0.14248357
-0.090763844
-0.040798107
-0.0066224225
0.01192316
0.015170942
0.016860935
0.01718582
0.012581595
0.0072533221
0.0037907411
0.0052802052
0.012981772
0.022178584
0.029136405
0.03265312
0.033346153
0.032375916
0.030644276
0.028752816
0.027081297
0.025840251
0.025110952
0.024870813
0.025042666
0.025514334
0.026178061
0.026938025
0.027723329
0.028477655
0.029159985
0.029767411
0.030243963
0.03066227
-0.053446768
-0.054951786
-0.035283951
-0.010186767
0.0031276855
0.0047743506
-0.037813507
-0.048778145
-0.092796802
-0.13940129
-0.14609349
-0.098024007
-0.050333646
-0.015786608
0.0021688665
0.0091497396
0.010728038
0.011920714
0.0073114078
0.00061305644
-0.0047971555
-0.0052425687
0.0041567514
0.017082577
0.027271288
0.03297831
0.034740515
0.03409766
0.032275791
0.030059544
0.027956306
0.026265277
0.025127003
0.024571546
0.024517615
0.024862293
0.025478133
0.026253828
0.02709459
0.027933416
0.02871979
0.029419372
0.030032666
0.030509317
0.03092327
-0.044785202
-0.063346454
-0.063066397
-0.037327717
-0.0070078713
0.0078221403
0.0072724943
-0.050793795
-0.089285261
-0.1338551
-0.14536494
-0.10297205
-0.059382983
-0.026307388
-0.0072925604
-0.00013117421
0.004300347
0.005699511
0.001372363
-0.0069843361
-0.015350509
-0.019540661
-0.0086682657
0.0092844214
0.023892718
0.032690848
0.036015084
0.035958948
0.034173701
0.031676792
0.02912846
0.026938968
0.025327189
0.024361443
0.024021724
0.024177617
0.024702839
0.025463818
0.026347467
0.027263858
0.028150886
0.028964639
0.029678051
0.030294748
0.030770106
0.031178868
-0.052082308
-0.051143531
-0.072302779
-0.070273029
-0.03882966
-0.0038759446
0.011886542
0.0095629201
-0.084470289
-0.12618996
-0.14166133
-0.10517446
-0.067663115
-0.037167305
-0.019388241
-0.003904983
-0.00413507
-0.0011188928
-0.0052181804
-0.015554682
-0.027660555
-0.037536844
-0.024895839
-0.0010567501
0.017953005
0.03115739
0.036947193
0.037841596
0.036282642
0.033594938
0.030616227
0.027894668
0.025744017
0.024304322
0.023581059
0.023483223
0.023860825
0.024571251
0.025474126
0.026460376
0.027445972
0.028375404
0.029211861
0.029935627
0.030553445
0.031026233
0.031429043
-0.078456246
-0.052385473
-0.056361644
-0.080001945
-0.076316389
-0.039748472
-0.00079331044
0.01528769
0.011604995
-0.11647085
-0.13515079
-0.10486216
-0.07476943
-0.048354309
-0.03232077
-0.015436431
-0.011411789
-0.0090131582
-0.012120336
-0.024706756
-0.041597358
-0.057097291
-0.043185422
-0.013210186
0.0093401106
0.027641877
0.037028642
0.039543342
0.038496061
0.035764554
0.032414786
0.029150594
0.026411183
0.024419621
0.023238183
0.022801841
0.022969271
0.023577485
0.024472318
0.025511235
0.026593199
0.027640688
0.028606316
0.029460842
0.030191829
0.030808664
0.031277574
0.031673585
-0.10502781
-0.071286459
-0.051452844
-0.060531623
-0.086133215
-0.081055873
-0.040064036
0.0022757967
0.018073531
0.013377602
-0.12590975
-0.10230866
-0.079801873
-0.059285411
-0.04613111
-0.029366802
-0.021076301
-0.015933238
-0.019184758
-0.03451395
-0.055978318
-0.077197795
-0.063804138
-0.028969482
-0.0023917843
0.022546514
0.036015307
0.040689042
0.04063425
0.038087968
0.034481791
0.030705315
0.02734808
0.024739421
0.023019122
0.022162749
0.02204421
0.022494389
0.023335668
0.024409132
0.025576708
0.026745901
0.027847164
0.028842913
0.029711283
0.030446609
0.031060211
0.031523757
0.031912382
-0.11420718
-0.092164914
-0.063240361
-0.049320165
-0.063478117
-0.090454732
-0.084507714
-0.039787875
0.0052151177
0.020285704
0.014881939
-0.097694673
-0.08194076
-0.069523
-0.060577866
-0.045412887
-0.03404875
-0.02443914
-0.025123967
-0.042162462
-0.071684267
-0.096447409
-0.086651367
-0.049975736
-0.018435327
0.014587624
0.033658196
0.041027197
0.042386066
0.040399825
0.036728918
0.032524006
0.02855221
0.02528609
0.022948607
0.021589084
0.021105354
0.021329455
0.022070467
0.023141096
0.02438444
0.025670949
0.02691756
0.028064459
0.029084992
0.029963312
0.030699607
0.031307271
0.031764308
0.032145614
-0.091354332
-0.10033028
-0.078694284
-0.054398846
-0.04627031
-0.065026819
-0.092932132
-0.086222767
-0.038987763
0.0078761069
0.021956854
0.016086283
-0.081759299
-0.078968041
-0.075415768
-0.063309476
-0.049680499
-0.035442351
-0.032250197
-0.047705022
-0.081733434
-0.11656453
-0.11038605
-0.074454704
-0.037449616
0.0029540768
0.028438242
0.040226181
0.043448023
0.042440463
0.039007933
0.034530397
0.029995174
0.02605277
0.023046561
0.021100774
0.02016821
0.020093224
0.020675605
0.021706258
0.022997949
0.024399595
0.025793234
0.02710695
0.028292534
0.029332768
0.030216085
0.030949078
0.031548882
0.031999784
0.03238485
-0.079647735
-0.083455265
-0.085389085
-0.064987331
-0.045310098
-0.042536862
-0.065178896
-0.093536586
-0.086018489
-0.037691678
0.010292624
0.023062339
0.016913832
-0.08737648
-0.090399078
-0.082467226
-0.067694639
-0.048698452
-0.040985108
-0.053701435
-0.090070589
-0.12914226
-0.136654
-0.10240047
-0.057956091
-0.011126051
0.020435956
0.036918623
0.043604037
0.04396593
0.041109391
0.03659876
0.03161237
0.027014792
0.023305807
0.020708454
0.019246568
0.018793485
0.019152043
0.020095606
0.021408385
0.022908904
0.024453965
0.025942137
0.027314077
0.028531825
0.029584693
0.030466367
0.031193233
0.031786518
0.032242687
0.032634149
-0.09420732
-0.075893259
-0.074173019
-0.070354604
-0.051400296
-0.036282224
-0.038177648
-0.063989142
-0.091765622
-0.084274381
-0.035951362
0.012620875
0.02363227
0.017528676
-0.10501582
-0.10245556
-0.087791803
-0.063922186
-0.05112188
-0.060697003
-0.09688955
-0.14463348
-0.15743484
-0.13346703
-0.081597118
-0.027898184
0.010843296
0.031165441
0.041868412
0.044692357
0.042818816
0.038541582
0.033292616
0.028114178
0.023701103
0.020407909
0.018342595
0.017434781
0.017498793
0.018300782
0.019599322
0.021181258
0.022874395
0.024546642
0.026117834
0.027539771
0.028779852
0.029835454
0.030711402
0.031435353
0.032035512
0.032494638
0.032886795
-0.11854647
-0.09914757
-0.071198863
-0.063627736
-0.055739824
-0.038225831
-0.027365617
-0.033347997
-0.061556529
-0.087968962
-0.080929827
-0.033757457
0.014795835
0.023852734
0.017911084
-0.12298308
-0.10944198
-0.081027084
-0.062291823
-0.0687965
-0.10308907
-0.15599842
-0.18690717
-0.16335013
-0.10721665
-0.047465244
-0.0010150101
0.024066602
0.037899054
0.04395066
0.043774955
0.040139981
0.034874842
0.029254534
0.024181208
0.020172338
0.01744963
0.016012921
0.015711479
0.016311314
0.017553659
0.019193985
0.021026093
0.02289185
0.024678062
0.026321909
0.027780585
0.029028532
0.030081251
0.030957447
0.031697236
0.032291444
0.032751656
0.03314254
-0.14327792
-0.13062773
-0.10183834
-0.065521694
-0.052700519
-0.041897233
-0.025783452
-0.018614136
-0.028193833
-0.058099093
-0.082676997
-0.076954624
-0.030688199
0.016529389
0.0236092
0.018038035
-0.13207358
-0.099958471
-0.074068341
-0.077387436
-0.10972523
-0.16457639
-0.20856365
-0.20436049
-0.13132004
-0.06787358
-0.014207702
0.015068316
0.03246457
0.041663278
0.043482263
0.041137679
0.036172553
0.030302909
0.024663607
0.019955073
0.016540447
0.014514183
0.013777731
0.014113896
0.015251953
0.01692157
0.018882426
0.020941253
0.022961259
0.024850469
0.026549976
0.028024742
0.029272558
0.030332566
0.031236405
0.031964173
0.032554651
0.033012831
0.033401346
-0.15470077
-0.16261878
-0.1405342
-0.10273138
-0.059122106
-0.041987733
-0.029161735
-0.014289206
-0.010244568
-0.022836027
-0.054033833
-0.077225188
-0.071323844
-0.027339244
0.017587753
0.022900049
0.017948812
-0.11962749
-0.085980597
-0.085930681
-0.11625027
-0.1715094
-0.22650463
-0.23787443
-0.16827697
-0.09113621
-0.027998367
0.005091998
0.02541002
0.037648723
0.041997238
0.041293375
0.036979385
0.031096403
0.025032604
0.019683608
0.015570002
0.012909191
0.011676297
0.011687181
0.012671983
0.014336333
0.016409745
0.018663386
0.020927859
0.023087063
0.025058446
0.026785335
0.028264609
0.029528278
0.030635677
0.031518413
0.032241052
0.032822854
0.033278285
0.03366298
-0.1382736
-0.17617024
-0.17935135
-0.14807846
-0.1019431
-0.052611939
-0.031711522
-0.0177816
-0.0039592876
-0.0023447864
-0.017573614
-0.050637981
-0.070889462
-0.064784456
-0.023698224
0.017864384
0.021720178
0.017654762
-0.097745291
-0.093798099
-0.12204224
-0.1763337
-0.23919805
-0.26981921
-0.20816705
-0.11879806
-0.048646143
-0.0056901718
0.016627089
0.031672163
0.039121303
0.040091051
0.036990487
0.031430413
0.025143198
0.019254557
0.014472371
0.011152405
0.0093729084
0.0090016143
0.0097826812
0.011407349
0.013572524
0.01601776
0.018538719
0.020992416
0.023264339
0.025279165
0.027016724
0.028524267
0.02986256
0.030939689
0.031813409
0.032523559
0.033096528
0.033547422
0.033927339
-0.10865611
-0.15476818
-0.19447946
-0.19294691
-0.15296726
-0.099516299
-0.046424601
-0.022362495
-0.0079105694
0.0050244698
0.0046442482
-0.012791007
-0.047084428
-0.063809918
-0.057394711
-0.019944474
0.01740339
0.020052424
0.017118548
-0.1006069
-0.12673501
-0.17813119
-0.24614755
-0.29281869
-0.24678773
-0.14833285
-0.071437871
-0.024001
0.006851806
0.024368189
0.034341202
0.037141591
0.036053728
0.031068955
0.024818049
0.018543639
0.0131548
0.0091811446
0.0068191076
0.0060161676
0.0065455006
0.0080936924
0.01033079
0.01296128
0.015748919
0.018517847
0.021127805
0.023462088
0.025496185
0.02727834
0.028898894
0.030195853
0.031260424
0.032114556
0.032812854
0.033374737
0.033820207
0.03419416
-0.10637159
-0.11736765
-0.1672172
-0.20830081
-0.2030957
-0.1549376
-0.095980268
-0.041115641
-0.01464857
-7.776217e-05
0.012176118
0.011259176
-0.0094477045
-0.042559896
-0.056055407
-0.049610569
-0.016123254
0.016236488
0.018085838
0.016300088
-0.12911834
-0.17629287
-0.246214
-0.30732502
-0.28191311
-0.17887259
-0.098383536
-0.040907856
-0.010918158
0.016109362
0.027600448
0.032441138
0.033580766
0.029806611
0.02386092
0.017396959
0.011511508
0.006910348
0.0039519187
0.0026771983
0.0029116895
0.0043477179
0.0066341815
0.0094444606
0.012508456
0.01561573
0.018594497
0.02129207
0.023656277
0.025756798
0.027704268
0.029270749
0.030550255
0.031587691
0.03242383
0.033107721
0.03365741
0.034096076
0.03446329
-0.12821094
-0.10992276
-0.12353242
-0.17446873
-0.21679214
-0.20819949
-0.15390447
-0.091840959
-0.036840371
-0.0088769057
0.0059152586
0.018597342
0.015462454
-0.0061725837
-0.037444212
-0.047500037
-0.041633862
-0.012459405
0.014384728
0.015985062
0.015091879
-0.17065298
-0.2384418
-0.30994426
-0.30652908
-0.20826938
-0.1259158
-0.063165376
-0.025065072
-0.0016522954
0.021363356
0.023849707
0.029594651
0.027319011
0.022071482
0.01564847
0.0094068593
0.0042481329
0.00068980057
-0.0010819724
-0.0011790999
0.00011279694
0.0024281142
0.0054108603
0.0087616674
0.012232819
0.015607394
0.018713659
0.021452214
0.023911491
0.026247638
0.02812589
0.029669206
0.030911285
0.031924549
0.032739599
0.033407988
0.033943755
0.034374861
0.034734476
-0.16167772
-0.12388537
-0.11083053
-0.12680331
-0.17555287
-0.2196672
-0.20688546
-0.1501222
-0.087397035
-0.033133952
-0.0043208987
0.011908186
0.022560894
0.019225487
-0.0029271323
-0.03191851
-0.038439985
-0.033607802
-0.0092253354
0.012259807
0.013786887
0.013306571
-0.22477699
-0.29819545
-0.31409826
-0.23457636
-0.15224173
-0.085851757
-0.04504324
-0.014951019
0.0055501119
0.026456157
0.023478552
0.023522958
0.01916551
0.013130999
0.0067087593
0.0010722116
-0.003051422
-0.0053436771
-0.0057998883
-0.0046789258
-0.0023523095
0.00079883459
0.0044459584
0.0083085081
0.01212131
0.015650085
0.018824779
0.021695087
0.02448466
0.026732433
0.028580927
0.030073913
0.031283337
0.032268843
0.033061632
0.033712725
0.0342335
0.034656061
0.035007567
-0.20676713
-0.14941308
-0.11661674
-0.10831311
-0.12647997
-0.17048688
-0.21511737
-0.20011949
-0.14432199
-0.082080866
-0.029470027
0.0010942589
0.016319995
0.026165577
0.022581804
0.00011844084
-0.026131892
-0.029084363
-0.025659297
-0.0062854303
0.010356296
0.011695868
0.010951853
-0.27688831
-0.30778092
-0.25216879
-0.17227275
-0.10830826
-0.065560812
-0.033845385
-0.007925994
0.00656215
0.017060245
0.017682326
0.015100259
0.0096297551
0.0032714688
-0.0027173903
-0.0073874908
-0.010191728
-0.011037477
-0.010108219
-0.0077827063
-0.0044644515
-0.00050759601
0.0037734985
0.0080651279
0.012075687
0.0156905
0.01904417
0.022371857
0.025048631
0.027259448
0.029041106
0.030491132
0.031663722
0.032620422
0.033388882
0.034021546
0.034526007
0.034939618
0.035282228
-0.24973752
-0.1846453
-0.13480408
-0.10687277
-0.10191034
-0.12224992
-0.16048072
-0.20279063
-0.18904732
-0.13641217
-0.076040616
-0.024272424
0.0062283169
0.020403301
0.02889336
0.025362498
0.00294823
-0.020387492
-0.020148799
-0.01837261
-0.0037298829
0.0088691272
0.0098589947
0.0085518191
-0.29017013
-0.25654278
-0.1839998
-0.12743666
-0.086438468
-0.053905012
-0.027272229
-0.0058854759
0.0044700711
0.010931804
0.0092834128
0.0050915425
-0.0010537593
-0.0072552349
-0.012392572
-0.015742409
-0.016982148
-0.01626869
-0.013951514
-0.010461525
-0.0061775921
-0.0014454344
0.003365441
0.0079036807
0.012024827
0.015889446
0.019850885
0.02303363
0.025666595
0.027789335
0.029515306
0.030917528
0.032052387
0.032978158
0.033720747
0.034333765
0.034821357
0.035224893
0.035558233
-0.26264405
-0.21789819
-0.16055863
-0.11837236
-0.09523135
-0.09228261
-0.11380843
-0.14719902
-0.18521009
-0.17495639
-0.1260345
-0.069389755
-0.017067776
0.010857523
0.023589933
0.030645159
0.027550408
0.0056877868
-0.014282291
-0.012765924
-0.012190127
-0.0017520253
0.0076953415
0.0081663385
0.0065767001
-0.24812011
-0.18855445
-0.14141494
-0.10589367
-0.07519945
-0.047849169
-0.024965489
-0.0077937876
0.00034672841
0.0028455514
-0.00094133408
-0.00630928
-0.01262952
-0.018207612
-0.022055021
-0.023756037
-0.023261868
-0.020959916
-0.017287052
-0.012651626
-0.0074307751
-0.0020538323
0.0030557937
0.0077332156
0.012182702
0.016870227
0.020634221
0.02376471
0.026283976
0.028334621
0.029999365
0.031353304
0.032448045
0.033341159
0.034056527
0.034649741
0.035118485
0.035511605
0.035835298
-0.22840639
-0.22848665
-0.18462129
-0.13573226
-0.10090602
-0.081945878
-0.080339839
-0.10107635
-0.1317523
-0.16494464
-0.15489084
-0.1166771
-0.059184332
-0.010482874
0.014791946
0.025947902
0.031539228
0.028775549
0.0081826996
-0.0074624485
-0.0073041084
-0.0073968432
-3.7754106e-05
0.0067047708
0.0066803935
0.0050272371
-0.18538871
-0.14921987
-0.12251221
-0.095921581
-0.070139471
-0.048354132
-0.025176994
-0.010066456
-0.0060530195
-0.0074611026
-0.012817028
-0.018902003
-0.024854073
-0.029295066
-0.031417856
-0.031218105
-0.028922622
-0.025049458
-0.02002873
-0.014272868
-0.00827729
-0.0025465139
0.0027316856
0.00783452
0.013369189
0.017803913
0.021506497
0.024490518
0.026917344
0.028890461
0.030493856
0.031796838
0.032849581
0.033708921
0.034397067
0.034967775
0.035417098
0.035799233
0.036113177
-0.17482425
-0.20129063
-0.19275494
-0.15181306
-0.11136843
-0.083116021
-0.067535598
-0.066835446
-0.085800135
-0.11509796
-0.14180708
-0.13907891
-0.1022531
-0.049086898
-0.0045721265
0.018000951
0.027494769
0.03145319
0.028473358
0.010364826
-0.0016974872
-0.0033202857
-0.003869204
0.0013837758
0.0058754922
0.0054333236
0.0038282985
-0.15072739
-0.13392108
-0.11427529
-0.093260111
-0.073711888
-0.048722303
-0.02748939
-0.013559717
-0.015203233
-0.019817128
-0.026243914
-0.032461395
-0.037416184
-0.040171189
-0.04021061
-0.037978124
-0.033874871
-0.028422801
-0.022073265
-0.015396332
-0.0089902212
-0.0030624251
0.0027604894
0.0092817661
0.014481184
0.018851184
0.022366164
0.02523273
0.027561718
0.029457522
0.030996802
0.032246878
0.033256714
0.034082811
0.034739999
0.035287585
0.035716516
0.036087412
0.036391615
-0.14627594
-0.15799641
-0.17170971
-0.15772652
-0.1212992
-0.088413318
-0.065699976
-0.052931374
-0.052602461
-0.069767076
-0.098673275
-0.12305322
-0.1184246
-0.087677863
-0.038403873
0.00078164905
0.020424476
0.028322508
0.030573314
0.026723034
0.012215244
0.0020163584
-0.0003824688
-0.00098311552
0.0024494801
0.0051968922
0.0044283422
0.0029125209
-0.13872731
-0.12875467
-0.11566531
-0.10069955
-0.078906376
-0.051585135
-0.028448775
-0.020135385
-0.026858446
-0.034152969
-0.041018695
-0.046680077
-0.049912862
-0.050484443
-0.048226945
-0.043907972
-0.037964513
-0.030945642
-0.023510896
-0.016367126
-0.0097395798
-0.0031247824
0.0045324973
0.010607766
0.015743553
0.019873785
0.023242842
0.025985829
0.028217977
0.03003389
0.031506887
0.032703571
0.033671606
0.034459437
0.035085098
0.035608242
0.036016332
0.036375733
0.03667037
-0.13834547
-0.13647065
-0.13705597
-0.14160314
-0.12520907
-0.093667198
-0.06730818
-0.049134479
-0.039024502
-0.038228237
-0.054701518
-0.086516062
-0.10229768
-0.098797249
-0.072574739
-0.028114587
0.0054311706
0.022032685
0.028455153
0.029137046
0.0244652
0.013236082
0.0045636132
0.0018637277
0.0012700178
0.0031925277
0.0046588125
0.0036443361
0.0022381588
-0.13879125
-0.13584986
-0.12823574
-0.11261009
-0.08233729
-0.052765526
-0.030485176
-0.030389669
-0.040839271
-0.050379351
-0.056801647
-0.061085079
-0.061900212
-0.059944621
-0.055283854
-0.048800515
-0.041016342
-0.032728109
-0.024773747
-0.017393533
-0.0099127249
-0.00095262659
0.0061140563
0.012132318
0.016964429
0.02091373
0.024129474
0.026751203
0.028884122
0.030618008
0.032024719
0.033169997
0.034089764
0.034838671
0.035431193
0.035929272
0.036316109
0.036663852
0.036949045
-0.14369646
-0.13390225
-0.12312689
-0.11477544
-0.11256713
-0.096145625
-0.069472705
-0.048291898
-0.033984252
-0.025698758
-0.026086239
-0.041676473
-0.074758381
-0.082061711
-0.078889518
-0.057189502
-0.018566243
0.0092009388
0.022864545
0.027829921
0.027399176
0.022496302
0.013554496