/*--------------------------------*- C++ -*----------------------------------*\
| =========                 |                                                 |
| \\      /  F ield         | OpenFOAM: The Open Source CFD Toolbox           |
|  \\    /   O peration     | Version:  5.0                                   |
|   \\  /    A nd           | Web:      www.OpenFOAM.org                      |
|    \\/     M anipulation  |                                                 |
\*---------------------------------------------------------------------------*/
FoamFile
{
    version     2.0;
    format      ascii;
    class       surfaceScalarField;
    location    "180";
    object      phi;
}
// * * * * * * * * * * * * * * * * * * * * * * * * * * * * * * * * * * * * * //

dimensions      [0 3 -1 0 0 0 0];

internalField   nonuniform List<scalar> 
18180
(
-0.0019460018
-1.3900662
-0.0037900166
-1.3000625
-0.0018831293
-1.3881831
-0.005522456
-1.2160209
-0.0036700589
-1.2982755
-0.0017827145
-1.3864004
-0.0071680554
-1.1375182
-0.0053657236
-1.2143252
-0.0034751917
-1.2965831
-0.001646077
-1.3847543
-0.0087108771
-1.0641704
-0.0069919049
-1.1358921
-0.0050881103
-1.2127123
-0.0032088856
-1.2950203
-0.0015061541
-1.3832482
-0.010137824
-0.99563709
-0.0085581339
-1.0626042
-0.0066436491
-1.1343365
-0.0046977533
-1.2112234
-0.0029309219
-1.2935955
-0.0013739158
-1.3818742
-0.01141777
-0.9316005
-0.01007459
-0.99412063
-0.0081627075
-1.0610851
-0.0061336738
-1.1329006
-0.0042824382
-1.2098719
-0.0026660941
-1.2923033
-0.0012633759
-1.3806109
-0.012523832
-0.87178369
-0.011549491
-0.9301256
-0.0096734262
-0.99260991
-0.0075381364
-1.0596807
-0.0055729591
-1.1316101
-0.0038843519
-1.2086537
-0.0024444511
-1.2911222
-0.0011750753
-1.3794358
-0.013442483
-0.81592234
-0.012995693
-0.87033748
-0.011220914
-0.92857812
-0.0089443111
-0.99120374
-0.0068141025
-1.0584395
-0.0050318874
-1.1304626
-0.0035535065
-1.2075446
-0.002270488
-1.2900268
-0.0011035863
-1.3783322
-0.014092829
-0.76380919
-0.014414495
-0.81450354
-0.012870836
-0.86868756
-0.010406341
-0.92711609
-0.0080228881
-0.98999495
-0.0061093772
-1.057362
-0.0045882323
-1.1294278
-0.0033002663
-1.2065148
-0.0021347802
-1.2889956
-0.0010406142
-1.3772916
-0.014388616
-0.71517443
-0.015895498
-0.76232819
-0.014740021
-0.81263436
-0.011987489
-0.86710641
-0.0092223724
-0.9259166
-0.0071126994
-0.98899163
-0.0055451021
-1.0564052
-0.0042620231
-1.1284661
-0.0031095176
-1.2055401
-0.0020189461
-1.2880173
-0.00097917648
-1.3763124
-0.014279742
-0.66989827
-0.01760559
-0.71346434
-0.016983918
-0.76008429
-0.013778915
-0.81084293
-0.010435307
-0.86589348
-0.0080317064
-0.9249976
-0.0064064809
-0.98813025
-0.0051540289
-1.0555132
-0.0040291488
-1.1275464
-0.0029495118
-1.2046095
-0.0019055675
-1.2870909
-0.00091413421
-1.3753983
-0.013685292
-0.62783488
-0.019697703
-0.66780616
-0.01963077
-0.71081749
-0.015825007
-0.7580382
-0.011676483
-0.80960175
-0.0088498863
-0.8650753
-0.0071427306
-0.92426135
-0.0059575593
-0.98732672
-0.0048957364
-1.0546466
-0.0038389359
-1.126657
-0.0027908306
-1.2037243
-0.0017819721
-1.2862231
-0.00084231011
-1.374556
-0.012554961
-0.58873686
-0.022270148
-0.62526244
-0.022793393
-0.66464354
-0.018206669
-0.70843583
-0.012946274
-0.75676841
-0.0095258549
-0.80892579
-0.0077100008
-0.86450803
-0.0066405573
-0.92357835
-0.005697719
-0.98652474
-0.0046936678
-1.0537919
-0.0036468791
-1.125801
-0.0026133071
-1.2028929
-0.0016417464
-1.2854236
-0.00076324814
-1.3737927
-0.010851731
-0.55237329
-0.02539364
-0.58561337
-0.026740252
-0.62131558
-0.021086867
-0.66176334
-0.014288693
-0.70709341
-0.0099702736
-0.75632399
-0.0080357667
-0.80860002
-0.0071541821
-0.86399441
-0.0064103846
-0.92286568
-0.0055146466
-0.98570376
-0.0044869588
-1.0529518
-0.0034229142
-1.1249914
-0.0024070989
-1.2021276
-0.0014852787
-1.2847016
-0.00067963835
-1.3731131
-0.0086160803
-0.51842834
-0.029166972
-0.54859995
-0.031729264
-0.58062436
-0.024634157
-0.61776829
-0.015739441
-0.66031259
-0.010130843
-0.70693284
-0.007989468
-0.75637029
-0.0074023993
-0.8083518
-0.0069848661
-0.86341992
-0.0062948092
-0.92208552
-0.0053256388
-0.98486508
-0.004231176
-1.0521435
-0.0031528222
-1.1242456
-0.0021731716
-1.2014397
-0.001318921
-1.2840623
-0.00059625032
-1.3725168
-0.0058148307
-0.48666985
-0.033688566
-0.51390674
-0.037996208
-0.54233301
-0.029026073
-0.57623244
-0.017334127
-0.6161736
-0.0099333749
-0.66051006
-0.007429974
-0.70749233
-0.0073053828
-0.75646731
-0.0073514435
-0.80798523
-0.0070140115
-0.86270072
-0.006184168
-0.92122699
-0.0050622371
-0.98403402
-0.0039008793
-1.0513955
-0.002838701
-1.1235801
-0.0019222254
-1.2008364
-0.0011525
-1.2835061
-0.00051801299
-1.3719988
-0.0022705726
-0.45735455
-0.03904331
-0.48131511
-0.045747179
-0.50615577
-0.034429104
-0.53692998
-0.019123662
-0.57444291
-0.0092764297
-0.61683055
-0.0062212595
-0.66171877
-0.0067003844
-0.70809733
-0.007551279
-0.75626747
-0.0076968697
-0.80730237
-0.0070963408
-0.86178855
-0.0059591656
-0.92033006
-0.0046796397
-0.98325526
-0.0034985194
-1.0507356
-0.002496441
-1.1230059
-0.0016702666
-1.2003186
-0.00099614866
-1.2830279
-0.00044868413
-1.3715501
0.002677605
-0.4312387
-0.045025748
-0.45137212
-0.055066362
-0.47199593
-0.04094665
-0.49963823
-0.021154422
-0.53489922
-0.0080473487
-0.57567199
-0.0041819585
-0.61886985
-0.0054128556
-0.6630063
-0.0074917074
-0.7081569
-0.0083814469
-0.7555829
-0.0081425248
-0.80625618
-0.0069883794
-0.86075934
-0.005533175
-0.91947653
-0.0041776723
-0.98257611
-0.0030506541
-1.0501814
-0.0021500987
-1.1225261
-0.0014334346
-1.1998813
-0.00085777093
-1.2826188
-0.00039060448
-1.3711595
0.009100381
-0.40780963
-0.051183579
-0.42508087
-0.066062145
-0.44037633
-0.048715972
-0.4642266
-0.023421933
-0.49737072
-0.0061164767
-0.53683009
-0.0011037671
-0.57875018
-0.0032495129
-0.62103319
-0.0069904857
-0.66350752
-0.0090710808
-0.70746727
-0.0093519508
-0.75437347
-0.0082307103
-0.80501385
-0.0065268428
-0.85976567
-0.0049095807
-0.91874462
-0.0035989434
-0.98202782
-0.0025936521
-1.0497379
-0.0018240056
-1.1221355
-0.0012241483
-1.199515
-0.00074195568
-1.2822675
-0.00034486557
-1.3708147
0.016315178
-0.38392928
-0.056687121
-0.40230609
-0.079041448
-0.41210157
-0.058202368
-0.43088994
-0.025958593
-0.46168994
-0.0033676872
-0.50011951
0.003245861
-0.54117972
1.8878572e-05
-0.58201857
-0.0058902343
-0.62213344
-0.0097538626
-0.66282474
-0.010807151
-0.70601207
-0.0097495199
-0.75285466
-0.0077275576
-0.80381314
-0.0057401802
-0.85893507
-0.0041612232
-0.91818234
-0.003003337
-0.98161814
-0.0021637317
-1.0493981
-0.0015370612
-1.1218226
-0.0010495006
-1.1992074
-0.00065009332
-1.2819623
-0.00031118322
-1.3705035
0.023893397
-0.35879003
-0.060915204
-0.3797012
-0.094598958
-0.38674858
-0.070302883
-0.40000106
-0.02912796
-0.42772057
0.00032677873
-0.46538441
0.0090981337
-0.50597178
0.0046532042
-0.54581405
-0.0040151505
-0.58389366
-0.010390416
-0.62149689
-0.012638799
-0.6609931
-0.011693743
-0.70406785
-0.0092258575
-0.75135636
-0.0067194106
-0.80283391
-0.0047587795
-0.85833751
-0.00338381
-0.91780187
-0.0024458529
-0.98133601
-0.0017889996
-1.0491462
-0.0013003487
-1.1215717
-0.00091154729
-1.198946
-0.00058100508
-1.2816924
-0.0002876831
-1.3702158
0.030923959
-0.33311115
-0.065349245
-0.35435599
-0.11185701
-0.36244315
-0.085863873
-0.37118759
-0.033785168
-0.39534385
0.0050502743
-0.43244407
0.016664154
-0.47295043
0.010917274
-0.51223585
-0.00116601
-0.54866319
-0.010938678
-0.58334539
-0.014979272
-0.61915642
-0.01424991
-0.65843693
-0.011165008
-0.7021287
-0.0079202461
-0.75015553
-0.005416139
-0.80217655
-0.003732871
-0.85798845
-0.0026605373
-0.91758718
-0.0019672191
-0.9811578
-0.0014857807
-1.0489608
-0.0011169525
-1.1213663
-0.00080856171
-1.1987184
-0.00053174766
-1.2814484
-0.00027136052
-1.3699444
0.037275743
-0.30718225
-0.071396428
-0.32706397
-0.12960311
-0.33660988
-0.10471357
-0.34359345
-0.040527907
-0.36444485
0.010788889
-0.40108246
0.026169634
-0.44194955
0.0190737
-0.48110686
0.0028855497
-0.51628741
-0.011357354
-0.54824451
-0.017988569
-0.5803361
-0.017646395
-0.61575993
-0.013718815
-0.65588312
-0.0094330352
-0.70061591
-0.0061639552
-0.74940771
-0.0040449019
-0.80186452
-0.0027869819
-0.85786201
-0.0020516456
-0.91750276
-0.0015897049
-0.98105387
-0.0012581257
-1.0488196
-0.00098328033
-1.1211916
-0.00073634479
-1.1985138
-0.00049838751
-1.2812214
-0.0002594088
-1.369685
0.043152413
-0.28197778
-0.078131203
-0.30044748
-0.14669513
-0.30997195
-0.12407079
-0.31725267
-0.048992025
-0.33512933
0.017535359
-0.37119132
0.037876795
-0.41278962
0.029349214
-0.45222506
0.0083917944
-0.4866131
-0.01157483
-0.51606993
-0.021860452
-0.54437263
-0.022155369
-0.57582712
-0.017101979
-0.61237677
-0.0113711
-0.65394506
-0.0070340533
-0.69974581
-0.0043092794
-0.74914333
-0.0027948685
-0.80185663
-0.0020097595
-0.85790389
-0.0015882946
-0.91750417
-0.001317486
-0.98099451
-0.0010995204
-1.0487034
-0.00089175881
-1.1210362
-0.00068903686
-1.1983232
-0.00047674344
-1.281004
-0.00025026893
-1.3694348
0.048434914
-0.25768055
-0.084682069
-0.27542691
-0.16247421
-0.2846684
-0.14166695
-0.29237579
-0.058395115
-0.30784958
0.025249534
-0.3428435
0.051908677
-0.3852232
0.041863819
-0.42530423
0.015517752
-0.45935102
-0.011545538
-0.48664239
-0.026829419
-0.51110097
-0.028091759
-0.53843624
-0.021551669
-0.57137743
-0.013865561
-0.6098823
-0.0080635542
-0.65291556
-0.0045073022
-0.69954779
-0.0026413724
-0.74929683
-0.001796055
-0.80207034
-0.0014449901
-0.8580472
-0.0012731671
-0.91754849
-0.001140327
-0.98095371
-0.00099665863
-1.0485985
-0.00083347272
-1.1208918
-0.00065995106
-1.19814
-0.00046326774
-1.280791
-0.00024378421
-1.369191
0.053140396
-0.2348606
-0.090938948
-0.25142367
-0.17744183
-0.26045929
-0.15760204
-0.26873331
-0.068075582
-0.28269533
0.033415606
-0.31601565
0.068063167
-0.35899799
0.056562094
-0.39992148
0.024210518
-0.43399699
-0.011318663
-0.45957789
-0.033183548
-0.48028826
-0.035814765
-0.50337796
-0.027332126
-0.53265578
-0.017055334
-0.56818766
-0.0092879815
-0.60865788
-0.0046104649
-0.65281239
-0.002269165
-0.69991999
-0.0013478185
-0.74974506
-0.0011088757
-0.80240645
-0.0010921368
-0.85822823
-0.0010882983
-0.91760052
-0.0010382918
-0.98091207
-0.00093426588
-1.0484977
-0.00079959159
-1.1207521
-0.00064301018
-1.1979602
-0.0004555521
-1.2805793
-0.00024006092
-1.3689509
0.057311459
-0.21370877
-0.096762488
-0.22903706
-0.19146006
-0.23740544
-0.17233457
-0.24572677
-0.077576321
-0.25923257
0.041442692
-0.29072241
0.086012717
-0.3339652
0.073344886
-0.37578078
0.034451888
-0.41016285
-0.011113778
-0.43420188
-0.041353025
-0.45140842
-0.045712278
-0.47039075
-0.034728957
-0.49598113
-0.021084993
-0.52862612
-0.010741532
-0.56673411
-0.0045789203
-0.60868942
-0.0016039414
-0.65347762
-0.00058397233
-0.70068384
-0.00051088373
-0.75034306
-0.00072737613
-0.80277121
-0.00092008624
-0.85839644
-0.0010042084
-0.9176346
-0.00098649619
-0.98085984
-0.00089875635
-1.0483985
-0.00078191047
-1.1206132
-0.00063397469
-1.1977818
-0.00045163018
-1.2803677
-0.00023832248
-1.3687126
0.061022662
-0.19430445
-0.1020513
-0.20841996
-0.20447337
-0.21602375
-0.18564022
-0.22409978
-0.08606141
-0.23724168
0.049200544
-0.26699042
0.10541755
-0.31012724
0.092295086
-0.3529154
0.046716422
-0.38804532
-0.010745988
-0.41053064
-0.051749901
-0.423805
-0.058161807
-0.43895889
-0.044017448
-0.46110226
-0.026093931
-0.49097219
-0.012445671
-0.52692198
-0.0043628026
-0.56695023
-0.00055570883
-0.60973765
0.00059593081
-0.65465752
0.00043787052
-0.70163259
-0.00011508996
-0.75095534
-0.00060043891
-0.80309086
-0.00088257066
-0.85851808
-0.00098528259
-0.91763581
-0.0009611798
-0.98079742
-0.00088198561
-1.0482984
-0.00077450754
-1.1204727
-0.00062969293
-1.1976037
-0.00044932669
-1.2801567
-0.00023722202
-1.3684754
0.064334484
-0.17661548
-0.10673789
-0.18961785
-0.21649658
-0.19639676
-0.19759934
-0.20406464
-0.093236924
-0.21692427
0.056874135
-0.24491527
0.12563855
-0.28721142
0.11345689
-0.33128904
0.061774757
-0.36797374
-0.0089573426
-0.38983396
-0.063875374
-0.39840516
-0.073315025
-0.40865178
-0.055321974
-0.42765436
-0.032185757
-0.45501043
-0.014397684
-0.48902018
-0.003897613
-0.52738717
0.00097991505
-0.56848585
0.0023133719
-0.61145509
0.0018503316
-0.65606998
0.00082792652
-0.70257561
-8.0757841e-05
-0.75147502
-0.00065570083
-0.80331773
-0.00092826835
-0.85857509
-0.00099498885
-0.91760201
-0.00095649535
-0.98072291
-0.00088177683
-1.0481912
-0.00077290785
-1.1203295
-0.00062684195
-1.1974262
-0.00044687625
-1.279947
-0.000235765
-1.3682396
0.066465749
-0.18843486
-0.11081431
-0.17253907
-0.22755739
-0.17855704
-0.20830168
-0.18569442
-0.099135527
-0.19816603
0.064540972
-0.2245911
0.14599854
-0.26527526
0.13538424
-0.30913877
0.078898464
-0.34841275
-0.0043523033
-0.37257878
-0.076214562
-0.37749478
-0.090834588
-0.3808856
-0.068608368
-0.39536539
-0.039318631
-0.42052149
-0.016556014
-0.45285211
-0.0030964203
-0.48982137
0.0031202349
-0.52952749
0.0047039566
-0.57087644
0.0038559089
-0.61346067
0.0022047142
-0.65744677
0.00070305354
-0.70335942
-0.00029698868
-0.75183374
-0.0008164419
-0.80342955
-0.0010069774
-0.8585631
-0.0010199975
-0.9175385
-0.00096789684
-0.98063679
-0.00088570728
-1.0480784
-0.00076953253
-1.1201868
-0.00062272798
-1.1972504
-0.00044347492
-1.2797393
-0.00023359324
-1.368006
0.068898132
-0.18260445
-0.11429643
-0.18495274
-0.23766429
-0.16243216
-0.21783145
-0.16902727
-0.10388263
-0.18094731
0.072239603
-0.20586466
0.16586334
-0.2444559
0.15733781
-0.28722883
0.096229129
-0.32646943
0.0027024831
-0.35546754
-0.08783749
-0.36095585
-0.11016834
-0.35816102
-0.084322698
-0.36517127
-0.047372457
-0.38731157
-0.018800136
-0.41827736
-0.0018477792
-0.45410075
0.0059872492
-0.49268838
0.0079121127
-0.53273565
0.0066044871
-0.57362501
0.0041413227
-0.61539728
0.0018326683
-0.65857638
0.00022959407
-0.703886
-0.00064815453
-0.75200202
-0.0010111765
-0.80342536
-0.0010892302
-0.85849387
-0.0010511368
-0.91745526
-0.00097864392
-0.98054385
-0.00088154607
-1.0479663
-0.00076306941
-1.1200464
-0.00061719171
-1.1970766
-0.00043895527
-1.279534
-0.0002307011
-1.3677753
0.071487572
-0.17649923
-0.11679431
-0.18010657
-0.24732977
-0.17528727
-0.2262419
-0.15402171
-0.10766562
-0.16524428
0.079844188
-0.1885519
0.18479161
-0.22479294
0.17869384
-0.26581193
0.11329443
-0.30429414
0.010737185
-0.33450414
-0.098340162
-0.34496487
-0.13133174
-0.33979245
-0.1034944
-0.33898932
-0.056979406
-0.35556432
-0.020926978
-0.38518472
-1.5332348e-05
-0.42010981
0.0097079537
-0.45782145
0.01208411
-0.49686038
0.010257557
-0.53638871
0.0067833951
-0.57626709
0.0034102898
-0.6169749
0.00097300164
-0.65931979
-0.00041824607
-0.70411591
-0.0010287604
-0.75198444
-0.0011908315
-0.80332375
-0.0011582832
-0.85838673
-0.0010717434
-0.91736216
-0.00097513177
-0.98045027
-0.00087211478
-1.0478573
-0.00075547184
-1.1199082
-0.00061030228
-1.1969053
-0.00043320171
-1.2793315
-0.00022721761
-1.3675481
0.074213429
-0.17027786
-0.11845567
-0.17483787
-0.25601522
-0.17142112
-0.23605325
-0.16547592
-0.11063118
-0.15105615
0.087182462
-0.17258255
0.20259796
-0.20635825
0.19881181
-0.24491091
0.12989514
-0.28241264
0.017910771
-0.31146772
-0.10767923
-0.32516507
-0.15428121
-0.3220154
-0.12648998
-0.31679688
-0.069903756
-0.32606497
-0.02302281
-0.35346849
0.0025753242
-0.38777538
0.014403315
-0.42480517
0.01735654
-0.46309388
0.014979665
-0.50158249
0.010294671
-0.53989999
0.0055583544
-0.57841515
0.0019963645
-0.61799826
-0.00011790528
-0.65962013
-0.001084434
-0.70406024
-0.001360513
-0.75181476
-0.0013225535
-0.80315948
-0.0011941823
-0.85826429
-0.0010678685
-0.91726943
-0.00095999895
-0.98036238
-0.00085954141
-1.0477532
-0.00074475506
-1.1197737
-0.00060122844
-1.1967373
-0.00042635572
-1.2791323
-0.0002233149
-1.3673248
0.077060262
-0.16432471
-0.11929948
-0.16943404
-0.26347211
-0.16738098
-0.24472584
-0.16274853
-0.11873784
-0.15736926
0.094153609
-0.15802729
0.21917046
-0.18915506
0.21744115
-0.22498759
0.14566662
-0.26068238
0.02360158
-0.28810345
-0.11764261
-0.30150435
-0.17723594
-0.30221034
-0.15219056
-0.29631481
-0.087183779
-0.29951686
-0.025926093
-0.32316169
0.0061288263
-0.35702199
0.02017923
-0.39355129
0.023848002
-0.43129664
0.020927873
-0.46904209
0.014848929
-0.50613675
0.0084225239
-0.54276416
0.0033789516
-0.57979774
0.00026550724
-0.61838168
-0.001208978
-0.65949559
-0.0016478123
-0.70377294
-0.0015920422
-0.75154527
-0.0013855513
-0.80296811
-0.0011883812
-0.85814377
-0.0010426605
-0.91718677
-0.00093698867
-0.98028494
-0.00084192329
-1.0476561
-0.00073103148
-1.1196439
-0.00059078239
-1.1965728
-0.00041881123
-1.2789368
-0.00021918132
-1.3671056
0.079983949
-0.15883414
-0.11937074
-0.16425344
-0.26949359
-0.16341257
-0.25214214
-0.15996467
-0.1259325
-0.15555387
0.093268589
-0.15648424
0.23449285
-0.17334968
0.23453203
-0.20624593
0.16026482
-0.23958579
0.028449146
-0.26552995
-0.12836693
-0.27737912
-0.19859434
-0.28014595
-0.17776515
-0.27663575
-0.10737727
-0.27612132
-0.030855782
-0.29458717
0.010784528
-0.32781739
0.027154147
-0.36399691
0.031642278
-0.40134557
0.028239494
-0.43860826
0.020623844
-0.474817
0.012166764
-0.50988099
0.0052219711
-0.54460718
0.00075512818
-0.58028736
-0.0014385954
-0.61815206
-0.0021174453
-0.65902595
-0.0020334201
-0.70333156
-0.001701086
-0.75122973
-0.0013773737
-0.80277912
-0.0011462195
-0.85804021
-0.0010022417
-0.91712151
-0.00090735271
-0.98021951
-0.00082096176
-1.0475661
-0.00071601896
-1.1195187
-0.00057960384
-1.196412
-0.00041091435
-1.2787451
-0.00021498467
-1.3668906
0.082935525
-0.15389734
-0.11869483
-0.15951006
-0.2740694
-0.15967763
-0.25826929
-0.15728542
-0.13220169
-0.15369547
0.092676384
-0.15496166
0.24402803
-0.16601942
0.24994318
-0.18876083
0.173476
-0.21945711
0.032522848
-0.24365949
-0.13912486
-0.25477202
-0.2182006
-0.25777286
-0.20065847
-0.25725263
-0.12825871
-0.25575431
-0.038252194
-0.26872491
0.016144512
-0.29994715
0.035466709
-0.33612995
0.040775829
-0.37313046
0.037010625
-0.4101167
0.027783156
-0.44576757
0.016974536
-0.47962478
0.0076515046
-0.51231052
0.0013855922
-0.54523764
-0.0018139138
-0.57991204
-0.0028486342
-0.61742087
-0.0027315332
-0.65832784
-0.0022128806
-0.70281977
-0.0016893628
-0.75091774
-0.0013072046
-0.80261814
-0.0010764624
-0.85796599
-0.0009508604
-0.917078
-0.00087333815
-0.98016713
-0.00079843948
-1.0474837
-0.00070015615
-1.1193981
-0.00056802756
-1.1962549
-0.0004029572
-1.2785571
-0.00021089737
-1.3666797
0.085908088
-0.14966627
-0.11729355
-0.15529861
-0.27724352
-0.15633593
-0.26310718
-0.15483974
-0.13749924
-0.15198787
0.092327578
-0.15334667
0.25350237
-0.16443601
0.26343002
-0.17950626
0.18520197
-0.20048681
0.035755693
-0.22268996
-0.14965448
-0.23312988
-0.23672079
-0.23625184
-0.22103734
-0.23739399
-0.14844135
-0.23706999
-0.048209501
-0.24579701
0.021278719
-0.27385911
0.045315658
-0.3097961
0.051194418
-0.34654854
0.047282248
-0.38340208
0.036465211
-0.41879876
0.023037811
-0.45183084
0.01082182
-0.48279509
0.0022065012
-0.51313143
-0.0023881205
-0.54466344
-0.0039399747
-0.5788207
-0.0037930189
-0.61635938
-0.0030134714
-0.65752725
-0.0021946875
-0.70231444
-0.001574454
-0.75065049
-0.0011898942
-0.8025047
-0.00098864143
-0.85792821
-0.00089370365
-0.91705764
-0.00083776096
-0.98012781
-0.00077552277
-1.0474084
-0.00068422966
-1.1192819
-0.00055663369
-1.1961013
-0.00039533426
-1.2783727
-0.00020705707
-1.3664727
0.088911753
-0.14630046
-0.11513472
-0.1518251
-0.27903174
-0.1535104
-0.26667555
-0.15276757
-0.1417658
-0.15057318
0.092266528
-0.15192682
0.26263612
-0.16248042
0.27647348
-0.17747946
0.20070279
-0.19500708
0.038386729
-0.20311784
-0.15966088
-0.21268356
-0.25417249
-0.21567817
-0.2396816
-0.21760758
-0.16696284
-0.2188725
-0.060073541
-0.22520595
0.025252899
-0.24977119
0.056433947
-0.2849774
0.062920523
-0.3215222
0.059023325
-0.35828962
0.04677785
-0.39371472
0.030556748
-0.42631769
0.014921169
-0.45593019
0.0032930076
-0.4838816
-0.0031974899
-0.51232206
-0.0055080274
-0.54309538
-0.0053509463
-0.57726277
-0.0042188484
-0.61515401
-0.0029828628
-0.65673908
-0.0020109093
-0.70187799
-0.001383181
-0.75045721
-0.0010439364
-0.80244941
-0.00089330685
-0.85792861
-0.00083599883
-0.9170594
-0.00080323131
-0.9801001
-0.00075362174
-1.047339
-0.00066922404
-1.1191693
-0.00054604635
-1.1959505
-0.00038827532
-1.2781915
-0.00020355929
-1.3662691
-0.14393244
0.091943243
-0.11220777
-0.14922742
-0.27949021
-0.15136662
-0.26901932
-0.15116663
-0.14504522
-0.14948815
0.092662592
-0.15096924
0.27119623
-0.16048693
0.28880933
-0.17481627
0.21562955
-0.19240622
0.051822872
-0.20844322
-0.16883121
-0.19394751
-0.27038294
-0.19647311
-0.25661704
-0.19874273
-0.18356684
-0.20100358
-0.07238401
-0.20656203
0.027676518
-0.22762956
0.068302227
-0.26163947
0.075921401
-0.29797828
0.072149192
-0.33464807
0.058795945
-0.37030771
0.039733059
-0.40289103
0.020176152
-0.43157267
0.0047572404
-0.45739442
-0.0042861963
-0.48279289
-0.0076924478
-0.51013764
-0.0075641365
-0.54088219
-0.0059711149
-0.57551051
-0.0041640298
-0.61397284
-0.0026949864
-0.656055
-0.0017072684
-0.7015539
-0.0011468006
-0.75035434
-0.00088705428
-0.80245566
-0.0007989026
-0.85796571
-0.00078136032
-0.91708127
-0.00077115724
-0.98008257
-0.00073378452
-1.0472744
-0.00065568971
-1.1190597
-0.00053645871
-1.1958024
-0.00038195177
-1.2780131
-0.0002004544
-1.3660687
-0.14749491
-0.10864531
-0.14259902
0.095007786
-0.27877222
-0.14994541
-0.27028484
-0.15010111
-0.14744446
-0.14876739
0.093513194
-0.15033875
0.27911198
-0.158885
0.3000535
-0.1717311
0.22963491
-0.18882162
0.06505697
-0.20564032
-0.16530762
-0.21196681
-0.28546065
-0.1788698
-0.27181073
-0.18127942
-0.1982741
-0.18403547
-0.084035108
-0.18935248
0.028612363
-0.20749788
0.08045072
-0.23977806
0.090101646
-0.27581971
0.086519739
-0.31234883
0.072520249
-0.34837237
0.050755868
-0.38133052
0.026851658
-0.40956654
0.0067561729
-0.43357161
-0.0056827754
-0.45599784
-0.01065433
-0.47983101
-0.010632196
-0.50706958
-0.0084411744
-0.53841213
-0.0058698921
-0.57380464
-0.0037207333
-0.61294709
-0.002224078
-0.65553819
-0.0013337973
-0.7013669
-0.00089343098
-0.75034797
-0.00073250245
-0.80252206
-0.0007097489
-0.85803732
-0.00073146295
-0.91712097
-0.00074294257
-0.98007341
-0.0007164291
-1.0472137
-0.00064400542
-1.1189521
-0.00052820452
-1.1956561
-0.00037648377
-1.277837
-0.00019776697
-1.3658709
-0.14918825
-0.27707887
-0.14676025
-0.10448408
-0.14249424
0.097953494
-0.27073029
-0.14949995
-0.14900999
-0.14853558
0.094742092
-0.14999628
0.28640351
-0.15763028
0.30976668
-0.16859817
0.24229777
-0.18439396
0.077557689
-0.20132234
-0.16056823
-0.21037971
-0.29448287
-0.20294459
-0.28541353
-0.16526701
-0.21122339
-0.16833012
-0.09452898
-0.1735416
0.028550283
-0.1892904
0.092417047
-0.2194642
0.10529877
-0.25497518
0.10198045
-0.29128042
0.087876691
-0.32770527
0.063789201
-0.36140571
0.03524125
-0.38972011
0.0095121534
-0.41232252
-0.0073967349
-0.43185765
-0.01458306
-0.45206911
-0.014791897
-0.47567131
-0.011834899
-0.50367586
-0.008254626
-0.5360274
-0.0051970076
-0.57232837
-0.0030057685
-0.6121654
-0.001648252
-0.65522373
-0.00093460696
-0.70132573
-0.0006447218
-0.75043575
-0.00058775176
-0.80264406
-0.00062946403
-0.85813932
-0.000688849
-0.91717506
-0.00071971876
-0.98007012
-0.00070238674
-1.0471553
-0.00063457195
-1.1188458
-0.00052140787
-1.1955112
-0.0003718844
-1.2776629
-0.00019547824
-1.3656754
-0.14961367
-0.27030488
-0.14964773
-0.27419138
-0.1468354
-0.10014292
-0.14318633
0.10081745
-0.14963964
-0.1488703
0.096400212
-0.1501937
0.29305005
-0.15664282
0.31783824
-0.16570184
0.25327729
-0.17957769
0.088946609
-0.19578288
-0.15518553
-0.20670505
-0.30223607
-0.20262651
-0.29986464
-0.18849348
-0.22264234
-0.15384806
-0.10375002
-0.15910908
0.027863149
-0.17285446
0.1038943
-0.20076765
0.12122385
-0.23538928
0.1183659
-0.27136064
0.10472446
-0.30812819
0.078947536
-0.3428636
0.045667639
-0.3718321
0.013288549
-0.39349651
-0.00945713
-0.41026212
-0.019702445
-0.42673826
-0.020325181
-0.44653583
-0.016391077
-0.47111513
-0.011494633
-0.50043585
-0.0072451509
-0.53397926
-0.0041329188
-0.57120122
-0.0021384913
-0.61167516
-0.001035477
-0.65512286
-0.00054413348
-0.70142631
-0.00041402627
-0.75060947
-0.00045882513
-0.8028147
-0.00056271551
-0.85826545
-0.00065577131
-0.91723901
-0.00070244703
-0.98007006
-0.00069219945
-1.0470977
-0.000627533
-1.1187396
-0.00051604728
-1.195367
-0.00036812428
-1.2774903
-0.00019355276
-1.3654819
-0.15015269
-0.14910063
-0.15128163
-0.26867098
-0.15065821
-0.27036857
-0.14766806
-0.095661188
-0.14471935
0.10337779
0.098705826
-0.15117592
0.29895224
-0.1560959
0.32441641
-0.16322099
0.26218623
-0.17461078
0.098998378
-0.18962946
-0.14907102
-0.20189739
-0.30859275
-0.20034837
-0.31289608
-0.18959507
-0.24148821
-0.16964761
-0.11176302
-0.14583506
0.026854865
-0.1581008
0.1146587
-0.18361886
0.13751431
-0.21705811
0.13546049
-0.25248387
0.12281693
-0.28945311
0.096149845
-0.3253305
0.058334968
-0.35553093
0.018387378
-0.37693093
-0.011774802
-0.39117883
-0.026245912
-0.40371866
-0.027570352
-0.41949309
-0.022390496
-0.44053641
-0.015785773
-0.46682399
-0.0099961295
-0.49768487
-0.0056902547
-0.53242192
-0.0028555365
-0.57048417
-0.0012215501
-0.61148909
-0.00043876316
-0.65522823
-0.00018496885
-0.70165537
-0.00021053893
-0.75085776
-0.00035270803
-0.80302471
-0.00051236286
-0.85840886
-0.00063286003
-0.9173086
-0.0006915638
-0.98007069
-0.00068591441
-1.0470393
-0.00062277932
-1.1186329
-0.00051207631
-1.1952231
-0.00036512504
-1.2773187
-0.00019194046
-1.3652899
-0.15305288
0.10160602
-0.15279083
-0.14759143
-0.15348107
-0.26584813
-0.15236367
-0.26567296
-0.14912891
-0.091251627
-0.14692704
0.10541384
0.30395024
-0.15617392
0.32950748
-0.16118697
0.26885249
-0.16988725
0.10728948
-0.18290188
-0.14266772
-0.19603276
-0.31349791
-0.19699222
-0.32429368
-0.18895078
-0.25878507
-0.17229821
-0.13341597
-0.14799465
0.025801513
-0.14478171
0.12451899
-0.16796109
0.15385796
-0.19996251
0.15297382
-0.23457145
0.14172648
-0.27139342
0.11493192
-0.30823519
0.072927651
-0.33992319
0.024756184
-0.36189974
-0.014352448
-0.37435328
-0.03447886
-0.38294589
-0.036918703
-0.39437031
-0.030155061
-0.41172852
-0.021338454
-0.43498373
-0.013584781
-0.46323534
-0.0077602426
-0.49561488
-0.0038492825
-0.53142817
-0.0015163246
-0.5701894
-0.00033389687
-0.61159396
0.00010536828
-0.65551857
0.00012834474
-0.70199425
-4.3509374e-05
-0.75116696
-0.00027362898
-0.80326344
-0.0004789726
-0.85856274
-0.00062022556
-0.91737993
-0.00068687616
-0.98006973
-0.00068326068
-1.0469788
-0.00062019711
-1.1185248
-0.00050933042
-1.1950789
-0.00036276902
-1.2771479
-0.00019057398
-1.3650993
-0.15692726
0.30782462
-0.155544
0.10435919
-0.15630504
-0.14476746
-0.1564804
-0.2617314
-0.15475515
-0.26004672
-0.15116009
-0.087018576
-0.14972197
0.10696682
0.33302825
-0.15969468
0.27329547
-0.16562995
0.11363283
-0.1762306
-0.13644525
-0.18912436
-0.31707433
-0.19245634
-0.3340809
-0.187205
-0.2745061
-0.17322974
-0.15370426
-0.15200993
0.00807819
-0.13027133
0.13397753
-0.15424025
0.16988929
-0.18399242
0.17058017
-0.21756886
0.16090829
-0.25375326
0.13426281
-0.2907243
0.088344336
-0.32365187
0.031483109
-0.34665011
-0.018032278
-0.35821991
-0.044926916
-0.36390522
-0.048841459
-0.37102313
-0.040054559
-0.38447081
-0.028369855
-0.40469712
-0.018138244
-0.43043027
-0.010419076
-0.4605765
-0.0051607367
-0.49430343
-0.0019378808
-0.53100662
-0.00022970434
-0.57029359
0.00046976293
-0.61195835
0.00057772061
-0.65596795
0.0003859271
-0.70242369
8.0628695e-05
-0.75152121
-0.00022206726
-0.80352035
-0.00046216525
-0.8587208
-0.00061741541
-0.9174494
-0.00068791653
-0.98006508
-0.00068397922
-1.046915
-0.00061953346
-1.1184146
-0.000507619
-1.194934
-0.00036092672
-1.2769775
-0.00018939256
-1.3649099
-0.15884855
0.33494953
-0.15772079
0.31000141
-0.1593106
0.10736475
-0.16065866
-0.1405892
-0.16025741
-0.25622914
-0.15788322
-0.25332358
-0.15389596
-0.082844589
-0.15297338
0.10798201
0.27559985
-0.16199906
0.11781636
-0.16981348
-0.13077738
-0.18189847
-0.31901248
-0.18718621
-0.34204968
-0.18448756
-0.28851775
-0.17319336
-0.17245903
-0.15447497
-0.01017547
-0.13375627
0.12968889
-0.12598269
0.18541194
-0.16976289
0.1879257
-0.20133795
0.17978632
-0.23644689
0.15323482
-0.27272527
0.10303488
-0.30541484
0.037566211
-0.32973498
-0.024798697
-0.33988369
-0.059081962
-0.34406486
-0.063970693
-0.34877599
-0.052521299
-0.35855639
-0.037101055
-0.37573961
-0.023761509
-0.39907386
-0.013725772
-0.42712357
-0.0068176716
-0.45891957
-0.0024953065
-0.493746
-0.00011780157
-0.53111852
0.00092736118
-0.57075119
0.0011610795
-0.61254171
0.0009620915
-0.65654411
0.00057692105
-0.70291998
0.00016125348
-0.75190453
-0.00019686531
-0.80378564
-0.00046091061
-0.85887731
-0.000623562
-0.91751375
-0.00069409718
-0.98005496
-0.00068757862
-1.046847
-0.00062040598
-1.1183018
-0.00050670836
-1.1947882
-0.00035945611
-1.2768075
-0.00018832548
-1.3647216
-0.15909412
0.27584542
-0.15793839
0.33516713
-0.16010577
0.31079658
-0.16371882
0.11042491
-0.16564495
-0.13520166
-0.16476253
-0.24934983
-0.16160785
-0.24561169
-0.15711764
-0.078700337
-0.15663305
0.10837579
0.11976148
-0.16394418
-0.12582279
-0.17476807
-0.31932443
-0.18158651
-0.34810612
-0.18112977
-0.30063611
-0.1723692
-0.18955166
-0.15610073
-0.027917114
-0.13673332
0.12417084
-0.12823822
0.19242931
-0.13300007
0.20474704
-0.18658423
0.19793343
-0.21948505
0.17135502
-0.2545671
0.11679031
-0.2864807
0.042831958
-0.31068058
-0.035211227
-0.31932245
-0.07869896
-0.32026669
-0.083063369
-0.32497219
-0.067870329
-0.33342696
-0.047757375
-0.34790007
-0.030525584
-0.36897554
-0.017708746
-0.39509089
-0.0088300539
-0.42511119
-0.0031812616
-0.45823361
1.7894192e-05
-0.4938817
0.0015045983
-0.53169576
0.0019120632
-0.57150217
0.0017199153
-0.61329953
0.0012477159
-0.65721491
0.00070108378
-0.70345981
0.00020127815
-0.75230268
-0.00019605489
-0.8040505
-0.00047363814
-0.85902723
-0.00063756399
-0.91757028
-0.00070462178
-0.98003791
-0.0006934738
-1.0467739
-0.00062248156
-1.118186
-0.00050637439