/*--------------------------------*- C++ -*----------------------------------*\
| =========                 |                                                 |
| \\      /  F ield         | OpenFOAM: The Open Source CFD Toolbox           |
|  \\    /   O peration     | Version:  5.0                                   |
|   \\  /    A nd           | Web:      www.OpenFOAM.org                      |
|    \\/     M anipulation  |                                                 |
\*---------------------------------------------------------------------------*/
FoamFile
{
    version     2.0;
    format      ascii;
    class       surfaceScalarField;
    location    "180";
    object      phi_0;
}
// * * * * * * * * * * * * * * * * * * * * * * * * * * * * * * * * * * * * * //

dimensions      [0 3 -1 0 0 0 0];

internalField   nonuniform List<scalar> 
18180
(
-0.001944672
-1.3900402
-0.0037871608
-1.3000378
-0.0018826036
-1.3881576
-0.0055178639
-1.2159971
-0.0036686373
-1.2982518
-0.0017833838
-1.3863742
-0.0071612366
-1.1374949
-0.0053629459
-1.2143028
-0.0034762725
-1.2965589
-0.0016477067
-1.3847265
-0.0087009778
-1.0641469
-0.0069868336
-1.135871
-0.0050892394
-1.2126898
-0.0032120658
-1.2949946
-0.0015077707
-1.3832188
-0.010123359
-0.99561267
-0.0085491056
-1.0625847
-0.0066442538
-1.134316
-0.0047023624
-1.2111996
-0.0029343111
-1.293568
-0.0013747471
-1.381844
-0.011396358
-0.93157422
-0.010058697
-0.99410307
-0.0081617839
-1.0610671
-0.0061397227
-1.1328787
-0.004287707
-1.2098462
-0.0026680557
-1.2922747
-0.0012631046
-1.3805809
-0.012491668
-0.8717549
-0.01152186
-0.93011106
-0.0096691922
-0.99259567
-0.0075458404
-1.059661
-0.0055805348
-1.1315858
-0.0038875521
-1.2086267
-0.0024441499
-1.2910937
-0.001173824
-1.3794071
-0.013393621
-0.81589049
-0.012948823
-0.87032794
-0.011210342
-0.92856991
-0.0089541445
-0.99118736
-0.0068248892
-1.0584167
-0.005036758
-1.1304366
-0.0035531209
-1.2075177
-0.0022679688
-1.2899995
-0.0011017877
-1.3783053
-0.01401691
-0.76377499
-0.014336275
-0.81450304
-0.012849804
-0.86868847
-0.010419395
-0.92710466
-0.0080387211
-0.98997353
-0.0061166457
-1.0573368
-0.0045877928
-1.129402
-0.0032962215
-1.2064894
-0.0021308905
-1.2889704
-0.0010387524
-1.3772665
-0.014272014
-0.71514153
-0.015769099
-0.76234217
-0.014703535
-0.81264931
-0.012005866
-0.867102
-0.0092466693
-0.92589671
-0.0071239799
-0.9889662
-0.0055446084
-1.05638
-0.0042560079
-1.1284422
-0.0031032238
-1.2055171
-0.0020148345
-1.2879943
-0.00097768078
-1.3762889
-0.014103304
-0.66987131
-0.017415738
-0.71349489
-0.016928007
-0.7601177
-0.013807397
-0.81084777
-0.010473426
-0.86587525
-0.0080499312
-0.92497076
-0.0064062701
-0.98810453
-0.0051454339
-1.0554905
-0.0040198274
-1.1275256
-0.0029429284
-1.204589
-0.0019023014
-1.2870697
-0.00091336495
-1.3753755
-0.013424829
-0.62781497
-0.019425966
-0.66786109
-0.019549775
-0.71087312
-0.015870961
-0.75805413
-0.011737087
-0.80958411
-0.0088797361
-0.86504544
-0.0071437349
-0.92423329
-0.0059455807
-0.98730439
-0.0048826007
-1.0546278
-0.0038292908
-1.1266392
-0.0027856855
-1.2037056
-0.0017803482
-1.2862027
-0.00084250024
-1.374533
-0.01218191
-0.58872451
-0.021887313
-0.62535363
-0.022681854
-0.66472901
-0.018277295
-0.70846679
-0.01304233
-0.75674889
-0.0095739749
-0.80888988
-0.0077141431
-0.86447503
-0.0066242593
-0.92355462
-0.0056794822
-0.98650751
-0.0046801209
-1.0537769
-0.0036394127
-1.1257855
-0.0026108155
-1.2028752
-0.0016421703
-1.2854031
-0.00076440554
-1.3737686
-0.010333786
-0.55237155
-0.024859616
-0.58575221
-0.026594065
-0.62144141
-0.021193046
-0.66181326
-0.014437127
-0.70707199
-0.010047468
-0.7562754
-0.0080464536
-0.80855756
-0.007132729
-0.86396656
-0.0063852764
-0.92284882
-0.0054956071
-0.98569202
-0.0044762944
-1.0529401
-0.0034194021
-1.1249769
-0.0024078708
-1.2021095
-0.0014876839
-1.2846798
-0.00068153219
-1.3730871
-0.0079184272
-0.5184416
-0.028433604
-0.54879757
-0.031544914
-0.58080136
-0.024792774
-0.61784169
-0.015962744
-0.66028764
-0.010253707
-0.70686575
-0.0080099397
-0.75631191
-0.007375377
-0.80831492
-0.006950868
-0.86340097
-0.0062674068
-0.92207702
-0.0053102399
-0.98485808
-0.0042261375
-1.0521333
-0.0031540869
-1.1242307
-0.0021770605
-1.2014201
-0.0013228175
-1.2840385
-0.00059851735
-1.3724885
-0.0049000945
-0.4867013
-0.032700707
-0.5141745
-0.037771345
-0.54257114
-0.029259492
-0.57633464
-0.01766171
-0.61614272
-0.010122175
-0.66041917
-0.0074676446
-0.70740805
-0.0072675635
-0.75641972
-0.0073032377
-0.80796255
-0.0069727803
-0.8626956
-0.0061608245
-0.92122644
-0.0050547341
-0.98402948
-0.00390289
-1.0513845
-0.0028445052
-1.1235632
-0.0019284216
-1.2008145
-0.0011571514
-1.2834799
-0.00052028931
-1.3719683
-0.001093036
-0.45739179
-0.037747559
-0.48165445
-0.04548464
-0.5064612
-0.03476523
-0.5370654
-0.019592573
-0.57440378
-0.009556937
-0.61670796
-0.0062858724
-0.66160095
-0.0066447101
-0.7080309
-0.0074789022
-0.75624406
-0.0076315435
-0.80730378
-0.0070588805
-0.86179754
-0.0059474932
-0.92033368
-0.0046825354
-0.98324983
-0.0035071216
-1.0507219
-0.0025055876
-1.1229861
-0.0016775958
-1.200294
-0.0010007945
-1.2829994
-0.00045066975
-1.3715176
0.004165448
-0.43124936
-0.043365432
-0.45177392
-0.054770027
-0.47236906
-0.041417694
-0.49980874
-0.021808981
-0.53484899
-0.0084521833
-0.57550853
-0.0042856736
-0.61870816
-0.0053353514
-0.6629103
-0.0073781659
-0.70813164
-0.0082824952
-0.75559311
-0.0080830755
-0.80627959
-0.0069697714
-0.86077526
-0.0055374395
-0.91947877
-0.0041904294
-0.98256652
-0.0030639447
-1.0501635
-0.0021608472
-1.1225028
-0.0014407055
-1.1998541
-0.00086179486
-1.2825882
-0.00039206977
-1.3711255
0.010919863
-0.40776762
-0.049074612
-0.42554018
-0.065719866
-0.44082408
-0.049351354
-0.4644354
-0.02431217
-0.49730555
-0.0066860912
-0.53661508
-0.0012618164
-0.57853239
-0.003145428
-0.62089808
-0.0068154258
-0.66347304
-0.0089249642
-0.70748917
-0.0092617347
-0.75441445
-0.0082027578
-0.8050466
-0.0065336886
-0.85977901
-0.0049285589
-0.91874064
-0.0036183916
-0.98201208
-0.0026090581
-1.0497153
-0.0018345777
-1.1221089
-0.0012304075
-1.1994855
-0.00074495646
-1.2822353
-0.00034566918
-1.3707798
0.018379226
-0.38385676
-0.053992615
-0.40284962
-0.078601944
-0.4126581
-0.059019538
-0.43115589
-0.02714182
-0.46160575
-0.0041492064
-0.49984243
0.003015121
-0.54089202
0.00015502159
-0.58183284
-0.0056306816
-0.62208282
-0.0095358246
-0.66286218
-0.010672766
-0.70607814
-0.0097075787
-0.75290963
-0.0077389131
-0.80384138
-0.005768954
-0.85893862
-0.0041898566
-0.91816918
-0.0030254151
-0.98159572
-0.0021786273
-1.0493713
-0.0015459998
-1.1217934
-0.0010541416
-1.1991763
-0.00065189135
-1.2819291
-0.00031132804
-1.3704685
0.026207592
-0.3587287
-0.057545241
-0.38030414
-0.093983269
-0.38746829
-0.071305693
-0.40037195
-0.030676149
-0.42762156
-0.00071947238
-0.46503549
0.0087736487
-0.50560096
0.0048279582
-0.54556496
-0.0036434581
-0.58382006
-0.010065836
-0.62155281
-0.012440438
-0.66109451
-0.011630815
-0.7041549
-0.0092434274
-0.75140511
-0.0067629727
-0.80284736
-0.004801341
-0.85832713
-0.003415752
-0.91777884
-0.0024666867
-0.98130766
-0.0018012332
-1.049116
-0.0013067179
-1.1215408
-0.00091429943
-1.1989139
-0.00058161933
-1.2816588
-0.00028734153
-1.3701812
0.033595157
-0.33314984
-0.06122521
-0.35504873
-0.11094434
-0.36334306
-0.087064423
-0.37170956
-0.035798179
-0.39524992
0.0036718052
-0.43201284
0.016221449
-0.47248329
0.011135333
-0.51190834
-0.00064920363
-0.54855921
-0.010462423
-0.58342348
-0.014688096
-0.61930515
-0.01415714
-0.65856818
-0.01119249
-0.70220584
-0.0079858705
-0.75018221
-0.0054794734
-0.80216922
-0.0037794945
-0.85796339
-0.0026899964
-0.91755553
-0.0019837603
-0.98112513
-0.0014939949
-1.0489288
-0.0011204123
-1.1213347
-0.00080942806
-1.1986861
-0.00053135108
-1.2814148
-0.00027078676
-1.3699104
0.040280332
-0.3072794
-0.066517915
-0.32785714
-0.12841248
-0.33758059
-0.10615328
-0.34425421
-0.043137004
-0.36437074
0.0089794124
-0.40055753
0.025582278
-0.44137367
0.019339225
-0.48068718
0.0035872308
-0.51614477
-0.010672244
-0.54834939
-0.017564109
-0.58054746
-0.017511875
-0.61595042
-0.013762141
-0.65599853
-0.0095318333
-0.70065987
-0.0062579274
-0.74940376
-0.0041132102
-0.80183551
-0.0028290555
-0.85782433
-0.0020741693
-0.91746512
-0.0016001413
-0.98101898
-0.0012618943
-1.0487873
-0.00098399612
-1.1211601
-0.00073555445
-1.1984819
-0.00049724727
-1.2811884
-0.00025878643
-1.3696516
0.046450096
-0.2820957
-0.072567211
-0.3012301
-0.14542142
-0.31084819
-0.12577454
-0.31795933
-0.052317647
-0.33507357
0.015173058
-0.37056438
0.037119826
-0.41209507
0.029668542
-0.45170299
0.0093234302
-0.48642338
-0.010609867
-0.51620715
-0.02124892
-0.54466458
-0.021965156
-0.57609418
-0.01717026
-0.6125423
-0.011518911
-0.65401146
-0.0071724039
-0.6997454
-0.0044091146
-0.74910785
-0.0028552499
-0.80180931
-0.0020407332
-0.85785777
-0.0016014408
-0.91746382
-0.0013213016
-0.98095958
-0.0010992812
-1.048672
-0.00089018202
-1.1210055
-0.00068700585
-1.1982921
-0.00047514397
-1.280972
-0.00024963228
-1.369402
0.051987071
-0.25781804
-0.078465517
-0.2761974
-0.16120012
-0.2854514
-0.14357169
-0.29305104
-0.062449681
-0.3078273
0.022220137
-0.34212064
0.050966808
-0.38441136
0.042255735
-0.42468227
0.016733738
-0.45911329
-0.010212234
-0.48682101
-0.025960906
-0.51149516
-0.027830029
-0.53879971
-0.021658902
-0.57160554
-0.014084416
-0.60997679
-0.0082651963
-0.65291866
-0.0046519692
-0.69950254
-0.0027279886
-0.74923512
-0.001839005
-0.80201104
-0.0014615146
-0.85799769
-0.0012764961
-0.91750863
-0.0011381563
-0.9809207
-0.00099338004
-1.0485688
-0.00083019015
-1.1208623
-0.00065717936
-1.1981101
-0.00046143614
-1.2807602
-0.00024307767
-1.3691589
0.056912598
-0.23501229
-0.084123046
-0.25216051
-0.17619455
-0.26120297
-0.1596421
-0.26938099
-0.072773892
-0.28272683
0.029610676
-0.31521784
0.066929292
-0.35808313
0.057052571
-0.3992082
0.025774638
-0.43372317
-0.0095051357
-0.45982039
-0.031969668
-0.48081225
-0.035465344
-0.50385985
-0.027498156
-0.53296045
-0.017373912
-0.56831604
-0.0095779083
-0.60866408
-0.0048174817
-0.65275315
-0.0023926166
-0.69983792
-0.0014076329
-0.74966649
-0.0011297765
-0.80234278
-0.0010939661
-0.85818022
-0.0010828895
-0.91756389
-0.0010316599
-0.98088242
-0.00092903564
-1.04847
-0.00079524876
-1.1207242
-0.00063992975
-1.1979316
-0.00045365896
-1.2805496
-0.00023928524
-1.3689196
0.061274205
-0.21386716
-0.089407808
-0.22972752
-0.1902597
-0.23809536
-0.17451994
-0.24632512
-0.082847471
-0.25930742
0.036752304
-0.28986846
0.084667158
-0.3329557
0.073937253
-0.37496781
0.036405408
-0.40983897
-0.0086917794
-0.43453652
-0.039690055
-0.4521
-0.045262294
-0.4710153
-0.034981217
-0.49637679
-0.021540376
-0.52879399
-0.011151352
-0.5667426
-0.0048705639
-0.608611
-0.001777899
-0.65336787
-0.0006671728
-0.70057838
-0.00053756142
-0.7502587
-0.00072625666
-0.80271049
-0.00090919556
-0.85835392
-0.00099218276
-0.91760337
-0.00097760072
-0.98083386
-0.00089242276
-1.0483728
-0.00077713573
-1.120587
-0.00063090055
-1.1977544
-0.00044986723
-1.280339
-0.00023758571
-1.368682
0.065150044
-0.19446112
-0.094217467
-0.20905751
-0.20332839
-0.21665884
-0.18798209
-0.22463321
-0.091859167
-0.23731343
0.043555485
-0.2661106
0.10382052
-0.30902182
0.092955533
-0.35197398
0.049048041
-0.38761044
-0.0076125776
-0.41091817
-0.049549912
-0.42467667
-0.057615043
-0.43974726
-0.04439424
-0.46160227
-0.026733297
-0.49118386
-0.013014351
-0.52693099
-0.0047664607
-0.5668467
-0.0007972083
-0.60959169
0.00048078397
-0.65451583
0.00040344301
-0.70151938
-0.00010900666
-0.75087595
-0.00058062231
-0.80303906
-0.0008622975
-0.8584838
-0.00096998255
-0.91761099
-0.00095149276
-0.98077479
-0.00087492737
-1.048275
-0.00076981561
-1.1204481
-0.00062695473
-1.1975773
-0.00044788806
-1.2801287
-0.0002366528
-1.3684454
0.068602233
-0.17676479
-0.098480274
-0.19019831
-0.21540775
-0.19697815
-0.2001065
-0.20453443
-0.099524548
-0.21696783
0.050288396
-0.24404634
0.12377947
-0.28606954
0.11413624
-0.33020253
0.064429062
-0.367355
-0.0050749015
-0.39014812
-0.06108406
-0.39938402
-0.072698075
-0.40959363
-0.055878743
-0.42826275
-0.033068015
-0.45526756
-0.015172021
-0.4890262
-0.0044456898
-0.52725176
0.00065027254
-0.56829418
0.0021557401
-0.61126665
0.0018057328
-0.65591812
0.00084166694
-0.70247005
-4.7137034e-05
-0.75140944
-0.0006224135
-0.80327895
-0.00090295591
-0.85855083
-0.00097920615
-0.91758327
-0.00094610144
-0.98070361
-0.00087476744
-1.04817
-0.00076898471
-1.1203061
-0.00062475183
-1.1974004
-0.0004458826
-1.2799195
-0.00023543422
-1.3682099
0.070825564
-0.18855767
-0.10217599
-0.17306908
-0.22652043
-0.17908563
-0.21097771
-0.18610694
-0.1058876
-0.19817138
0.057084311
-0.22376375
0.14386901
-0.26413588
0.13613786
-0.30807117
0.081934725
-0.34770819
0.00030491604
-0.37273482
-0.072751671
-0.37848051
-0.090146223
-0.38193587
-0.069403704
-0.39606867
-0.040512348
-0.42081842
-0.017590322
-0.45284925
-0.0038255282
-0.48964636
0.0026785668
-0.52928005
0.0044909643
-0.57062941
0.003797606
-0.61325852
0.0022293898
-0.65730584
0.00075710205
-0.70327429
-0.00024384449
-0.75178801
-0.00077595183
-0.80340595
-0.0009810347
-0.858549
-0.0010042782
-0.9175251
-0.00095783261
-0.98062055
-0.00088024313
-1.0480588
-0.00076681634
-1.120164
-0.00062138655
-1.1972249
-0.00044296441
-1.279712
-0.0002335114
-1.3679764
0.073330394
-0.18272293
-0.10527757
-0.18545609
-0.23667964
-0.16290987
-0.22067358
-0.16938975
-0.11107651
-0.18091803
0.064000591
-0.20508766
0.16345919
-0.24335393
0.15817116
-0.28616918
0.099672948
-0.32580939
0.0081651107
-0.35556838
-0.083523292
-0.3619632
-0.10930749
-0.35931925
-0.085358601
-0.36598098
-0.048946932
-0.38763409
-0.020152148
-0.41825659
-0.0027972729
-0.45387751
0.005407362
-0.49237515
0.0076285337
-0.53241762
0.0065278134
-0.57335962
0.0041807515
-0.61520988
0.0019156783
-0.65846442
0.00031194727
-0.70383009
-0.00058490863
-0.75197905
-0.00096985488
-0.80341713
-0.0010647828
-0.8584885
-0.0010367421
-0.91744619
-0.00097098145
-0.98052981
-0.00087806076
-1.0479475
-0.00076138841
-1.120024
-0.00061658372
-1.1970513
-0.00043893238
-1.2795066
-0.00023084777
-1.3677456
0.075978311
-0.17661908
-0.10740961
-0.18059089
-0.24633547
-0.17580026
-0.22924947
-0.15433398
-0.11527645
-0.16518981
0.070906102
-0.18782354
0.1821288
-0.22375726
0.17963173
-0.26481451
0.1171734
-0.30366963
0.016880633
-0.33452491
-0.093025446
-0.34606623
-0.13014914
-0.34112154
-0.10468748
-0.33999036
-0.059001289
-0.35592662
-0.022653713
-0.38513253
-0.0012245961
-0.41982927
0.0089627679
-0.45743292
0.011712552
-0.49645917
0.010156273
-0.53604608
0.0068416845
-0.57602055
0.0035328458
-0.61682705
0.001097121
-0.65924959
-0.00032170074
-0.70409329
-0.00096471002
-0.7519842
-0.0011530119
-0.8033289
-0.0011374378
-0.8583878
-0.0010611562
-0.91735601
-0.00097059549
-0.98043727
-0.00087025219
-1.0478387
-0.00075496559
-1.1198856
-0.00061050544
-1.1968797
-0.00043363872
-1.2793038
-0.00022755925
-1.367518
0.078750788
-0.17040366
-0.10873841
-0.17529028
-0.25501901
-0.17190735
-0.23911797
-0.16593177
-0.1186282
-0.15098223
0.077620173
-0.17190388
0.1997054
-0.20540014
0.19986378
-0.24398931
0.13419009
-0.28183119
0.024832347
-0.31162135
-0.10119583
-0.32635452
-0.15265887
-0.3235565
-0.12774472
-0.3180643
-0.072439061
-0.32655259
-0.025205811
-0.35337452
0.001071014
-0.38742814
0.013466433
-0.42433294
0.016877966
-0.46259833
0.014845513
-0.50114841
0.01037549
-0.53957989
0.0057332281
-0.57822093
0.0021780505
-0.61790798
2.6011802e-05
-0.6595973
-0.00098740408
-0.7040706
-0.0013031466
-0.75183406
-0.0012920102
-0.80317433
-0.0011795655
-0.85826939
-0.0010620197
-0.91726459
-0.00095823868
-0.98034929
-0.00085948982
-1.0477341
-0.00074550498
-1.1197506
-0.00060216063
-1.1967112
-0.00042718491
-1.2791041
-0.00022381123
-1.3672942
0.081629596
-0.16444837
-0.1093042
-0.16983786
-0.26248315
-0.16782614
-0.24784923
-0.16317608
-0.12697548
-0.15758449
0.084037705
-0.15739976
0.21607347
-0.18827196
0.21860595
-0.22414231
0.15036265
-0.26016187
0.031372147
-0.28837099
-0.11004239
-0.30277479
-0.17515741
-0.30385598
-0.153531
-0.29777023
-0.090268117
-0.30023525
-0.028721099
-0.3230373
0.0042934486
-0.35659695
0.019027403
-0.39298911
0.02324211
-0.43069708
0.020749825
-0.46850264
0.014954775
-0.5057277
0.0086641761
-0.54251084
0.0036383726
-0.57968125
0.00047652038
-0.61835849
-0.0010646843
-0.65952002
-0.0015621535
-0.70381159
-0.0015470281
-0.75157905
-0.0013649141
-0.80298898
-0.0011808014
-0.85815061
-0.0010411949
-0.91718163
-0.00093787871
-0.9802709
-0.00084362907
-1.047636
-0.00073280208
-1.11962
-0.00059230907
-1.1965461
-0.00041995147
-1.278908
-0.00021978948
-1.3670744
0.084570531
-0.1589461
-0.1091561
-0.16459647
-0.2685132
-0.16380782
-0.25531726
-0.16035812
-0.13438826
-0.15576329
0.082567588
-0.15611437
0.23122645
-0.17255274
0.23581966
-0.20548567
0.16534508
-0.23912474
0.037051107
-0.26584084
-0.11977093
-0.27864245
-0.19628293
-0.28164927
-0.1792313
-0.27815568
-0.11099843
-0.27703991
-0.034464942
-0.2944914
0.0085535045
-0.32729736
0.025770405
-0.36333996
0.030888525
-0.40063552
0.028004242
-0.4379515
0.020755053
-0.47430292
0.012490389
-0.50955391
0.0055836471
-0.54445611
0.0010573883
-0.58026212
-0.0012280926
-0.61819508
-0.0019914
-0.65909078
-0.0019674353
-0.70339119
-0.0016716051
-0.75127235
-0.0013674519
-0.80280233
-0.0011454096
-0.8580464
-0.0010048115
-0.9171147
-0.00091070742
-0.98020382
-0.00082412577
-1.0475447
-0.00071865675
-1.1194936
-0.0005816183
-1.1963844
-0.00041228169
-1.2787155
-0.0002156588
-1.3668588
0.087525681
-0.153991
-0.10831621
-0.15978599
-0.27308923
-0.16002044
-0.26148507
-0.15764001
-0.14085138
-0.153895
0.081421128
-0.15461684
0.24037772
-0.16526564
0.25135478
-0.18808785
0.17892997
-0.21907056
0.04193979
-0.24401342
-0.12963456
-0.2559772
-0.2158004
-0.25912499
-0.20223781
-0.25864276
-0.13236671
-0.2567874
-0.042785687
-0.26871917
0.013389512
-0.29932741
0.033850896
-0.33537785
0.039857227
-0.37230866
0.036702973
-0.40933425
0.027936841
-0.44513328
0.017394746
-0.47920728
0.0081437824
-0.51211404
0.0018108654
-0.54520959
-0.0015114099
-0.5799788
-0.0026660237
-0.61752046
-0.0026359925
-0.65842222
-0.002170946
-0.70289185
-0.0016763595
-0.75096345
-0.001307696
-0.80264005
-0.0010818406
-0.85796937
-0.00095703414
-0.91706837
-0.00087876518
-0.98014918
-0.00080282128
-1.0474605
-0.00070349589
-1.1193717
-0.00057038742
-1.1962263
-0.00040445441
-1.2785267
-0.00021159205
-1.3666472
0.090487194
-0.1497341
-0.10680381
-0.1555034
-0.27625285
-0.15662237
-0.26635684
-0.15514867
-0.14631778
-0.15217361
0.080552088
-0.15302596
0.24948049
-0.1637196
0.26472334
-0.17863421
0.19100374
-0.20016162
0.04593638
-0.22306715
-0.13935915
-0.23428883
-0.23424578
-0.23753183
-0.22267927
-0.23868353
-0.15284383
-0.23816564
-0.053693441
-0.24587965
0.017846125
-0.27317578
0.043462767
-0.30893928
0.050100394
-0.34562102
0.046884191
-0.38248988
0.036633069
-0.41803048
0.023566112
-0.45130465
0.011476485
-0.48253998
0.0027938079
-0.51309699
-0.0019610255
-0.54475997
-0.0036790338
-0.57896579
-0.0036566605
-0.61649979
-0.0029545298
-0.65763863
-0.0021777892
-0.70239042
-0.0015772357
-0.75069391
-0.0011996175
-0.80252227
-0.00099913925
-0.85792726
-0.00090267926
-0.91704446
-0.00084482976
-0.98010717
-0.00078081577
-1.0473832
-0.0006880251
-1.1192541
-0.0005591763
-1.1960716
-0.00039686906
-1.2783414
-0.00020773144
-1.3664394
0.093465321
-0.14633603
-0.10458167
-0.15195624
-0.27802344
-0.15373281
-0.26994984
-0.15302937
-0.15073053
-0.15073592
0.080014473
-0.15163599
0.2582712
-0.16181668
0.27765758
-0.17665384
0.20651751
-0.19414798
0.049255305
-0.20348054
-0.14866756
-0.21375874
-0.25165123
-0.21688337
-0.24139933
-0.21881177
-0.17158866
-0.21993869
-0.066374875
-0.2254842
0.021045543
-0.24907907
0.05430632
-0.28401933
0.061656133
-0.32049502
0.058510762
-0.35724759
0.046943493
-0.3928003
0.031198439
-0.42566281
0.015771417
-0.45559958
0.0040902735
-0.48383645
-0.0026022504
-0.51245576
-0.0051400188
-0.54329899
-0.005159205
-0.57746325
-0.0041373588
-0.61531696
-0.0029613715
-0.65685505
-0.0020175087
-0.70195014
-0.0013994528
-0.75049407
-0.0010608851
-0.80246052
-0.00090757367
-0.85792237
-0.00084708231
-0.91704221
-0.00081144367
-0.98007654
-0.00075947301
-1.0473118
-0.00067325577
-1.11914
-0.00054863765
-1.1959198
-0.00038976722
-1.2781594
-0.00020417882
-1.3662353
-0.1439362
0.096461581
-0.10163003
-0.14928767
-0.27844673
-0.15153296
-0.27230384
-0.15137882
-0.15413142
-0.14962848
0.079979576
-0.15070102
0.26653367
-0.15989846
0.28989859
-0.17405768
0.22145072
-0.19158705
0.063100185
-0.20799286
-0.15721455
-0.19493356
-0.26782524
-0.19758473
-0.25843763
-0.19984507
-0.18841501
-0.20198543
-0.079361549
-0.20695202
0.022538137
-0.2269768
0.065821042
-0.26059379
0.074497699
-0.2968609
0.07149789
-0.33348215
0.058933732
-0.36923783
0.040483777
-0.40208564
0.021254426
-0.43114582
0.005821574
-0.45733088
-0.0034667618
-0.48297193
-0.0071792302
-0.51041655
-0.0072981623
-0.54116003
-0.0058606165
-0.57573999
-0.0041377278
-0.6141406
-0.0027079372
-0.65616462
-0.0017334916
-0.7016161
-0.001173471
-0.75038149
-0.00090929117
-0.80245881
-0.00081597752
-0.85795347
-0.00079394684
-0.9170597
-0.00078011627
-0.9800559
-0.0007399286
-1.0472451
-0.00065977181
-1.1190289
-0.00053897305
-1.1957706
-0.00038332861
-1.2779802
-0.0002009909
-1.3660343
-0.14748646
-0.098079765
-0.14256875
0.099481039
-0.27767064
-0.15006376
-0.27357301
-0.15026378
-0.15662335
-0.14888688
0.080437809
-0.15008671
0.27422066
-0.15838802
0.30106588
-0.17106575
0.23545904
-0.188066
0.076665289
-0.20515215
-0.1528355
-0.21237191
-0.28286615
-0.17989264
-0.27374921
-0.18227315
-0.20334477
-0.18491531
-0.091560598
-0.18978638
0.022495892
-0.20690977
0.077509081
-0.23866483
0.088525559
-0.27462165
0.085708143
-0.31107115
0.072594268
-0.34714268
0.051599523
-0.38035357
0.028186869
-0.40901808
0.0081545351
-0.43347878
-0.0045662713
-0.45623137
-0.0099460633
-0.4802051
-0.010268464
-0.50744625
-0.0082944553
-0.53872619
-0.0058396498
-0.57403807
-0.0037441326
-0.61310441
-0.0022652913
-0.65563282
-0.0013749194
-0.70141466
-0.00092755874
-0.75036322
-0.00075855326
-0.80251623
-0.00072890801
-0.85801851
-0.00074501609
-0.9170948
-0.0007522468
-0.98004358
-0.00072264374
-1.0471822
-0.00064795164
-1.1189199
-0.0005305266
-1.1956234
-0.0003776882
-1.2778035
-0.00019819974
-1.3658361
-0.14925618
-0.27590092
-0.14669324
-0.093955271
-0.14244024
0.10237728
-0.27400419
-0.14963258
-0.15826483
-0.1486223
0.081313071
-0.14976215
0.28135288
-0.15721892
0.31073055
-0.16805269
0.24814507
-0.18375179
0.089440307
-0.20084102
-0.14729386
-0.21069379
-0.29131419
-0.20392387
-0.28748397
-0.16615789
-0.21650605
-0.16911187
-0.10250217
-0.17397374
0.021481456
-0.18877194
0.088912737
-0.21831343
0.10356761
-0.25370689
0.10099273
-0.28990624
0.08783882
-0.3263157
0.064692749
-0.36023591
0.036853175
-0.38901988
0.011324682
-0.41218823
-0.0058901715
-0.43215488
-0.013614982
-0.45256245
-0.014301019
-0.47617255
-0.011644768
-0.50409593
-0.0082233459
-0.5363425
-0.0052372958
-0.57254491
-0.0030692653
-0.61230043
-0.001710476
-0.65529727
-0.00098609535
-0.70135612
-0.00068387765
-0.75043789
-0.0006164644
-0.80262867
-0.00064974854
-0.85811378
-0.00070270919
-0.91714434
-0.00072898412
-0.98003724
-0.00070837742
-1.0471218
-0.00063822044
-1.1188122
-0.00052345251
-1.1954776
-0.00037287404
-1.2776289
-0.00019579349
-1.3656403
-0.14970374
-0.27355664
-0.14966207
-0.27293209
-0.14672052
-0.089674995
-0.14311596
0.10519437
-0.15897938
-0.14891803
0.082672482
-0.14998171
0.2878949
-0.15630417
0.31879759
-0.16528596
0.25915177
-0.17905939
0.10101358
-0.19532506
-0.14120323
-0.20693165
-0.29846329
-0.20354469
-0.30166732
-0.18974052
-0.22811391
-0.15455002
-0.11210375
-0.15951029
0.01991428
-0.17240656
0.099751427
-0.19961063
0.11932074
-0.23406656
0.11719432
-0.26990848
0.10451982
-0.30658724
0.079863337
-0.34148629
0.047564326
-0.37094706
0.015601175
-0.39329637
-0.0074472277
-0.41063117
-0.018389183
-0.42738068
-0.019670145
-0.44719333
-0.016151082
-0.47166623
-0.011468489
-0.50085079
-0.0073122949
-0.5342675
-0.0042289857
-0.57138519
-0.0022309963
-0.61177991
-0.0011118042
-0.65517156
-0.00060209631
-0.7014379
-0.00045636272
-0.750598
-0.00048878063
-0.80278964
-0.00058310975
-0.85823338
-0.00066934615
-0.91720398
-0.00071128562
-0.98003433
-0.00069772554
-1.0470623
-0.00063076218
-1.1187049
-0.0005177476
-1.1953328
-0.00036886924
-1.2774558
-0.00019374238
-1.3654465
-0.15015723
-0.15852588
-0.15131398
-0.27190473
-0.15061583
-0.26903677
-0.14751553
-0.085275421
-0.14463893
0.10770919
0.084727948
-0.1509735
0.2937478
-0.15583461
0.32541971
-0.1629263
0.26807865
-0.17421284
0.11117304
-0.18921884
-0.1345062
-0.20202209
-0.30421616
-0.20117879
-0.31442587
-0.19078614
-0.24674938
-0.17110505
-0.12043136
-0.14622242
0.018121737
-0.15771774
0.10983264
-0.18248778
0.13541369
-0.21570359
0.13410755
-0.25097979
0.12239731
-0.28778596
0.097045538
-0.32376944
0.060537711
-0.35445968
0.021302976
-0.37664886
-0.0091143757
-0.39162923
-0.024475641
-0.40454472
-0.026705704
-0.42034512
-0.022097051
-0.44124736
-0.015776174
-0.46735855
-0.010105205
-0.49805788
-0.0058330305
-0.53266345
-0.0029907839
-0.5706254
-0.0013326514
-0.61155907
-0.0005232451
-0.65525041
-0.00024643015
-0.70164783
-0.00025409561
-0.75083268
-0.00038240078
-0.80299035
-0.00053207585
-0.85837065
-0.00064568395
-0.91726958
-0.00069967953
-0.98003238
-0.0006908093
-1.0470022
-0.00062549523
-1.1185972
-0.00051338571
-1.1951883
-0.00036560869
-1.2772839
-0.00019200198
-1.3652545
-0.15287891
0.087449633
-0.15277701
-0.15706285
-0.15344596
-0.2690746
-0.15226071
-0.2642916
-0.14893638
-0.080977978
-0.14684134
0.10969825
0.29877105
-0.15599675
0.33058867
-0.16100356
0.27476699
-0.16961463
0.11950125
-0.18254106
-0.127621
-0.19610404
-0.30850549
-0.19773275
-0.32554699
-0.19005766
-0.26384639
-0.17368912
-0.14205517
-0.14948124
0.016321035
-0.14442172
0.11900657
-0.16689168
0.15152463
-0.19859871
0.15145257
-0.2330486
0.14108413
-0.26966662
0.11582406
-0.30656448
0.075521769
-0.3387535
0.028449212
-0.36160591
-0.010832574
-0.37493066
-0.032110008
-0.38399486
-0.035789622
-0.3954608
-0.029810216
-0.41263195
-0.021365119
-0.43565841
-0.013757541
-0.46370621
-0.0079692181
-0.49592169
-0.0040436274
-0.53161061
-0.0016753911
-0.57028266
-0.00045467355
-0.61162764
1.7753494e-05
-0.6555146
6.6085969e-05
-0.70196802
-8.6169281e-05
-0.75112891
-0.0003019463
-0.80322048
-0.00049740679
-0.85851892
-0.00063193495
-0.91733732
-0.00069405756
-0.98002913
-0.00068739805
-1.0469403
-0.00062232967
-1.1184882
-0.00051022323
-1.1950436
-0.0003629854
-1.2771129
-0.00019050902
-1.365064
-0.15684434
0.30273647
-0.15544513
0.090117756
-0.15625158
-0.15425723
-0.15637215
-0.26496316
-0.15457872
-0.25864926
-0.15091755
-0.076901775
-0.14962579
0.11119932
0.33420777
-0.15961585
0.27925217
-0.16548874
0.12584216
-0.17595554
-0.1210564
-0.18910567
-0.31152065
-0.19308888
-0.33506958
-0.18821016
-0.27935753
-0.17454652
-0.1622999
-0.15344439
-0.0021905738
-0.13096963
0.12778244
-0.15319758
0.16727838
-0.18264543
0.16891617
-0.21606232
0.1600805
-0.25204496
0.1352626
-0.28910516
0.09152509
-0.32256781
0.036211462
-0.34651575
-0.013294853
-0.35914363
-0.041754645
-0.36528603
-0.047377328
-0.37240715
-0.039668612
-0.3856024
-0.028465066
-0.40553201
-0.018405395
-0.43101056
-0.010720311
-0.46095512
-0.0054349896
-0.49453033
-0.0021617049
-0.53112429
-0.00039967472
-0.57033766
0.00034590706
-0.61195579
0.00048982749
-0.65593834
0.00032556742
-0.70237975
4.0473568e-05
-0.75147133
-0.00024823456
-0.80346965
-0.00047885097
-0.85867201
-0.0006277399
-0.91740364
-0.00069400608
-0.98002252
-0.00068727132
-1.0468754
-0.00062104909
-1.1183774
-0.00050808601
-1.1948985
-0.0003608788
-1.2769426
-0.00018920613
-1.3648748
-0.15887435
0.33623778
-0.15775075
0.30504209
-0.15927605
0.09314222
-0.16056882
-0.15006056
-0.1600712
-0.25947068
-0.15762603
-0.25194077
-0.15359733
-0.072930235
-0.15286724
0.11215335
0.28162345
-0.16198713
0.12997349
-0.16962007
-0.11523411
-0.18177783
-0.31292714
-0.18769918
-0.34280347
-0.18535499
-0.29315554
-0.17441215
-0.18097891
-0.15586752
-0.021001852
-0.13463311
0.12244071
-0.12562791
0.18253456
-0.16845375
0.18614814
-0.1998774
0.17883286
-0.23481468
0.15445813
-0.27124049
0.10695301
-0.30453308
0.043510181
-0.32986652
-0.018344187
-0.34146642
-0.054860114
-0.34603817
-0.062102377
-0.35056098
-0.052117465
-0.3599583
-0.037314376
-0.37675309
-0.02416537
-0.39977203
-0.014152679
-0.42757819
-0.0071981404
-0.45919197
-0.0028042612
-0.49388778
-0.0003527143
-0.53117125
0.00075604409
-0.57074779
0.0010394991
-0.61250546
0.0008782169
-0.65649099
0.00052089762
-0.70286018
0.00012460648
-0.75184418
-0.00022029191
-0.80372821
-0.00047551202
-0.85882424
-0.00063231103
-0.91746534
-0.0006989895
-0.9800108
-0.00068998682
-1.0468065
-0.0006212946
-1.1182642
-0.00050675487
-1.1947527
-0.00035915414
-1.2767726
-0.00018802529
-1.3646868
-0.15920726
0.28195636
-0.15807224
0.33655928
-0.16022226
0.3059883
-0.16376007
0.096333464
-0.16551972
-0.14461204
-0.16450591
-0.2525908
-0.1612799
-0.24425821
-0.15676523
-0.069032242
-0.15652064
0.11247871
0.13184377
-0.16385741
-0.11027924
-0.17457493
-0.31272485
-0.18198012
-0.34866105
-0.1818416
-0.30503397
-0.17347656
-0.19798032
-0.15741074
-0.039185569
-0.1376838
0.11576746
-0.12795986
0.18898197
-0.13207532
0.20289833
-0.18520394
0.19690553
-0.21795007
0.17284817
-0.25320472
0.1214377
-0.28572518
0.049938179
-0.31096108
-0.026773051
-0.32143766
-0.073358888
-0.32296764
-0.080841457
-0.32729909
-0.067526748
-0.3351517
-0.048164549
-0.34910813
-0.031123138
-0.36979533
-0.018302739
-0.39562197
-0.0093486716
-0.42542766
-0.0035997213
-0.45839651
-0.00030078825
-0.4939397
0.001271879
-0.53168709
0.0017467214
-0.57145502
0.0016055386
-0.61323279
0.0011708968
-0.65714099
0.00065071144
-0.70338628
0.00016895004
-0.75223342
-0.00021634073
-0.80398738
-0.00048593603
-0.85897061
-0.00064461747
-0.91751971
-0.00070826759
-0.97999252
-0.00069498832
-1.0467328
-0.00062275041
-1.1181482
-0.00050601661
-1.1946058