/*--------------------------------*- C++ -*----------------------------------*\
| =========                 |                                                 |
| \\      /  F ield         | OpenFOAM: The Open Source CFD Toolbox           |
|  \\    /   O peration     | Version:  5.0                                   |
|   \\  /    A nd           | Web:      www.OpenFOAM.org                      |
|    \\/     M anipulation  |                                                 |
\*---------------------------------------------------------------------------*/
FoamFile
{
    version     2.0;
    format      ascii;
    class       volScalarField;
    location    "180";
    object      pMean;
}
// * * * * * * * * * * * * * * * * * * * * * * * * * * * * * * * * * * * * * //

dimensions      [0 2 -2 0 0 0 0];

internalField   nonuniform List<scalar> 
9200
(
0.00033942765
0.00036295063
0.00086111993
0.0003924572
0.00091269343
0.0013780698
0.00044121296
0.00097819505
0.0014544273
0.0017959924
0.00050563927
0.0010799796
0.0015614959
0.0018927778
0.0021503743
0.00058399663
0.0012092257
0.0017203098
0.0020333746
0.0022637235
0.0024202326
0.00068191001
0.0013569336
0.0019198615
0.0022354331
0.0024325606
0.002545011
0.002609492
0.00079414524
0.0015270516
0.0021442844
0.0024894503
0.0026704749
0.0027366948
0.0027430236
0.0027228102
0.00091490911
0.0017067955
0.0023944336
0.0027748287
0.0029690679
0.0030030061
0.0029534538
0.0028612523
0.0027637762
0.0010336951
0.001890623
0.002651936
0.003091194
0.0033017906
0.0033385217
0.0032420647
0.0030857228
0.002904189
0.0027395584
0.0011305258
0.002060935
0.0029076422
0.0034151108
0.0036670308
0.0037118054
0.0036074602
0.0033908441
0.0031386142
0.002878451
0.0026557559
0.0011395655
0.0021860736
0.0031345686
0.003730151
0.0040377747
0.0041218793
0.0040144575
0.0037806588
0.0034544278
0.0031182823
0.0027898584
0.0025204369
0.00098241144
0.0022191265
0.0032932494
0.0040059684
0.0043970606
0.0045400349
0.004463452
0.0042166516
0.0038622784
0.0034385295
0.0030303719
0.0026461168
0.0023401105
0.00066073511
0.0021216292
0.0033404196
0.0042071826
0.0047157106
0.0049498494
0.0049242514
0.004700943
0.004320631
0.0038578741
0.0033484766
0.0028821564
0.0024538661
0.0021237386
0.00024467271
0.0018708301
0.0032453922
0.0042912331
0.0049616835
0.0053211255
0.0053816945
0.005203236
0.0048349272
0.0043323553
0.003771646
0.0031908719
0.0026801716
0.0022218459
0.0018776168
-0.00016886725
0.0014343801
0.0029559711
0.0042130337
0.0050902891
0.0056228038
0.0058060741
0.005709065
0.0053751955
0.0048706958
0.0042540166
0.0036093598
0.0029720049
0.0024327284
0.001956682
0.0016109216
-0.00057260357
0.00084562404
0.0024107847
0.0039221826
0.0050527446
0.005811277
0.0061682847
0.0061904786
0.0059278656
0.0054435149
0.0048084612
0.0040907278
0.0033766604
0.0026995539
0.0021467602
0.0016676154
0.0013296284
-0.00097285238
0.00017952852
0.0016612404
0.0033697635
0.0047975737
0.005835479
0.0064259354
0.0066192395
0.0064667324
0.0060394604
0.0054074914
0.0046520028
0.0038465863
0.0030804112
0.0023806295
0.0018313721
0.0013607701
0.0010422417
-0.0013433923
-0.00047710458
0.00083086968
0.0025843514
0.0042811637
0.0056427265
0.0065278872
0.0069544233
0.006963493
0.0066339207
0.0060410542
0.0052671993
0.0044034903
0.0035274411
0.0027275846
0.0020240812
0.0014931263
0.0010451066
0.00075445326
-0.0016625366
-0.0010558014
-1.4069486e-05
0.0016780734
0.0035101012
0.0051951773
0.0064191294
0.0071453494
0.0073809615
0.007199995
0.0066862752
0.0059293423
0.005023783
0.0040672888
0.0031395648
0.0023265525
0.0016372686
0.0011413405
0.0007266218
0.00047316696
-0.0019521746
-0.0015610806
-0.00080434112
0.00072323195
0.0025692156
0.0044767307
0.0060571887
0.007137751
0.0076688361
0.0077023477
0.0073185472
0.0066179116
0.0057034106
0.0046788904
0.0036484738
0.002690774
0.0018851531
0.0012297605
0.00078233014
0.00041277964
0.00020343504
-0.0021345143
-0.0019630737
-0.001510532
-0.00020641885
0.0015477233
0.003542798
0.0054159586
0.0068697745
0.0077714741
0.0080933894
0.0079048004
0.00731027
0.0064247404
0.0053618353
0.004236174
0.0031537396
0.0021890716
0.0014131189
0.00080851366
0.00042444548
0.00010898517
-4.9694429e-05
-0.0021710366
-0.002232652
-0.0021395673
-0.0010678566
0.00051765826
0.0024910927
0.0045265224
0.0063217691
0.0076187606
0.0083135954
0.0084004008
0.0079759967
0.0071673312
0.006101307
0.0049061617
0.0037007168
0.0025910356
0.0016442613
0.00091859631
0.00038300892
7.3578868e-05
-0.00017908978
-0.00028224519
-0.0021155569
-0.0023740891
-0.0027029096
-0.0018897548
-0.00046927133
0.0013917873
0.0034769679
0.0055096368
0.0071821082
0.0082989759
0.0087441641
0.0085732676
0.0079032615
0.0068804334
0.0056468513
0.0043389881
0.00307964
0.0019698465
0.0010655067
0.00041188531
-4.0161069e-05
-0.00026362068
-0.000447107
-0.00049079663
-0.0020367218
-0.0024607347
-0.0031725694
-0.0027033266
-0.0014307111
0.00030033649
0.0023311506
0.0044855521
0.0064590187
0.0079884586
0.0088755041
0.0090447603
0.0085959126
0.0076743815
0.0064448666
0.0050608382
0.0036662327
0.0023819345
0.0013001813
0.00046384533
-9.9352719e-05
-0.0004528657
-0.00058214708
-0.00069122427
-0.00067281379
-0.0019631644
-0.0025856323
-0.003586811
-0.0034455046
-0.0024209734
-0.00078282173
0.0011565839
0.0033190311
0.0054800502
0.0073640383
0.0087106389
0.0093230296
0.0091913869
0.008449856
0.0072793531
0.0058566613
0.0043473636
0.0028959309
0.0016180771
0.0005938534
-0.0001513615
-0.00060530958
-0.00084926884
-0.00087722302
-0.00090846829
-0.00082646231
-0.0019187407
-0.0027404318
-0.0039969192
-0.0041232796
-0.0034058548
-0.0019244191
-4.1777127e-05
0.0020741557
0.0043116407
0.0064553992
0.0082149694
0.0093314589
0.0096182148
0.0091593653
0.0081200051
0.0067092658
0.0051169422
0.0035122897
0.0020384942
0.00080052173
-0.0001380579
-0.00076888311
-0.0010990717
-0.0012231616
-0.001145164
-0.0010965709
-0.00095037392
-0.0019121627
-0.002961659
-0.004442744
-0.0047820983
-0.0043306495
-0.0031265479
-0.0013311497
0.0007740252
0.0030115764
0.0053083701
0.0074074301
0.009001565
0.0098093863
0.0097327127
0.0089257615
0.0075935162
0.0059623249
0.0042291674
0.0025655768
0.0011066078
-5.811042e-05
-0.00088287149
-0.0013800406
-0.0015724372
-0.0015698866
-0.0013829835
-0.0012539018
-0.0010435454
-0.0019431497
-0.0032497938
-0.0049450561
-0.0054847293
-0.005225536
-0.0042816904
-0.0027282715
-0.0006476875
0.0016128977
0.003972865
0.0063140352
0.0083157369
0.0096675414
0.010095528
0.0096341249
0.0084720874
0.0068624508
0.0050385447
0.0032021486
0.0015199676
0.00011423841
-0.00094351141
-0.001629731
-0.0019746341
-0.0020196948
-0.0018851934
-0.0015884301
-0.0013793844
-0.0011060252
-0.0020033416
-0.0035927108
-0.0054913905
-0.0062234952
-0.0061710034
-0.0054120392
-0.0041215242
-0.0022193934
5.9998012e-05
0.0024811988
0.0049793956
0.0073053753
0.0091386454
0.01016334
0.010161185
0.0092911547
0.0077856613
0.0059237919
0.0039446475
0.0020478361
0.00039048731
-0.00092261809
-0.0018423732
-0.0023663563
-0.0025455041
-0.0024349445
-0.0021659847
-0.0017599636
-0.0014726187
-0.0011392422
-0.0021008332
-0.0039663335
-0.0060500099
-0.0069813827
-0.0071499419
-0.0065973055
-0.0055034044
-0.0038611073
-0.0016909694
0.00080228618
0.0034227613
0.0060070827
0.0082517469
0.009838738
0.01043625
0.0099706827
0.0086853154
0.0068587538
0.0047809898
0.0026908424
0.00078169073
-0.00080536771
-0.0019881009
-0.0027401754
-0.0030830848
-0.0030842977
-0.0028140139
-0.0024098749
-0.0018967897
-0.0015339141
-0.0011444441
-0.0022147451
-0.004363313
-0.006619711
-0.0077456495
-0.0081377896
-0.0078207059
-0.0069370565
-0.0055138597
-0.0035894952
-0.0011202805
0.0016443462
0.0044246591
0.0070220872
0.0091071848
0.010340421
0.010424395
0.0094905639
0.0078024641
0.0056900395
0.0034419958
0.0012929116
-0.00057742959
-0.0020494553
-0.0030652365
-0.0036244123
-0.0037694299
-0.0035854342
-0.0031529226
-0.0026152161
-0.0019987272
-0.001563924
-0.0011207534
-0.0022965742
-0.0047839668
-0.0072099585
-0.00851832
-0.0091277176
-0.0090522326
-0.0084113268
-0.0072032542
-0.0055306896
-0.0032658581
-0.00041924605
0.0025849206
0.0054586746
0.0079759831
0.0097989711
0.01056497
0.010103677
0.0086948883
0.0066374431
0.0042850477
0.0019215489
-0.00022960976
-0.0020090046
-0.0033218582
-0.0041384335
-0.0044821727
-0.0044177947
-0.0040431077
-0.0034490938
-0.0027811833
-0.0020660618
-0.0015632998
-0.0010677429
-0.0023167424
-0.0051599742
-0.0078394002
-0.0093108786
-0.010122362
-0.010280405
-0.0098915353
-0.0089311605
-0.0075032267
-0.0055119035
-0.0027857247
0.00041778632
0.003594727
0.0064711993
0.0088080567
0.010255891
0.010449069
0.0094418372
0.0075707972
0.0051916492
0.0026571764
0.00023980851
-0.0018539446
-0.003490263
-0.0046036555
-0.0051917176
-0.0053030629
-0.0050201716
-0.0044537976
-0.0037008112
-0.0029076037
-0.0020994357
-0.0015331114
-0.00098679017
-0.0023038625
-0.0054632255
-0.008419616
-0.010148992
-0.011135047
-0.011507766
-0.011358934
-0.010666255
-0.0095039554
-0.0077924846
-0.0053316695
-0.0021300857
0.0013495498
0.0046195704
0.0073881567
0.0094437079
0.010394561
0.0099471736
0.0084098637
0.0061167132
0.0034761423
0.00082556787
-0.0015785943
-0.0035546112
-0.0049987361
-0.0058754563
-0.0062113772
-0.006076672
-0.0055713536
-0.0048140845
-0.0039072456
-0.0029948676
-0.0020997776
-0.0014744818
-0.00088175503
-0.0022829264
-0.0057210383
-0.0089074373
-0.01096495
-0.012206584
-0.01275704
-0.012818144
-0.012383707
-0.011512999
-0.010084247
-0.007914153
-0.0049256697
-0.001321045
0.0023458704
0.0055744905
0.0081355094
0.0098007199
0.010126635
0.0090460097
0.0069934117
0.0043409739
0.0015092673
-0.0011837643
-0.0035055038
-0.0053051891
-0.0065110771
-0.0071198224
-0.0071840964
-0.0067952903
-0.0060660853
-0.0051223992
-0.0040681753
-0.0030439273
-0.0020685536
-0.0013881086
-0.00075673339
-0.0022645265
-0.0059588949
-0.0093183617
-0.01170152
-0.013270669
-0.014072057
-0.01429827
-0.014080505
-0.013497488
-0.012391287
-0.010514151
-0.007795936
-0.004300545
-0.00039082994
0.0033119724
0.0063789682
0.008647833
0.0097869823
0.0093900984
0.0077190934
0.0051943447
0.0022600095
-0.00068228855
-0.0033396227
-0.0055104838
-0.0070780675
-0.0080056639
-0.0083198414
-0.0080991949
-0.0074516495
-0.0065015823
-0.0053775004
-0.0041841119
-0.0030561127
-0.0020080154
-0.0012766586
-0.00061379756
-0.0022613548
-0.0061673827
-0.0097007403
-0.012336544
-0.014264246
-0.01538966
-0.015852964
-0.015797509
-0.015454015
-0.014672057
-0.013129164
-0.010691723
-0.0074154439
-0.0034946344
0.00055339567
0.0041469711
0.0069731914
0.0088290135
0.0093018882
0.0081714502
0.0059460018
0.0030271069
-9.9620138e-05
-0.0030651847
-0.0056080481
-0.0075616561
-0.0088471156
-0.0094615298
-0.0094613417
-0.0089468933
-0.0080410174
-0.0068752089
-0.0055795129
-0.004256136
-0.0030330209
-0.001920091
-0.0011429836
-0.0004555554
-0.0022730004
-0.0063512936
-0.010040231
-0.012914545
-0.015142848
-0.016657785
-0.017413702
-0.017592758
-0.017420391
-0.016915151
-0.015718626
-0.013599068
-0.010572318
-0.0068016444
-0.002629652
0.0013916763
0.0047801798
0.0072774426
0.0085844133
0.0082647347
0.006468768
0.003734719
0.00052084175
-0.0027024613
-0.0056014336
-0.007952043
-0.0096276093
-0.010586574
-0.010860321
-0.010531405
-0.0097199774
-0.0085592546
-0.0071863833
-0.0057289677
-0.0042860342
-0.0029767431
-0.0018067955
-0.00098926126
-0.0002835711
-0.0023037198
-0.0065132992
-0.01033299
-0.013429448
-0.015923188
-0.017803487
-0.018953567
-0.019400037
-0.019474532
-0.01915238
-0.018263806
-0.016485561
-0.013747628
-0.010197992
-0.0060894874
-0.0018456073
0.0020452833
0.0051420474
0.0072003721
0.0077936777
0.0066522942
0.0042694126
0.0011131743
-0.0022874385
-0.0055056212
-0.0082489104
-0.010334724
-0.011677248
-0.012273415
-0.012185271
-0.011519856
-0.010412348
-0.0090044657
-0.0074348219
-0.0058273661
-0.0042757363
-0.0028895441
-0.0016702798
-0.00081783089
-9.8062007e-05
-0.0066560099
-0.0023639169
-0.010572823
-0.013871038
-0.016633285
-0.018813606
-0.020367518
-0.021198498
-0.021531613
-0.02148697
-0.020795589
-0.01932146
-0.016914446
-0.013630858
-0.0097005555
-0.0054249677
-0.001221539
0.0024372477
0.0051452904
0.0066131847
0.0063653702
0.0044845475
0.0015794077
-0.0018789271
-0.0053517451
-0.0084627016
-0.010964733
-0.01271904
-0.013682245
-0.013886377
-0.013422662
-0.012418064
-0.011020372
-0.0093755057
-0.0076217578
-0.0058764152
-0.0042275193
-0.0027737619
-0.0015126547
-0.00063078922
0.00010024461
-0.010754807
-0.0067668688
-0.0024588748
-0.01422746
-0.017247575
-0.019738107
-0.021621885
-0.022873678
-0.023581071
-0.023810987
-0.023440919
-0.022138412
-0.02003033
-0.017056134
-0.013368228
-0.0092000958
-0.0048920851
-0.00083899298
0.0024763691
0.0046746738
0.0054033699
0.0042771462
0.0017735622
-0.0015629447
-0.0051903715
-0.0086189738
-0.011523955
-0.013705531
-0.015070734
-0.015616113
-0.015407589
-0.014560858
-0.013220094
-0.011541507
-0.0096728497
-0.007748548
-0.0058786766
-0.0041439444
-0.0026318317
-0.0013360068
-0.00042994187
0.00030974568
-0.014475208
-0.010859545
-0.0068368873
-0.0025771017
-0.017739982
-0.020538767
-0.022755201
-0.024376158
-0.025519296
-0.026125318
-0.026055006
-0.025092104
-0.023133653
-0.020430625
-0.017042102
-0.013083075
-0.0088079664
-0.0045791344
-0.00079752471
0.0020519496
0.0036105057
0.0034862058
0.001552619
-0.0014666311
-0.0050988872
-0.0087625586
-0.012033062
-0.014639112
-0.016430199
-0.017357498
-0.017456142
-0.016821436
-0.015591076
-0.013921602
-0.011975071
-0.0098973419
-0.0078177523
-0.0058367948
-0.0040277094
-0.0024661953
-0.0011424308
-0.00021681096
0.00052884673
-0.018082246
-0.014591485
-0.010873576
-0.0068685684
-0.0027145786
-0.02119364
-0.023745077
-0.025715996
-0.027258339
-0.02832313
-0.028658844
-0.028006593
-0.026380274
-0.023811839
-0.020670417
-0.016995519
-0.012881395
-0.0086216948
-0.0045989966
-0.0012125993
0.0010406786
0.0018404072
0.00081345644
-0.0017599873
-0.0051874861
-0.0089626042
-0.012531498
-0.015536155
-0.017759656
-0.01909982
-0.019550949
-0.019182304
-0.018115809
-0.01650655
-0.014520486
-0.012321518
-0.010051367
-0.0078320697
-0.0057538028
-0.0038815156
-0.0022792675
-0.00093407969
6.7684477e-06
0.00075602006
-0.021664361
-0.018253812
-0.014568467
-0.01080678
-0.0068562238
-0.0028579801
-0.024558849
-0.026879134
-0.02877365
-0.03027873
-0.031138602
-0.030910817
-0.029597946
-0.027357535
-0.024321701
-0.02085303
-0.017013722
-0.012856816
-0.008754012
-0.0050735411
-0.0022230447
-0.00067227065
-0.00069736493
-0.0025651178
-0.005617502
-0.0093167642
-0.013080844
-0.016430579
-0.019071386
-0.020839412
-0.021679825
-0.021626077
-0.020778534
-0.01928119
-0.017303299
-0.015016217
-0.012582559
-0.0101377
-0.0077948717
-0.0056327424
-0.0037081273
-0.0020734303
-0.00071290526
0.00023907592
0.00098963616
-0.025154169
-0.021921506
-0.018247136
-0.014412018
-0.010661934
-0.0067889047
-0.0029931216
-0.027838634
-0.030088796
-0.031958019
-0.033316312
-0.033681444
-0.032794118
-0.030873231
-0.028150075
-0.024759854
-0.021097472
-0.017192773
-0.013139691
-0.0093435349
-0.0061457364
-0.0039577496
-0.0031511799
-0.004047577
-0.0065672005
-0.0099678784
-0.013769474
-0.017377592
-0.020394151
-0.022584236
-0.023836568
-0.024139433
-0.023562184
-0.022231812
-0.020311142
-0.017979301
-0.01540968
-0.012760927
-0.010159904
-0.0077095248
-0.005476865
-0.003510365
-0.0018510667
-0.00048079741
0.00047856736
0.0012282815
-0.028539187
-0.025488733
-0.021952816
-0.018059729
-0.014124672
-0.010433688
-0.0066579682
-0.003088171
-0.031161264
-0.033398829
-0.035151209
-0.036103662
-0.035853396
-0.034364636
-0.031958088
-0.028845327
-0.025238408
-0.021486801
-0.017655151
-0.01387851
-0.010542277
-0.0079757544
-0.0064923133
-0.0064561548
-0.0081612114
-0.011110586
-0.014725274
-0.018457245
-0.021776088
-0.0243583
-0.026025422
-0.026713955
-0.026452793
-0.025342223
-0.023532776
-0.021201621
-0.018534486
-0.015703138
-0.012860257
-0.010121736
-0.0075797458
-0.0052894669
-0.0032911622
-0.0016145125
-0.00023940681
0.00072392652
0.0014706678
-0.031928783
-0.028928899
-0.025543642
-0.021754438
-0.017693277
-0.013711351
-0.010111847
-0.0064561556
-0.0031230596
-0.034551888
-0.036705922
-0.038112866
-0.038535639
-0.037715296
-0.035748744
-0.032934551
-0.029552803
-0.02585035
-0.022168146
-0.018576065
-0.015249772
-0.012539506
-0.010642433
-0.0098528958
-0.010586723
-0.012905264
-0.016127818
-0.019785151
-0.02329219
-0.026203363
-0.028265175
-0.029350411
-0.029440082
-0.028598256
-0.026953316
-0.024674873
-0.021951052
-0.018970356
-0.01590021
-0.012884613
-0.010027325
-0.0074094611
-0.0050741632
-0.0030532651
-0.0013656043
9.9226272e-06
0.00097382508
0.0017155791
-0.035349316
-0.032328223
-0.028981379
-0.025321994
-0.021332439
-0.017157672
-0.013167554
-0.0096906828
-0.0061631181
-0.0030383229
-0.037919566
-0.039798853
-0.040740068
-0.040665828
-0.039389071
-0.037015403
-0.033889221
-0.030356705
-0.026732157
-0.023309514
-0.020153177
-0.017465873
-0.015427548
-0.01415208
-0.014045336
-0.015482174
-0.018178152
-0.021519668
-0.025044676
-0.028187493
-0.030591801
-0.032062594
-0.032521463
-0.031988212
-0.030558928
-0.028386013
-0.025654361
-0.022560008
-0.019289858
-0.016005057
-0.012838461
-0.0098812587
-0.0072030578
-0.0048342322
-0.0027986981
-0.0011056952
0.00026556998
0.0012264957
0.0019618236
-0.038723225
-0.035720812
-0.032333283
-0.028704475
-0.024832414
-0.020689081
-0.016458024
-0.012488156
-0.00913082
-0.0057138458
-0.0028192129
-0.041086359
-0.042568591
-0.043107714
-0.042613368
-0.040942311
-0.038242143
-0.034913837
-0.031391436
-0.028075677
-0.025131864
-0.022618724
-0.020641946
-0.019199213
-0.018500729
-0.019045639
-0.02102396
-0.023877326
-0.027179239
-0.030405066
-0.033065352
-0.034880281
-0.035705762
-0.035506324
-0.034336968
-0.032321923
-0.029634038
-0.026470489
-0.023030705
-0.019497208
-0.016022568
-0.012727056
-0.0096887275
-0.0069644275
-0.0045719146
-0.0025288397
-0.00083691446
0.00052481106
0.0014802123
0.0022088257
-0.04189945
-0.039039194
-0.035637542
-0.031955315
-0.028116314
-0.024072342
-0.019838113
-0.01557945
-0.011625999
-0.0083769011
-0.0050948072
-0.0025291377
-0.043943847
-0.04510551
-0.045307041
-0.044446153
-0.042439971
-0.039503335
-0.036118748
-0.032853475
-0.030113964
-0.027876739
-0.026114899
-0.024776324
-0.023833492
-0.023696155
-0.024789595
-0.027052423
-0.029898611
-0.032987283
-0.035772492
-0.037855742
-0.039016831
-0.039156871
-0.038279089
-0.036469696
-0.033878345
-0.030694602
-0.027124543
-0.023366687
-0.019597576
-0.015958591
-0.01255648
-0.0094544359
-0.0066959874
-0.0042886066
-0.0022466007
-0.00056360636
0.00078520578
0.001735422
0.0024688346
-0.044784973
-0.04216377
-0.038841537
-0.035116264
-0.031219021
-0.027208232
-0.023055132
-0.018744826
-0.014461654
-0.010562466
-0.0074409445
-0.0043939039
-0.0022087891
-0.046598695
-0.047492959
-0.047387275
-0.046217721
-0.043949136
-0.040914847
-0.037721259
-0.034999206
-0.033084404
-0.031731902
-0.030657811
-0.029830233
-0.029312991
-0.029666766
-0.031141933
-0.03342274
-0.036116117
-0.038832409
-0.041065987
-0.042498388
-0.042957145
-0.04238485
-0.040818891
-0.038374342
-0.035222855
-0.031567577
-0.027619254
-0.023573047
-0.019597405
-0.015820245
-0.012332345
-0.0091809471
-0.0063991829
-0.0039883342
-0.0019585433
-0.00028929445
0.0010490538
0.002009811
0.002745705
-0.047495072
-0.045012981
-0.041851728
-0.038149381
-0.034186398
-0.030119972
-0.02597582
-0.021708279
-0.017358951
-0.013118403
-0.009331245
-0.006437719
-0.0036564965
-0.0018495466
-0.049130817
-0.049772957
-0.049396476
-0.047986103
-0.045574121
-0.042683455
-0.039979913
-0.038074305
-0.037184603
-0.036730942
-0.036206277
-0.035743417
-0.035582544
-0.03630033
-0.037895096
-0.040023615
-0.042406756
-0.044621133
-0.046218102
-0.046942902
-0.046665503
-0.045364939
-0.043110401
-0.040042936
-0.036353221
-0.032254685
-0.027959133
-0.023656806
-0.019504643
-0.015613875
-0.012057341
-0.0088698181
-0.0060796053
-0.0036805471
-0.0016694824
-8.3666291e-06
0.0013425917
0.0023011308
0.0030323538
-0.050109226
-0.047712502
-0.044601283
-0.040988874
-0.037001681
-0.032862138
-0.028617472
-0.024342864
-0.020025437
-0.01572594
-0.011615073
-0.0080635426
-0.005396703
-0.0028593292
-0.0014632725
-0.051575797
-0.051978221
-0.051379314
-0.049836454
-0.047527665
-0.045075728
-0.043183807
-0.042324712
-0.042510283
-0.042839644
-0.042673588
-0.042427597
-0.042552074
-0.043426186
-0.044897302
-0.046725733
-0.048665555
-0.050275156
-0.051171898
-0.051148317
-0.05011285
-0.048078053
-0.045142403
-0.041470821
-0.03726968
-0.032759519
-0.028151289
-0.023626841
-0.019326691
-0.015342418
-0.011733163
-0.0085285021
-0.0057503109
-0.0033713575
-0.0013692688
0.00032093615
0.0016518336
0.0026039886
0.0033284267
-0.0526614
-0.050339982
-0.047223823
-0.043586197
-0.039619763
-0.035413891
-0.031047554
-0.026660951
-0.022335453
-0.018096724
-0.01392406
-0.01008161
-0.0067494755
-0.0042800914
-0.0020247771
-0.0010670695
-0.053958398
-0.054135658
-0.053406095
-0.051986907
-0.050085444
-0.048414697
-0.047584167
-0.047865116
-0.049031873
-0.049960773
-0.049907339
-0.049826959
-0.050074779
-0.0508376
-0.052002894
-0.053411669
-0.054799813
-0.05573068
-0.055880778
-0.055081774
-0.053276879
-0.050510193
-0.046907824
-0.042656109
-0.037974776
-0.033088972
-0.028205364
-0.023491271
-0.019066579
-0.015007582
-0.011369433
-0.0081744305
-0.0054189039
-0.0030449578
-0.00099516857
0.00066607634
0.0019751445
0.0029169563
0.0036339463
-0.05516836
-0.052932291
-0.049801777
-0.046077635
-0.04202051
-0.037780327
-0.03328477
-0.028741574
-0.024319163
-0.020098447
-0.015991586
-0.012101499
-0.0084751083
-0.0053464293
-0.0030870522
-0.0011845366
-0.00067360461
-0.056279617
-0.056307967
-0.05571686
-0.054734986
-0.053584241
-0.052981689
-0.053346762
-0.054665904
-0.056635572
-0.057880642
-0.05781629
-0.057817744
-0.057931515
-0.058358465
-0.059089192
-0.05998068
-0.060737632
-0.0609374
-0.060308499
-0.058717899
-0.056140816
-0.052651652
-0.048402494
-0.04359969
-0.038474447
-0.033252998
-0.028130172
-0.023253028
-0.018725847
-0.014621537
-0.010988853
-0.007816941
-0.0050622876
-0.0026114526
-0.0006045089
0.0010283351
0.0023085393
0.0032402942
0.0039484993
-0.057603522
-0.055496173
-0.052367487
-0.048547526
-0.044335522
-0.039940227
-0.035328963
-0.030610989
-0.026035369
-0.021753871
-0.017688914
-0.013879815
-0.010181951
-0.0067612912
-0.0038604945
-0.0018598433
-0.00036823062
-0.00028667245
-0.058580237
-0.058730568
-0.058615318
-0.058404794
-0.058332214
-0.058997768
-0.060466196
-0.062623666
-0.065132031
-0.066463378
-0.066306797
-0.066165527
-0.065891509
-0.065846866
-0.06604913
-0.066360062
-0.066422111
-0.065855752
-0.064427769
-0.062037582
-0.058692375
-0.054495457
-0.049625146
-0.044306652
-0.038778986
-0.033260832
-0.027928443
-0.022913464
-0.018319415
-0.014213186
-0.010602971
-0.0074240444
-0.0045554369
-0.0021600561
-0.00019289712
0.0013999488
0.0026532176
0.0035731907
0.0042718641
-0.059989881
-0.057976521
-0.054918295
-0.051028044
-0.046648935
-0.042011329
-0.037181973
-0.032287495
-0.027548129
-0.023128314
-0.019014942
-0.015285171
-0.011660953
-0.0081460787
-0.0049516668
-0.0023244576
-0.00063863864
0.00041295282
0.00010522002
-0.061096667
-0.061724958
-0.062432828
-0.063327513
-0.064609042
-0.066488937
-0.068823676
-0.071597657
-0.074289555
-0.075584607
-0.075173012
-0.074608703
-0.073770628
-0.073189368
-0.072809663
-0.072484665
-0.071811824
-0.07045634
-0.068217428
-0.065026604
-0.060922154
-0.056037963
-0.050579293
-0.044786598
-0.038897529
-0.033114447
-0.027600818
-0.022490836
-0.017883639
-0.013796766
-0.010168773
-0.0068273315
-0.0040280847
-0.0016827153
0.0002268426
0.001783608
0.003007866
0.0039155327
0.0046035829
-0.062564929
-0.060377563
-0.057375341
-0.053510225
-0.048995686
-0.04409747
-0.038962303
-0.033800965
-0.028880219
-0.024297587
-0.020062033
-0.016302919
-0.012770293
-0.009309314
-0.0060017064
-0.0030831957
-0.00079030336
0.00054305492
0.001126406
0.00051265591
-0.064169946
-0.065617966
-0.067505098
-0.06983118
-0.07247602
-0.075301228
-0.078309567
-0.081308321
-0.083911609
-0.085040885
-0.084138201
-0.082964766
-0.081468773
-0.08031888
-0.079316256
-0.078310631
-0.07687732
-0.074717224
-0.071661749
-0.067673087
-0.062823762
-0.057280968
-0.051273759
-0.045048544
-0.038830572
-0.032813593
-0.027168888
-0.022030005
-0.017436011
-0.013315966
-0.0094635653
-0.006206688
-0.0034689313
-0.0011990917
0.00065908648
0.0021772665
0.0033723528
0.0042665744
0.0049433535
-0.06567119
-0.062945219
-0.059727311
-0.055884174
-0.051367215
-0.046240151
-0.040770634
-0.03525842
-0.030055865
-0.02529575
-0.020903576
-0.017031965
-0.013494948
-0.010119591
-0.0068381699
-0.0037921974
-0.0012173128
0.00068062864
0.0016681367
0.0017617539
0.00092819417
-0.068127846
-0.070795253
-0.074201482
-0.078028011
-0.081777196
-0.085323813
-0.088650942
-0.091475739
-0.093774229
-0.094561799
-0.092979279
-0.091074956
-0.088922175
-0.087168296
-0.085521451
-0.083805137
-0.081595506
-0.07862226
-0.074747399
-0.069968402
-0.064396914
-0.058232309
-0.051716538
-0.045090621
-0.038576095
-0.032383576
-0.02668782
-0.02155224
-0.016904086
-0.012481639
-0.0087294046
-0.0055468325
-0.0029062123
-0.00070281921
0.0011010728
0.0025809321
0.0037457483
0.0046259965
0.005290746
-0.069646222
-0.066009574
-0.062215112
-0.058133824
-0.053617771
-0.048413045
-0.042645422
-0.036769943
-0.031208598
-0.026164686
-0.021596087
-0.017567303
-0.01393261
-0.010545107
-0.0073448761
-0.0043057974
-0.0015871974
0.00057966651
0.0020729826
0.0026835049
0.002327524
0.0013000436
-0.073357527
-0.077601486
-0.082660477
-0.087774858
-0.092359589
-0.096322995
-0.099509682
-0.10183114
-0.10366708
-0.10391503
-0.10151845
-0.098845497
-0.096091849
-0.093685426
-0.091389872
-0.088949538
-0.085951464
-0.082157493
-0.077463824
-0.071910472
-0.065648431
-0.058897633
-0.051902454
-0.044907752
-0.038163599
-0.031891313
-0.026183747
-0.020965681
-0.015917149
-0.011611849
-0.0079472528
-0.0048871312
-0.0023311339
-0.00019729433
0.0015527842
0.0029935492
0.0041275719
0.0049930875
0.0056454787
-0.074877801
-0.069924194
-0.065169756
-0.060504067
-0.055724033
-0.050448901
-0.044543656
-0.038360743
-0.032429386
-0.027027836
-0.022177582
-0.017959779
-0.014185372
-0.010690995
-0.0074813891
-0.0045144328
-0.0017827834
0.00053220015
0.0022745193
0.0033427922
0.0035394641
0.0027962784
0.0015559115
-0.080200101
-0.086207154
-0.092767465
-0.098880147
-0.10401081
-0.1079217
-0.11052811
-0.11212313
-0.11342395
-0.11292235
-0.10966156
-0.10627776
-0.10290459
-0.099857784
-0.096906434
-0.093729187
-0.08993177
-0.085311251
-0.079807425
-0.073504731
-0.066581444
-0.05926749
-0.051822624
-0.044533747
-0.037673505
-0.031367768
-0.025541117
-0.01980033
-0.01488627
-0.0106832
-0.007170338
-0.0042156029
-0.0017477957
0.00031756723
0.0020130733
0.0034144807
0.0045170702
0.0053677147
0.0060068675
-0.081681555
-0.075064173
-0.068957851
-0.063303666
-0.057934603
-0.052324723
-0.046283475
-0.039954808
-0.033724196
-0.027959111
-0.022752758
-0.018251401
-0.014294483
-0.01065955
-0.0073435234
-0.0043718063
-0.0016997435
0.00064209289
0.0025209213
0.0038166799
0.0044203967
0.0041899077
0.0031250993
0.0016832874
-0.088835549
-0.096531279
-0.10433136
-0.1111543
-0.11638076
-0.1197285
-0.12142392
-0.12224623
-0.12285605
-0.12147925
-0.11736327
-0.11332576
-0.10933526
-0.10567406
-0.10206027
-0.098132883
-0.093525336
-0.088079247
-0.081782989
-0.074751953
-0.06718015
-0.059327722
-0.051514604
-0.044064902
-0.037142562
-0.030668911
-0.024168754
-0.018580417
-0.013783393
-0.0097664244
-0.0063826473
-0.0035372143
-0.0011559053
0.00084048111
0.0024811529
0.0038430622
0.004914407
0.0057490218
0.0063745332
-0.090256278
-0.081724787
-0.073907033
-0.066881311
-0.060531046
-0.054285968
-0.047867374
-0.041390993
-0.035005636
-0.028962236
-0.023402052
-0.018557549
-0.014318374
-0.010495122
-0.0070439105
-0.0039708359
-0.001293778
0.00099581205
0.0029001607
0.004317034
0.0051030268
0.0052333692
0.0046106992
0.0032673268
0.001694136
-0.099224763
-0.10838444
-0.11716477
-0.12425185
-0.12904699
-0.13138757
-0.13206606
-0.13208416
-0.13181984
-0.12952406
-0.12457115
-0.11997778
-0.11539078
-0.11113171
-0.10684154
-0.10215067
-0.096728344
-0.090466883
-0.083388745
-0.07562782
-0.067423181
-0.059120093
-0.051092702
-0.043544438
-0.036392353
-0.029058968
-0.022728643
-0.017272397
-0.01270101
-0.0088403327
-0.0055901312
-0.0028513463
-0.00055688222
0.0013705676
0.0029565396
0.0042799286
0.0053181234
0.0061364034
0.0067479503
-0.1006193
-0.090119336
-0.080319441
-0.071566856
-0.063853336
-0.056614303
-0.049528421
-0.042686879
-0.036128495
-0.029937211
-0.024100213
-0.018933157
-0.014345339
-0.010246463
-0.0066200353
-0.0034250802
-0.0006596982
0.0016372257
0.0034823917
0.0049097633
0.0057881782
0.0060571958
0.0057585271
0.0048017293
0.0032555746
0.0016085038
-0.11120618
-0.1215934
-0.13093445
-0.13774694
-0.14158457
-0.14271
-0.14236402
-0.14150416
-0.14023136
-0.13703667
-0.13133886
-0.12623866
-0.12108016
-0.11622334
-0.11124387
-0.10578112
-0.099547842
-0.092470963
-0.08459176
-0.076101533
-0.067356796
-0.058778604
-0.050608063
-0.04275276
-0.034511993
-0.027365035
-0.021180798
-0.015995794
-0.011611351
-0.0079120986
-0.0047916874
-0.0021595364
4.8343309e-05
0.0019076211
0.003440623
0.0047229634
0.0057275171
0.0065290176
0.0071266819
-0.11263936
-0.10033116
-0.088448788
-0.077673743
-0.068231924
-0.059640892
-0.051546266
-0.04407042
-0.037158903
-0.03078736
-0.024769069
-0.019356045
-0.014449478
-0.010010099
-0.0061291543
-0.0027761533
8.9518187e-05
0.002468912
0.0043063856
0.0056547585
0.0065164927
0.0068536354
0.0066749406
0.0060156869
0.0048052654
0.0031313113
0.0014543872
-0.1246028
-0.13585217
-0.14521075
-0.15119462
-0.15375467
-0.15363074
-0.15225269
-0.15040489
-0.14804984
-0.14397879
-0.13775072
-0.13210782
-0.12640453
-0.12094699
-0.11527018
-0.10903505
-0.10198118
-0.094048991
-0.085347805
-0.076223105
-0.067137734
-0.0583639
-0.049791345
-0.040568064
-0.032527634
-0.025539301
-0.01967807
-0.014714476
-0.010523045
-0.0069799517
-0.0039889073
-0.001462714
0.00065986406
0.0024540032
0.0039304413
0.0051712225
0.0061416178
0.0069262814