/*--------------------------------*- C++ -*----------------------------------*\
| =========                 |                                                 |
| \\      /  F ield         | OpenFOAM: The Open Source CFD Toolbox           |
|  \\    /   O peration     | Version:  5.0                                   |
|   \\  /    A nd           | Web:      www.OpenFOAM.org                      |
|    \\/     M anipulation  |                                                 |
\*---------------------------------------------------------------------------*/
FoamFile
{
    version     2.0;
    format      ascii;
    class       volScalarField;
    location    "180";
    object      pPrime2Mean;
}
// * * * * * * * * * * * * * * * * * * * * * * * * * * * * * * * * * * * * * //

dimensions      [0 4 -4 0 0 0 0];

internalField   nonuniform List<scalar> 
9200
(
1.5739998e-06
1.6813314e-06
9.9697886e-06
1.828457e-06
1.0430696e-05
2.7284629e-05
2.1472886e-06
1.0996739e-05
2.8374451e-05
4.973883e-05
2.6347449e-06
1.2094759e-05
2.9909773e-05
5.1440593e-05
7.7375727e-05
3.4695521e-06
1.3616467e-05
3.2731849e-05
5.3884345e-05
7.9680193e-05
0.00010813837
4.8319776e-06
1.5863028e-05
3.6632272e-05
5.8259264e-05
8.2876833e-05
0.00011080864
0.00014125962
7.0682202e-06
1.8978832e-05
4.2191373e-05
6.4225481e-05
8.8533874e-05
0.00011442703
0.00014414547
0.00017615636
1.0559797e-05
2.3269773e-05
4.9643587e-05
7.2601531e-05
9.6099443e-05
0.00012083809
0.00014786413
0.00017906806
0.00021245388
1.5881446e-05
2.8952884e-05
5.9596623e-05
8.3627859e-05
0.00010651446
0.00012924819
0.0001545219
0.00018257223
0.00021527745
0.00025002102
2.3268888e-05
3.633351e-05
7.2677929e-05
9.8016588e-05
0.00011995358
0.00014067939
0.00016307302
0.00018904334
0.00021833944
0.00025266947
0.00028882933
3.0469623e-05
4.5417896e-05
8.964717e-05
0.00011639025
0.00013718577
0.00015516078
0.00017460391
0.00019717089
0.00022430371
0.00025512611
0.00029125665
0.00032889672
3.4360264e-05
5.6995418e-05
0.00011152341
0.00013974259
0.00015888076
0.00017342283
0.00018899202
0.00020810421
0.00023160814
0.00026037783
0.00029300786
0.00033109126
0.00037031744
3.8625976e-05
7.5667569e-05
0.00014127222
0.00016989695
0.00018624484
0.00019604618
0.00020691002
0.00022156444
0.00024147748
0.00026661662
0.00029743759
0.0003320936
0.0003722841
0.00041311619
5.0431041e-05
0.00010988777
0.00018638279
0.00021098676
0.00022138114
0.00022421159
0.00022883093
0.00023817067
0.00025349939
0.00027516674
0.00030250245
0.0003356808
0.00037252691
0.0004148819
0.00045742372
7.2316803e-05
0.00017260918
0.00025864927
0.00027186013
0.0002688027
0.00026001237
0.00025584253
0.00025828665
0.00026825524
0.00028549778
0.00030965227
0.00033957902
0.00037530178
0.00041439376
0.00045901012
0.00050323114
0.00010523011
0.00027324941
0.00037634942
0.00036696263
0.00033735441
0.00030778315
0.00028985994
0.00028288185
0.00028602276
0.00029817752
0.00031825265
0.00034538901
0.00037811832
0.00041644011
0.00045781732
0.0005046623
0.00055065703
0.00014786613
0.00040970774
0.00055480632
0.00051760945
0.00044314591
0.00037637215
0.0003348077
0.00031364869
0.00030767851
0.0003134167
0.00032886845
0.00035238607
0.00038275121
0.00041832927
0.00045922452
0.00050280192
0.0005519545
0.00059967351
0.00019323622
0.0005746862
0.00078987465
0.00074621299
0.00061064413
0.00048219449
0.00039889943
0.00035407505
0.00033473744
0.00033201608
0.00034165677
0.00036114505
0.00038839858
0.0004220347
0.00046036235
0.00050367949
0.00054945054
0.00060083636
0.00065034815
0.00023358928
0.00074704021
0.0010665027
0.0010519583
0.00086558318
0.00064938311
0.00049760575
0.00041139884
0.00037021824
0.00035531118
0.0003573588
0.00037176285
0.00039564158
0.00042669304
0.0004634302
0.00050426905
0.00054986824
0.00059769345
0.00065137016
0.00070267138
0.00026172585
0.00090668415
0.0013501038
0.0014160407
0.0012114431
0.00090682431
0.00065461974
0.00049951835
0.0004202523
0.00038596332
0.00037716395
0.00038490471
0.00040451777
0.00043289912
0.00046752806
0.00050702701
0.0005500796
0.00059770521
0.00064758638
0.00070352272
0.00075667823
0.00026747725
0.0010298446
0.0016079543
0.001795722
0.0016275938
0.0012663553
0.00090114283
0.00064283852
0.00049710018
0.00042901162
0.00040339108
0.00040163192
0.00041560158
0.00044061566
0.00047326913
0.00051105171
0.00055283567
0.00059769461
0.00064721732
0.00069905125
0.00075731893
0.00081237771
0.00025237087
0.0010929331
0.0018134306
0.0021415543
0.0020714117
0.0017091658
0.0012562994
0.00087130807
0.00062384515
0.00049495374
0.00044025645
0.00042395623
0.00042981972
0.00045032199
0.00048053781
0.00051699194
0.00055727699
0.00060074144
0.00064707085
0.0006982583
0.00075210022
0.00081274985
0.00086978795
0.00023025052
0.0010982215
0.0019446253
0.0024225904
0.0024879327
0.0021956403
0.0017072791
0.0012085566
0.00082885869
0.00060379038
0.00049632459
0.00045547962
0.00044892008
0.00046278001
0.00048971095
0.00052466601
0.00056412274
0.00060608243
0.00065061834
0.00069800409
0.00075081889
0.00080668877
0.00086982792
0.00092892334
0.00020767034
0.0010668689
0.0019793502
0.0026187298
0.002836318
0.0026688247
0.0022210618
0.0016539503
0.0011413685
0.00078413413
0.00058848107
0.00050284714
0.00047586789
0.00047943086
0.00050135643
0.00053434572
0.00057315192
0.00061455736
0.0006572654
0.00070219715
0.0007504251
0.00080478103
0.00086281782
0.00092855888
0.00098980276
0.00018789484
0.0010223272
0.0019443462
0.0026848652
0.0030886096
0.0030768041
0.0027372944
0.0021786959
0.0015713463
0.0010690001
0.00074506661
0.00057996866
0.00051606696
0.00050276989
0.00051661387
0.00054636876
0.00058452428
0.00062596145
0.00066804196
0.00071047667
0.00075528777
0.00080411086
0.00086011935
0.00092047651
0.0009889588
0.0010524385
0.00017194515
0.00096734782
0.0018795308
0.0026503366
0.0032052135
0.0033859446
0.0032013308
0.0027296299
0.0020958029
0.0014752006
0.00099820326
0.00071196934
0.00058010808
0.00053714879
0.00053754345
0.00056160964
0.00059838011
0.00064036671
0.00068282279
0.00072414082
0.00076537853
0.00080955567
0.00085899905
0.00091677759
0.00097967229
0.0010510418
0.0011168188
0.00015886702
0.00090775431
0.0017893665
0.0025624441
0.0031939354
0.0035692846
0.0035728981
0.0032441887
0.0026700316
0.0019879276
0.001371664
0.00092989249
0.00068867708
0.00059041765
0.00056767295
0.00058162444
0.00061527888
0.00065774844
0.00070166378
0.0007432412
0.00078235326
0.00082149545
0.00086483512
0.00091493278
0.00097475203
0.0010404169
0.0011148131
0.001182905
0.00014787062
0.00084600268
0.0016847788
0.0024416746
0.0031034539
0.0036043634
0.003822941
0.0036750769
0.0032274043
0.0025728371
0.0018640235
0.0012663052
0.0008734681
0.00067920311
0.00061280545
0.00060926745
0.00063636223
0.00067834744
0.00072441142
0.00076790936
0.00080655672
0.0008420244
0.00087847132
0.00092083152
0.00097188182
0.0010340394
0.0011027292
0.0011802639
0.0012506859
0.00013763236
0.00078435933
0.0015746296
0.002300249
0.0029736721
0.0035326316
0.0039197292
0.0039893146
0.0037138224
0.0031653569
0.0024458688
0.0017303539
0.0011682804
0.00083181562
0.00068530951
0.00064910479
0.00066378793
0.00070289581
0.0007510429
0.00079795226
0.00083831073
0.00087189518
0.00090255331
0.00093585256
0.000977449
0.0010297854
0.0010946607
0.001166629
0.0012473815
0.001320203
0.00012466666
0.00072618838
0.0014655197
0.0021516673
0.0028154775
0.0034088047
0.0038889736
0.0041659838
0.0040983412
0.0037045458
0.0030621799
0.0022963454
0.0015923148
0.0010802618
0.00080840668
0.00070951056
0.0007010996
0.00073289629
0.00078190831
0.00083317708
0.00087751469
0.00091176932
0.00093835943
0.00096325161
0.00099338945
0.0010345227
0.001088673
0.0011566546
0.0012321316
0.0013161532
0.0013914198
0.00011067275
0.00066146509
0.0013617095
0.0020037242
0.0026465311
0.0032507387
0.0037852571
0.0041942275
0.0043577152
0.0041564239
0.0036486651
0.0029217615
0.0021314201
0.0014552644
0.0010136974
0.00080871732
0.00075425063
0.00077103898
0.00081793122
0.00087358102
0.00092392241
0.00096180895
0.00098705346
0.0010049372
0.0010236061
0.0010507646
0.0010920751
0.0011485856
0.0012200723
0.001299243
0.0013865414
0.0014640837
9.5807154e-05
0.00059546721
0.0012433191
0.00186485
0.0024767168
0.0030771744
0.0036419276
0.0041233012
0.0044567037
0.0044910992
0.004160771
0.003544414
0.002749528
0.0019600108
0.0013345354
0.00097562078
0.00083579467
0.00082180262
0.00086093797
0.00091957967
0.0009773087
0.0010218778
0.0010492378
0.0010627368
0.0010707518
0.0010830817
0.0011079037
0.0011500846
0.0012096064
0.0012849581
0.0013679576
0.0014584663
0.0015379885
7.9891234e-05
0.00052638944
0.0011241398
0.0017081719
0.0023176081
0.0029014119
0.0034766498
0.004006057
0.0044395364
0.0046807434
0.0045705721
0.0041094813
0.0033948971
0.0025577048
0.0017893364
0.0012408454
0.00096985023
0.00089305824
0.00091426231
0.0009722541
0.0010376478
0.0010916916
0.0011251053
0.0011378898
0.0011374653
0.0011349348
0.0011413983
0.0011646996
0.0012086734
0.0012718183
0.0013513522
0.0014382496
0.0015318528
0.0016131175
6.4894383e-05
0.00045405305
0.00099868997
0.0015543745
0.0021358344
0.0027365192
0.003306199
0.0038604907
0.0043600176
0.0047380398
0.0048592377
0.0045888459
0.0040061496
0.0032085436
0.0023562591
0.0016332448
0.0011866414
0.0010026913
0.00098302343
0.0010338222
0.0011054179
0.0011709781
0.0012145269
0.0012311536
0.0012258077
0.0012098784
0.0011968796
0.0011983121
0.0012212699
0.001267942
0.0013353266
0.0014192893
0.0015100714
0.0016066071
0.0016895641
5.1904516e-05
0.0003837161
0.00086753211
0.0013969157
0.0019617463
0.0025416051
0.0031462424
0.0037058106
0.0042459019
0.0047107336
0.0050036105
0.0049643586
0.004544173
0.0038523814
0.0029957383
0.0021552985
0.0015129656
0.0011798962
0.0010785079
0.0011081
0.0011819338
0.0012597553
0.001317249
0.0013428483
0.0013373499
0.0013109715
0.0012788925
0.0012560863
0.0012538447
0.0012777093
0.0013280798
0.0014002309
0.0014887931
0.0015833653
0.0016825588
0.0017672916
4.1355182e-05
0.00032091652
0.00073859891
0.0012355662
0.0017841225
0.0023608744
0.0029478419
0.0035592958
0.0041160484
0.0046437962
0.0050457275
0.0052060241
0.0049967086
0.004443705
0.0036573291
0.0027692505
0.0019706533
0.0014471123
0.0012255598
0.0012015183
0.0012696454
0.0013585628
0.001433032
0.0014730007
0.0014731509
0.0014408265
0.0013916186
0.0013435867
0.0013123726
0.001308063
0.001334284
0.0013892514
0.0014666251
0.0015598669
0.001658099
0.0017596405
0.0018460788
3.3928083e-05
0.00026781633
0.00062358825
0.0010750542
0.0016033247
0.0021741792
0.002771063
0.0033635497
0.0039921067
0.004555301
0.0050369665
0.0053337188
0.0053408269
0.004964779
0.004291991
0.0034313145
0.0025447459
0.0018327751
0.0014483947
0.0013298388
0.0013727498
0.0014688114
0.001561963
0.0016214861
0.0016338813
0.0016015511
0.0015389212
0.0014661986
0.0014034297
0.0013657033
0.001361256
0.0013912276
0.0014516628
0.0015345842
0.001632474
0.0017341777
0.0018377716
0.0019257863
3.0167607e-05
0.00022714111
0.00052647379
0.00093036328
0.0014228871
0.0019855687
0.0025850413
0.0031978187
0.0038038132
0.0044690676
0.0050015713
0.0053924227
0.0055608314
0.0053959281
0.0048713069
0.004095241
0.0031913676
0.0023472436
0.0017650444
0.0015208093
0.0014995431
0.0015932231
0.0017045983
0.001788215
0.0018199114
0.0017948012
0.001724207
0.0016291765
0.001533636
0.0014581458
0.0014163314
0.0014137449
0.0014488807
0.0015154862
0.0016041723
0.0017065709
0.0018114869
0.0019168136
0.0020062264
3.054081e-05
0.00020137901
0.00045187338
0.00080882676
0.001257204
0.001796024
0.0023986324
0.0030191457
0.0036568051
0.0042979192
0.0049664286
0.0054204971
0.005694744
0.005720923
0.0053797954
0.0047264969
0.0038673879
0.0029571681
0.0022039755
0.0017894728
0.0016723047
0.001736053
0.0018624701
0.0019733248
0.0020313733
0.0020218428
0.0019504681
0.0018374426
0.0017096907
0.0015932163
0.0015078546
0.0014646345
0.0014659944
0.0015075369
0.0015809001
0.0016754149
0.0017820987
0.0018899047
0.0019966323
0.0020871624
0.00019204855
3.5313819e-05
0.00040366459
0.0007162788
0.0011198417
0.0016180152
0.002208056
0.0028395551
0.0034894208
0.0041798665
0.0048268758
0.0054451582
0.0057945726
0.0059512944
0.0058123068
0.0053063349
0.0045381912
0.0036249938
0.0027579704
0.0021570883
0.0019142633
0.0019095943
0.0020381724
0.0021776068
0.002268575
0.0022836316
0.0022202745
0.0020956043
0.0019381852
0.0017790566
0.001644765
0.0015529141
0.0015111917
0.001518468
0.0015675377
0.0016480254
0.0017483124
0.0018589716
0.0019692904
0.0020770733
0.0021683977
0.00038503675
0.00019975526
4.4618647e-05
0.00065731437
0.001016051
0.0014718558
0.0020252616
0.0026530484
0.0033194317
0.004032531
0.0047544573
0.005343927
0.0058907586
0.0061304108
0.0061460411
0.0058227482
0.0051784923
0.004317722
0.003393788
0.0026389411
0.002230856
0.0021401389
0.0022370851
0.0024025715
0.0025318813
0.0025810167
0.0025358802
0.0024079093
0.0022255566
0.002023997
0.001836593
0.0016885091
0.0015939969
0.001556641
0.0015716934
0.0016291409
0.0017169742
0.0018228288
0.0019370809
0.0020494926
0.0021579724
0.0022497815
0.00063479464
0.00039670281
0.00022409635
5.8507969e-05
0.00095079227
0.0013631299
0.0018745573
0.0024712251
0.0031421157
0.0038786219
0.0046413595
0.0053297872
0.0058419896
0.0063068221
0.0064209425
0.0062701172
0.0057723693
0.0050063118
0.004083815
0.0032213605
0.0026418764
0.0024393094
0.0024772242
0.0026503891
0.0028222173
0.0029146751
0.0028992196
0.0027783394
0.0025779962
0.0023363958
0.0020933631
0.0018822038
0.0017251357
0.0016319244
0.0016017293
0.0016261192
0.0016926161
0.0017878002
0.0018989053
0.0020163
0.0021303532
0.0022391566
0.0023311696
0.00092676022
0.00064904961
0.00043734671
0.00026344611
7.7101012e-05
0.0012983298
0.0017659911
0.0023198063
0.0029650653
0.0037138318
0.0045162036
0.0052621561
0.0058946627
0.0063194139
0.0066930556
0.0066598176
0.0063276754
0.0056719255
0.0048008127
0.0038798456
0.0031599531
0.0028050842
0.0027823891
0.0029294005
0.0031409772
0.003285594
0.0033121005
0.0032105229
0.0030015924
0.0027246306
0.0024253831
0.0021455963
0.0019164593
0.0017556267
0.0016677019
0.0016472116
0.0016822286
0.001758153
0.0018605324
0.0019764527
0.0020964867
0.0022117128
0.0023204685
0.0024124026
0.0012791197
0.00094384063
0.00069707919
0.00050308253
0.00031472914
9.9463543e-05
0.0017051955
0.0022129648
0.0028121721
0.0035409877
0.0043758714
0.0051801274
0.0058847488
0.0064570472
0.0067790474
0.0070404205
0.006836245
0.0063148689
0.0055208017
0.0045953382
0.0037671679
0.0032620514
0.0031431784
0.0032621893
0.0034910043
0.0036950086
0.0037762223
0.0037079122
0.0035021301
0.0031970745
0.0028432904
0.0024909119
0.0021809768
0.0019404382
0.0017812651
0.0017024031
0.0016938215
0.0017404181
0.0018259101
0.0019351445
0.0020553586
0.0021774866
0.0022934044
0.0024017494
0.0024933236
0.0016937708
0.0013047
0.00099804324
0.00077342436
0.00058802704
0.00037386009
0.00012441545
0.0021580755
0.0027080315
0.0033850591
0.0042125856
0.0050769883
0.0058562767
0.0065179301
0.0070152972
0.0072170925
0.00733742
0.0069413243
0.0062417231
0.0053444559
0.0044512078
0.0038120954
0.0035648797
0.0036585949
0.0038843359
0.0041440656
0.0042933926
0.0042737433
0.0040851976
0.0037620365
0.0033578827
0.0029309595
0.0025326402
0.0022005206
0.0019556864
0.0018034899
0.0017371214
0.001742232
0.0018010313
0.001895968
0.002011581
0.0021354878
0.002259138
0.0023752621
0.002482842
0.0025737814
0.0021559288
0.0017295727
0.0013693454
0.0010822724
0.00087007899
0.00068465046
0.00043653042
0.00014984923
0.0026589238
0.0032792781
0.0040530789
0.004936283
0.0058021079
0.0065570483
0.0071646219
0.0075691845
0.0076212381
0.0075701587
0.0069663065
0.0061203194
0.0051972296
0.0044503987
0.0040727904
0.0040970463
0.0043433806
0.0046373371
0.0048647615
0.0049109666
0.0047561632
0.004427633
0.0039801463
0.0034789825
0.0029863053
0.0025513518
0.0022060079
0.001964053
0.0018238298
0.0017729101
0.0017930556
0.0018643225
0.0019683648
0.0020897451
0.0022166925
0.0023412746
0.0024571187
0.0025635907
0.0026536432
0.0026658804
0.0022028544
0.0018052921
0.0014644817
0.0011866969
0.00097797858
0.00078415746
0.00049745419
0.00017340931
0.0032314111
0.0039431679
0.0047824754
0.0056977007
0.0065663841
0.0072886486
0.0078269939
0.008108276
0.007975603
0.0077302331
0.0069227197
0.0059983733
0.00516844
0.0046659876
0.0045952126
0.0048544206
0.0051914271
0.005492278
0.0056222498
0.005520095
0.0052018859
0.0047210322
0.0041487247
0.0035576074
0.0030096046
0.002548914
0.0021997188
0.0019675819
0.0018438292
0.0018107499
0.0018467991
0.0019304778
0.0020430786
0.0021695213
0.0022988068
0.002423718
0.0025388067
0.002643851
0.0027327862
0.003243193
0.0027232476
0.0022892092
0.0019102478
0.0015785001
0.0013000808
0.0010857138
0.00087962665
0.00055063429
0.00019104787
0.0038922868
0.0046755946
0.0055621855
0.0065112832
0.0073773881
0.0080554104
0.0084959154
0.0086157083
0.0082663875
0.0078085792
0.0068497925
0.0059648851
0.005345979
0.0051644053
0.0053985047
0.0058151489
0.0061847781
0.0064098609
0.0063815126
0.0060924426
0.0055915066
0.0049540336
0.004262878
0.0035930566
0.0030026166
0.0025279922
0.0021842562
0.0019684166
0.0018649749
0.0018515065
0.0019038797
0.0019996028
0.0021200518
0.0022507586
0.0023816434
0.0025062815
0.0026201737
0.0027234997
0.0028110954
0.0039042773
0.0033075998
0.0028192976
0.0024022873
0.0020306003
0.0016965965
0.0014091581
0.0011831664
0.00095929687
0.00058455915
0.00019994698
0.0046267866
0.0054663179
0.0064091566
0.0073896155
0.0082425672
0.008855105
0.0091587044
0.0090690599
0.0084828035
0.0078308062
0.0068357536
0.0061189404
0.0058102738
0.0059904145
0.0064741496
0.0069563756
0.0072778392
0.0073439809
0.0071063293
0.0066021662
0.0059089848
0.0051188648
0.0043204805
0.0035867544
0.0029683089
0.0024918559
0.0021624967
0.0019686856
0.0018886197
0.0018959209
0.0019646076
0.0020717407
0.0021991696
0.0023332688
0.0024649969
0.0025888022
0.0027011031
0.0028024261
0.0028884497
0.0046420906
0.0039715316
0.0034102865
0.0029391461
0.0025256889
0.0021479096
0.0018039635
0.0014999336
0.0012508563
0.0010060227
0.00059407388
0.00020212385
0.0054262848
0.0063311701
0.0073330146
0.0083410513
0.0091622922
0.0096726002
0.0097853235
0.0094538975
0.0086243858
0.007866598
0.0069839538
0.0065526108
0.0066348019
0.0071613053
0.0077896871
0.0082354471
0.008410551
0.008249056
0.00776288
0.007027312
0.0061427369
0.0052114269
0.0043222752
0.0035418429
0.0029106453
0.0024442216
0.0021373671
0.0019704012
0.0019159676
0.0019446095
0.0020291884
0.0021468524
0.0022802561
0.0024168302
0.0025486952
0.0026711738
0.0027814839
0.0028804832
0.0029684282
0.0054500996
0.0047145247
0.0040775917
0.0035341982
0.0030637623
0.0026392581
0.0022477139
0.0018775347
0.0015457968
0.0012745122
0.0010136624
0.00058895216
0.00019681547
0.0063047856
0.0072789733
0.0083430208
0.0093697904
0.010125446
0.010479732
0.010348022
0.0097630133
0.0087375673
0.0080346746
0.0073947414
0.0073568768
0.0078694044
0.0086482231
0.0092796623
0.009587596
0.0095249163
0.0090819585
0.0083220086
0.0073514517
0.006285889
0.005231207
0.004271346
0.003462917
0.0028342563
0.0023889765
0.0021117157
0.0019754072
0.0019480662
0.0019980331
0.0020977034
0.0022247962
0.0023630858
0.0025012675
0.0026326456
0.0027532823
0.0028611106
0.0029607181
0.0030528363
0.0063399423
0.0055316914
0.0048248301
0.0042023051
0.0036571236
0.0031724683
0.0027259994
0.0022920706
0.0018895879
0.0015388809
0.001253873
0.0010031727
0.0005681354
0.00018667051
0.0072708311
0.0083217193
0.0094490534
0.010469155
0.011106324
0.011239311
0.010836707
0.010016157
0.0089261959
0.0084386827
0.00817033
0.0086141498
0.0095063857
0.010375448
0.01087424
0.010938881
0.010566032
0.0098045814
0.0087613489
0.0075640669
0.0063362712
0.005180984
0.0041728543
0.0033556105
0.0027441831
0.0023300069
0.0020882284
0.0019853478
0.0019857627
0.0020564809
0.0021700945
0.0023053697
0.0024474997
0.0025865094
0.0027167241
0.0028348233
0.0029426325
0.0030451349
0.0031393971
0.0073201067
0.0064316705
0.005648309
0.0049494158
0.0043194461
0.0037596425
0.0032353717
0.0027345347
0.0022603272
0.001842401
0.0014856623
0.0012227564
0.00096373477
0.00053759205
0.000172206
0.0083368235
0.0094687048
0.010645183
0.011616349
0.012065116
0.011922963
0.011261623
0.01029494
0.0093000459
0.0091924597
0.0094167034
0.010355416
0.011468004
0.012240993
0.012489823
0.012219713
0.011484017
0.010387019
0.0090656125
0.0076605852
0.0062959273
0.0050663705
0.0040334998
0.0032262719
0.0026455788
0.0022710711
0.002069369
0.0020016056
0.0020296426
0.0021200312
0.0022462255
0.0023884473
0.0025334512
0.0026724048
0.0028005034
0.0029180929
0.0030283571
0.0031320784
0.0032280983
0.0084037733
0.0074227577
0.0065535318
0.005771974
0.005056019
0.0044051753
0.0037883323
0.0032029283
0.002652147
0.0021678247
0.0017440531
0.0014301123
0.0011590496
0.00090946149
0.00049572798
0.00015468259
0.0095120332
0.01071401
0.01190795
0.012767396
0.012962396
0.012536926
0.011668576
0.010692502
0.0099712148
0.010416842
0.011198462
0.012523511
0.013631979
0.014147881
0.014043469
0.013366566
0.01224048
0.010808394
0.0092270828
0.0076419871
0.006170719
0.0048951289
0.0038610617
0.00308157
0.0025435326
0.0022156926
0.0020572669
0.0020252267
0.0020800258
0.0021886783
0.0023260381
0.0024740163
0.0026207475
0.0027583839
0.0028860287
0.0030058101
0.0031169862
0.0032215317
0.0033189135
0.0095988283
0.0085209097
0.0075497025
0.0066732787
0.0058666326
0.0051252729
0.0043982099
0.0037081597
0.0030688851
0.0025100841
0.0020187312
0.0016533538
0.0013346166
0.0010806043
0.0008383427
0.00044411299
0.00013596853
0.010786751
0.012035311
0.013201115
0.013871597
0.013787619
0.013109241
0.012135319
0.011305322
0.01106914
0.012202971
0.013500314
0.014978534
0.015866263
0.016004785
0.01545355
0.014330148
0.012807589
0.011056833
0.0092449855
0.0075140626
0.0059694283
0.0046766297
0.0036639394
0.0029282205
0.0024429144
0.0021670107
0.0020536043
0.0020569083
0.0021371233
0.0022624893
0.0024095647
0.0025618268
0.0027086515
0.0028463543
0.0029765075
0.003096853
0.0032085424
0.0033134416
0.003411808
0.010889556
0.0097332265
0.0086550834
0.0076627776
0.0067512473
0.0059105074
0.0050696486
0.0042602447
0.0035172319
0.0028738954
0.0023068459
0.0018877311
0.0015143331
0.0012247118
0.00098468548
0.00075270325
0.00038519353
0.00011735974
0.012138419
0.013395634
0.014465219
0.014903251
0.0145543
0.01370534
0.012743476
0.01227286
0.012708197
0.014571386
0.016190722
0.017552736
0.018050302
0.017717776
0.016658201
0.015074332
0.013168779
0.011129355
0.0091248986
0.0072865633
0.0057031182
0.0044212297
0.0034507849
0.0027727451
0.0023481445
0.0021275857
0.0020596159
0.0020971933
0.0022012203
0.0023415628
0.002496484
0.0026509565
0.0027990639
0.0029400904
0.0030707721
0.0031913155
0.003302941
0.0034077576
0.0035067356
0.012247044
0.011033012
0.0098763389
0.0087621548
0.0077195392
0.0067533728
0.0057986834
0.0048634003
0.0040093432
0.0032654274
0.0026120022
0.0021333882
0.0017014897
0.0013640551
0.0010978021
0.00087590411
0.00065480258
0.00032293871
0.00010006557
0.013527899
0.014751612
0.015668264
0.01587049
0.015318443
0.014387955
0.013615422
0.013730141
0.014929527
0.017417993
0.019072512
0.02009753
0.020090875
0.019206371
0.017614721
0.015577207
0.013317869
0.011030873
0.008877362
0.0069723105
0.0053843481
0.0041398022
0.0032301479
0.0026211789
0.0022629569
0.0020994176
0.0020763702
0.0021466753
0.0022725133
0.0024254823
0.0025856704
0.0027434914
0.0028964158
0.0030381274
0.0031690296
0.0032890728
0.0034001201
0.0035044034
0.003603647
0.013634084
0.012381663
0.011173988
0.0099770086
0.0087949966
0.0076714977
0.0065753829
0.0055165102
0.0045466803
0.0036944123
0.0029432088
0.0023944232
0.0018958972
0.0015059212
0.0011989601
0.00096043286
0.00075725337
0.00055119411
0.00026152229
8.4523443e-05
0.01491681
0.016068297
0.016807382
0.01681168
0.01612652
0.015235149
0.01490976
0.01573937
0.017672435
0.020538159
0.021961523
0.022490187
0.02189608
0.020413038
0.018292285
0.015828005
0.013258338
0.010772415
0.0085170398
0.0065862647
0.0050265414
0.0038432723
0.0030100167
0.0024787347
0.0021904124
0.0020843145
0.0021049559
0.0022057198
0.0023504652
0.0025129199
0.0026796158
0.0028446044
0.0029986726
0.0031408417
0.0032711173
0.0033900629
0.0034999815
0.003603301
0.003702482
0.015019586
0.013755163
0.012501137
0.011251893
0.0099853064
0.0086928421
0.0074157548
0.0062060099
0.0051189906
0.0041597767
0.0033036448
0.0026791497
0.0021037097
0.0016525879
0.0012974118
0.0010271035
0.00081774053
0.00063669784
0.00045063671
0.0002048372
7.095741e-05
0.016268696
0.017320043
0.017910388
0.017772288
0.01702675
0.016415635
0.016704813
0.01826778
0.020778503
0.023715642
0.024711196
0.024634645
0.023393674
0.021304151
0.018674376
0.015828393
0.013001479
0.010370442
0.0080614178
0.0061447075
0.0046433504
0.0035420063
0.0027974618
0.0023498927
0.0021333523
0.0020840518
0.0021459521
0.0022736562
0.0024335622
0.0026070759
0.0027843383
0.0029513384
0.0031064414
0.0032480386
0.0033769721
0.0034941671
0.0036024211
0.0037043507
0.0038031752
0.016366399
0.015120265
0.013844354
0.012535554
0.011216597
0.0098157662
0.0083465162
0.0069514818
0.005720477
0.0046548416
0.003695619
0.0029898365
0.00233271
0.0018103053
0.001400178
0.0010866571
0.00085518677
0.0006771859
0.00052180266
0.00035780181
0.0001554296
5.9020759e-05
0.017554349
0.018529468
0.019022352
0.018781268
0.01816857
0.018037455
0.018976818
0.021197256
0.024033248
0.026779663
0.027205856
0.026460511
0.024535551
0.02185652
0.018760693
0.01558964
0.012565376
0.0098451276
0.0075299503
0.0056644288
0.0042479203
0.0032453371
0.0025987615
0.0022389046
0.0020944912
0.0020995458
0.0021985044
0.0023488282
0.002526071
0.0027149124
0.0028955697
0.0030646158
0.0032194811
0.0033596497
0.0034864687
0.0036012586
0.0037073106
0.0038074485
0.0039056494
0.017641254
0.016435064
0.015170969
0.013822114
0.012436631
0.010953959
0.0093581382
0.0077762576
0.0063679532
0.0051713227
0.0041073671
0.003326949
0.0025828063
0.0019866796
0.001512109
0.0011500558
0.00088328258
0.00069265828
0.00054766185
0.00041727691
0.00027623246
0.00011515005
4.8537013e-05
0.018793731
0.019743332
0.020167311
0.019961777
0.019677109
0.020072386
0.021618656
0.024361547
0.027243685
0.029598542
0.029367875
0.027905901
0.025298842
0.022062487
0.018561608
0.015131094
0.011973036
0.0092193718
0.0069429416
0.0051617315
0.0038522814
0.0029617489
0.0024199778
0.0021497286
0.0020752011
0.0021298197
0.0022609222
0.0024370116
0.0026360156
0.0028303747
0.0030146384
0.0031841268
0.0033377305
0.0034755399
0.0035994595
0.0037111875
0.0038145094
0.0039124725
0.0040098441
0.018864891
0.017665834
0.016431557
0.015082745
0.013641657
0.012060808
0.010359797
0.0086552012
0.0070783902
0.0057219796
0.0045287192
0.00367769
0.0028524082
0.0021805751
0.001639481
0.001221388
0.00091417116
0.00069680027
0.00054725235
0.00043379925
0.00032644682
0.00021011072
8.4192842e-05
3.8805508e-05
0.020038924
0.020996425
0.021450944
0.021443834
0.021543327
0.02241986
0.024510251
0.027593851
0.030264312
0.032087919
0.031142718
0.02893431
0.025679601
0.021934346
0.018097668
0.014478589
0.011251029
0.0085174365
0.0063203718
0.0046518179
0.0034675896
0.0026995638
0.0022667081
0.0020843452
0.002074408
0.0021732833
0.002341025
0.0025474214
0.0027550361
0.0029553105
0.0031411384
0.00330983
0.0034610435
0.0035955506
0.0037157748
0.0038237794
0.0039238573
0.0040193211
0.0041156712
0.020090235
0.018839136
0.01760381
0.016272227
0.014804597
0.013136351
0.011315755
0.0095151043
0.0078237231
0.0063214062
0.0049760081
0.0040364872
0.0031322394
0.0023906651
0.001782175
0.00130597
0.0009525878
0.00070367
0.00053501566
0.0004246349
0.00033847465
0.00025328309
0.00016014415
6.1030536e-05
2.9906105e-05
0.021338577
0.02237841
0.022994247
0.023222658
0.023652701
0.024963933
0.027536672
0.030729922
0.03299907
0.034192544
0.032487347
0.029530617
0.025678694
0.021489168
0.017397084
0.013662362
0.010427941
0.0077633381
0.0056809785
0.0041490422
0.0031049309
0.0024664336
0.0021417591
0.0020416404
0.0020909026
0.0022401686
0.0024493766
0.0026688082
0.0028856218
0.00308918
0.0032750598
0.0034415688
0.0035892545
0.0037194956
0.0038352078
0.003938841
0.0040352229
0.0041278614
0.0042230407
0.021387305
0.02001146
0.018712031
0.017370766
0.015890094
0.014159892
0.012227558
0.010316838
0.008535603
0.0069395242
0.0054547431
0.0044120476
0.0034128674
0.0026059606
0.001938695
0.0014040617
0.0010028174
0.00071796115
0.0005259376
0.00040445701
0.00032702908
0.00026465221
0.00019827673
0.00012239123
4.4558296e-05
2.1611468e-05
0.022781938
0.024003366
0.024790171
0.02517764
0.025861137
0.027614923
0.030564489
0.033654177
0.035389634
0.035880406
0.033372608
0.029692169
0.025299813
0.020757348
0.016492887
0.012715288
0.0095323313
0.0069799323
0.0050428687
0.003667791
0.0027744351
0.0022662638
0.0020440292
0.0020211005
0.0021377276
0.0023427571
0.0025712384
0.00280445
0.0030270491
0.0032320167
0.0034162321
0.0035791726
0.0037221624
0.0038471428
0.0039575352
0.0040562108
0.0041484362
0.0042379509
0.0043318551
0.022854658
0.02126218
0.019809779
0.018402769
0.016888977
0.015106119
0.013081509
0.011075176
0.00919489
0.0075169048
0.005935437
0.0048079557
0.0037044679
0.002819335
0.0020983374
0.0015142892
0.0010651036
0.00074321263
0.00052477092
0.00038747031
0.00030620186
0.00025551711
0.00021069425
0.00015732907
9.4411162e-05
3.3126704e-05
1.4538669e-05
0.024469673
0.02586577
0.026716347
0.027149799
0.028091783
0.030313236
0.03346811
0.03629959
0.037396996
0.037128556
0.033768461
0.029428009
0.024573777
0.019776265
0.01542257
0.011670904
0.0085916151
0.0061895519
0.0044243627
0.0032211167
0.0024813411
0.0020980341
0.0019741252
0.002038827
0.0022293056
0.0024622696
0.0027108317
0.002953375
0.0031794033
0.0033836317
0.003564481
0.0037224285
0.0038595149
0.0039782405
0.0040825768
0.0041756909
0.0042633063
0.0043494342
0.0044420143
0.024582359
0.022693551
0.020984578
0.019420315
0.017816214
0.01596874
0.01387253
0.011780771
0.0098124254
0.0080514783
0.0063779986
0.0051993564
0.0040065642
0.0030395601
0.0022541699
0.001626511
0.0011378576
0.00078009715
0.0005341169
0.00037826205
0.00028815185
0.00023790475
0.00020613727
0.00017174959
0.00012646651
7.3203687e-05
2.509849e-05
9.3850665e-06