/*--------------------------------*- C++ -*----------------------------------*\
| =========                 |                                                 |
| \\      /  F ield         | OpenFOAM: The Open Source CFD Toolbox           |
|  \\    /   O peration     | Version:  5.0                                   |
|   \\  /    A nd           | Web:      www.OpenFOAM.org                      |
|    \\/     M anipulation  |                                                 |
\*---------------------------------------------------------------------------*/
FoamFile
{
    version     2.0;
    format      ascii;
    class       volVectorField;
    location    "180";
    object      U;
}
// * * * * * * * * * * * * * * * * * * * * * * * * * * * * * * * * * * * * * //

dimensions      [0 1 -1 0 0 0 0];

internalField   nonuniform List<vector> 
9200
(
(1.0393139 0.00076253999 -1.9343343e-24)
(1.0394982 0.0024357132 8.6367313e-22)
(1.0370185 0.00075845959 0)
(1.0397887 0.0038801111 -4.5769603e-22)
(1.037173 0.0024457764 7.5414067e-22)
(1.0360165 0.00074088882 0)
(1.0401916 0.0053247474 -4.5808272e-23)
(1.0374438 0.0039033227 8.4684208e-24)
(1.0361549 0.0024016282 0)
(1.0345618 0.00070661961 0)
(1.0406627 0.0066531673 9.5244392e-22)
(1.0378051 0.0053722429 7.1834524e-22)
(1.0364043 0.0038365927 4.274137e-22)
(1.0346767 0.0023004857 2.5996512e-23)
(1.0334516 0.00067006815 2.5696287e-25)
(1.0412071 0.0079066306 9.1148951e-22)
(1.0382513 0.0067485277 -2.672415e-23)
(1.0367314 0.0052862047 1.4280069e-21)
(1.0348975 0.0036760133 5.8778841e-22)
(1.0335509 0.0021814941 1.9654263e-23)
(1.0323575 0.00063573387 -1.089815e-21)
(1.0418097 0.0090515906 9.7790832e-22)
(1.0387932 0.0080876599 1.0225588e-21)
(1.0371259 0.0066590788 -8.5529437e-22)
(1.0351733 0.0050618715 -6.3822167e-23)
(1.0337522 0.0034825992 5.2383134e-22)
(1.0324468 0.0020604999 5.3273415e-22)
(1.0313844 0.00060982151 9.3666278e-23)
(1.0424948 0.010059805 5.4917281e-22)
(1.0394452 0.0093872287 8.7352596e-22)
(1.0375916 0.0080188759 1.0320465e-21)
(1.0354911 0.0063789858 6.7814751e-23)
(1.0339966 0.0047808918 -1.3499162e-21)
(1.0326356 0.0032850683 -5.9975695e-22)
(1.0314718 0.0019605734 -6.1251364e-22)
(1.0304754 0.00059144891 1.0125369e-21)
(1.0432879 0.010900636 -1.3421441e-21)
(1.0402417 0.010643463 8.5655936e-22)
(1.0381245 0.0093878736 7.4405807e-23)
(1.0358339 0.0076853627 4.8088624e-22)
(1.0342673 0.0060037102 1.4866871e-22)
(1.0328642 0.0044902897 -1.9999652e-21)
(1.031656 0.0031236566 1.721141e-22)
(1.0305652 0.0018875999 -1.0423632e-21)
(1.0296273 0.0005771121 -2.149644e-21)
(1.0441752 0.011571136 1.1131749e-21)
(1.0412377 0.011902868 -2.3871118e-22)
(1.0387237 0.010802582 -6.0100162e-23)
(1.0361624 0.0090130561 -2.7057215e-22)
(1.0345359 0.0071883241 -2.0665857e-22)
(1.0331174 0.0056112496 2.3625914e-22)
(1.0318853 0.0042546156 6.9877884e-22)
(1.0307463 0.0030104632 1.1730879e-21)
(1.0297199 0.0018374101 6.6583634e-22)
(1.0288271 0.00056340602 1.7171939e-22)
(1.0451015 0.012031244 -5.3986712e-22)
(1.0425904 0.0131566 3.3322832e-22)
(1.039391 0.012353941 6.1772522e-22)
(1.0364472 0.010414635 -8.0583631e-22)
(1.0347391 0.0083531904 5.1999214e-22)
(1.033364 0.0066602198 -1.7782758e-21)
(1.0321482 0.0052991778 7.3147744e-23)
(1.0309796 0.0040972003 1.7596314e-21)
(1.0298946 0.0029388115 -8.8220349e-22)
(1.0289182 0.001797903 1.9455594e-21)
(1.0280724 0.0005487885 -2.9568637e-22)
(1.0463995 0.012153203 5.897546e-23)
(1.0440578 0.014422495 -7.9167631e-22)
(1.0399243 0.014178641 -8.789502e-22)
(1.0366007 0.011979757 0)
(1.0348285 0.009519174 3.8480241e-23)
(1.0335437 0.0076363577 -3.3996122e-22)
(1.0324268 0.0062537298 -3.5358839e-22)
(1.0312542 0.0051064906 -8.6549614e-22)
(1.0301255 0.0040075535 -2.2647977e-22)
(1.0290814 0.0028866024 -1.1189103e-21)
(1.0281567 0.0017558274 -7.64196e-22)
(1.0273641 0.000532045 1.7605537e-22)
(1.0481637 0.011905551 3.8420453e-23)
(1.0457665 0.016068899 1.1231273e-22)
(1.040338 0.01636898 0)
(1.0365534 0.013753451 0)
(1.0346895 0.01071511 -1.5374538e-22)
(1.0336139 0.0085191731 -2.5175377e-22)
(1.0326761 0.0071032866 -4.5843491e-22)
(1.0315706 0.0060297278 1.0173279e-21)
(1.0304013 0.0050150704 1.056195e-22)
(1.0293 0.0039478848 2.6502009e-24)
(1.0283046 0.0028294876 1.2609276e-21)
(1.0274381 0.0016998465 -1.3734147e-21)
(1.0267065 0.00051109535 2.8340007e-21)
(1.0504657 0.011169379 -3.4533247e-22)
(1.0481197 0.018058775 6.3154841e-24)
(1.0408174 0.018917034 -1.3932037e-22)
(1.0362508 0.015784208 -3.3810992e-23)
(1.0342385 0.011926034 9.3997912e-24)
(1.0334992 0.0092936737 -1.6910278e-22)
(1.0328729 0.0078030199 2.770951e-22)
(1.0319035 0.0068516604 1.670131e-23)
(1.0307417 0.0059542856 1.1342816e-21)
(1.029562 0.0049663355 1.0597957e-21)
(1.0285007 0.0038785192 3.4565837e-22)
(1.0275688 0.0027472008 1.0029968e-21)
(1.0267699 0.0016224712 6.8453433e-22)
(1.0261054 0.00048417433 -7.7893506e-22)
(1.0532967 0.0099847773 -4.1026848e-22)
(1.0511502 0.020529863 1.3141848e-22)
(1.0413199 0.022045256 -4.4798968e-22)
(1.0355585 0.01819815 9.1410606e-23)
(1.033353 0.013183934 -7.5529514e-23)
(1.0331385 0.009886277 3.0817214e-22)
(1.0329735 0.0082915506 2.6103287e-22)
(1.0322559 0.0075160595 -3.5397823e-22)
(1.0311411 0.0068180226 -9.9015438e-23)
(1.0298979 0.0059393165 -1.2486777e-22)
(1.0287322 0.0049035771 -2.0489535e-23)
(1.0277354 0.0037687318 -1.4776178e-22)
(1.0268838 0.0026269061 -1.2932388e-21)
(1.0261605 0.0015216711 6.6197781e-22)
(1.0255658 0.00045172195 -6.0022467e-22)
(1.0563542 0.0082280182 2.1094479e-21)
(1.0548334 0.023425439 -1.1156594e-21)
(1.0418184 0.025986334 -2.3285817e-22)
(1.0343248 0.021149545 2.2352653e-22)
(1.0318542 0.014535622 -2.3520111e-22)
(1.032359 0.010209705 -3.957813e-22)
(1.0330501 0.0085059033 -1.7678104e-23)
(1.0326544 0.0079485641 3.2844306e-23)
(1.0316377 0.0075544064 -2.1809306e-22)
(1.030318 0.0068768606 -2.6943822e-22)
(1.0290277 0.0059085994 -2.2080342e-21)
(1.0279202 0.0047810725 4.7948678e-22)
(1.0270207 0.0035997797 4.0210661e-22)
(1.0262607 0.0024657409 1.9855268e-22)
(1.0256158 0.0014015289 3.5286833e-23)
(1.0250895 0.00041635876 6.6925439e-22)
(1.0597342 0.006234229 0)
(1.0589144 0.027083609 -1.0509431e-21)
(1.04218 0.030994462 9.8569252e-22)
(1.0324182 0.024801839 0)
(1.0295462 0.016001665 0)
(1.0310465 0.010228322 0)
(1.03292 0.0082170639 1.0898883e-22)
(1.0332846 0.0081011682 5.0131742e-22)
(1.0323432 0.0081087356 3.5315252e-22)
(1.0308954 0.0077537239 6.5210042e-22)
(1.029399 0.0069257397 9.715173e-23)
(1.0281439 0.0057943525 4.8196113e-22)
(1.0271512 0.0045692634 -2.2575293e-25)
(1.0263723 0.0033671342 -4.6043564e-22)
(1.0257079 0.0022710571 -1.3121714e-22)
(1.0251385 0.0012708303 -3.2573313e-22)
(1.0246744 0.00038128787 0)
(1.0638393 0.0033377142 3.0724639e-21)
(1.0631755 0.031257128 3.7872973e-21)
(1.0420906 0.037226363 -2.0094015e-23)
(1.0296171 0.029336133 2.0261602e-21)
(1.0262175 0.01763276 1.4602788e-21)
(1.0290281 0.0098366704 0)
(1.0325193 0.0073579424 7.1137319e-22)
(1.0340592 0.007757721 -1.9125947e-22)
(1.0332834 0.0083894297 4.5836992e-22)
(1.031727 0.0085605449 4.0340307e-22)
(1.0299175 0.0079778718 -3.9343775e-22)
(1.0283967 0.0068582805 1.2853071e-22)
(1.0272894 0.0055456507 8.1043833e-22)
(1.0264575 0.0042629984 -1.501036e-21)
(1.0258039 0.0030825824 -4.0462211e-22)
(1.0252292 0.0020577139 -2.1895944e-21)
(1.0247265 0.0011401144 -8.7115034e-22)
(1.024315 0.00034931263 -8.5174058e-22)
(1.0706819 0.00054217648 -6.2719112e-22)
(1.0690482 0.03625231 2.3439063e-21)
(1.0415001 0.044895456 8.4757727e-22)
(1.0255618 0.034865696 1.6357018e-21)
(1.0216091 0.019460022 -2.7246398e-22)
(1.0260992 0.0089329203 -3.2825677e-22)
(1.0318035 0.0057325417 -1.5686302e-21)
(1.0349122 0.0067920113 -6.2346436e-22)
(1.0346313 0.0085535536 -8.153512e-23)
(1.0327554 0.0093279238 -6.9317365e-22)
(1.0305975 0.0091348945 -9.9401522e-23)
(1.0287135 0.0080391669 -8.8067736e-22)
(1.0273924 0.006588118 1.5005271e-22)
(1.0265152 0.0051496872 1.1932124e-22)
(1.0258613 0.003879151 1.7841031e-22)
(1.0253224 0.0027697246 3.2947523e-22)
(1.0248226 0.0018436731 -7.2898604e-22)
(1.024374 0.0010188566 3.6854258e-23)
(1.0240036 0.0003230262 -8.1592273e-22)
(1.0794797 -0.0039955868 -4.7637518e-21)
(1.0796975 0.041393612 -4.5821267e-21)
(1.0420978 0.053972625 6.5589281e-21)
(1.0202287 0.041430435 -1.5859035e-21)
(1.0154964 0.021552093 2.9745591e-22)
(1.0220302 0.0073846926 -1.0253991e-22)
(1.0306767 0.0031379771 2.0685392e-22)
(1.03595 0.0050009863 -8.7656562e-23)
(1.0365262 0.0082763749 -1.9504095e-24)
(1.0342381 0.010137236 3.62511e-22)
(1.0314226 0.010479425 -1.1609393e-21)
(1.029049 0.0094359997 3.0349792e-22)
(1.0274537 0.007765582 4.7288764e-22)
(1.0264871 0.0060903048 -4.1828427e-23)
(1.0258688 0.0046376658 1.1970311e-22)
(1.0253737 0.0034512762 1.0406329e-21)
(1.0249264 0.0024558992 -2.4089143e-22)
(1.0244814 0.0016455146 1.1978201e-21)
(1.0240724 0.0009140959 3.184152e-22)
(1.0237311 0.00030482313 8.5894693e-22)
(1.0850626 -0.0094287013 -2.9082938e-22)
(1.0954405 0.047341643 -1.0570626e-20)
(1.0469324 0.064583363 1.9674214e-21)
(1.0147938 0.049286272 1.7459107e-21)
(1.007584 0.023842802 -1.1003852e-21)
(1.0166068 0.005064711 -1.2636542e-21)
(1.0290386 -0.00066247761 1.7471741e-21)
(1.0372378 0.0021413386 5.8992356e-22)
(1.0390762 0.0074281085 5.0633658e-22)
(1.0364341 0.010937297 0)
(1.03264 0.012038654 8.0124437e-22)
(1.0294354 0.011124633 3.4366947e-22)
(1.0274119 0.0091619261 -6.4461773e-22)
(1.0263343 0.0071256572 9.6556414e-23)
(1.0257556 0.0054111857 -4.4569564e-22)
(1.0253686 0.004063112 8.0454462e-22)
(1.0249935 0.0030198448 1.394638e-22)
(1.0246079 0.0021653795 -3.7659338e-22)
(1.0241961 0.0014754322 7.3420564e-22)
(1.0238122 0.00083027861 5.0068225e-23)
(1.0234881 0.00029580599 8.311936e-22)
(1.0843382 -0.015025399 9.4267277e-21)
(1.1049705 0.051077361 -1.4700339e-20)
(1.0568081 0.077103332 -1.0026353e-20)
(1.0113895 0.059038658 -1.4669981e-21)
(0.99778117 0.02649833 -4.3683421e-21)
(1.0096101 0.0018636345 2.1695822e-22)
(1.026761 -0.0059047738 0)
(1.0388424 -0.0020436586 4.5334212e-22)
(1.0424684 0.0058125532 2.5267438e-22)
(1.0395409 0.01170838 1.1339493e-21)
(1.0344174 0.013973638 4.7026294e-22)
(1.0299678 0.0132273 8.3827757e-23)
(1.0272593 0.010869845 -8.2301032e-23)
(1.0259788 0.0083216821 3.6785011e-22)
(1.0254688 0.0062135753 -2.4386969e-22)
(1.0252293 0.0046402398 2.7344082e-22)
(1.0250115 0.0034861786 -1.016269e-22)
(1.0247089 0.002622246 6.4504189e-22)
(1.024354 0.0019156905 1.208301e-22)
(1.0239555 0.0013401162 1.5618844e-23)
(1.0235844 0.00076918043 4.4201604e-22)
(1.0232661 0.00029434156 0)
(1.0788094 -0.020774228 3.1589628e-21)
(1.1052474 0.054880194 1.0909821e-20)
(1.0670799 0.09309643 -6.0406984e-22)
(1.0090984 0.071681013 -3.2081019e-21)
(0.98617923 0.029979951 -4.7805497e-21)
(1.0006716 -0.0023199769 1.7854454e-21)
(1.0237137 -0.012823514 -1.0813663e-21)
(1.0407543 -0.007840705 -9.4162625e-23)
(1.0469412 0.0032365346 -2.8537083e-22)
(1.0438236 0.012394349 -7.8148011e-23)
(1.0369523 0.016428765 -9.5600464e-24)
(1.0307023 0.015966443 -3.2266284e-22)
(1.0269382 0.013042529 -1.04822e-22)
(1.0253417 0.0097607988 1.2885528e-21)
(1.0249113 0.0070805802 8.8019607e-22)
(1.0249046 0.00517213 6.3833159e-22)
(1.0249038 0.0038705301 -1.3152775e-22)
(1.0247778 0.0029607677 -9.967535e-22)
(1.0245005 0.0022865043 -4.0939145e-23)
(1.024149 0.0017169557 3.9516821e-22)
(1.0237489 0.0012412749 0)
(1.0233811 0.00072972672 -1.0063234e-21)
(1.0230584 0.0002960797 -2.1993491e-24)
(1.0655639 -0.026075385 -1.1987739e-20)
(1.0963304 0.058787485 3.6495991e-20)
(1.062702 0.10987835 -1.9626705e-20)
(1.0034915 0.088568693 -1.0529628e-21)
(0.97247445 0.035360153 -9.7391996e-21)
(0.989233 -0.0076387833 0)
(1.0197233 -0.021647723 -3.6696721e-22)
(1.0429636 -0.015553387 6.4813002e-22)
(1.0526649 -0.00055988824 -1.7249288e-21)
(1.0496041 0.012953162 -1.4854163e-21)
(1.0404747 0.019581552 9.1035041e-22)
(1.0317231 0.019594187 2.3824361e-22)
(1.0264014 0.01588514 -1.6351459e-22)
(1.0243012 0.011549166 6.1950522e-22)
(1.023977 0.008052702 -7.0158445e-22)
(1.0242948 0.0056559326 -1.4096179e-21)
(1.0246324 0.0041393066 -1.920877e-22)
(1.0247478 0.0031809455 -3.433827e-22)
(1.024638 0.0025257787 1.0415099e-21)
(1.0243457 0.0020274913 -3.4213476e-22)
(1.0239781 0.0015730431 -8.6125602e-22)
(1.0235667 0.0011771062 9.4116357e-22)
(1.0231946 0.00070860921 -7.2015556e-22)
(1.0228606 0.00029659201 -1.1362403e-24)
(1.0461937 -0.031477586 -4.8957133e-22)
(1.0802135 0.064979966 3.3290183e-20)
(1.0440122 0.12597164 -8.9775351e-22)
(0.99291748 0.10701893 -4.4334295e-21)
(0.95655336 0.042488551 6.9010755e-21)
(0.97511143 -0.013904694 -7.8394308e-21)
(1.0145145 -0.032653046 -4.816217e-22)
(1.0454459 -0.025457744 1.1306569e-21)
(1.0598401 -0.005868404 1.4565919e-23)
(1.0572179 0.013351434 -1.1611792e-21)
(1.0452459 0.02364582 1.013821e-21)
(1.0330741 0.024423083 2.012887e-24)
(1.0255689 0.019650189 5.6272773e-22)
(1.0227174 0.013826939 -8.1328455e-23)
(1.0225168 0.0091704766 -1.0406016e-21)
(1.0232928 0.0060827639 -2.398445e-23)
(1.0241106 0.0042571705 -4.3910543e-23)
(1.0246 0.0032325607 -4.8288706e-22)
(1.0247136 0.0026255571 0)
(1.0245597 0.0022012986 -1.0720527e-22)
(1.0242241 0.0018461143 -3.2274738e-23)
(1.0238301 0.0014825482 6.8310467e-23)
(1.0233997 0.0011434636 -5.3183933e-23)
(1.023018 0.0007017147 1.0259408e-21)
(1.0226707 0.00029488687 5.8072146e-22)
(1.0225287 -0.036576651 2.1783429e-21)
(1.0608928 0.070872024 -2.0299736e-20)
(1.0225786 0.14082641 -4.4955857e-21)
(0.97905219 0.12468644 1.7723697e-22)
(0.94031636 0.050392765 2.6135227e-20)
(0.95889163 -0.021253507 5.574758e-22)
(1.0078495 -0.04615386 -6.7567127e-22)
(1.048118 -0.037786029 -7.8892932e-23)
(1.0684813 -0.012953274 -4.6775214e-21)
(1.0669684 0.013454764 7.7465947e-23)
(1.0515439 0.028869906 -1.2425224e-21)
(1.034798 0.030819605 -4.8671488e-23)
(1.0243242 0.024630355 -3.8436504e-22)
(1.0204031 0.016755397 -3.3266559e-22)
(1.0203455 0.010484535 -3.671715e-22)
(1.021752 0.0064293908 1.3474425e-21)
(1.0232504 0.0041724355 2.0118701e-21)
(1.0242714 0.003058044 6.0954908e-22)
(1.0247303 0.0025297579 8.9577526e-22)
(1.0247499 0.0022291608 1.8486877e-23)
(1.0245138 0.0019884845 -1.0848907e-21)
(1.0241194 0.0017337859 -2.9253064e-22)
(1.0236948 0.0014388383 7.926382e-22)
(1.0232405 0.0011344794 -9.1216563e-22)
(1.0228471 0.00070554149 7.7973334e-22)
(1.0224868 0.0002939729 -4.2097004e-23)
(0.99640757 -0.041336567 -5.7709311e-23)
(1.037183 0.076532912 -2.4119649e-20)
(1.0003039 0.15481907 2.0393147e-20)
(0.96307838 0.13998042 -7.4174745e-21)
(0.92453386 0.060038304 -1.2659329e-20)
(0.94105159 -0.029495046 5.487955e-21)
(0.99956829 -0.062151971 -6.3675493e-23)
(1.0504404 -0.052556473 -1.648227e-22)
(1.0782131 -0.021877649 1.0592034e-20)
(1.0788015 0.013254996 3.5112061e-21)
(1.0595244 0.035545771 -2.967945e-22)
(1.0369104 0.039198919 2.0286432e-21)
(1.0225226 0.031151201 -6.7986911e-22)
(1.0171499 0.02052342 -6.7243716e-22)
(1.0172393 0.012044474 -2.6385646e-22)
(1.0194932 0.0066648564 2.844889e-22)
(1.0219325 0.0038074871 -2.8523175e-23)
(1.0237079 0.0025772112 -1.6735295e-23)
(1.0246538 0.0021698782 2.2734792e-22)
(1.0249412 0.002060555 4.1957464e-23)
(1.024812 0.0019898241 0)
(1.0244753 0.0018715387 -4.1197985e-22)
(1.0240196 0.0016790641 -3.5899609e-23)
(1.023565 0.0014310951 0)
(1.0230862 0.001143932 1.1201149e-21)
(1.0226781 0.00071796184 2.14918e-24)
(1.0223065 0.00029725754 -5.7280736e-22)
(0.9690896 -0.045555419 -6.8030536e-22)
(1.0114834 0.081677623 -1.6594056e-21)
(0.97467762 0.16794437 1.7775223e-20)
(0.94161192 0.15440789 -2.9597688e-21)
(0.90730803 0.069539744 -1.6200465e-21)
(0.92230549 -0.037645386 -3.7950433e-21)
(0.98899084 -0.079939918 -1.5215451e-22)
(1.0515487 -0.069577713 4.0149563e-21)
(1.0881676 -0.032418274 -2.8326342e-21)
(1.0917843 0.012921593 -7.5492581e-21)
(1.068698 0.044131184 3.6193739e-21)
(1.0392607 0.050037086 -5.0339751e-22)
(1.0199422 0.03956716 -4.7080516e-22)
(1.0126783 0.025318813 -4.0653244e-22)
(1.0129425 0.013902518 -9.4453214e-22)
(1.0163036 0.0067373006 -2.3929708e-22)
(1.0200144 0.0030667578 -1.3236195e-21)
(1.0228335 0.0016739404 -1.0211981e-21)
(1.0244711 0.0014534354 -4.2590719e-22)
(1.0251285 0.0016286625 -6.2334906e-22)
(1.0251621 0.0018145978 -3.9609469e-22)
(1.0248668 0.0018855495 8.7514009e-23)
(1.0244255 0.0018250789 3.4678285e-23)
(1.0239202 0.0016705634 0)
(1.0234386 0.0014483032 0)
(1.0229339 0.0011670409 -8.1419732e-23)
(1.0225092 0.00073739961 1.0158056e-21)
(1.0221282 0.0003050953 1.1009379e-21)
(0.94160688 -0.049278013 0)
(0.98500966 0.08644338 -1.1935554e-20)
(0.94816628 0.18002142 -1.6568008e-20)
(0.91743215 0.16762278 -3.9188331e-21)
(0.88698584 0.079025028 4.3720749e-23)
(0.90304127 -0.045778223 -5.3020237e-22)
(0.97624396 -0.099477885 -1.5356974e-21)
(1.0510885 -0.088833488 1.038446e-20)
(1.0979448 -0.044792659 -1.6965044e-20)
(1.1054604 0.012737467 2.5864876e-21)
(1.0776945 0.055183207 -4.9707324e-22)
(1.0408755 0.063858038 -1.5352679e-21)
(1.0161997 0.050270633 -6.4758646e-22)
(1.0066398 0.031336101 -8.919852e-22)
(1.0071537 0.016098396 -2.1436561e-22)
(1.0119434 0.0065827006 -9.8001521e-22)
(1.0173303 0.001824165 -1.2137726e-22)
(1.0215618 0.0002103735 -2.6596816e-22)
(1.024158 0.00024763722 -1.6239252e-22)
(1.0253396 0.00084556994 -2.7743497e-22)
(1.025585 0.0014095977 -2.657643e-22)
(1.0253434 0.0017544343 -2.0438465e-22)
(1.0248886 0.0018773284 2.1986974e-23)
(1.0243652 0.0018257218 9.6083729e-22)
(1.0238256 0.0016969167 2.7090906e-22)
(1.023313 0.0014833627 -7.1888356e-24)
(1.0227821 0.0011996921 -1.0899439e-21)
(1.0223402 0.00076129682 6.7231659e-22)
(1.0219507 0.00031524093 -1.6508559e-21)
(0.91463363 -0.052354048 3.4368824e-22)
(0.95873521 0.090663794 0)
(0.92166204 0.19113246 0)
(0.892457 0.17938472 0)
(0.86608965 0.088227532 0)
(0.88413328 -0.053980137 2.0751583e-21)
(0.96149151 -0.12025619 -1.3496266e-21)
(1.0491067 -0.11075547 -4.5206356e-21)
(1.1081246 -0.060149641 -3.7055606e-20)
(1.1218142 0.01190165 3.26873e-20)
(1.0877035 0.068979168 -8.4752945e-21)
(1.0405419 0.08103435 1.8589247e-21)
(1.0103513 0.06357798 9.8069188e-22)
(0.99859528 0.038763939 1.5099751e-21)
(0.99952503 0.018649747 2.289634e-21)
(1.0061482 0.006119551 -1.1375626e-22)
(1.0136929 -6.8422e-05 -1.018559e-21)
(1.0197938 -0.0019877829 2.0211462e-22)
(1.0236961 -0.0016031933 5.8474671e-22)
(1.0256041 -0.00041506281 4.2358133e-22)
(1.0261433 0.00070818165 2.5021008e-22)
(1.0259458 0.001449751 -1.3112282e-22)
(1.0254547 0.0018246399 -4.1518174e-22)
(1.0248692 0.0019153482 3.21941e-22)
(1.0242974 0.001862901 -1.0802455e-23)
(1.0237285 0.0017481481 2.2858916e-22)
(1.0231836 0.0015307238 -8.6504868e-22)
(1.0226297 0.0012368883 6.5967245e-24)
(1.022172 0.00078653889 -2.6074314e-21)
(1.0217739 0.00032534822 -9.942948e-22)
(0.88598277 -0.05574539 -2.1155585e-21)
(0.93321878 0.094833997 -9.5142982e-21)
(0.89610112 0.20119474 0)
(0.86757208 0.19001928 0)
(0.84493986 0.095081239 0)
(0.86574924 -0.060252268 0)
(0.94532754 -0.14156058 0)
(1.0436798 -0.1343687 1.3607185e-21)
(1.1188826 -0.07837467 1.6766936e-20)
(1.1432778 0.0085413545 -5.0668751e-20)
(1.1048661 0.084172152 6.2388929e-22)
(1.0420612 0.10170691 -8.2552795e-21)
(1.0015633 0.079424626 2.9781832e-21)
(0.98790835 0.047684059 2.9001894e-21)
(0.98967338 0.021531436 -2.8053218e-22)
(0.99864039 0.005238111 6.2339314e-22)
(1.0089015 -0.0027763911 -3.4122442e-22)
(1.0174146 -0.005122123 4.3837888e-22)
(1.0230598 -0.00429783 -4.6754249e-22)
(1.0259701 -0.0023043991 -1.9360364e-22)
(1.0269124 -0.00039143409 -2.6434662e-23)
(1.0267609 0.00093849187 -3.6234238e-22)
(1.0261671 0.0016650804 -1.8823266e-23)
(1.0254792 0.0019589487 1.4892716e-22)
(1.0248135 0.0019960845 -9.7258792e-23)
(1.0242117 0.001942333 -7.4721241e-22)
(1.0236164 0.0018135748 -2.4620844e-22)
(1.0230501 0.0015819675 3.781236e-22)
(1.0224783 0.0012741942 1.5478921e-24)
(1.0220053 0.00081095638 1.8824249e-21)
(1.0215985 0.00033431977 6.467416e-22)
(0.85585435 -0.058907132 3.6619525e-21)
(0.90642126 0.098251225 -6.37535e-22)
(0.87164581 0.21040847 -1.3388203e-20)
(0.84358032 0.19945425 -2.5512327e-20)
(0.82395002 0.10072332 0)
(0.84727829 -0.068375407 0)
(0.928572 -0.16272089 -1.6620322e-21)
(1.0344015 -0.1582856 -2.0840952e-20)
(1.1203523 -0.098064709 5.2596721e-20)
(1.1614263 0.0016475587 -6.3377223e-20)
(1.1321443 0.098733478 -1.9621816e-21)
(1.0533965 0.12464353 1.256566e-20)
(0.99340004 0.098093957 1.096962e-21)
(0.97388833 0.057852036 -3.4406729e-22)
(0.97720569 0.024647409 -1.9793162e-21)
(0.98913896 0.0037929089 -4.0900765e-23)
(1.0027529 -0.0064841767 2.358578e-21)
(1.0143005 -0.0094164261 -6.5092843e-23)
(1.0222215 -0.0080656999 -1.0221543e-21)
(1.026491 -0.0050180848 -2.9549562e-22)
(1.0279987 -0.0020108939 -5.6758876e-22)
(1.027896 0.0001589991 1.8380017e-22)
(1.0271261 0.0014059033 -2.3494278e-22)
(1.0262324 0.0019623184 -2.940159e-22)
(1.025427 0.002121114 2.8201273e-24)
(1.02473 0.002106573 -2.8837937e-22)
(1.0241162 0.0020297281 -2.041489e-22)
(1.023505 0.0018705753 -2.1843735e-22)
(1.0229215 0.0016294569 5.2003058e-22)
(1.0223295 0.0013096751 -3.817412e-23)
(1.0218403 0.0008337438 9.1027328e-22)
(1.0214249 0.00034203851 6.843847e-23)
(0.82542714 -0.062356813 -2.8634599e-21)
(0.87861912 0.10136346 3.224315e-21)
(0.84638723 0.21944159 1.8841674e-20)
(0.82123236 0.20782909 4.5151421e-20)
(0.80386237 0.10489458 0)
(0.82880694 -0.07589109 0)
(0.91145225 -0.18305663 0)
(1.0217713 -0.18181461 -9.7099978e-23)
(1.1163297 -0.11751865 -7.4142678e-20)
(1.1653669 -0.0074052617 -6.7975751e-20)
(1.1595516 0.11254868 -2.4792103e-21)
(1.0749438 0.14960332 3.9139384e-21)
(0.99348953 0.12010238 -1.0673425e-20)
(0.95758634 0.069330033 1.4229914e-21)
(0.96168947 0.027763198 -6.0205484e-22)
(0.97739774 0.0016038553 0)
(0.99505817 -0.011385276 6.7319031e-22)
(1.0103197 -0.015102809 -4.8058697e-22)
(1.0211444 -0.013162794 -2.3242321e-22)
(1.0272321 -0.0087825639 1.2107422e-22)
(1.0295321 -0.0043128751 2.5250276e-22)
(1.0295024 -0.00096042632 2.6029434e-22)
(1.0284551 0.0010345006 2.8722287e-22)
(1.027223 0.0019726536 2.6651125e-22)
(1.0261575 0.0022742206 -2.8785244e-23)
(1.0253162 0.0022924257 -4.0589028e-23)
(1.0246279 0.0022161175 1.2255607e-23)
(1.0240171 0.0020965826 -1.3781566e-23)
(1.0233989 0.0019215385 5.6333178e-22)
(1.0227956 0.0016747559 3.942321e-22)
(1.022182 0.0013431257 1.7397906e-23)
(1.0216772 0.0008547288 -2.5529826e-21)
(1.0212539 0.00034870462 9.5955927e-22)
(0.79472316 -0.065153072 -5.5578217e-21)
(0.84849554 0.10073281 0)
(0.82041753 0.22791084 2.5129183e-20)
(0.79944499 0.21624152 8.3477859e-20)
(0.78513231 0.10783758 -1.7486125e-20)
(0.81047545 -0.08283262 -1.8055939e-21)
(0.8939079 -0.20229689 -4.2797623e-20)
(1.0061555 -0.20437357 2.8916528e-20)
(1.107173 -0.13636908 1.3620895e-20)
(1.1626671 -0.016967417 1.6800572e-19)
(1.1698989 0.12467689 -4.9874385e-20)
(1.0965955 0.17825941 -4.7368979e-20)
(1.0017694 0.14728831 1.8631675e-21)
(0.94313087 0.083842444 -2.7206394e-21)
(0.94269866 0.03048467 -2.2396021e-21)
(0.9632371 -0.0015220312 6.4692811e-23)
(0.98565545 -0.017664681 3.0726597e-22)
(1.0053486 -0.022406265 5.2830315e-22)
(1.0197797 -0.019855806 -9.707249e-23)
(1.0282559 -0.013861068 1.2839477e-23)
(1.0316654 -0.0074894291 2.4756985e-22)
(1.0317671 -0.0025235135 3.2739366e-22)
(1.0303274 0.00054294064 -1.4517448e-22)
(1.0285716 0.0020267353 2.3169216e-22)
(1.0270812 0.0025267052 2.7584563e-22)
(1.0259766 0.0025536501 8.4700809e-23)
(1.0251728 0.0024353929 1.0762739e-22)
(1.0245215 0.0022912403 1.3949556e-23)
(1.0239211 0.0021482467 2.1301088e-22)
(1.023293 0.0019713453 -6.3172933e-23)
(1.0226688 0.0017171991 2.6717638e-22)
(1.0220364 0.0013733932 2.4162457e-23)
(1.0215167 0.00087393932 1.0331414e-21)
(1.0210855 0.00035454776 -1.7877935e-21)
(0.76547294 -0.067672054 5.9104404e-21)
(0.81610883 0.10166348 -1.5104419e-22)
(0.79426724 0.23553677 -1.4210365e-20)
(0.77815894 0.22563347 -4.8645578e-20)
(0.76689123 0.11161636 9.3854635e-20)
(0.79329878 -0.091812872 4.69552e-20)
(0.87576979 -0.22008948 7.2077698e-21)
(0.98842187 -0.22534113 0)
(1.0918494 -0.15476253 5.5042279e-20)
(1.1552693 -0.024292586 2.2411939e-19)
(1.1630378 0.13574005 2.3100243e-21)
(1.1048118 0.20827531 2.1856519e-20)
(1.0079935 0.18029189 0)
(0.9334202 0.10367615 2.8567192e-21)
(0.92044475 0.033679869 2.923193e-21)
(0.94637326 -0.0059500571 -2.1259195e-24)
(0.97444988 -0.025501912 -2.3539633e-21)
(0.99927196 -0.031527554 0)
(1.0180671 -0.028412402 -8.8162809e-24)
(1.0296117 -0.020540205 7.9794397e-23)
(1.0345674 -0.011777261 6.8497235e-23)
(1.0349147 -0.0046530866 2.4742419e-22)
(1.0329582 -9.5793406e-05 0)
(1.0304471 0.0021806894 2.3585993e-22)
(1.0282981 0.0029517118 1.0929145e-22)
(1.0267639 0.0029747153 -8.8975202e-24)
(1.0257397 0.002746587 9.7289418e-23)
(1.0250234 0.0025159213 -9.9501397e-23)
(1.0244212 0.002332532 1.6995106e-25)
(1.0238341 0.0021883546 6.8957758e-22)
(1.0231946 0.0020104651 -1.2314268e-21)
(1.0225488 0.0017527616 -6.9348545e-22)
(1.0218947 0.0014004005 0)
(1.0213592 0.00089175512 -4.0437225e-23)
(1.0209202 0.00035977144 -5.2865151e-22)
(0.73862458 -0.070132491 8.9514704e-21)
(0.785288 0.10301241 -8.8914562e-21)
(0.76950507 0.24221086 -8.9067949e-23)
(0.75800039 0.23375892 -1.6494102e-20)
(0.74887247 0.11919755 3.1053751e-20)
(0.77375845 -0.096154113 1.0700774e-20)
(0.85858122 -0.23736013 6.1757451e-20)
(0.96926874 -0.24489937 6.1714033e-21)
(1.0728861 -0.17169011 0)
(1.1419498 -0.030077106 -8.0961437e-20)
(1.1461097 0.14871413 6.8216406e-20)
(1.0924565 0.23561393 -7.9523109e-21)
(1.0068394 0.21479777 9.8544332e-21)
(0.92675676 0.12982706 -5.5394599e-22)
(0.89724473 0.037970543 4.720154e-22)
(0.92645392 -0.011699805 1.6269463e-21)
(0.96141069 -0.035055782 -3.5048146e-21)
(0.99200764 -0.042644329 -1.6894166e-22)
(1.0159444 -0.039077056 1.0306303e-21)
(1.0313359 -0.029121533 -8.4262379e-23)
(1.0384027 -0.017445694 1.2371219e-23)
(1.039213 -0.0075165781 -4.5874906e-23)
(1.036616 -0.00090369102 0)
(1.0330604 0.0024960852 7.1455524e-23)
(1.0299459 0.0036715332 3.2876289e-23)
(1.0277374 0.003671948 -1.7964896e-23)
(1.0263472 0.0032606344 -9.9885319e-23)
(1.0254883 0.0028336085 -2.9739277e-23)
(1.0248855 0.0025363384 -5.8908668e-23)
(1.024337 0.0023481261 0)
(1.023759 0.0022152548 -5.4400961e-22)
(1.0231032 0.0020422651 -1.3506941e-21)
(1.0224326 0.0017851537 1.9017067e-21)
(1.0217559 0.0014255074 -5.9952191e-22)
(1.0212044 0.00090883684 7.9490252e-23)
(1.0207582 0.00036460142 1.8846022e-21)
(0.71464073 -0.072367092 -1.0189902e-20)
(0.75752258 0.10346581 -1.7292974e-22)
(0.74701877 0.24791683 -5.3585801e-21)
(0.73962426 0.24099608 -1.1827868e-22)
(0.73217461 0.12533759 -1.5147142e-19)
(0.75410503 -0.095777768 -9.832228e-20)
(0.837553 -0.25166454 -1.9101916e-21)
(0.9497637 -0.26205299 4.1159104e-20)
(1.0516144 -0.18801126 5.1166192e-21)
(1.1231886 -0.035037342 7.3622444e-20)
(1.1271439 0.1616378 1.0547744e-21)
(1.0723515 0.26150638 -2.1805218e-20)
(0.99986025 0.2465093 3.3891584e-21)
(0.92412988 0.1586726 -5.8271954e-21)
(0.87754299 0.047449003 0)
(0.90292927 -0.019841609 0)
(0.94680115 -0.046553356 6.638738e-23)
(0.98352942 -0.055836626 3.05665e-22)
(1.0133469 -0.052049327 5.0613263e-22)
(1.0334392 -0.039894115 2.377264e-22)
(1.0433334 -0.024796045 1.7738368e-22)
(1.0449339 -0.011310426 4.4495599e-22)
(1.0416287 -0.0019447688 -1.4788329e-22)
(1.0366823 0.0030620125 0)
(1.0321996 0.0048251138 -5.6407337e-22)
(1.0289875 0.0048053559 -1.1518986e-22)
(1.0270126 0.0041066167 -1.1599885e-22)
(1.0259036 0.0033619302 8.8026282e-23)
(1.0252577 0.0028170923 -4.2759791e-24)
(1.0247763 0.0025071751 5.3322275e-23)
(1.0242754 0.0023415975 3.5604538e-22)
(1.0236972 0.0022311932 -5.1954271e-22)
(1.023019 0.0020699555 1.4689133e-23)
(1.0223198 0.0018153311 1.9324509e-21)
(1.0216197 0.0014494486 -2.7444843e-24)
(1.0210528 0.00092573824 -5.3066899e-23)
(1.020599 0.00036929311 6.7704493e-22)
(0.69407406 -0.07452512 -7.191755e-22)
(0.73283662 0.10370107 1.5410824e-20)
(0.72771484 0.25279314 -1.490479e-20)
(0.72354106 0.24729573 1.6015469e-20)
(0.71734573 0.13128622 -2.7410253e-22)
(0.73627912 -0.096295786 6.4564975e-22)
(0.81476889 -0.26408486 3.2958958e-20)
(0.92544935 -0.27953512 -2.1379224e-21)
(1.0279773 -0.20019308 0)
(1.1001021 -0.039784619 -1.612759e-20)
(1.1043037 0.17404125 0)
(1.0511899 0.28503775 0)
(0.98575984 0.27426156 -1.2942659e-20)
(0.92104046 0.18706146 6.1138803e-22)
(0.8630841 0.059889575 1.2481963e-21)
(0.87850208 -0.026790848 2.0895289e-21)
(0.92979227 -0.06021195 -2.9578747e-22)
(0.97391133 -0.071139468 -3.3432332e-21)
(1.0101566 -0.067436028 -1.7248831e-21)
(1.0358447 -0.053119546 -6.735795e-22)
(1.0494559 -0.034160982 1.4821876e-22)
(1.0523778 -0.016291306 -9.9550723e-22)
(1.0483497 -0.0032870148 -1.085017e-22)
(1.0416333 0.0039447028 -4.7055306e-22)
(1.0352825 0.0065940696 -1.2457152e-22)
(1.0306286 0.0065689051 2.81104e-23)
(1.0277709 0.005465339 1.7261297e-22)
(1.0262451 0.0042300595 -1.0317374e-22)
(1.0254959 0.0032846135 -9.420048e-25)
(1.025077 0.0027098777 -9.5424354e-23)
(1.0247073 0.0024374291 -3.7618161e-23)
(1.0242392 0.0023182404 -6.1436855e-23)
(1.0236495 0.0022405602 4.4626253e-22)
(1.0229421 0.002094476 1.1966694e-21)
(1.0222118 0.0018440568 -3.8497105e-21)
(1.0214874 0.0014731239 -7.6570461e-22)
(1.0209041 0.00094322992 -6.6748036e-22)
(1.0204431 0.0003740825 0)
(0.67757158 -0.076612736 2.6203956e-20)
(0.71184811 0.10274949 -1.100085e-22)
(0.7117949 0.25632844 -6.7739192e-21)
(0.71008819 0.25282582 1.6905619e-20)
(0.7050662 0.13654282 1.0584965e-19)
(0.72087287 -0.096877257 6.7520275e-20)
(0.79183224 -0.27560664 -4.0666426e-21)
(0.8984367 -0.29696881 -7.1688028e-20)
(1.0001456 -0.21742195 -7.716015e-21)
(1.0746886 -0.038847731 -1.6316295e-19)
(1.078116 0.18714082 2.7309558e-21)
(1.0265617 0.30768867 0)
(0.96564149 0.2996786 0)
(0.91033729 0.21264367 1.0118963e-20)
(0.85120772 0.076080623 -1.058179e-20)
(0.85531112 -0.034437669 -6.5387418e-21)
(0.91061079 -0.075832258 1.7092959e-21)
(0.96309445 -0.088385003 1.1220574e-21)
(1.0061864 -0.085265836 -1.7045209e-21)
(1.0384285 -0.069003288 -1.8097892e-21)
(1.0568108 -0.045883436 -1.6589233e-22)
(1.0618173 -0.022765191 -5.5508265e-22)