/*--------------------------------*- C++ -*----------------------------------*\
| =========                 |                                                 |
| \\      /  F ield         | OpenFOAM: The Open Source CFD Toolbox           |
|  \\    /   O peration     | Version:  5.0                                   |
|   \\  /    A nd           | Web:      www.OpenFOAM.org                      |
|    \\/     M anipulation  |                                                 |
\*---------------------------------------------------------------------------*/
FoamFile
{
    version     2.0;
    format      ascii;
    class       volVectorField;
    location    "180";
    object      U_0;
}
// * * * * * * * * * * * * * * * * * * * * * * * * * * * * * * * * * * * * * //

dimensions      [0 1 -1 0 0 0 0];

internalField   nonuniform List<vector> 
9200
(
(1.0392937 0.00076210371 -1.9120511e-24)
(1.0394775 0.0024339762 8.568383e-22)
(1.0369996 0.00075839652 0)
(1.0397671 0.0038770738 -4.5400116e-22)
(1.037154 0.0024449719 7.4789165e-22)
(1.0359976 0.00074130522 0)
(1.0401685 0.0053200972 -4.5449814e-23)
(1.0374244 0.0039016091 8.558526e-24)
(1.0361362 0.0024024408 0)
(1.0345417 0.00070740791 0)
(1.040637 0.0066464047 9.4438692e-22)
(1.0377853 0.0053690523 7.1155859e-22)
(1.0363857 0.0038376068 4.2395661e-22)
(1.0346568 0.0023027331 2.5790948e-23)
(1.0334302 0.00067077314 2.5472527e-25)
(1.0411771 0.007896832 9.0389698e-22)
(1.0382309 0.0067428238 -2.6853479e-23)
(1.0367132 0.0052870581 1.4163582e-21)
(1.0348777 0.0036795529 5.8289811e-22)
(1.0335298 0.0021839058 1.9442551e-23)
(1.032335 0.00063599524 -1.0814474e-21)
(1.0417729 0.0090371508 9.6749235e-22)
(1.038772 0.0080775613 1.0143603e-21)
(1.0371087 0.006659089 -8.485374e-22)
(1.035154 0.0050667215 -6.3256826e-23)
(1.0337312 0.003486609 5.1989333e-22)
(1.0324242 0.0020619099 5.286568e-22)
(1.0313618 0.00060954641 9.2974365e-23)
(1.0424478 0.01003846 5.3976857e-22)
(1.0394232 0.0093695672 8.6520588e-22)
(1.0375769 0.0080168947 1.0233074e-21)
(1.035473 0.0063851571 6.6683436e-23)
(1.0339758 0.0047868905 -1.3397013e-21)
(1.0326127 0.0032875071 -5.951927e-22)
(1.0314487 0.0019603086 -6.0787309e-22)
(1.0304533 0.00059079652 1.0047134e-21)
(1.0432261 0.01086797 -1.3255353e-21)
(1.0402201 0.010613125 8.519825e-22)
(1.038115 0.0093819404 7.2532636e-23)
(1.0358187 0.0076931876 4.7757687e-22)
(1.0342471 0.0060121395 1.4674375e-22)
(1.0328407 0.0044941713 -1.9854746e-21)
(1.0316327 0.0031232698 1.7087174e-22)
(1.0305426 0.001885605 -1.03437e-21)
(1.0296064 0.00057632356 -2.1329158e-21)
(1.0440915 0.011520694 1.0959404e-21)
(1.0412187 0.01185202 -2.4436161e-22)
(1.0387238 0.010789323 -5.91195e-23)
(1.0361533 0.0090231242 -2.6504327e-22)
(1.0345169 0.0072004361 -2.0513948e-22)
(1.0330931 0.005617008 2.3405637e-22)
(1.0318612 0.0042541758 6.9377704e-22)
(1.0307236 0.0030070421 1.1644272e-21)
(1.0296988 0.0018342457 6.6090996e-22)
(1.0288077 0.00056262964 1.7047029e-22)
(1.0449939 0.011957288 -5.3159616e-22)
(1.0425799 0.013072142 3.2291153e-22)
(1.0394097 0.012328863 6.1692415e-22)
(1.0364489 0.010428077 -8.0053853e-22)
(1.0347226 0.0083712494 5.1997516e-22)
(1.0333382 0.0066688925 -1.7676608e-21)
(1.0321227 0.0052986748 7.259739e-23)
(1.0309564 0.004091903 1.7469365e-21)
(1.0298738 0.0029333138 -8.7553421e-22)
(1.028899 0.0017944293 1.9306833e-21)
(1.0280544 0.00054811379 -2.9319584e-22)
(1.0462705 0.012037941 6.09826e-23)
(1.0440595 0.014287727 -7.7192972e-22)
(1.0399735 0.014137731 -8.7063579e-22)
(1.0366208 0.011999497 0)
(1.0348164 0.0095474114 3.8131289e-23)
(1.0335154 0.0076501356 -3.3727508e-22)
(1.0323988 0.0062532295 -3.5130316e-22)
(1.0312304 0.0050988491 -8.5953229e-22)
(1.0301049 0.0039990104 -2.2546454e-22)
(1.0290629 0.0028805914 -1.1103782e-21)
(1.0281392 0.0017529451 -7.5810339e-22)
(1.027347 0.00053162876 1.7469452e-22)
(1.0480093 0.011727785 3.7578311e-23)
(1.0457958 0.015873669 1.0483893e-22)
(1.0404268 0.016307706 0)
(1.0365979 0.01378571 0)
(1.0346819 0.010759814 -1.5560525e-22)
(1.0335817 0.0085415765 -2.493217e-22)
(1.0326435 0.0071033948 -4.5596019e-22)
(1.031545 0.0060189158 1.0107784e-21)
(1.0303808 0.0050028521 1.0495392e-22)
(1.0292823 0.0039386751 2.642982e-24)
(1.028288 0.0028245619 1.250585e-21)
(1.0274217 0.0016983372 -1.3611082e-21)
(1.0266896 0.00051114915 2.8094746e-21)
(1.0502818 0.010895219 -3.2427034e-22)
(1.048198 0.017783008 7.4514177e-24)
(1.0409629 0.018830955 -1.5225643e-22)
(1.0363298 0.015835697 -2.3630576e-23)
(1.0342368 0.011997454 4.4112909e-24)
(1.0334601 0.0093307231 -1.6752891e-22)
(1.0328325 0.0078049362 2.7546668e-22)
(1.0318739 0.0068367333 1.6601666e-23)
(1.0307206 0.0059372538 1.1275916e-21)
(1.0295455 0.0049532667 1.0533899e-21)
(1.0284857 0.0038711165 3.4302257e-22)
(1.0275535 0.002744692 9.9519723e-22)
(1.0267538 0.0016228511 6.7901482e-22)
(1.026088 0.00048480562 -7.7201248e-22)
(1.0530274 0.0096213197 -3.8154599e-22)
(1.0513002 0.020142852 1.7916742e-22)
(1.041551 0.021929588 -4.3940205e-22)
(1.0356881 0.018275888 8.9146845e-23)
(1.0333623 0.013296514 -7.472034e-23)
(1.0330852 0.00994513 3.0541047e-22)
(1.0329194 0.0082991843 2.5966299e-22)
(1.0322186 0.0074963682 -3.5211528e-22)
(1.0311175 0.0067945367 -9.8698538e-23)
(1.0298826 0.0059210679 -1.2420878e-22)
(1.0287194 0.0048930394 -2.0339987e-23)
(1.0277221 0.0037650555 -1.4748853e-22)
(1.0268687 0.0026276427 -1.2822071e-21)
(1.0261437 0.0015240402 6.558752e-22)
(1.0255471 0.00045284257 -5.9455488e-22)
(1.056023 0.007725555 1.8676709e-21)
(1.0550803 0.022887248 -1.128129e-21)
(1.0421696 0.025838139 -1.9711932e-22)
(1.0345254 0.021266792 1.9906905e-22)
(1.031877 0.01470783 -2.2539078e-22)
(1.0322858 0.010305134 -4.0212922e-22)
(1.0329677 0.0085200345 -2.2696279e-23)
(1.0326015 0.0079229322 3.2722717e-23)
(1.0316076 0.0075222537 -2.1691778e-22)
(1.0303034 0.0068511323 -2.688917e-22)
(1.0290183 0.0058935558 -2.1927642e-21)
(1.0279101 0.0047759597 4.7425753e-22)
(1.0270076 0.0036010307 3.9867506e-22)
(1.0262448 0.0024698357 1.9725074e-22)
(1.0255977 0.0014055357 3.5532199e-23)
(1.0250692 0.0004177603 6.6279681e-22)
(1.0593562 0.0055671552 0)
(1.059291 0.026351902 -1.1169552e-21)
(1.0426925 0.030810004 9.6925617e-22)
(1.0327151 0.024976568 0)
(1.029586 0.016258322 0)
(1.0309439 0.010378262 0)
(1.0327935 0.0082454252 1.095155e-22)
(1.0332085 0.008069827 4.9847304e-22)
(1.0323001 0.0080643277 3.528876e-22)
(1.0308797 0.0077162293 6.4824607e-22)
(1.0293945 0.0069038405 9.705075e-23)
(1.0281386 0.0057868978 4.7869367e-22)
(1.0271415 0.0045712634 1.8862748e-25)
(1.0263581 0.0033734527 -4.5650516e-22)
(1.0256903 0.0022779021 -1.3051511e-22)
(1.0251186 0.0012758053 -3.2256247e-22)
(1.0246524 0.0003827481 0)
(1.0633723 0.0024887454 4.4769593e-21)
(1.0637006 0.030281071 3.8939585e-21)
(1.0428081 0.037005551 -2.718911e-22)
(1.0300372 0.029591278 1.9484562e-21)
(1.0262795 0.018005669 1.4392166e-21)
(1.0288826 0.01006395 0)
(1.0323345 0.0074085858 7.1805931e-22)
(1.0339374 0.0077080814 -1.9346951e-22)
(1.0332294 0.0083275325 4.5601914e-22)
(1.0317117 0.0085024563 4.0330231e-22)
(1.029921 0.007943732 -3.9106544e-22)
(1.0284 0.0068470227 1.2850048e-22)
(1.0272852 0.0055487777 8.0325068e-22)
(1.0264459 0.0042722176 -1.4892357e-21)
(1.0257874 0.0030929623 -4.0265604e-22)
(1.0252094 0.0020661782 -2.167779e-21)
(1.0247046 0.0011452945 -8.627031e-22)
(1.0242914 0.00035060633 -8.4301147e-22)
(1.0700821 -0.0004532574 -7.302542e-22)
(1.069709 0.034980062 2.5211066e-21)
(1.042451 0.044644086 8.7892958e-22)
(1.0261277 0.035230545 1.5258537e-21)
(1.0216986 0.019989937 -2.6980446e-22)
(1.0258935 0.0092665933 -3.4412996e-22)
(1.0315361 0.0058167119 -1.5969569e-21)
(1.0347231 0.0067224896 -6.5027384e-22)
(1.0345621 0.0084562443 -8.0713669e-23)
(1.0327437 0.0092349925 -6.8877071e-22)
(1.0306164 0.0090791215 -9.9039014e-23)
(1.0287316 0.0080210468 -8.7526917e-22)
(1.0273973 0.0065923351 1.4710863e-22)
(1.0265081 0.0051634741 1.1926136e-22)
(1.0258461 0.003894194 1.7816453e-22)
(1.0253027 0.002782406 3.2612698e-22)
(1.0248004 0.0018524265 -7.2134242e-22)
(1.0243503 0.00102356 3.6254003e-23)
(1.0239786 0.00032389793 -8.072333e-22)
(1.0785891 -0.0053490009 -3.6144608e-21)
(1.0804467 0.039771582 -4.8251786e-21)
(1.043301 0.053692186 7.3773965e-21)
(1.0209655 0.041938307 -1.521625e-21)
(1.0156155 0.022284659 2.7223703e-22)
(1.0217426 0.0078612661 -1.1318918e-22)
(1.0302952 0.0032700777 2.1230738e-22)
(1.0356687 0.0049057498 -7.5718829e-23)
(1.0364195 0.0081220232 -2.1222447e-24)
(1.034231 0.010001837 3.6263457e-22)
(1.0314622 0.010392471 -1.1532592e-21)
(1.0290903 0.009407783 3.0213586e-22)
(1.027474 0.0077721054 4.7075087e-22)
(1.0264873 0.006110557 -4.1664101e-23)
(1.0258559 0.0046595701 1.2012617e-22)
(1.025354 0.0034696154 1.0295453e-21)
(1.0249036 0.0024689164 -2.3680242e-22)
(1.0244571 0.001653346 1.1851883e-21)
(1.0240473 0.00091778729 3.150979e-22)
(1.0237052 0.00030504625 8.4966703e-22)
(1.0842647 -0.010975754 -2.8124876e-22)
(1.0962661 0.0453488 -1.084933e-20)
(1.0484467 0.064253493 1.8512805e-21)
(1.0157698 0.049960422 1.5601999e-21)
(1.0077374 0.024826326 -1.1290843e-21)
(1.016212 0.0057284271 -1.2668047e-21)
(1.028502 -0.0004656762 1.8114869e-21)
(1.0368297 0.0020146924 6.8118046e-22)
(1.0389085 0.0071936417 4.9088669e-22)
(1.0364322 0.01073569 0)
(1.0327101 0.011908603 7.9567263e-22)
(1.0295087 0.011082891 3.4163865e-22)
(1.0274547 0.0091730444 -6.4107728e-22)
(1.026346 0.0071561873 9.1872423e-23)
(1.0257465 0.0054432843 -4.4310022e-22)
(1.0253487 0.0040892379 7.9638873e-22)
(1.0249692 0.003038506 1.4009772e-22)
(1.0245823 0.0021769989 -3.7160847e-22)
(1.0241701 0.0014814606 7.2564703e-22)
(1.0237861 0.00083259981 4.9641286e-23)
(1.0234619 0.00029535057 8.2205938e-22)
(1.0835736 -0.016708239 8.3566227e-21)
(1.1055547 0.048441035 -1.4750172e-20)
(1.0587803 0.076667203 -1.0617673e-20)
(1.0127782 0.059882302 -9.3809506e-22)
(0.9980102 0.027791068 -4.3330437e-21)
(1.009078 0.0027652343 1.9829956e-22)
(1.0260239 -0.0056227433 0)
(1.0382645 -0.0022083392 4.6438282e-22)
(1.0422121 0.0054703159 2.6179581e-22)
(1.0395417 0.011406489 1.1322331e-21)
(1.0345341 0.013780928 4.6513233e-22)
(1.0300923 0.013163967 8.2203139e-23)
(1.0273366 0.010887346 -8.2237896e-23)
(1.026008 0.0083679984 3.6667681e-22)
(1.0254655 0.0062610296 -2.3993488e-22)
(1.025209 0.0046778046 2.6877642e-22)
(1.0249847 0.0035121587 -1.0053864e-22)
(1.0246807 0.0026384463 6.3716313e-22)
(1.0243263 0.0019246355 1.203735e-22)
(1.0239284 0.0013438681 1.5566764e-23)
(1.0235576 0.00077001772 4.3696853e-22)
(1.02324 0.00029351082 0)
(1.0778413 -0.022830691 2.7977869e-21)
(1.1059027 0.051635943 1.0915335e-20)
(1.0697428 0.09243543 -5.6321462e-22)
(1.0111392 0.07267902 -2.4242699e-21)
(0.98659545 0.031667568 -4.8071559e-21)
(0.99996808 -0.0011216919 1.7973614e-21)
(1.0227254 -0.012431812 -1.0356606e-21)
(1.0399542 -0.0080496355 2.1031799e-23)
(1.046562 0.0027510984 -2.5723294e-22)
(1.0438223 0.011946108 -7.9708521e-23)
(1.0371358 0.016144823 -8.9443939e-24)
(1.0309041 0.015872204 -3.1462491e-22)
(1.0270688 0.013069661 -1.0482381e-22)
(1.0253975 0.0098306525 1.2908933e-21)
(1.0249166 0.007151221 8.7769908e-22)
(1.0248833 0.0052267005 6.3268329e-22)
(1.0248727 0.0039069738 -1.3173491e-22)
(1.0247455 0.0029826459 -9.8359761e-22)
(1.0244697 0.0022981751 -4.0030703e-23)
(1.0241202 0.0017224352 3.9013928e-22)
(1.0237213 0.0012426407 0)
(1.0233541 0.000729236 -9.9459384e-22)
(1.0230327 0.00029538667 -2.1724791e-24)
(1.0645311 -0.028532646 -1.066948e-20)
(1.0978335 0.054866697 3.7015142e-20)
(1.0661068 0.10884214 -1.8305376e-20)
(1.006228 0.089797284 -1.5398677e-21)
(0.97316981 0.037545696 -9.7153995e-21)
(0.98832328 -0.0060700803 0)
(1.0184241 -0.021119526 -3.52939e-22)
(1.041881 -0.015811148 6.9726557e-22)
(1.0521173 -0.0012278803 -1.661079e-21)
(1.0495948 0.01230071 -1.5117807e-21)
(1.0407528 0.019165202 9.1045123e-22)
(1.0320379 0.019455902 2.4517868e-22)
(1.026611 0.015927753 -1.6815935e-22)
(1.024396 0.011654454 6.2008779e-22)
(1.0239944 0.0081578613 -6.972707e-22)
(1.0242711 0.0057357915 -1.4025689e-21)
(1.0245939 0.0041911064 -1.9943829e-22)
(1.0247082 0.0032105598 -3.3843806e-22)
(1.0246021 0.0025406891 1.0237157e-21)
(1.024314 0.0020336986 -3.354613e-22)
(1.0239491 0.001574729 -8.4961308e-22)
(1.0235391 0.0011762532 9.2934281e-22)
(1.023168 0.00070711652 -7.1167524e-22)
(1.0228354 0.00029636074 -1.1100634e-24)
(1.0449939 -0.034271123 -3.9211756e-22)
(1.0821452 0.060440355 3.4043202e-20)
(1.0475746 0.12470814 -7.1900122e-22)
(0.99588836 0.1085201 -2.1262768e-21)
(0.95749661 0.045303601 6.9079984e-21)
(0.97396045 -0.011840873 -7.8777353e-21)
(1.0128315 -0.031961042 -4.6298126e-22)
(1.044015 -0.025767376 8.6671019e-22)
(1.0590705 -0.0067638278 5.9439225e-23)
(1.0571922 0.012422391 -1.17052e-21)
(1.0456562 0.023041215 1.0033242e-21)
(1.0335519 0.024224722 -2.5134066e-23)
(1.0258929 0.019717788 5.6663491e-22)
(1.0228686 0.013985401 -8.151902e-23)
(1.022551 0.0093261709 -1.0445156e-21)
(1.0232651 0.0061998636 -2.2516126e-23)
(1.0240603 0.0043313744 -4.5477776e-23)
(1.0245485 0.0032730443 -4.752083e-22)
(1.0246691 0.0026444354 0)
(1.0245227 0.0022078253 -1.058665e-22)
(1.0241927 0.001847036 -3.1847615e-23)
(1.0238015 0.001480621 6.7404037e-23)
(1.0233727 0.0011407833 -5.2506582e-23)
(1.022992 0.00069956207 1.0140279e-21)
(1.0226459 0.00029495703 5.7434123e-22)
(1.0211958 -0.03962742 2.0644982e-21)
(1.0630581 0.065746699 -2.0748345e-20)
(1.0260208 0.1395575 -4.2224745e-21)
(0.98181077 0.12640578 3.9531767e-23)
(0.94145997 0.05387462 2.5271591e-20)
(0.95749115 -0.018563404 6.152103e-22)
(1.0057219 -0.045278677 -6.4831457e-22)
(1.0462779 -0.03815853 -5.3971888e-23)
(1.0674391 -0.014132062 -4.5630914e-21)
(1.0669185 0.012157527 3.1882711e-23)
(1.0521378 0.02800433 -1.2515027e-21)
(1.0355021 0.030541985 -4.2328146e-23)
(1.0248044 0.024737164 -3.7292928e-22)
(1.0206327 0.016992058 -3.352741e-22)
(1.0204023 0.010713066 -3.7098136e-22)
(1.0217172 0.006600172 1.353761e-21)
(1.0231815 0.0042790433 2.0220569e-21)
(1.024201 0.0031139437 5.9860361e-22)
(1.0246717 0.0025534556 8.7813683e-22)
(1.0247043 0.0022355845 1.8500986e-23)
(1.0244777 0.0019868896 -1.0664019e-21)
(1.0240894 0.0017301376 -2.8741576e-22)
(1.0236673 0.0014340234 7.8139718e-22)
(1.0232145 0.0011305111 -9.0090494e-22)
(1.0228219 0.00070298041 7.7083908e-22)
(1.0224626 0.00029389446 -4.1626406e-23)
(0.99507469 -0.04455714 -8.8525835e-23)
(1.0395204 0.070862135 -2.4545193e-20)
(1.0037851 0.1535984 1.947562e-20)
(0.96576537 0.14183016 -7.394857e-21)
(0.92597551 0.06431875 -1.0507547e-20)
(0.93947922 -0.026096408 5.5789005e-21)
(0.99697717 -0.061092339 3.0921651e-22)
(1.0481581 -0.053025367 1.8864268e-22)
(1.0768831 -0.023411583 1.0300815e-20)
(1.0787442 0.011467776 3.5365937e-21)
(1.0603773 0.034323541 -2.8886148e-22)
(1.037921 0.038821603 2.1017641e-21)
(1.0232136 0.031318713 -7.2059881e-22)
(1.0174851 0.02087175 -6.7156672e-22)
(1.0173259 0.012376076 -2.667415e-22)
(1.0194468 0.0069113377 2.8906244e-22)
(1.0218355 0.0039602445 -3.7273687e-23)
(1.0236085 0.0026549377 -6.0884155e-24)
(1.0245728 0.0021997238 2.1855635e-22)
(1.0248816 0.0020655186 4.3574333e-23)
(1.0247685 0.0019841139 0)
(1.0244423 0.0018636357 -4.0463118e-22)
(1.0239916 0.0016717074 -3.5570378e-23)
(1.0235388 0.0014244409 0)
(1.0230612 0.0011392119 1.1063745e-21)
(1.022654 0.00071515593 2.0226353e-24)
(1.0222828 0.00029677669 -5.6677523e-22)
(0.96790032 -0.048889658 -9.1120187e-22)
(1.0139269 0.075503093 -1.7178092e-21)
(0.97810683 0.1668101 1.7138971e-20)
(0.9443275 0.15638726 -2.9588857e-21)
(0.90902687 0.074496406 -1.3488202e-21)
(0.92065919 -0.033425857 -4.6674592e-21)
(0.98589031 -0.078665828 -1.6499412e-22)
(1.0488121 -0.070172789 3.5596135e-21)
(1.0865354 -0.034379464 -2.831948e-21)
(1.0917762 0.010505103 -7.6155072e-21)
(1.0699331 0.042438196 3.728516e-21)
(1.0406802 0.049539934 -4.390958e-22)
(1.020911 0.039825107 -4.3662512e-22)
(1.0131513 0.025822519 -4.1477437e-22)
(1.0130668 0.01437653 -9.5556029e-22)
(1.0162389 0.0070880153 -2.4142741e-22)
(1.0198765 0.0032837568 -1.3504577e-21)
(1.022691 0.0017823027 -9.9762571e-22)
(1.0243559 0.0014913423 -4.1784463e-22)
(1.0250468 0.0016301892 -6.2523909e-22)
(1.025107 0.0018018412 -3.8606254e-22)
(1.0248281 0.0018697376 8.7131495e-23)
(1.0243967 0.0018131189 3.4091222e-23)
(1.0238941 0.0016605085 0)
(1.0234138 0.0014407576 0)
(1.02291 0.0011620414 -8.0382853e-23)
(1.0224859 0.00073457129 1.0043906e-21)
(1.0221051 0.00030434513 1.0895802e-21)
(0.94056236 -0.052714292 0)
(0.98750818 0.079819757 -1.2224313e-20)
(0.95149917 0.17897616 -1.6070784e-20)
(0.92008599 0.16973571 -3.6169219e-21)
(0.88878525 0.084514698 4.3969253e-24)
(0.90136657 -0.040624486 -2.5314063e-22)
(0.972563 -0.097913241 -1.3066378e-21)
(1.0478432 -0.089523776 9.533164e-21)
(1.0958944 -0.047197801 -1.6222901e-20)
(1.105443 0.0095568411 2.5757529e-21)
(1.0794334 0.052887314 -5.1235026e-22)
(1.0428364 0.063230265 -1.5358585e-21)
(1.0175261 0.050658721 -4.9546247e-22)
(1.0072869 0.0320509 -9.1478714e-22)
(1.007323 0.01676369 -2.2123564e-22)
(1.0118513 0.0070735998 -1.0005012e-21)
(1.0171341 0.0021282899 -1.2030841e-22)
(1.0213574 0.0003608968 -2.7980649e-22)
(1.0239924 0.00029610949 -1.3569254e-22)
(1.0252243 0.00084080585 -2.8625514e-22)
(1.0255114 0.0013849898 -2.5676685e-22)
(1.0252966 0.0017273039 -1.9855569e-22)
(1.0248576 0.0018563224 2.1737337e-23)
(1.0243397 0.0018112821 9.4188527e-22)
(1.0238013 0.0016853878 2.6632901e-22)
(1.0232898 0.0014756341 -6.8483327e-24)
(1.0227591 0.0011949629 -1.0766167e-21)
(1.0223177 0.00075878264 6.6495163e-22)
(1.0219281 0.00031452137 -1.6343198e-21)
(0.91371938 -0.055882738 4.87497e-22)
(0.96123478 0.083624528 0)
(0.92485902 0.19017717 0)
(0.89502136 0.18165341 0)
(0.86777899 0.094029698 0)
(0.88245609 -0.047862827 3.0100322e-21)
(0.95733274 -0.1184537 -1.3148339e-21)
(1.0452601 -0.11147294 -4.489492e-21)
(1.105444 -0.062910553 -3.5907195e-20)
(1.121518 0.0078421319 3.1850694e-20)
(1.0898423 0.065972296 -8.4877722e-21)
(1.0431037 0.080297935 1.8911586e-21)
(1.0121049 0.064157726 9.0696055e-22)
(0.9994526 0.039760699 1.5575363e-21)
(0.99974361 0.01956595 2.3199156e-21)
(1.006016 0.006793962 -1.1772759e-22)
(1.0134167 0.00035105278 -1.048267e-21)
(1.0195031 -0.0017803196 1.927585e-22)
(1.0234581 -0.0015405558 5.9788489e-22)
(1.025439 -0.00043001305 4.1959443e-22)
(1.0260415 0.00066461685 2.3858934e-22)
(1.0258867 0.0014043528 -1.3028309e-22)
(1.0254195 0.0017887864 -4.0083357e-22)
(1.0248449 0.0018926069 3.1378984e-22)
(1.0242754 0.0018461283 -1.0596456e-23)
(1.0237068 0.0017364365 2.2471987e-22)
(1.0231619 0.0015236834 -8.5295765e-22)
(1.0226075 0.0012329857 7.2327352e-24)
(1.0221499 0.00078465514 -2.5794701e-21)
(1.0217517 0.00032487491 -9.8465304e-22)
(0.88519399 -0.059357251 -2.4282715e-21)
(0.93571226 0.087514453 -1.0352333e-20)
(0.89914804 0.20030858 0)
(0.87004506 0.19244185 0)
(0.84638491 0.10130217 0)
(0.86406566 -0.053078874 0)
(0.94093049 -0.1395428 0)
(1.0394308 -0.13513732 1.3395049e-21)
(1.1153733 -0.081597423 1.5955597e-20)
(1.1423364 0.0035244802 -5.0538215e-20)
(1.1070071 0.080437429 6.1597837e-22)
(1.0450806 0.10089105 -8.3508289e-21)
(1.0037608 0.080278194 3.3026986e-21)
(0.98899443 0.049051072 2.9086922e-21)
(0.98993943 0.02276962 -2.8598945e-22)
(0.99845019 0.0061463785 6.3527045e-22)
(1.0085185 -0.0022079686 -3.5619772e-22)
(1.0170072 -0.0048394642 4.5457996e-22)
(1.0227213 -0.0042160897 -4.5796863e-22)
(1.0257334 -0.0023345068 -1.8628455e-22)
(1.0267689 -0.00046376151 -2.468731e-23)
(1.0266831 0.00086468786 -3.535859e-22)
(1.0261267 0.0016068443 -1.8618237e-23)
(1.0254566 0.0019208169 1.4428977e-22)
(1.0247956 0.0019713007 -9.5132559e-23)
(1.0241933 0.0019249573 -7.3113042e-22)
(1.023597 0.0018038071 -2.4188265e-22)
(1.0230291 0.0015765875 3.7296527e-22)
(1.0224565 0.0012714769 1.6155388e-24)
(1.0219834 0.00080988258 1.8627887e-21)
(1.0215764 0.00033416368 6.40569e-22)
(0.85519785 -0.062600969 4.5078545e-21)
(0.90887838 0.090557201 -8.5776154e-22)
(0.87459363 0.20954819 -1.2557968e-20)
(0.84594876 0.20203549 -2.4673766e-20)
(0.82518103 0.10740499 0)
(0.84553534 -0.060436708 0)
(0.92414448 -0.16039544 -1.7318989e-21)
(1.029845 -0.15914066 -1.9757274e-20)
(1.11681 -0.10168183 5.034299e-20)
(1.1605253 -0.0042483912 -6.396154e-20)
(1.1341485 0.094113932 -1.8641696e-21)
(1.0567868 0.12373901 1.3008469e-20)
(0.99607505 0.099293337 1.0477143e-21)
(0.97519578 0.059681258 -3.425639e-22)
(0.97750498 0.026288656 -2.0162507e-21)
(0.98886567 0.0049908535 -4.4584327e-23)
(1.0022314 -0.0057288033 2.456068e-21)
(1.0137396 -0.009036571 -6.8628525e-23)
(1.0217468 -0.0079585093 -1.0655776e-21)
(1.026154 -0.0050693171 -2.363359e-22)
(1.0277947 -0.0021250066 -5.6934289e-22)
(1.0277903 4.2436525e-05 1.7281103e-22)
(1.0270785 0.0013135394 -2.1515147e-22)
(1.0262124 0.0019003262 -2.8557325e-22)
(1.0254156 0.0020830209 1.4928676e-24)
(1.0247177 0.0020821138 -2.8043283e-22)
(1.0241008 0.0020159396 -1.9977751e-22)
(1.0234862 0.0018638555 -2.1536504e-22)
(1.0229008 0.0016260151 5.1328838e-22)
(1.0223079 0.0013082807 -3.811291e-23)
(1.0218184 0.00083353646 9.0136127e-22)
(1.0214028 0.00034218825 6.7805288e-23)
(0.82492671 -0.066073044 -3.1781907e-21)
(0.88108527 0.093412941 5.3965891e-21)
(0.84923783 0.21859333 1.7325156e-20)
(0.82345491 0.21056541 4.3995458e-20)
(0.80490678 0.11206306 0)
(0.82699337 -0.067166015 0)
(0.90707105 -0.18040363 0)
(1.017021 -0.18276844 -1.7832947e-22)
(1.1125984 -0.12163758 -7.2492183e-20)
(1.1645343 -0.014178616 -6.8085548e-20)
(1.1613493 0.10681179 -2.3799889e-21)
(1.0789162 0.14839361 4.032313e-21)
(0.99682595 0.12159188 -1.1525135e-20)
(0.95922003 0.071722029 1.6460876e-21)
(0.96198749 0.029885674 -6.4331859e-22)
(0.97700839 0.0031494433 0)
(0.994361 -0.010402223 7.0580303e-22)
(1.0095635 -0.014600391 -5.1014395e-22)
(1.0204906 -0.013021605 -2.2940071e-22)
(1.0267582 -0.0088617827 1.2599025e-22)
(1.0292424 -0.0044852729 2.229707e-22)
(1.029356 -0.0011392818 2.5675924e-22)
(1.0283968 0.00089158471 2.7110539e-22)
(1.0272075 0.0018750777 2.5157395e-22)
(1.0261563 0.0022143716 -2.547536e-23)
(1.0253144 0.002257075 -3.9516188e-23)
(1.0246198 0.0021968613 1.1753312e-23)
(1.0240033 0.0020877379 -1.3557729e-23)
(1.0233808 0.0019172083 5.5511038e-22)
(1.0227753 0.0016732809 3.8855583e-22)
(1.0221603 0.0013431833 1.7721724e-23)
(1.0216553 0.00085538237 -2.5289804e-21)
(1.0212316 0.00034912565 9.513538e-22)
(0.79442816 -0.068913042 -6.0922916e-21)
(0.85088113 0.092258685 0)
(0.82314294 0.22704047 2.0973206e-20)
(0.80148481 0.21911839 8.084151e-20)
(0.78603191 0.11548821 -1.6160909e-20)
(0.80856144 -0.073527366 -1.5080122e-21)
(0.88955269 -0.19939426 -4.0997919e-20)
(1.0013696 -0.20543815 2.7832096e-20)
(1.1035705 -0.14095395 1.3727842e-20)
(1.1619606 -0.024522374 1.6888564e-19)
(1.1712626 0.11763177 -5.0711988e-20)
(1.1016244 0.17651418 -4.9170499e-20)
(1.0060457 0.14885792 1.9016837e-21)
(0.94548858 0.08685651 -2.6933241e-21)
(0.94298418 0.033169253 -2.3123769e-21)
(0.96268794 0.0004252321 8.9989475e-23)
(0.9847412 -0.016413279 3.2606774e-22)
(1.0043511 -0.021752752 5.4043381e-22)
(1.0188972 -0.019669206 -1.0656561e-22)
(1.0275999 -0.013975109 7.8253043e-24)
(1.0312575 -0.0077404958 2.5247328e-22)
(1.0315618 -0.0027896789 2.7959189e-22)
(1.0302533 0.00032591676 -1.4055754e-22)
(1.0285633 0.0018768791 2.3184603e-22)
(1.0270955 0.0024349089 2.5943529e-22)
(1.0259905 0.0025022565 8.0046972e-23)
(1.0251772 0.0024089726 1.0308294e-22)
(1.0245158 0.0022797854 1.2803239e-23)
(1.0239077 0.0021439617 2.0880106e-22)
(1.0232748 0.0019704304 -6.2425823e-23)
(1.022648 0.0017182314 2.6399968e-22)
(1.0220144 0.0013749667 2.3753402e-23)
(1.0214944 0.0008753994 1.0237934e-21)
(1.0210629 0.00035520363 -1.7732489e-21)
(0.76536393 -0.07148991 6.462774e-21)
(0.81826849 0.092874493 -1.3074845e-22)
(0.79676211 0.2346238 -8.1737561e-21)
(0.78002744 0.22854919 -4.7114909e-20)
(0.76771985 0.11968714 9.4278259e-20)
(0.79128945 -0.082060679 4.3157194e-20)
(0.87144815 -0.2169232 7.0142098e-21)
(0.98369564 -0.22653515 0)
(1.0883823 -0.1598134 5.4062708e-20)
(1.154465 -0.032829593 2.2400836e-19)
(1.1653859 0.12725188 3.0105252e-21)
(1.1111363 0.20585235 2.2428695e-20)
(1.0132672 0.18194744 0)
(0.93689456 0.10745338 2.9963211e-21)
(0.92086689 0.037099237 2.9249792e-21)
(0.94560099 -0.0035563971 -4.8619211e-23)
(0.97327483 -0.023942555 -2.5530803e-21)
(0.99798405 -0.030691647 0)
(1.0169008 -0.028164772 3.0666832e-23)
(1.0287197 -0.020694289 1.0884842e-22)
(1.0339991 -0.012130474 1.8325199e-24)
(1.0346275 -0.0050388915 2.4207365e-22)
(1.0328611 -0.00041698037 0)
(1.0304495 0.0019554509 2.1186726e-22)
(1.0283359 0.0028134306 1.1075093e-22)
(1.0268018 0.0028989995 -8.9351125e-24)
(1.0257636 0.0027098976 9.1833851e-23)
(1.0250312 0.0025011974 -9.4970271e-23)
(1.024416 0.0023286477 3.1272689e-25)
(1.0238202 0.0021890247 6.7721771e-22)
(1.0231756 0.0020132047 -1.2139582e-21)
(1.0225273 0.0017560646 -6.8479855e-22)
(1.0218722 0.0014033407 0)
(1.0213364 0.00089391069 -4.0073425e-23)
(1.0208972 0.00036062035 -5.2463156e-22)
(0.73864864 -0.073991002 9.834467e-21)
(0.78714295 0.093964813 -9.5713644e-21)
(0.77168792 0.24126412 4.8484079e-21)
(0.75966349 0.2367453 -1.5837079e-20)
(0.74971216 0.1274385 3.1213123e-20)
(0.77187074 -0.085760279 1.1466711e-20)
(0.85434897 -0.23408783 6.0923863e-20)
(0.96462674 -0.24618639 6.0696313e-21)
(1.0695204 -0.17718106 0)
(1.141215 -0.039609337 -8.0306632e-20)
(1.1495196 0.13884788 7.1728398e-20)
(1.0988801 0.23279096 -7.7215506e-21)
(1.0124518 0.21664586 1.0233296e-20)
(0.93113998 0.13437139 -9.2155655e-22)
(0.89816048 0.042409984 8.4069786e-22)
(0.92535892 -0.0087757884 1.7423303e-21)
(0.9599249 -0.033159886 -4.0279417e-21)
(0.99037908 -0.041594215 -3.6590572e-22)
(1.014433 -0.038748788 1.128099e-21)
(1.0301437 -0.02931902 -2.3010793e-22)
(1.0376207 -0.017927941 9.6235509e-23)
(1.0388115 -0.0080622093 -6.0960113e-23)
(1.0364854 -0.0013692954 0)
(1.0330786 0.0021639293 6.5716772e-23)
(1.0300188 0.0034661693 3.2649526e-23)
(1.0278119 0.0035602514 -1.3235317e-23)
(1.0264012 0.0032081875 -9.6630148e-23)
(1.0255176 0.0028143694 -2.8587911e-23)
(1.0248939 0.0025333898 -5.5782542e-23)
(1.0243306 0.0023517503 0)
(1.0237437 0.0022210429 -5.3376127e-22)
(1.0230831 0.0020481717 -1.3311209e-21)
(1.0224103 0.0017904593 1.8819419e-21)
(1.0217327 0.0014296317 -5.9468183e-22)
(1.0211811 0.00091155086 7.8680632e-23)
(1.0207347 0.00036559183 1.8706473e-21)
(0.71475728 -0.076265423 -1.1060264e-20)
(0.75905616 0.094219249 -1.8537426e-22)
(0.74885638 0.24693657 -6.112563e-21)
(0.74107769 0.24404446 -1.392479e-22)
(0.7329854 0.13378492 -1.5111854e-19)
(0.75240784 -0.084571349 -9.9396091e-20)
(0.8334958 -0.24807427 -1.8343849e-21)
(0.94534182 -0.2635536 4.0226745e-20)
(1.0484679 -0.19392856 5.2715567e-21)
(1.1225949 -0.045467425 7.292617e-20)
(1.130951 0.15071296 1.0307883e-21)
(1.078429 0.2585948 -2.1368467e-20)
(1.0052385 0.2485012 3.415759e-21)
(0.92930086 0.1638651 -7.0025666e-21)
(0.87910862 0.053062004 0)
(0.90146405 -0.016320461 0)
(0.94495017 -0.04430106 2.9350642e-22)
(0.98151274 -0.054541306 5.2865381e-22)
(1.0114305 -0.051617616 3.0684506e-22)
(1.0318788 -0.040133662 1.9209718e-22)
(1.0422744 -0.025433887 2.3931039e-22)
(1.0443765 -0.012063607 3.8296861e-22)
(1.0414508 -0.0026066101 -1.3416778e-22)
(1.0367216 0.0025814393 0)
(1.0323237 0.0045247806 -5.3497294e-22)
(1.0291162 0.0046422713 -1.0432733e-22)
(1.0271118 0.0040316294 -1.1622243e-22)
(1.0259657 0.0033366357 9.3368066e-23)
(1.0252876 0.0028162058 -4.0282829e-24)
(1.0247826 0.0025158594 4.9834484e-23)
(1.0242665 0.0023525668 3.4763633e-22)
(1.0236798 0.0022416701 -5.1340376e-22)
(1.0229973 0.0020788613 1.4228221e-23)
(1.0222964 0.0018224879 1.9130813e-21)
(1.0215957 0.0014545545 -3.707576e-24)
(1.0210289 0.00092884207 -5.2737857e-23)
(1.0205749 0.00037036773 6.7231805e-22)
(0.69423968 -0.078448293 -7.8901707e-22)
(0.73403492 0.094352143 1.6517073e-20)
(0.72920239 0.25182735 -1.5089876e-20)
(0.72479438 0.25037535 1.5368317e-20)
(0.71809742 0.13993101 -2.4649721e-22)
(0.73477628 -0.084541789 5.9417461e-22)
(0.8108897 -0.26002448 3.3659736e-20)
(0.9212202 -0.28102174 -2.1043353e-21)
(1.0250592 -0.20655183 0)
(1.0997691 -0.051037135 -1.6030448e-20)
(1.1085229 0.16208703 0)
(1.0572438 0.28199013 0)
(0.99101782 0.2763727 -1.3410666e-20)
(0.92600036 0.192756 6.7523837e-22)
(0.8649641 0.066919469 8.53475e-22)
(0.87695398 -0.022351124 1.698681e-21)
(0.92745825 -0.057628616 5.0145878e-23)
(0.97148323 -0.06957783 -3.0709091e-21)
(1.0077854 -0.066874318 -1.5167163e-21)
(1.0338469 -0.053392734 -6.0714375e-22)
(1.0480452 -0.034977941 1.4558636e-23)
(1.0516092 -0.017306337 -1.0063462e-21)
(1.0481019 -0.004210582 -8.8135762e-23)
(1.0417017 0.003258776 -4.1534553e-22)
(1.0354795 0.0061617978 -1.1726434e-22)
(1.0308359 0.0063340326 2.7522883e-23)
(1.0279363 0.0053590033 1.6697645e-22)
(1.0263561 0.0041969174 -1.0462948e-22)
(1.0255586 0.0032876706 -1.3227708e-24)
(1.0251032 0.0027270366 -1.0154844e-22)
(1.0247092 0.0024572815 -3.9073514e-23)
(1.0242267 0.0023359482 -6.1458672e-23)
(1.0236294 0.0022551984 4.3596198e-22)
(1.0229185 0.00210595 1.1833731e-21)
(1.0221871 0.0018526363 -3.811272e-21)
(1.0214625 0.0014788989 -7.5834301e-22)
(1.0208795 0.00094653337 -6.6227691e-22)
(1.0204186 0.00037518197 0)
(0.67773827 -0.080547384 2.6662247e-20)
(0.71267373 0.09331201 -1.1377926e-22)
(0.71291885 0.25539709 -6.9769164e-21)
(0.71111371 0.25599237 1.5484196e-20)
(0.70570682 0.14537337 1.0521017e-19)
(0.71956157 -0.084538396 6.7611128e-20)
(0.78820055 -0.27112782 -3.8144187e-21)
(0.89444697 -0.2983046 -7.0974153e-20)
(0.99731516 -0.22402692 -7.9331748e-21)
(1.0746391 -0.050758328 -1.620122e-19)
(1.0824951 0.17416467 2.6032144e-21)
(1.0326401 0.30451469 0)
(0.97096809 0.30184544 0)
(0.91515529 0.21872796 1.0090311e-20)
(0.85420465 0.084479629 -9.7213115e-21)
(0.8539579 -0.028971904 -5.8215289e-21)
(0.90774045 -0.072835143 1.5575924e-21)
(0.9602085 -0.086548562 8.7248611e-22)
(1.0033209 -0.084542378 -1.381355e-21)
(1.0359209 -0.069290512 -1.8554843e-21)
(1.0549598 -0.046895941 -1.628536e-22)
(1.0607649 -0.024101218 -5.5513268e-22)