/*--------------------------------*- C++ -*----------------------------------*\
| =========                 |                                                 |
| \\      /  F ield         | OpenFOAM: The Open Source CFD Toolbox           |
|  \\    /   O peration     | Version:  5.0                                   |
|   \\  /    A nd           | Web:      www.OpenFOAM.org                      |
|    \\/     M anipulation  |                                                 |
\*---------------------------------------------------------------------------*/
FoamFile
{
    version     2.0;
    format      ascii;
    class       volVectorField;
    location    "180";
    object      UMean;
}
// * * * * * * * * * * * * * * * * * * * * * * * * * * * * * * * * * * * * * //

dimensions      [0 1 -1 0 0 0 0];

internalField   nonuniform List<vector> 
9200
(
(1.0250203 0.0001564013 -2.8609255e-24)
(1.025235 0.00049626007 2.181711e-22)
(1.0246631 0.00013394741 0)
(1.025561 0.00088029537 -1.2408332e-22)
(1.0248264 0.00043179928 1.9365408e-22)
(1.0244619 0.00012155853 0)
(1.0259687 0.0012405359 -1.1068133e-23)
(1.0250919 0.0007751697 -2.3609753e-23)
(1.0246168 0.0003741906 0)
(1.0242895 8.6817866e-05 0)
(1.0264443 0.0017135201 3.0207367e-22)
(1.0254042 0.0010707799 3.1342295e-22)
(1.0248543 0.00068438443 1.1216612e-22)
(1.0244149 0.00025990311 5.3290984e-24)
(1.0241385 6.1649229e-05 3.7213511e-25)
(1.0269422 0.0021880748 2.8347252e-22)
(1.025762 0.0014780028 3.0072904e-23)
(1.0251325 0.00093398936 4.0992176e-22)
(1.0246201 0.00050930263 1.9232074e-22)
(1.0242571 0.00015814458 3.3109767e-23)
(1.0241088 2.7524271e-05 -1.1333773e-22)
(1.0274187 0.0027574382 4.3132673e-22)
(1.0261347 0.0018588306 2.9045462e-22)
(1.0254462 0.0012934218 -2.3297087e-22)
(1.0248581 0.00067756556 -2.6987167e-23)
(1.0244401 0.00034932099 8.5071748e-23)
(1.0242144 2.8678957e-05 9.4082642e-23)
(1.0240809 -3.6499771e-06 2.7680852e-23)
(1.0278319 0.0033575923 3.7688756e-22)
(1.0264937 0.0023146015 3.4202686e-22)
(1.0257682 0.0016133728 3.5068938e-22)
(1.0251261 0.00096512907 9.1163318e-23)
(1.0246474 0.00044341608 -3.2928415e-22)
(1.0243769 0.00015076411 -1.4317366e-22)
(1.0241809 -9.6596109e-05 1.814145e-23)
(1.0241653 -3.7501332e-05 -1.6680229e-23)
(1.0281652 0.004019804 -5.9615003e-22)
(1.026823 0.0027686709 2.1418545e-22)
(1.026072 0.0019973038 8.6847423e-23)
(1.0254051 0.0012054089 1.1639616e-22)
(1.0248749 0.00066268506 2.010843e-22)
(1.024562 0.00015857681 -3.4976771e-22)
(1.0243277 -4.291634e-05 -2.6786392e-22)
(1.0242621 -0.00023453972 7.2491865e-23)
(1.0242617 -6.8849295e-05 1.3850921e-22)
(1.0283615 0.0046906183 5.4359043e-22)
(1.027089 0.003250465 8.6445738e-23)
(1.0263364 0.0023681653 -3.7560912e-23)
(1.0256685 0.0015132004 -2.9788452e-22)
(1.0251102 0.00082840951 -7.6856291e-23)
(1.0247616 0.00030130323 3.3625262e-22)
(1.0244931 -0.00011941601 1.0168663e-22)
(1.0243983 -0.0002558387 5.2220435e-23)
(1.0243575 -0.00036597954 4.7728495e-23)
(1.0244481 -0.0001001082 8.0030407e-24)
(1.0283502 0.0053492897 -2.4728067e-22)
(1.0272542 0.0037171084 2.3631673e-22)
(1.0265447 0.0027554203 1.5610109e-22)
(1.0259076 0.0018114703 -2.7712032e-22)
(1.0253291 0.0010601278 -1.4349503e-22)
(1.0249682 0.00038552523 -1.2217445e-22)
(1.0246661 -5.3205525e-05 1.1148043e-22)
(1.0245528 -0.00042444808 -1.0400896e-22)
(1.0244853 -0.00045915611 9.8924548e-23)
(1.0245477 -0.00050106428 -1.4465908e-22)
(1.0246485 -0.00012826602 7.8544737e-23)
(1.0282656 0.0060191645 4.1061323e-23)
(1.0272581 0.0041575025 -3.4730006e-22)
(1.0266804 0.003125538 -3.4980479e-22)
(1.0261096 0.0021296141 0)
(1.0255253 0.0012786596 2.2704604e-23)
(1.0251559 0.00054030815 -3.5283403e-22)
(1.0248433 -4.9181903e-05 -4.5928855e-25)
(1.0247084 -0.00044196603 5.4394767e-23)
(1.0246315 -0.0007156987 -3.694629e-22)
(1.0246734 -0.00066900071 1.5004179e-22)
(1.0247534 -0.00062650456 1.4767872e-22)
(1.0249175 -0.00015454081 -2.5995355e-23)
(1.0280652 0.006679927 3.2439641e-23)
(1.0271523 0.0045912392 -2.53753e-23)
(1.0266878 0.003473822 0)
(1.0262604 0.0024391102 0)
(1.0256818 0.0015198412 1.5977438e-23)
(1.0253204 0.00068874613 -4.6198751e-22)
(1.0249972 2.7113991e-05 3.0229066e-22)
(1.0248667 -0.00052407784 4.5583867e-23)
(1.0247722 -0.00081487894 2.7923196e-23)
(1.02482 -0.0010178357 4.348363e-24)
(1.0248793 -0.00086442091 -3.9672293e-22)
(1.0250328 -0.00074850658 6.133623e-22)
(1.0251967 -0.00017703894 -9.5331083e-22)
(1.0269227 0.0070650051 -4.9273669e-22)
(1.0270392 0.0050812871 2.5129178e-23)
(1.0265213 0.0037842789 -1.5855217e-22)
(1.026308 0.0027305285 2.6761805e-23)
(1.0257932 0.0017607614 5.2593606e-23)
(1.025448 0.00086715855 -1.542396e-22)
(1.0251293 9.8722153e-05 5.5442006e-23)
(1.0249964 -0.00053038125 2.6104973e-23)
(1.0249128 -0.00098269105 2.5963953e-22)
(1.0249548 -0.0012044453 2.5487783e-22)
(1.02503 -0.0013000897 -7.5018532e-23)
(1.0251658 -0.001055708 -1.9854604e-22)
(1.0253239 -0.00085787931 -1.6753749e-22)
(1.0255227 -0.00019627201 3.0375479e-22)
(1.0243407 0.0069922115 -1.1560283e-22)
(1.0266006 0.0055300612 1.1278905e-21)
(1.0262624 0.0040682478 -1.1425227e-22)
(1.0261767 0.0029886362 1.0252391e-23)
(1.0258311 0.0020042142 -2.390961e-23)
(1.0255324 0.0010528238 1.8836125e-22)
(1.025223 0.00020477396 6.5082998e-23)
(1.0250975 -0.00053851826 -6.3861588e-23)
(1.0250188 -0.0010745658 -1.7515545e-22)
(1.0250876 -0.0014629962 -5.5954256e-23)
(1.0251635 -0.00157092 4.4620684e-24)
(1.0253297 -0.0015787129 -1.8373291e-22)
(1.0254669 -0.0012280233 4.9833658e-22)
(1.0256674 -0.00095795324 -3.1705462e-22)
(1.0258535 -0.00021117815 2.8758965e-22)
(1.0204829 0.0065468737 1.0015096e-21)
(1.025055 0.005704861 -1.1425619e-21)
(1.0259182 0.0044247744 3.6638634e-22)
(1.0258765 0.0032116624 -2.4748783e-22)
(1.0257065 0.0022303228 7.4889556e-23)
(1.0255571 0.0012497717 -1.8336733e-22)
(1.0252715 0.00032445418 -3.026765e-22)
(1.0251551 -0.00050758517 5.1793351e-23)
(1.0250945 -0.0011651241 1.7986879e-23)
(1.0251786 -0.0016452701 -5.1847072e-22)
(1.0252927 -0.0019189251 4.7231172e-22)
(1.025472 -0.0019367283 -5.7013117e-22)
(1.0256489 -0.0018314642 -1.8432823e-22)
(1.0258278 -0.0013870865 -2.1344855e-24)
(1.0260169 -0.001042866 7.6212247e-23)
(1.0262096 -0.00022187235 -3.4687181e-22)
(1.0156014 0.0058459613 0)
(1.0224441 0.005589074 -1.5874036e-21)
(1.024731 0.0046729296 2.2013736e-22)
(1.0255168 0.0034900941 0)
(1.025344 0.0024238428 0)
(1.0254497 0.0014402053 0)
(1.0252701 0.00046476387 6.5966165e-23)
(1.0251632 -0.00045723106 9.8360224e-23)
(1.0251234 -0.0012136039 7.2208399e-22)
(1.0252311 -0.0018262939 -4.3341271e-23)
(1.0253734 -0.0021941548 1.8927785e-22)
(1.0256083 -0.0023784044 -9.9699936e-23)
(1.0258062 -0.0022722502 9.4885065e-23)
(1.0260379 -0.0020676625 2.1065764e-22)
(1.0261973 -0.0015230781 -1.8407679e-23)
(1.026397 -0.0011139204 1.8303886e-22)
(1.0265642 -0.00022786955 0)
(1.0101471 0.0050107748 9.385792e-22)
(1.0186758 0.0052132734 2.7471325e-21)
(1.0224243 0.0046684708 -2.7611646e-21)
(1.024622 0.0038065346 -8.4435576e-22)
(1.0248687 0.00266278 -4.6164244e-22)
(1.0250695 0.0015979328 0)
(1.0251691 0.0006143013 2.5651855e-22)
(1.0251212 -0.00038002312 -2.2152621e-22)
(1.0250988 -0.0012386099 -5.620607e-22)
(1.0252294 -0.0019641622 9.8264478e-22)
(1.0254113 -0.0024677574 3.8021578e-23)
(1.025689 -0.0027514232 2.3858578e-22)
(1.0259569 -0.0028045936 -6.2303895e-22)
(1.0262216 -0.0025907189 6.2556621e-22)
(1.0264405 -0.0022721929 -6.1153787e-23)
(1.0266054 -0.0016383483 1.3840291e-21)
(1.0267768 -0.0011679514 4.9143641e-22)
(1.0269249 -0.00022908612 5.1452063e-22)
(1.0046677 0.0041188387 -9.1964069e-23)
(1.0137837 0.0045689995 1.3969254e-21)
(1.0190344 0.0045421049 5.073605e-22)
(1.0226676 0.0038926041 -1.3555271e-21)
(1.0240558 0.0029936314 1.0048113e-22)
(1.0244645 0.0017640096 -3.0961487e-22)
(1.0248048 0.00074096985 -4.6366821e-22)
(1.0250077 -0.00028266268 -7.2620941e-22)
(1.025021 -0.0012312885 -4.1603514e-22)
(1.0251675 -0.0020735004 -1.5567947e-22)
(1.0253883 -0.0026979671 -2.4200585e-22)
(1.0257185 -0.0031258183 2.9415007e-22)
(1.0260456 -0.0032759492 -6.0121046e-22)
(1.0263992 -0.0032150859 1.1128947e-22)
(1.0266579 -0.0028712701 1.2106779e-22)
(1.0268924 -0.0024491184 -2.3774652e-22)
(1.0270153 -0.0017273094 5.1341041e-22)
(1.0271668 -0.0012051621 -4.7494131e-23)
(1.0272767 -0.00022539346 5.1939121e-22)
(0.99904048 0.0032270479 -6.0439286e-22)
(1.0085603 0.0038419262 -1.5258847e-21)
(1.0146189 0.0042299818 6.5653498e-21)
(1.0196878 0.0038481893 6.9679985e-22)
(1.0223522 0.003193938 -4.9364199e-22)
(1.0236196 0.0020409785 -1.5398259e-22)
(1.0240972 0.00083968969 -3.6053684e-23)
(1.0246799 -0.00019030207 -1.8683557e-22)
(1.0248856 -0.0011966403 -1.4516436e-22)
(1.0250459 -0.0021451408 -9.7215105e-22)
(1.0252982 -0.0028964571 1.0361244e-22)
(1.0256766 -0.0034588945 1.9186319e-22)
(1.0260771 -0.0037534412 -5.6205463e-24)
(1.0265088 -0.0037884981 -5.2010347e-24)
(1.0268717 -0.0035827033 1.7048785e-22)
(1.027156 -0.0031198972 -9.0413893e-22)
(1.02735 -0.0025893588 3.9493411e-22)
(1.0274425 -0.0017904104 -8.5587754e-22)
(1.0275492 -0.0012242609 -2.1368822e-22)
(1.0276197 -0.00021688719 -5.6062088e-22)
(0.99257744 0.0022928534 -9.3004497e-23)
(1.0033884 0.0031860814 -2.0400168e-21)
(1.0096587 0.0037849604 -2.8240483e-22)
(1.0156266 0.0036607284 -1.5973961e-21)
(1.0196483 0.0032658962 2.5857248e-23)
(1.0220742 0.002278206 6.7908975e-22)
(1.0231524 0.0010299344 -8.6481441e-22)
(1.0239433 -0.00015716907 -1.2497225e-22)
(1.0245962 -0.001147469 3.7252223e-22)
(1.0248698 -0.0021821275 0)
(1.0251403 -0.0030537161 -2.2639013e-23)
(1.0255581 -0.0037583124 7.8454779e-22)
(1.0260275 -0.0041937487 6.9993611e-22)
(1.0265538 -0.0043754247 -9.9604557e-22)
(1.0270134 -0.0042558787 1.4678564e-22)
(1.02742 -0.0039156754 -7.1201863e-22)
(1.0276666 -0.0033233617 1.7402827e-22)
(1.0278355 -0.0026937197 4.1633906e-22)
(1.0278641 -0.0018251947 -6.1710366e-22)
(1.0279253 -0.0012252843 -3.1142429e-23)
(1.027946 -0.00020362704 -5.4359829e-22)
(0.98482465 0.0010859719 3.1954071e-22)
(0.99756644 0.0023870383 -1.3495975e-21)
(1.0046169 0.0033217471 -2.8299197e-21)
(1.0109442 0.0033448177 3.2627078e-21)
(1.0158855 0.0032150755 2.0268419e-21)
(1.0195948 0.0024000827 -2.7670689e-22)
(1.0216941 0.0012610464 0)
(1.0228743 -7.3846485e-05 -4.1117661e-22)
(1.02391 -0.0011555787 -2.4683174e-22)
(1.0245928 -0.0021870416 -3.1780384e-22)
(1.0249211 -0.0031704677 2.6276398e-22)
(1.0253616 -0.0040134789 3.9050849e-22)
(1.0258913 -0.0046015062 -1.5124512e-22)
(1.0265057 -0.0049333914 -1.1061403e-22)
(1.0270851 -0.0049532325 5.7732014e-22)
(1.0276092 -0.0046886447 -5.5837718e-22)
(1.0279906 -0.004195771 9.5504755e-23)
(1.0282179 -0.0034828471 -6.7832315e-22)
(1.0283182 -0.0027579548 -9.380574e-24)
(1.0282844 -0.0018315941 -4.170344e-24)
(1.0282857 -0.001208172 -3.3111464e-22)
(1.0282528 -0.00018578278 0)
(0.97623528 4.095057e-05 -1.8181359e-22)
(0.99003045 0.0014251276 6.9112525e-22)
(0.99923227 0.002814548 9.7073039e-25)
(1.0061119 0.0029971743 3.4081829e-21)
(1.0113901 0.0030403378 1.5491959e-21)
(1.0160906 0.0024020137 -1.0078003e-21)
(1.0193827 0.0014021761 5.051351e-22)
(1.021404 8.6951221e-05 -1.3702273e-21)
(1.0227387 -0.0011865604 -2.3168477e-22)
(1.0239974 -0.0022168678 4.5978532e-23)
(1.0246305 -0.0032442827 -2.9945577e-23)
(1.0250918 -0.0042211777 -8.984989e-22)
(1.0256651 -0.0049648205 2.9366493e-23)
(1.0263593 -0.0054630342 1.0500996e-21)
(1.0270541 -0.0056326728 -2.6192914e-22)
(1.0277237 -0.0054991874 -6.2751244e-22)
(1.0282401 -0.0050628094 -8.0241986e-23)
(1.0286164 -0.0044246674 1.2407895e-21)
(1.0287712 -0.0035916277 9.1784385e-23)
(1.0288078 -0.0027818142 -4.1530543e-22)
(1.0286905 -0.0018092519 0)
(1.0286278 -0.0011733507 7.493633e-22)
(1.0285358 -0.00016356459 1.1479325e-23)
(0.96694127 -0.00088994895 5.8966249e-22)
(0.98129155 0.00042586476 1.5434879e-21)
(0.99228098 0.0021695078 -2.7990829e-21)
(1.0009936 0.0026562153 -1.561039e-21)
(1.0066945 0.0028330001 3.5719616e-21)
(1.0117558 0.0022939691 0)
(1.0161266 0.0014229433 1.1474225e-22)
(1.0192386 0.00020282644 -8.4577756e-22)
(1.0212031 -0.0011346741 -7.1852633e-22)
(1.0228281 -0.002337984 1.1805191e-22)
(1.0241202 -0.0033006599 -1.0184052e-23)
(1.0247565 -0.0043772446 -4.5631522e-22)
(1.0253508 -0.0052762786 7.0742903e-22)
(1.026108 -0.0059504655 -4.1920442e-22)
(1.0269136 -0.006292036 9.5960402e-22)
(1.027726 -0.0063064602 9.1039037e-22)
(1.0284134 -0.0059831892 -9.8786362e-22)
(1.0289427 -0.0053805668 5.0177766e-22)
(1.0292527 -0.0045922744 -1.7845069e-21)
(1.0293431 -0.0036488043 6.480603e-22)
(1.0292853 -0.0027643296 9.7003574e-22)
(1.0290811 -0.0017586596 -8.2550705e-22)
(1.0289465 -0.0011215722 4.898247e-22)
(1.0287925 -0.00013726367 1.0555793e-23)
(0.95706818 -0.0017394077 6.5247939e-22)
(0.97208722 -0.00028297165 1.2854176e-21)
(0.98398174 0.0012559648 5.4337504e-22)
(0.99443408 0.00226261 8.3288473e-21)
(1.0018106 0.0026693385 -2.4134838e-21)
(1.0071241 0.0021234529 4.1353635e-21)
(1.0119799 0.0013424081 1.0338668e-22)
(1.0162098 0.00021618744 2.9226556e-21)
(1.0191521 -0.0010641672 -4.8107104e-22)
(1.0211839 -0.0024082212 -3.3090601e-22)
(1.023061 -0.0034588268 2.2467506e-22)
(1.0242825 -0.004483017 7.7712629e-22)
(1.0249582 -0.0055310276 -1.4711816e-22)
(1.0257522 -0.0063852759 -1.1136163e-22)
(1.0266531 -0.0069165336 -6.3854956e-23)
(1.0276071 -0.0071061253 2.1183934e-22)
(1.0284681 -0.0069181578 -1.924092e-22)
(1.0291931 -0.0064077527 8.2045188e-22)
(1.029668 -0.0056273824 0)
(1.0299209 -0.004696814 1.2689963e-22)
(1.029906 -0.0036526227 4.0578336e-23)
(1.0297521 -0.0027058208 -7.9791961e-23)
(1.0294491 -0.0016808151 2.0759871e-23)
(1.029239 -0.0010537463 -7.0605096e-22)
(1.0290204 -0.0001071119 -2.9926073e-22)
(0.94679531 -0.0024823768 -8.6703488e-22)
(0.96218724 -0.0010020002 -8.8730726e-22)
(0.9747382 0.00065795825 -9.5395441e-22)
(0.98624732 0.0015257405 -1.0960804e-21)
(0.99577152 0.0024394118 -8.2275171e-21)
(1.0023575 0.001999399 -4.7104356e-22)
(1.0074471 0.0011699107 9.8765404e-23)
(1.0122694 0.0001233545 -2.2898704e-22)
(1.0163126 -0.0010741514 -2.0502657e-21)
(1.0191552 -0.0024052535 2.058646e-22)
(1.0213475 -0.0036425001 -3.1408103e-22)
(1.0233711 -0.0046362787 -6.4115138e-23)
(1.0244695 -0.0057186836 -5.1747192e-22)
(1.025297 -0.0067598893 -1.9744256e-23)
(1.0262707 -0.007492477 -4.5495974e-22)
(1.027353 -0.0078826422 4.4050583e-23)
(1.0283926 -0.0078618577 7.6583307e-22)
(1.0293204 -0.0074703494 -1.1950992e-21)
(1.0300117 -0.0067529634 -1.865514e-21)
(1.0304408 -0.0058006691 7.1779374e-24)
(1.0305856 -0.0047352044 1.8890174e-21)
(1.0304662 -0.0036024998 4.7158502e-22)
(1.0301974 -0.002607429 -8.9009524e-22)
(1.0297915 -0.0015770758 7.4658737e-22)
(1.0295024 -0.00097104742 -4.9295054e-22)
(1.0292181 -7.4036153e-05 2.6827183e-23)
(0.93629959 -0.0031273322 4.5054005e-23)
(0.95171978 -0.0016298169 -9.3085015e-22)
(0.96489884 -2.1055706e-05 3.6576154e-21)
(0.97713278 0.00099379668 -5.7945628e-21)
(0.98796478 0.0019572396 7.2780578e-21)
(0.99673631 0.0018738567 -4.7517389e-21)
(1.0027819 0.0010056013 -2.7035937e-21)
(1.0078697 -7.143471e-05 -2.8795947e-21)
(1.0125961 -0.0011812422 3.6491037e-21)
(1.0164611 -0.0024424663 1.1231497e-21)
(1.0192171 -0.0037416039 -5.0912497e-23)
(1.021678 -0.0049069992 3.6265669e-22)
(1.0236803 -0.0058815863 5.0107553e-22)
(1.0247509 -0.0070612214 -6.34197e-22)
(1.0257667 -0.0080101181 7.2479655e-23)
(1.0269594 -0.008619174 3.4736341e-22)
(1.0281687 -0.0087983387 -9.2786283e-22)
(1.0293104 -0.0085613698 1.0986071e-21)
(1.030232 -0.0079365764 -9.3785468e-22)
(1.0308956 -0.0070152715 2.0559663e-22)
(1.0312195 -0.0058947697 0)
(1.0312587 -0.0047051455 8.1551472e-22)
(1.0310063 -0.0034998286 6.4024939e-23)
(1.0306187 -0.0024707285 0)
(1.0301044 -0.0014492992 -9.115335e-22)
(1.0297349 -0.00087487993 -4.1237548e-23)
(1.0293844 -3.8253298e-05 2.1116677e-22)
(0.92565725 -0.0036614461 2.8300969e-22)
(0.94097762 -0.0021891315 -1.3995967e-22)
(0.95454749 -0.0005926395 3.4382791e-21)
(0.96743798 0.00042284501 -4.9024167e-22)
(0.97898242 0.0014036357 1.7800915e-21)
(0.98926643 0.0015457799 5.9234686e-21)
(0.99753447 0.0008948611 2.777971e-22)
(1.0033191 -0.00029733637 3.2481234e-21)
(1.0083565 -0.0014023657 -4.3837327e-22)
(1.0129605 -0.002554896 -2.358656e-21)
(1.0166165 -0.0037873608 1.6440481e-21)
(1.0193786 -0.0051308912 2.4004217e-22)
(1.0221575 -0.0061816819 -1.1929647e-22)
(1.0240116 -0.0072919405 2.6625962e-23)
(1.0251529 -0.0084552459 -8.4554289e-22)
(1.0264228 -0.0093041196 1.6796491e-22)
(1.0277892 -0.0097094606 -1.6678168e-21)
(1.0291409 -0.0096651771 2.511559e-21)
(1.030312 -0.0091709926 7.964558e-22)
(1.0312297 -0.0083120655 -3.8288629e-22)
(1.0317993 -0.0071849714 1.1747785e-21)
(1.0320194 -0.0059057654 -3.9784374e-23)
(1.0319136 -0.0046086613 -6.9531919e-23)
(1.0315261 -0.0033457652 0)
(1.03101 -0.0022982452 0)
(1.0303855 -0.0012996005 7.3844243e-23)
(1.029935 -0.00076661057 -4.9233644e-22)
(1.0295187 -4.913458e-07 -3.2562596e-22)
(0.91506414 -0.0040980778 0)
(0.93006055 -0.002689589 -7.2598788e-22)
(0.94398086 -0.0011169268 -3.488355e-21)
(0.95715082 -5.4099938e-06 -3.3864935e-21)
(0.96934097 0.00096689165 -7.1376148e-21)
(0.98048877 0.00094871031 -8.8376849e-22)
(0.99050913 0.00059594101 3.6972958e-21)
(0.998388 -0.00044756896 6.1838892e-21)
(1.003967 -0.0016595279 -5.3460443e-21)
(1.0088644 -0.0027784998 8.4431599e-22)
(1.0132811 -0.0038832113 -1.9208782e-22)
(1.0167391 -0.0052015564 -3.3569326e-22)
(1.0197399 -0.0065368926 8.3184206e-22)
(1.0226994 -0.0075882241 -2.038122e-23)
(1.0243999 -0.0088140929 1.4696016e-22)
(1.0257492 -0.0099227019 -9.3994612e-22)
(1.0272473 -0.01058136 2.7190176e-22)
(1.0288012 -0.01076255 -1.0124584e-21)
(1.0302251 -0.010441707 2.3665987e-21)
(1.0314235 -0.0096840943 -9.7988496e-22)
(1.032266 -0.008582004 9.9613511e-22)
(1.032739 -0.0072566789 6.6037563e-22)
(1.0328066 -0.0058353018 -2.3699284e-23)
(1.0325554 -0.0044449858 -2.1979046e-21)
(1.0320157 -0.0031434305 -5.5189608e-22)
(1.0313683 -0.0020926107 9.338479e-23)
(1.0306325 -0.0011302195 7.265744e-22)
(1.0301019 -0.00064797874 -2.5657747e-22)
(1.0296213 3.8459792e-05 3.1801935e-22)
(0.90480092 -0.00444935 -1.0689124e-21)
(0.91908211 -0.0032402595 0)
(0.93319947 -0.0016775759 0)
(0.94656454 -0.0004913339 0)
(0.95912479 0.00060422441 2.0567357e-21)
(0.97093983 0.00059353134 -6.8649916e-21)
(0.98202563 -6.1334229e-05 2.1462306e-22)
(0.99193875 -0.00078510294 8.0637002e-23)
(0.99933129 -0.0018739289 -9.0284563e-21)
(1.0046339 -0.0030235148 7.5151197e-21)
(1.0092974 -0.0040565872 -2.3848658e-21)
(1.0134721 -0.0052754361 6.1037996e-22)
(1.0168607 -0.0067292546 -6.7945877e-22)
(1.0203295 -0.0080476657 1.4852779e-22)
(1.0232534 -0.0091475028 9.4996585e-22)
(1.0249436 -0.010458398 2.7107127e-22)
(1.0265429 -0.011397937 -1.1270273e-21)
(1.0282821 -0.011838473 -8.8124731e-22)
(1.0299571 -0.011728961 8.6395148e-22)
(1.0314467 -0.011118678 -2.6479331e-22)
(1.0325967 -0.010079547 -1.1774182e-21)
(1.0333559 -0.0087394138 -6.5977054e-24)
(1.0336758 -0.0072300381 1.6779633e-21)
(1.0335893 -0.005680267 -1.0958359e-21)
(1.033166 -0.0042192902 -2.2568541e-23)
(1.0324724 -0.0028958076 -3.6235252e-22)
(1.0316905 -0.00185716 8.1047929e-22)
(1.0308443 -0.00094367806 1.9584235e-22)
(1.0302354 -0.00052035942 8.2142918e-22)
(1.0296935 7.8262603e-05 9.9618636e-23)
(0.89426342 -0.0047543585 -3.593056e-22)
(0.90826063 -0.0037085781 -1.1025976e-21)
(0.92224949 -0.0022334795 0)
(0.93573594 -0.00092398562 0)
(0.94857588 0.00017121111 0)
(0.96083378 0.00025204475 0)
(0.97262749 -0.00051111277 0)
(0.98382129 -0.0014362971 -5.7705357e-24)
(0.99351317 -0.0022114713 4.3662517e-21)
(1.0002793 -0.0032758324 -1.0137222e-20)
(1.0051742 -0.0042208344 8.744596e-23)
(1.0095364 -0.0053598813 -2.3338612e-21)
(1.0135443 -0.0068063357 3.1406673e-21)
(1.0171552 -0.0084566817 -7.4291188e-22)
(1.0211694 -0.009661144 -3.1863695e-23)
(1.0238786 -0.010917401 5.7736562e-22)
(1.0256851 -0.01214428 -1.0927779e-21)
(1.0275788 -0.012875493 5.9010928e-22)
(1.0294958 -0.013017498 8.0139758e-22)
(1.0312818 -0.01259595 5.1317014e-22)
(1.0327579 -0.011667396 1.5626688e-22)
(1.033845 -0.010348234 7.1871624e-22)
(1.0344572 -0.0087803821 8.4127522e-24)
(1.0346184 -0.0071006211 -6.7132201e-22)
(1.0343418 -0.0054475172 3.1294678e-22)
(1.0337457 -0.0039328287 1.8865961e-21)
(1.0328906 -0.0026071027 4.5859468e-22)
(1.0319744 -0.0015952307 -3.5772479e-22)
(1.0310202 -0.0007424898 2.2590682e-23)
(1.0303359 -0.00038531286 -4.3981678e-22)
(1.0297362 0.00011884927 -3.7655006e-23)
(0.88327784 -0.0051219441 6.6296678e-22)
(0.89706889 -0.0041731436 -4.8964912e-22)
(0.91129602 -0.0027422164 -4.1113851e-21)
(0.92472387 -0.0013615371 -7.5754638e-21)
(0.93781002 -0.00018999895 0)
(0.95031387 -0.00017752888 0)
(0.96266806 -0.00095185717 -3.8917951e-23)
(0.9746534 -0.0020587481 -8.3009044e-21)
(0.985879 -0.0028269 1.1290464e-20)
(0.99502262 -0.0035717854 -1.1608378e-20)
(1.0010423 -0.0044385088 -2.03844e-22)
(1.0054176 -0.0054080401 4.7741867e-21)
(1.0095846 -0.0068387202 -6.9785403e-22)
(1.0136306 -0.0086417851 2.2480974e-22)
(1.0178544 -0.0102949 3.6517722e-22)
(1.0221167 -0.011458768 2.7095899e-23)
(1.0246351 -0.012805576 1.8172725e-21)
(1.0266945 -0.013858591 -1.256914e-22)
(1.0288336 -0.014288393 -1.7390395e-21)
(1.0309133 -0.014100606 3.5847406e-21)
(1.0327288 -0.013326238 -6.9067727e-22)
(1.0341701 -0.012075862 -1.0451555e-21)
(1.0351234 -0.010481635 2.5453361e-21)
(1.0355768 -0.0086992237 1.0235069e-21)
(1.0355354 -0.0068751771 -3.8227026e-22)
(1.0350677 -0.0051362073 1.1313541e-21)
(1.0342836 -0.0035920523 5.5677323e-22)
(1.0332675 -0.0022811388 1.9984612e-22)
(1.0322185 -0.0013103789 -3.9319709e-22)
(1.0311602 -0.00052919486 -8.1252255e-23)
(1.0304039 -0.0002444777 -5.2461345e-23)
(1.0297494 0.00015865538 2.8032606e-24)
(0.87221937 -0.0055250158 -1.0877971e-22)
(0.88543628 -0.0045499224 1.4461549e-21)
(0.89976279 -0.0032534529 6.2787862e-21)
(0.91364638 -0.0017570036 9.5086581e-21)
(0.92685517 -0.00057357654 0)
(0.9395733 -0.00054277032 0)
(0.95220448 -0.0014597164 0)
(0.96485594 -0.0026143611 1.1511304e-21)
(0.97702712 -0.0035894201 -1.3257458e-20)
(0.98796467 -0.0041152612 -1.1475921e-20)
(0.9962911 -0.0046134292 -1.7074602e-22)
(1.001405 -0.0055221986 1.1160675e-21)
(1.0053486 -0.0068025588 -8.9169405e-21)
(1.0095476 -0.0086931065 3.2237056e-21)
(1.013929 -0.010758877 -1.4483717e-22)
(1.0190007 -0.012259337 0)
(1.0231165 -0.013441839 3.7985454e-22)
(1.0256276 -0.01477048 -5.0601871e-22)
(1.0279671 -0.015526371 5.1071421e-22)
(1.0303312 -0.015613505 2.6198422e-22)
(1.0324909 -0.015041587 -1.6793341e-21)
(1.0343072 -0.013903967 2.2379954e-22)
(1.0356358 -0.012329735 -1.6523183e-21)
(1.0364361 -0.010472448 -2.0993505e-21)
(1.0366793 -0.0085009471 7.7557198e-22)
(1.0364307 -0.0065513908 1.5312623e-22)
(1.0357489 -0.0047560141 -1.0788944e-22)
(1.0347785 -0.0032007385 1.8856801e-23)
(1.0336006 -0.0019228085 -5.4014329e-22)
(1.0324225 -0.001006354 -4.0379353e-22)
(1.0312647 -0.00030621539 1.2233675e-22)
(1.0304405 -9.9422494e-05 -1.2038259e-22)
(1.0297326 0.00019392693 1.9431633e-22)
(0.86082177 -0.005769884 -1.6491431e-22)
(0.87367396 -0.0050162068 2.5321613e-22)
(0.88765366 -0.0037026593 1.1069561e-20)
(0.90185185 -0.0021818738 1.966141e-20)
(0.91579352 -0.00092728031 -4.3683553e-21)
(0.92865768 -0.00092335362 -5.1211165e-22)
(0.94147954 -0.0019168916 -1.903259e-20)
(0.95447653 -0.0032379715 9.4819959e-21)
(0.96741874 -0.004283376 1.486313e-21)
(0.97951825 -0.0048767194 2.7650509e-20)
(0.98989327 -0.0049921844 -1.0105927e-20)
(0.99703905 -0.0054969866 -1.1960014e-20)
(1.0013068 -0.0067941632 1.3735464e-22)
(1.0050851 -0.0086578482 3.470318e-21)
(1.0096131 -0.010939926 2.2111821e-21)
(1.0147302 -0.013093028 3.7310024e-23)
(1.020503 -0.014318953 7.0533418e-23)
(1.0242521 -0.01560793 9.4444252e-22)
(1.0268977 -0.016714273 -2.3193198e-22)
(1.0295282 -0.017118052 -2.0221626e-22)
(1.0320312 -0.01679419 6.2453112e-22)
(1.0342352 -0.015819551 -3.005809e-21)
(1.0359675 -0.014307948 -5.2392499e-23)
(1.0371557 -0.012419687 9.2884416e-22)
(1.037744 -0.010323 -2.8394685e-21)
(1.0377665 -0.0081828006 -9.5921945e-22)
(1.0372807 -0.0061406599 -8.5292805e-22)
(1.0363866 -0.0043082584 -2.8908029e-22)
(1.0352242 -0.0027658144 -4.8913373e-22)
(1.0338885 -0.0015368914 1.2938421e-23)
(1.0325859 -0.00068657808 -1.1009161e-22)
(1.0313343 -7.5918051e-05 -4.1460293e-23)
(1.0304467 4.8643093e-05 1.4395115e-22)
(1.0296911 0.0002277854 -5.3429975e-22)
(0.84898039 -0.0059331317 -6.6867366e-23)
(0.86163757 -0.0053324882 -3.6385378e-22)
(0.87545016 -0.0041950034 -1.319227e-20)
(0.88939556 -0.0025664886 -9.9937805e-21)
(0.90384464 -0.0013319616 1.7455604e-20)
(0.91762279 -0.0012596346 2.2448292e-20)
(0.93059032 -0.0023836835 2.696183e-21)
(0.94375885 -0.0038278805 0)
(0.95714851 -0.0050019603 1.1145011e-20)
(0.97013634 -0.0056990532 3.7380382e-20)
(0.98187645 -0.0056657985 1.4392399e-21)
(0.99135677 -0.0056187984 5.4146419e-21)
(0.99716083 -0.0065466189 0)
(1.0008189 -0.0085493234 -3.4414633e-22)
(1.0048384 -0.011007807 -5.7746073e-21)
(1.0100148 -0.013591768 -1.4863551e-22)
(1.0162217 -0.015473569 6.3837083e-22)
(1.0221096 -0.016549213 0)
(1.0255945 -0.017831666 2.1975953e-22)
(1.028499 -0.018597964 7.0005969e-22)
(1.0313405 -0.018566835 -2.5819929e-21)
(1.033938 -0.017803408 5.5812811e-22)
(1.036095 -0.016405074 0)
(1.0377068 -0.014525982 -2.688351e-21)
(1.0386872 -0.01234434 1.0585414e-21)
(1.0390456 -0.01003 -6.8501819e-23)
(1.0388108 -0.0077560181 -1.183058e-21)
(1.0380867 -0.0056431691 9.6675293e-22)
(1.0369689 -0.0038040772 4.2536935e-23)
(1.0356195 -0.0022922602 -1.1529116e-21)
(1.0341304 -0.001128118 1.0650797e-21)
(1.0327095 -0.0003546559 3.8668109e-22)
(1.0313702 0.0001594217 0)
(1.0304236 0.00019880106 -6.642361e-24)
(1.0296262 0.00025920107 -2.090902e-22)
(0.83649775 -0.0060256439 5.5536722e-24)
(0.84927395 -0.0054180456 6.563795e-22)
(0.86303736 -0.0046558667 -1.27824e-20)
(0.8767979 -0.0028773132 -3.6230097e-21)
(0.89109439 -0.0016945009 4.7317262e-21)
(0.90557077 -0.0016513517 3.1648124e-21)
(0.91960237 -0.0027894145 2.0497133e-20)
(0.9328712 -0.0044058078 1.3434311e-22)
(0.94645882 -0.0056919449 0)
(0.95999585 -0.0064387769 -1.3861886e-20)
(0.97273009 -0.0064857556 1.2335647e-20)
(0.98374608 -0.006082637 -8.9665703e-22)
(0.99200329 -0.0064142377 5.7043127e-21)
(0.99668006 -0.0081589026 -6.2641014e-21)
(1.0001819 -0.010913561 -3.0636046e-21)
(1.0048641 -0.013866851 -3.5421418e-21)
(1.011002 -0.016467887 4.6393018e-21)
(1.0183602 -0.017886134 3.5752328e-22)
(1.023791 -0.018941019 1.5932262e-21)
(1.0272448 -0.020033858 -3.0111646e-21)
(1.0304074 -0.020343514 2.8550561e-21)
(1.0334049 -0.019838367 -2.1821907e-21)
(1.0359996 -0.018602562 0)
(1.0380632 -0.016782205 -7.2775082e-22)
(1.0394783 -0.014552102 2.467271e-22)
(1.0402247 -0.012099388 1.3985525e-21)
(1.0403094 -0.0096035711 3.9661027e-22)
(1.0398113 -0.0072211328 2.0756806e-22)
(1.0388325 -0.0050729663 6.882339e-22)
(1.0374965 -0.0032464427 0)
(1.0359618 -0.0017868532 1.0118248e-21)
(1.0343264 -0.00070115356 1.1799086e-21)
(1.0327943 -1.3902507e-05 7.6462255e-23)
(1.0313741 0.00039783546 -2.6538585e-22)
(1.0303724 0.00034998989 -6.9843064e-24)
(1.029543 0.00029142029 8.3370579e-22)
(0.82363009 -0.006026759 1.6374846e-22)
(0.83639643 -0.0054863618 -1.2761119e-22)
(0.85030796 -0.0048281013 3.9973178e-21)
(0.86404005 -0.0032996833 1.7635113e-22)
(0.87803413 -0.0019300663 -2.1671443e-20)
(0.89255389 -0.0019707296 -2.3556432e-20)
(0.90749074 -0.003222185 -9.5294238e-23)
(0.92192032 -0.0049199201 1.6270034e-20)
(0.93556591 -0.0063675106 1.3775528e-22)
(0.94935233 -0.0071775025 1.3362587e-20)
(0.96273896 -0.0071645698 -2.6284557e-23)
(0.97478877 -0.0067045568 -6.7741324e-21)
(0.9848202 -0.0065742507 -7.7467626e-22)
(0.99185256 -0.0078130015 -6.1337249e-21)
(0.99583273 -0.010504742 2.1812998e-20)
(0.99970684 -0.013938761 3.417844e-22)
(1.0053811 -0.017115517 -2.9131866e-21)
(1.012895 -0.01937817 -1.2499315e-21)
(1.0208043 -0.020344813 -5.1205395e-22)
(1.0256568 -0.021422667 -5.4243544e-22)
(1.0292325 -0.022107377 1.5015979e-21)
(1.032622 -0.021907963 -3.2896962e-21)
(1.0356685 -0.020883748 2.6782591e-21)
(1.0382042 -0.019170721 0)
(1.0400889 -0.016939451 2.0646598e-21)
(1.0412719 -0.014380553 2.9928205e-21)
(1.0417325 -0.011693378 -1.1959677e-21)
(1.0415314 -0.0090446915 2.423466e-21)
(1.0407484 -0.0065930205 5.6911296e-23)
(1.0395185 -0.0044321807 -7.7814191e-22)
(1.0379626 -0.0026466164 -9.5812383e-22)
(1.0362508 -0.0012549921 -3.5030134e-23)
(1.034477 -0.00026049706 -7.1974602e-23)
(1.0328416 0.00033253556 2.4211244e-22)
(1.0313477 0.00063754858 -2.1652019e-22)
(1.0302954 0.00050152393 -4.2256906e-23)
(1.0294396 0.0003295353 3.5557818e-22)
(0.81137817 -0.0059665467 -1.0511202e-22)
(0.82314612 -0.0055114685 -7.4422408e-22)
(0.83712034 -0.0049222573 5.395916e-21)
(0.85092107 -0.0033861472 3.1202359e-21)
(0.86483197 -0.0022396032 -1.9834926e-22)
(0.87899974 -0.0021717417 1.7420998e-22)
(0.89425675 -0.0035762765 1.3255546e-20)
(0.90975775 -0.0054034749 -6.1929588e-21)
(0.9246387 -0.0069732283 0)
(0.93845512 -0.0078872111 -3.0141249e-21)
(0.95216684 -0.0078479344 0)
(0.96495066 -0.0072721491 0)
(0.97611816 -0.0069367578 -7.2230881e-21)
(0.98511936 -0.0076587707 9.0120317e-22)
(0.99110556 -0.010040396 4.3047218e-21)
(0.99497241 -0.013655446 6.1117053e-21)
(0.99967577 -0.017468195 -7.6430825e-21)
(1.0066446 -0.020612426 -3.0239514e-21)
(1.0157116 -0.0221718 -7.6798567e-22)
(1.0232915 -0.022917913 3.3559821e-22)
(1.0277962 -0.023837095 -2.4749861e-21)
(1.0315822 -0.023996215 1.242035e-21)
(1.0350871 -0.023230842 5.5260425e-22)
(1.0381145 -0.021675455 -3.7694645e-22)
(1.0404964 -0.019489836 2.9017782e-23)
(1.042157 -0.016868939 6.2476593e-22)
(1.0430475 -0.014017571 -3.7742683e-22)
(1.043203 -0.011127563 -1.5125731e-21)
(1.0426885 -0.0083685399 -1.3718299e-22)
(1.0416206 -0.005874714 -2.3199858e-21)
(1.0401347 -0.0037353716 -6.0913399e-22)
(1.0383681 -0.002008416 -2.3627964e-22)
(1.0364863 -0.0007029743 -1.1680173e-21)
(1.0345834 0.00018974416 9.1612235e-23)
(1.0328532 0.00068197307 -5.650844e-22)
(1.0312933 0.0008771558 -9.335291e-23)
(1.0301953 0.00065183184 -3.0223562e-22)