/*--------------------------------*- C++ -*----------------------------------*\
| =========                 |                                                 |
| \\      /  F ield         | OpenFOAM: The Open Source CFD Toolbox           |
|  \\    /   O peration     | Version:  5.0                                   |
|   \\  /    A nd           | Web:      www.OpenFOAM.org                      |
|    \\/     M anipulation  |                                                 |
\*---------------------------------------------------------------------------*/
FoamFile
{
    version     2.0;
    format      ascii;
    class       volSymmTensorField;
    location    "180";
    object      UPrime2Mean;
}
// * * * * * * * * * * * * * * * * * * * * * * * * * * * * * * * * * * * * * //

dimensions      [0 2 -2 0 0 0 0];

internalField   nonuniform List<symmTensor> 
9200
(
(0.00073603241 2.7701227e-05 -1.0109956e-25 2.4543314e-06 -7.4346976e-27 6.0212064e-47)
(0.00075600391 9.0810687e-05 2.609823e-23 2.7885514e-05 3.2364566e-24 1.0940464e-42)
(0.00059063317 2.35648e-05 0 2.3646708e-06 0 0)
(0.00078663232 0.00014653683 -1.4341054e-23 7.2403689e-05 -2.8332955e-24 3.1702034e-43)
(0.00060530935 7.7501925e-05 2.0359156e-23 2.7364512e-05 3.0126178e-24 8.1694177e-43)
(0.00052173517 2.1693981e-05 0 2.2466706e-06 0 0)
(0.00083651912 0.00020712284 -1.4247199e-24 0.00014617088 -3.701794e-25 2.8940795e-45)
(0.00062931688 0.00012365056 -2.3484757e-26 7.0589877e-05 -1.9336726e-25 2.7688913e-45)
(0.00053562225 7.0469056e-05 0 2.5964391e-05 0 0)
(0.00044572789 1.8484081e-05 0 2.0838305e-06 0 0)
(0.00090168945 0.00026645449 3.3080583e-23 0.00024590053 1.157104e-23 1.4767137e-42)
(0.00066862105 0.00017142877 2.1644242e-23 0.00014184718 8.3874318e-24 9.4509746e-43)
(0.00055613169 0.00011177647 1.0775673e-23 6.6660732e-05 3.1639231e-24 2.614886e-43)
(0.00045716679 6.0139111e-05 5.6309555e-25 2.4398072e-05 1.1691806e-25 9.0959315e-46)
(0.00038703638 1.6222081e-05 4.4435266e-27 1.9497513e-06 7.3331846e-28 5.1441049e-49)
(0.00098753807 0.00032896901 3.2190499e-23 0.00038522108 1.2703663e-23 1.2444081e-42)
(0.00072111182 0.0002151743 -3.7777902e-25 0.00023661626 6.3874665e-25 8.5567024e-45)
(0.00058990462 0.00015368786 3.6950241e-23 0.0001332449 1.5374089e-23 2.9800056e-42)
(0.00047590522 9.4839278e-05 1.2889386e-23 6.2309558e-05 4.7911855e-24 5.1636312e-43)
(0.00039846047 5.2304892e-05 3.1842545e-25 2.2789769e-05 2.0338658e-25 3.783033e-45)
(0.00033701233 1.394347e-05 -1.8129708e-23 1.8066275e-06 -1.4065892e-24 1.5175931e-42)
(0.0010942187 0.00039080415 4.3005575e-23 0.00056995712 2.4333777e-23 2.3277057e-42)
(0.00079219152 0.00025742719 3.1207464e-23 0.00036699037 1.3812845e-23 1.4333698e-42)
(0.00063513548 0.00019056707 -2.2604421e-23 0.00022054859 -1.1394647e-23 1.0307734e-42)
(0.00050769288 0.00012906817 -1.397566e-24 0.00012397259 -8.126161e-25 6.9329651e-45)
(0.00041625319 8.2011962e-05 1.0026704e-23 5.7805125e-05 3.6726586e-24 3.4957111e-43)
(0.00034764573 4.47854e-05 8.7617402e-24 2.1244313e-05 2.4168873e-24 3.6241062e-43)
(0.00029595758 1.2043047e-05 1.2729131e-24 1.6799252e-06 1.3407492e-25 1.1924981e-44)
(0.0012270232 0.00044977971 3.33659e-23 0.00081616231 3.0973754e-23 2.1816679e-42)
(0.00088617467 0.00029439829 2.8315529e-23 0.0005371799 1.8612468e-23 1.2249315e-42)
(0.00069686288 0.00022415402 2.7980154e-23 0.00033881279 1.8919034e-23 1.6250345e-42)
(0.00055137991 0.00015800545 1.1137354e-24 0.00020386595 2.3383567e-24 4.5379787e-44)
(0.00044633847 0.0001107519 -2.562704e-23 0.00011443306 -1.4165934e-23 2.3601897e-42)
(0.00036470137 7.0074514e-05 -9.698073e-24 5.3679406e-05 -4.4712248e-24 4.6263898e-43)
(0.00030647914 3.8467771e-05 -9.2521724e-24 1.9793605e-05 -2.4788478e-24 4.9787662e-43)
(0.00026156264 1.0329195e-05 1.2967434e-23 1.5665299e-06 1.2414167e-24 1.3353144e-42)
(0.0013916813 0.00050164424 -6.2156824e-23 0.0011397892 -4.7040228e-23 4.0861057e-42)
(0.0010124527 0.00032433682 2.9711058e-23 0.00076157435 9.9679307e-24 1.0005388e-42)
(0.0007793288 0.00025059587 1.0982897e-24 0.00049003267 4.8401607e-24 7.3987624e-44)
(0.00061275926 0.0001831268 1.1276998e-23 0.00031113908 7.3702111e-24 2.9359055e-43)
(0.00048785489 0.00013434131 1.0986176e-24 0.00018692928 4.4280231e-24 1.9204396e-43)
(0.00039395979 9.4273794e-05 -3.3433105e-23 0.00010600534 -1.9639029e-23 4.924942e-42)
(0.00032315918 6.0188516e-05 4.3179537e-24 4.97906e-05 8.0902087e-26 2.8482958e-43)
(0.00027173563 3.2821224e-05 -1.3767457e-23 1.8552706e-05 -4.2341945e-24 1.4717245e-42)
(0.00023367995 8.8511626e-06 -2.380855e-23 1.4661831e-06 -2.604806e-24 6.1617446e-42)
(0.0015925701 0.00053600237 5.261645e-23 0.0015577421 5.7613089e-23 3.5540772e-42)
(0.001182601 0.00034255397 -1.6055032e-23 0.0010537421 1.871332e-23 1.0733812e-42)
(0.00089106458 0.00026825924 -1.0356287e-24 0.00068495545 -2.8560709e-24 1.4718502e-44)
(0.00069659739 0.00020151656 -6.1211505e-26 0.00044722472 -1.4153877e-23 7.4389744e-43)
(0.00054655648 0.00015405657 -3.5541867e-24 0.00028343804 -3.790899e-24 5.9223833e-44)
(0.00043484983 0.00011403839 3.08824e-25 0.00017235736 6.1271219e-24 4.4758728e-43)
(0.00035163621 8.0863646e-05 1.0150154e-23 9.8104939e-05 6.6905006e-24 5.9070308e-43)
(0.00028794682 5.1452325e-05 1.4981019e-23 4.653357e-05 7.748562e-24 1.7212902e-42)
(0.00024360287 2.7951788e-05 7.0005801e-24 1.7454974e-05 2.8225187e-24 5.4767579e-43)
(0.00021043539 7.5088815e-06 1.4975089e-24 1.3798378e-06 2.1368972e-25 3.7543175e-44)
(0.0018338245 0.00054338032 -2.6769185e-23 0.0020902262 -2.6848951e-23 6.8126402e-43)
(0.0014101641 0.00034053453 -5.5639926e-24 0.0014319315 3.7649121e-23 1.3822882e-42)
(0.001043676 0.0002735937 2.5794186e-23 0.00093337398 9.2096484e-24 7.3500332e-43)
(0.00081242194 0.0002122946 -1.82302e-23 0.00062203385 -2.0003461e-23 8.5422144e-43)
(0.00062730919 0.00016753688 2.05128e-23 0.000404557 1.3549387e-24 1.1649447e-42)
(0.000493008 0.00013053716 -3.6213772e-23 0.0002602227 -2.2912778e-23 4.2208704e-42)
(0.0003913529 9.7848784e-05 -2.2484775e-25 0.00015891502 1.6499329e-24 4.0828292e-44)
(0.00031559386 6.91729e-05 2.4814573e-23 9.1665188e-05 1.5375118e-23 4.2176139e-42)
(0.00025931911 4.3991601e-05 -1.0390362e-23 4.3667257e-05 -5.6069805e-24 1.0888289e-42)
(0.00022004756 2.35044e-05 1.8205266e-23 1.6552723e-05 8.0623836e-24 5.0832923e-42)
(0.00019193798 6.3265875e-06 -2.4331067e-24 1.301829e-06 -3.4946826e-25 1.3620723e-43)
(0.0021293993 0.00056167099 1.0036922e-23 0.0027852869 -4.5328613e-24 1.1992322e-43)
(0.0017047407 0.00030741776 3.0711902e-23 0.0019207383 -7.9757602e-23 5.2668449e-42)
(0.0012524451 0.00026216015 -2.0604432e-23 0.0012525648 -3.6699432e-23 1.2886048e-42)
(0.00097293483 0.00021302656 0 0.00084490238 0 0)
(0.00073916233 0.00017434562 1.1686614e-26 0.00055916878 1.32439e-24 4.1125618e-45)
(0.00057315062 0.00014219881 3.253453e-24 0.00036986565 -1.151387e-23 6.948281e-43)
(0.00044757932 0.00011222372 -6.6835537e-24 0.00023925654 -4.4882905e-24 1.7752459e-43)
(0.00035414337 8.4067597e-05 -1.3215449e-23 0.00014819716 -9.3318608e-24 1.0552449e-42)
(0.00028598091 5.9269223e-05 5.2329097e-25 8.6037423e-05 -2.8542978e-24 2.9141248e-43)
(0.00023518361 3.7177395e-05 -1.1112792e-23 4.1337966e-05 -7.2168782e-24 1.780161e-42)
(0.00020124938 1.9548349e-05 -6.1863973e-24 1.5749906e-05 -3.1683485e-24 8.6627927e-43)
(0.00017693902 5.2331077e-06 1.0681826e-24 1.2325231e-06 2.1292094e-25 4.4578169e-44)
(0.00243012 0.00059536879 5.9522659e-24 0.0036613918 2.1684536e-24 1.841945e-44)
(0.0020786933 0.00025052722 -4.9985548e-23 0.0025625604 3.0512308e-23 2.1269536e-42)
(0.0015281103 0.00022256451 0 0.0016624519 0 0)
(0.0011958322 0.00020119162 0 0.0011317764 0 0)
(0.00089380008 0.00017295736 -1.3606316e-23 0.00075576445 -1.1083593e-25 2.8866665e-43)
(0.00068389415 0.00014918916 1.9574283e-23 0.00050954164 -1.5608859e-23 2.1298597e-42)
(0.00052463639 0.00012291312 -1.9782613e-23 0.00033913276 -2.6263805e-24 1.4070681e-42)
(0.00040866627 9.713246e-05 1.5650244e-23 0.00022277746 1.3823565e-23 1.3441493e-42)
(0.00032292693 7.2476889e-05 9.7738473e-25 0.00013893706 1.2752977e-24 1.2650294e-44)
(0.00026076749 5.0165609e-05 -7.6767471e-27 8.1554447e-05 2.8557378e-26 3.4719591e-47)
(0.00021576436 3.1118125e-05 1.1353417e-23 3.9281974e-05 8.190936e-24 2.7101285e-42)
(0.00018595783 1.5827954e-05 -9.8852158e-24 1.5067156e-05 -5.7841488e-24 3.5754367e-42)
(0.00016542535 4.2595986e-06 1.414827e-23 1.1670885e-06 3.3735388e-24 1.3308627e-41)
(0.0024968755 0.00045458026 -9.8967782e-23 0.0045844448 -1.9494162e-23 5.300985e-42)
(0.0025361278 0.00021259762 1.2531852e-23 0.0034185178 -3.3380932e-24 8.2977878e-44)
(0.0018724608 0.00014834393 -6.9238079e-23 0.0021934675 1.1309767e-23 3.2294278e-42)
(0.0014965433 0.00016885627 4.6067452e-23 0.0015036021 -1.0388779e-23 1.9461754e-42)
(0.0011082329 0.00016260129 -2.669528e-23 0.0010097871 5.9420294e-24 9.5042091e-43)
(0.00083611113 0.00015060425 9.0115283e-24 0.00068736366 -7.7607207e-24 3.1131861e-43)
(0.00063067952 0.00013021639 5.6037274e-24 0.00046628488 5.6051209e-24 1.0417305e-43)
(0.00048296742 0.00010777855 -3.7720096e-25 0.00031528535 4.7689337e-25 2.4386348e-45)
(0.00037479576 8.4411766e-05 1.1429979e-23 0.00020876251 1.6563186e-23 1.4561383e-42)
(0.00029600452 6.1757002e-05 8.2548717e-24 0.0001317028 1.2530456e-23 1.2747301e-42)
(0.00024018096 4.2021255e-05 3.1536778e-24 7.7627719e-05 3.1782625e-24 1.8936715e-43)
(0.00019985362 2.5371874e-05 6.5999714e-24 3.7551156e-05 6.6437445e-24 1.527138e-42)
(0.00017419267 1.2456037e-05 3.3148577e-24 1.4423581e-05 2.9019326e-24 7.3493705e-43)
(0.0001566371 3.3608617e-06 -2.7037756e-24 1.1051947e-06 -9.2580132e-25 1.0542204e-42)
(0.0022341144 9.6896592e-06 9.2683573e-23 0.0054210294 -2.6602884e-22 2.1208249e-41)
(0.0029368908 0.00015031084 5.3018435e-22 0.0045051434 -1.2345869e-22 1.2141708e-40)
(0.0023004439 6.8787464e-05 1.1588114e-23 0.0028888152 -3.800948e-23 6.3149094e-43)
(0.0018759248 0.00010237439 -8.9389918e-24 0.0019882351 5.4734075e-24 7.0390521e-44)
(0.0014018686 0.00013927143 4.3161411e-24 0.0013422374 -3.5679601e-24 2.9667446e-44)
(0.0010460202 0.0001463452 -1.8537561e-23 0.0009181067 1.3343661e-23 7.6021187e-43)
(0.00077547943 0.00013373921 6.4180522e-24 0.00062830878 6.6645411e-24 1.128577e-43)
(0.00058422602 0.00011641 -6.3200325e-24 0.00043302597 -7.2062059e-24 1.7070154e-43)
(0.00044491186 9.4794957e-05 2.337047e-24 0.00029526529 -2.4642048e-24 8.7115552e-44)
(0.00034526974 7.2604621e-05 -6.6103832e-25 0.00019795385 -1.8569981e-24 1.8453343e-44)
(0.00027353253 5.2068357e-05 -2.0773294e-25 0.0001254397 -2.3945949e-25 6.944284e-46)
(0.00022313646 3.4160459e-05 1.3472925e-25 7.4375528e-05 -1.2880063e-24 5.6291491e-44)
(0.00018750566 2.0136094e-05 -7.1324107e-24 3.59318e-05 -8.7726658e-24 3.0487131e-42)
(0.00016521699 9.2687018e-06 2.4612613e-24 1.3825034e-05 2.8594928e-24 8.4347575e-43)
(0.00015041146 2.5668993e-06 -1.2514871e-24 1.0440997e-06 -7.0223543e-25 6.6746333e-43)
(0.001878557 -0.00062782021 1.1542672e-22 0.0061091904 1.0740094e-22 1.9129275e-41)
(0.0029576673 -0.00010696417 -3.5052276e-22 0.0056565339 -4.0382128e-23 5.1578724e-41)
(0.0027883044 3.5478578e-05 1.7539171e-22 0.0038311292 -3.4833126e-23 1.3108897e-41)
(0.0023277846 1.1123386e-05 -1.2379544e-22 0.0026248306 5.4255371e-24 7.6148382e-42)
(0.0017793032 8.7885749e-05 7.16226e-23 0.0017806654 -4.6723963e-24 3.4032285e-42)
(0.001333908 0.00013453326 -5.9389913e-23 0.0012227847 -2.3065662e-23 3.3879866e-42)
(0.00097378947 0.00013354964 5.5191859e-23 0.00083918693 -5.6201769e-24 4.3328401e-42)
(0.0007213658 0.00012287015 -2.1330137e-24 0.0005830528 1.4286008e-24 1.7246804e-44)
(0.00054005627 0.00010413802 -5.1813153e-24 0.00040524265 -4.1817105e-24 1.0130587e-43)
(0.0004113854 8.274694e-05 6.1249078e-24 0.00027994985 -5.7144482e-24 6.1880022e-43)
(0.00031982572 6.1680039e-05 -2.588954e-23 0.00018871041 -3.1794786e-23 8.5408706e-42)
(0.00025467502 4.2502424e-05 7.1678348e-24 0.00012035245 6.2093825e-24 1.1385619e-42)
(0.00020972139 2.690391e-05 2.5616351e-24 7.1339387e-05 3.9526963e-24 3.3227628e-43)
(0.00017804299 1.5125748e-05 5.3177507e-25 3.443903e-05 1.340249e-24 5.6467954e-44)
(0.00015887341 6.3912283e-06 -8.7156047e-26 1.3220244e-05 1.5819459e-25 8.9808062e-45)
(0.00014623718 1.8543412e-06 4.1218468e-25 9.834923e-07 7.7356783e-25 8.5524448e-43)
(0.0016674899 -0.0013166193 0 0.0066272725 0 0)
(0.0027505867 -0.0005661622 -4.9435557e-22 0.0067712337 6.2603532e-23 1.1489929e-40)
(0.0029950987 -7.7170434e-05 -6.6033186e-24 0.0049541364 1.1974794e-22 3.3996413e-42)
(0.0028383442 -3.9612961e-05 0 0.0034948653 0 0)
(0.0022237625 -2.2426675e-06 0 0.0023629293 0 0)
(0.0017111026 0.00010233732 0 0.0016300935 0 0)
(0.0012459207 0.00012944216 -7.6568959e-24 0.0011191888 5.2198078e-24 9.1963548e-44)
(0.00090773756 0.00012721918 2.0121208e-23 0.00077839444 1.7042494e-23 8.1686754e-43)
(0.0006682514 0.00011245704 -2.4891869e-23 0.00054521589 1.4689992e-23 2.48083e-42)
(0.00050026564 9.2598182e-05 1.2355952e-23 0.00038407914 1.3199435e-23 8.0831561e-43)
(0.00038143453 7.1060688e-05 -1.9144824e-24 0.00026700235 1.6999348e-24 6.8494956e-44)
(0.00029816738 5.0581765e-05 4.4060971e-24 0.00018133029 7.1994308e-24 4.0165501e-43)
(0.00023952662 3.3502732e-05 -5.6241437e-25 0.00011564323 -1.5098773e-25 1.3317111e-44)
(0.00019937288 1.9815815e-05 -1.9777078e-24 6.8562789e-05 -4.6465507e-24 4.382763e-43)
(0.00017131055 1.0577051e-05 -1.0854609e-25 3.2935396e-05 -9.0472729e-25 2.6438723e-44)
(0.00015468007 3.7380315e-06 -1.8717436e-25 1.2610441e-05 -1.4173516e-24 2.1819622e-43)
(0.00014389004 1.2431676e-06 0 9.2247048e-07 0 0)
(0.0018225124 -0.0019259893 7.8857192e-23 0.0070105669 -1.1946618e-22 3.0119804e-41)
(0.0024497201 -0.0011558186 6.105167e-22 0.0077797959 8.516809e-23 2.5048236e-40)
(0.0028858794 -0.00039109762 -9.2688037e-22 0.0061068686 6.3524816e-23 3.6528019e-40)
(0.0031672621 -8.7421999e-05 -4.3089497e-22 0.004624589 8.8284477e-23 6.8301781e-41)
(0.0027317711 -7.6976891e-05 -2.8373945e-22 0.0031616367 2.5651316e-23 3.2862612e-41)
(0.0021574236 2.3212374e-05 0 0.002174131 0 0)
(0.0016101243 0.00011319783 -1.1554641e-22 0.001497624 2.7451163e-23 1.0282142e-41)
(0.0011624557 0.00012953003 2.2723794e-23 0.0010378363 -1.2259876e-23 7.7989376e-43)
(0.00084139929 0.00011970507 6.3297041e-23 0.00072719395 8.2992602e-24 6.6150371e-42)
(0.00061916658 0.00010227646 -2.7978807e-23 0.00051622282 1.4981505e-23 3.5041181e-42)
(0.00046383601 8.0705235e-05 -6.1877098e-24 0.00036626336 -8.1523337e-24 2.8629256e-43)
(0.00035561651 5.8854728e-05 -2.0340851e-24 0.00025679164 1.8563408e-24 9.3757764e-44)
(0.00028031527 3.9860218e-05 9.1376856e-24 0.00017455967 1.3570153e-23 2.1789598e-42)
(0.00022770059 2.4486427e-05 -7.183273e-24 0.00011139619 -1.9718118e-23 4.7503691e-42)
(0.00019193346 1.3296524e-05 -2.28316e-25 6.5746745e-05 -3.9609514e-24 2.5386103e-43)
(0.00016689123 6.3282061e-06 -1.4977689e-24 3.1425394e-05 -1.5572375e-23 1.0952779e-41)
(0.00015239767 1.4046745e-06 8.653443e-25 1.1973561e-05 -3.8078029e-24 1.5856479e-42)
(0.00014295902 7.2490434e-07 1.7266524e-24 8.6114803e-07 -9.2768579e-25 1.4492457e-42)
(0.0025054256 -0.0023286565 1.9060184e-24 0.0072514472 -1.2599906e-24 1.8312245e-43)
(0.0022456405 -0.0018278971 2.7639636e-22 0.0086136224 -8.8604798e-23 7.6025285e-41)
(0.0026209797 -0.00083938181 9.5697246e-23 0.0072541947 1.0594132e-22 7.8658356e-42)
(0.0031557933 -0.00031349124 -5.0012998e-22 0.0058399479 -1.0661043e-23 9.4444449e-41)
(0.0031308623 -0.00010988964 5.209539e-23 0.0042525406 -5.1851209e-24 9.7695453e-43)
(0.0026554077 -8.0656701e-05 -3.1120668e-23 0.0029150927 -9.0655325e-23 3.8549602e-42)
(0.0020535344 5.3285131e-05 2.2916266e-22 0.0020069401 -1.2260508e-22 3.7217308e-41)
(0.0015088417 0.00012586148 2.0805816e-22 0.0013901839 -4.4610095e-23 3.5679277e-41)
(0.0010769566 0.00012606138 4.3524737e-23 0.00096845552 -1.1407046e-23 2.5609125e-42)
(0.00077889238 0.00011182618 -1.4305855e-23 0.00068734817 -2.3156946e-23 1.0234075e-42)
(0.00057349615 9.081436e-05 5.630604e-24 0.00049180874 -2.864806e-24 1.6727325e-43)
(0.00043179762 6.7724634e-05 -1.444882e-23 0.00035233467 -1.9086846e-23 1.8927107e-42)
(0.00033369794 4.6557106e-05 7.3766289e-24 0.00024753846 4.6482864e-24 8.1331133e-43)
(0.00026617154 2.8793663e-05 -3.3266866e-25 0.00016854111 1.4959708e-24 2.4971171e-44)
(0.00021903524 1.6039211e-05 -2.6056139e-25 0.0001070802 2.0254172e-24 5.3195812e-44)
(0.00018709137 7.0832779e-06 3.0361305e-25 6.2910875e-05 3.5443251e-24 2.8824035e-43)
(0.00016450774 2.577407e-06 6.7535843e-25 2.9846435e-05 -5.1806202e-24 1.2811512e-42)
(0.00015162254 -6.3728433e-07 -9.2535061e-27 1.1311974e-05 1.0688585e-25 4.8669153e-45)
(0.00014321362 3.0729899e-07 2.5016807e-24 7.9978262e-07 -8.3099836e-25 1.3127246e-42)
(0.0037606073 -0.0025351683 1.6635911e-23 0.0074009963 8.4022467e-24 6.0539054e-42)
(0.002435532 -0.0023947694 -1.8666971e-22 0.0092954051 5.3296014e-23 7.5665569e-41)
(0.0023602143 -0.001399227 1.3190911e-21 0.0082982936 1.1159445e-22 1.4573995e-39)
(0.0029499466 -0.00067598623 2.5741516e-22 0.0070881631 -9.6946893e-23 2.9288734e-41)
(0.0032191135 -0.00026205238 -1.4312883e-22 0.0055100651 -1.0268359e-22 1.0066719e-41)
(0.0030964778 -0.00013911063 -1.4605917e-23 0.0039579877 -6.5688069e-23 1.4012293e-42)
(0.0025419434 -6.801039e-05 -5.6232619e-23 0.0026948836 8.6272854e-24 1.3799972e-42)
(0.0019474902 8.8772685e-05 -8.3343819e-23 0.0018692869 -4.6652736e-23 5.092738e-42)
(0.0013996929 0.0001303838 2.8138843e-23 0.0012958186 -5.7152521e-24 7.2076971e-43)
(0.00099518768 0.00012121036 1.0080856e-22 0.00091299743 1.3696109e-24 1.3758371e-41)
(0.00072016286 0.0001014815 -3.2562586e-23 0.00065362073 -3.4903003e-23 3.6140035e-42)
(0.00053246304 7.7469938e-05 -8.1311556e-25 0.00047272291 7.118938e-24 1.3996035e-43)
(0.00040402797 5.3968342e-05 3.6494923e-24 0.00033985911 1.0105496e-23 3.556093e-43)
(0.00031603614 3.3454853e-05 -1.1523423e-25 0.00023944869 -7.5085328e-25 2.5164933e-45)
(0.00025555461 1.8182495e-05 -7.0851139e-25 0.00016241871 1.3289675e-24 4.2732027e-44)
(0.00021336413 7.7997903e-06 1.6505096e-24 0.00010273993 1.54668e-23 3.5500359e-42)
(0.00018449356 1.5463351e-06 -2.1824534e-25 5.9909987e-05 -2.5870572e-24 3.1121364e-43)
(0.00016380194 -7.4277092e-07 -3.1695485e-24 2.8206305e-05 8.5460966e-24 3.5332923e-42)
(0.00015211398 -2.3390445e-06 -1.2108881e-24 1.0623475e-05 1.3584277e-24 2.2961126e-43)
(0.00014432399 -1.3767731e-08 -3.5117883e-24 7.3856571e-07 8.2733485e-25 1.4436729e-42)
(0.0053738337 -0.0025820142 -2.3940969e-25 0.0074373238 7.0248238e-23 1.3240382e-42)
(0.003202463 -0.0027831658 -2.2238062e-22 0.0098686333 2.3188459e-22 1.4192488e-40)
(0.0023954104 -0.0019659143 -1.696489e-22 0.009198615 4.5659429e-22 3.8536927e-41)
(0.0026461239 -0.0011706137 -3.8693372e-22 0.0083001037 -1.6908968e-23 9.2188165e-41)
(0.003083028 -0.00055864645 8.7630657e-23 0.0068349763 -2.0574384e-22 9.8325413e-42)
(0.00326859 -0.00025924052 2.868316e-22 0.0052409295 2.438024e-23 2.9330949e-41)
(0.0030176771 -0.00017463451 -6.1043057e-22 0.0036721035 5.4300025e-23 1.3662032e-40)
(0.0024375859 -3.1404179e-05 -7.4161032e-22 0.0025092897 1.0386812e-22 2.5016706e-40)
(0.001824499 0.00011412877 3.7173346e-23 0.0017454197 8.4069199e-23 5.3912247e-42)
(0.0012919878 0.00013044481 0 0.001217438 0 0)
(0.00091784228 0.00011257818 2.8736502e-23 0.00086565506 3.0223602e-23 2.0690309e-42)
(0.00066645722 8.8279557e-05 -2.2427939e-23 0.00062698326 8.7312531e-24 1.9213688e-42)
(0.00049635836 6.2476541e-05 -2.0734016e-23 0.00045581396 -1.989774e-23 2.8504362e-42)
(0.00038116347 3.8815662e-05 1.2319409e-23 0.0003291276 8.098583e-24 2.0340847e-42)
(0.00030238826 2.0521187e-05 -1.6708447e-24 0.00023125489 -9.3089702e-24 4.611646e-43)
(0.00024848552 7.5682586e-06 1.8492391e-24 0.0001562761 1.5797284e-23 2.3797961e-42)
(0.00021025777 3.4869231e-07 -8.4327525e-25 9.8100218e-05 1.7542068e-24 7.6799217e-44)
(0.0001838949 -3.4512962e-06 8.6721879e-25 5.6764615e-05 -4.0225797e-24 4.88063e-43)
(0.0001644944 -3.5164303e-06 -2.8035897e-24 2.6495609e-05 4.9488826e-24 1.3847805e-42)
(0.0001535251 -3.706571e-06 -3.7981518e-25 9.9145763e-06 2.7768184e-25 8.8904813e-45)
(0.00014606238 -2.3852751e-07 -4.003897e-24 6.7827727e-07 7.3324999e-25 1.2989642e-42)
(0.0072145547 -0.0025344645 1.4053884e-22 0.0073645268 1.8446152e-22 2.4552812e-41)
(0.0044527613 -0.0030459369 -2.2565976e-22 0.010329363 2.1250563e-22 6.5310393e-41)
(0.0029923711 -0.0024529882 -2.4982588e-22 0.0099792262 -4.7723613e-23 1.9009686e-40)
(0.0025075139 -0.0017020472 4.847812e-22 0.0094044599 2.7338985e-22 2.8931556e-40)
(0.0028145662 -0.00099160834 5.4797954e-22 0.0081794096 -2.1140159e-23 1.5941365e-40)
(0.0032073402 -0.00051509102 -4.3081726e-23 0.0066319391 -1.4365861e-22 4.6930368e-42)
(0.0032713109 -0.00029246509 0 0.0049493778 0 0)
(0.0029436656 -0.00019141353 -1.4983627e-23 0.0034101775 -1.9223954e-22 1.3229896e-41)
(0.0023187451 1.6974479e-05 1.6884986e-22 0.0023453187 -7.5738385e-23 1.674873e-41)
(0.0016944175 0.00013009302 2.1282469e-22 0.0016370517 5.1479906e-23 3.0621053e-41)
(0.0011882688 0.00012423878 -3.8094901e-24 0.0011495413 2.6690962e-23 8.0960506e-43)
(0.00084633844 0.00010005112 -1.8996785e-23 0.00082756158 2.7156835e-24 7.6460948e-43)
(0.00061856374 7.2342771e-05 3.4588897e-24 0.00060360441 -1.4415254e-24 5.8171815e-44)
(0.00046590635 4.5265159e-05 4.2113744e-24 0.00044146931 1.042788e-23 3.4411804e-43)
(0.0003630063 2.3311585e-05 -5.8816551e-24 0.00031837294 -9.7382164e-24 8.9218131e-43)
(0.00029302743 7.2373234e-06 2.5247383e-24 0.00022309013 8.5306635e-24 7.5490253e-43)
(0.00024445086 -2.2106501e-06 7.5783233e-26 0.00014964341 -2.0837714e-24 4.0563444e-44)
(0.00020961141 -6.5261347e-06 -2.0924877e-24 9.319934e-05 1.0118287e-23 1.5884451e-42)
(0.00018489124 -7.6547903e-06 -1.0695471e-24 5.3447096e-05 1.7185547e-24 6.7040182e-44)
(0.00016623037 -5.7620743e-06 -2.178015e-25 2.4731232e-05 2.0734232e-25 2.2991738e-45)
(0.00015562006 -4.7276498e-06 -2.4161765e-24 9.1931862e-06 1.6084077e-24 4.1938231e-43)
(0.00014818261 -3.7227119e-07 0 6.1963392e-07 0 0)
(0.0091428121 -0.0024233778 1.2497189e-22 0.0072971533 1.8418496e-22 1.4880009e-41)
(0.005887904 -0.0032685582 1.8034283e-22 0.010645452 -1.0224368e-22 2.2063878e-41)
(0.0041507819 -0.0028112233 2.1343916e-23 0.010665404 -9.1565342e-23 9.899842e-43)
(0.0028619158 -0.0021795167 3.8880454e-22 0.010404505 -8.9098973e-23 2.5540828e-40)
(0.0026265557 -0.0015116331 3.6111056e-22 0.0094608086 -2.6180985e-22 9.7031387e-41)
(0.0029961754 -0.00090775268 -2.7911781e-22 0.0080826862 -4.7858232e-23 3.8521487e-41)
(0.0032802427 -0.00052506156 1.5147132e-23 0.0063942082 4.1252128e-22 3.2010418e-41)
(0.0032728433 -0.00034601864 -7.1767928e-22 0.004648377 -6.7773275e-23 1.8242314e-40)
(0.0028384197 -0.00018144636 -1.2929099e-22 0.0031654303 -5.636051e-23 7.8183072e-42)
(0.0021906854 6.8913197e-05 -3.1262341e-23 0.0022042901 5.6695398e-24 5.2144738e-43)
(0.0015611048 0.00013326121 4.5101775e-24 0.0015389996 -1.6684084e-24 1.9442937e-44)
(0.0010913388 0.00011276769 6.5000704e-23 0.0010937397 -1.5204605e-23 6.267048e-42)
(0.00078194025 8.3558691e-05 -3.0453795e-24 0.00079435105 -3.9182191e-24 3.6283945e-44)
(0.00057733643 5.3176114e-05 -1.4123797e-23 0.00058392721 2.8360575e-23 3.2178285e-42)
(0.00044118507 2.7000558e-05 6.3016734e-24 0.00042733509 2.6450695e-23 2.0724908e-42)
(0.00035006576 6.978288e-06 3.8977952e-24 0.00030778208 2.0342234e-23 2.0519377e-42)
(0.00028736456 -5.2826997e-06 7.6777488e-25 0.00021420906 -2.3836502e-24 3.8581427e-44)
(0.00024350924 -1.1438852e-05 3.4079311e-24 0.00014258509 -2.1879077e-23 4.9233089e-42)
(0.00021084192 -1.2370999e-05 9.1674881e-26 8.7970852e-05 -5.9477572e-25 1.3488025e-44)
(0.00018718013 -1.1118916e-05 -2.5378903e-24 4.999196e-05 4.2144576e-24 5.1927142e-43)
(0.0001687538 -7.4388711e-06 0 2.2932209e-05 0 0)
(0.00015812948 -5.4127878e-06 6.1442934e-24 8.4694097e-06 -3.3694973e-24 2.0793839e-42)
(0.00015048903 -4.2045985e-07 1.3465915e-25 5.6346936e-07 -1.3038543e-26 4.516142e-46)
(0.010914217 -0.0022630254 -6.9999812e-22 0.0072433185 -2.7301023e-22 1.5315884e-40)
(0.0074859073 -0.0034910321 6.8556552e-22 0.010905916 2.1603926e-22 2.6841472e-40)
(0.0054691737 -0.0031203975 -3.581507e-22 0.011252006 -1.5472581e-22 1.3298156e-40)
(0.0038384849 -0.0025598813 -6.2901471e-23 0.01132621 -2.9167939e-22 3.5299951e-41)
(0.0028463341 -0.0020134109 3.799883e-22 0.010664207 2.4465e-22 2.5252098e-40)
(0.0027955363 -0.0014176957 0 0.009517575 0 0)
(0.003150784 -0.00088536519 -6.3512614e-24 0.0079309339 1.2703354e-22 2.3998359e-42)
(0.003359263 -0.00057692235 -2.460985e-22 0.0061287964 -2.4406965e-22 3.6250177e-41)
(0.0032590433 -0.00039918013 -4.9653335e-22 0.0043293963 1.3369894e-23 8.6205317e-41)
(0.0027292354 -0.00012979461 -4.9906755e-22 0.0029513075 1.3934372e-22 1.0825778e-40)
(0.0020471735 0.0001061611 1.144722e-22 0.0020745888 6.0516318e-23 8.5246265e-42)
(0.0014310299 0.00012618466 7.6363428e-23 0.001455376 1.0744615e-23 5.0345246e-42)
(0.001003461 9.6066481e-05 -5.1992542e-23 0.0010452841 -1.4681748e-23 4.1815406e-42)
(0.00072553055 6.2709666e-05 2.1943807e-23 0.00076645721 2.8260401e-23 2.2371036e-42)
(0.00054319436 3.2023625e-05 -2.1322694e-23 0.00056498902 -3.5203497e-23 4.8671554e-42)
(0.00042282043 7.2574293e-06 -8.6993788e-24 0.00041366337 -5.0429873e-23 8.2828842e-42)
(0.00034174157 -8.820111e-06 5.4952339e-24 0.00029624722 3.0086295e-24 1.2103973e-42)
(0.00028563227 -1.7369425e-05 1.0950861e-24 0.00020471227 -1.0313243e-23 7.7437522e-43)
(0.00024488713 -1.9406878e-05 -6.1275141e-24 0.00013496208 2.4052851e-23 7.1183993e-42)
(0.00021379224 -1.7301354e-05 1.6109716e-24 8.2466006e-05 -4.6266036e-24 7.112186e-43)
(0.00019041907 -1.3725695e-05 6.4420748e-24 4.6436509e-05 -8.5289664e-24 2.4619372e-42)
(0.0001717594 -8.5635351e-06 -6.1203197e-24 2.1124189e-05 5.069409e-24 2.0696381e-42)
(0.00016084501 -5.7737104e-06 4.1552581e-24 7.7542451e-06 -1.9924687e-24 9.1268592e-43)
(0.00015280909 -3.8987558e-07 1.1974083e-25 5.1047308e-07 -9.4986623e-27 2.9013922e-46)
(0.012472669 -0.0020922607 -2.7639615e-22 0.0071980557 -3.3156503e-22 4.1755877e-41)
(0.0091806142 -0.003639244 8.5745089e-22 0.011133463 7.4989201e-23 2.7744891e-40)
(0.0068645858 -0.0033928672 1.6379807e-22 0.011749051 -4.9528583e-22 2.9996066e-41)
(0.0050633162 -0.0028867386 7.9931409e-22 0.012181672 1.4818396e-22 7.0631359e-40)
(0.0036843349 -0.0024420193 -1.2307233e-22 0.011821301 -3.5955435e-22 7.412462e-41)
(0.0029177914 -0.001936244 5.075665e-22 0.010897177 3.2076077e-22 3.4608068e-40)
(0.00298591 -0.0013809975 -1.859647e-23 0.0095039863 1.5277845e-22 2.8645949e-42)
(0.0033181169 -0.00092157691 9.3902129e-22 0.0077406836 1.8859473e-22 3.828121e-40)
(0.0034480742 -0.00064824453 -1.0558551e-22 0.00581482 -2.2257753e-22 1.5315478e-41)
(0.0032429464 -0.0004173013 -2.4844958e-22 0.0040133478 -2.8727943e-23 2.2300506e-41)
(0.0026038444 -5.4221445e-05 6.2243116e-23 0.0027700012 1.1241285e-22 6.9767765e-42)
(0.0018925385 0.0001237778 -2.233459e-22 0.0019567348 6.5136056e-24 3.1264525e-41)
(0.0013097915 0.00011003674 3.3601587e-23 0.0013824681 3.0920878e-23 1.703372e-42)
(0.00092559242 7.3749045e-05 4.8249106e-24 0.001004398 -1.2084621e-24 5.2713648e-44)
(0.00067794786 3.8642979e-05 -5.2932929e-24 0.00074026958 -3.8314574e-23 2.3245276e-42)
(0.00051679543 8.5491358e-06 -2.9754909e-24 0.00054706919 -3.9971036e-24 1.1240082e-43)
(0.00041031244 -1.2383671e-05 1.4635439e-24 0.00039889348 8.4734836e-25 5.0385338e-44)
(0.0003384293 -2.4406848e-05 1.0430406e-24 0.00028390619 -1.9693635e-23 2.0703233e-42)
(0.00028688695 -2.801918e-05 0 0.00019432996 0 0)
(0.00024859621 -2.6288057e-05 1.222736e-24 0.00012684451 -2.5246616e-24 6.2624993e-44)
(0.00021789804 -2.1051825e-05 3.8387611e-25 7.6749353e-05 -5.4986188e-25 5.1203129e-45)
(0.00019427425 -1.5506672e-05 -7.501146e-25 4.283225e-05 7.5463937e-25 1.8181052e-44)
(0.00017501709 -9.1465799e-06 -1.4272392e-25 1.9335758e-05 5.6124091e-27 6.3452426e-45)
(0.0001635756 -5.8331805e-06 -6.8236372e-24 7.0584747e-06 2.7574963e-24 1.8750618e-42)
(0.00015500565 -2.8701079e-07 -3.2449265e-24 4.6185623e-07 3.0364059e-25 4.630788e-43)
(0.013844671 -0.0019413146 7.6080267e-22 0.0071623502 3.0064439e-22 1.3579739e-40)
(0.010820891 -0.0037331824 -5.9801238e-22 0.011332322 1.3714178e-23 1.0736887e-40)
(0.0083448463 -0.0036412393 -2.4437702e-22 0.012255156 4.8151803e-23 2.5277043e-41)
(0.0063408009 -0.0032044505 -1.1873428e-22 0.012939344 -2.1019247e-23 1.1271199e-41)
(0.0048692831 -0.0028252577 -6.1306538e-22 0.012942044 -2.3858517e-22 5.368458e-40)
(0.003633835 -0.0023969749 -1.2087634e-22 0.0122576 3.2680465e-22 1.6355735e-41)
(0.0030632527 -0.0019145536 -3.3802779e-23 0.011054251 1.9501039e-22 3.991377e-42)
(0.0032177679 -0.0014067521 -5.15823e-23 0.0094377951 -2.5665378e-23 1.648241e-42)
(0.0034929883 -0.00099700633 -7.1855272e-22 0.0074868458 -1.3554314e-22 2.1283822e-40)
(0.0035526859 -0.00071635252 -4.6142317e-23 0.0054587338 2.3661892e-22 1.2199372e-41)
(0.0031932504 -0.00038087346 -2.6678742e-22 0.0037202678 -7.8143294e-23 2.8140257e-41)
(0.0024568551 2.2943596e-05 4.4600062e-23 0.0026200597 -5.8283557e-24 9.5087743e-43)
(0.0017358727 0.00012031092 9.6481826e-23 0.0018478147 -3.8625629e-24 6.8008696e-42)
(0.0012007612 8.6246201e-05 -4.9640997e-24 0.0013206774 -1.6432053e-23 2.5951743e-43)
(0.00085885542 4.6906257e-05 1.5628857e-23 0.00096692984 -4.782471e-24 7.0715239e-43)
(0.00063986198 1.118692e-05 1.7634184e-24 0.00071606424 5.423756e-23 4.802886e-42)
(0.00049786567 -1.5492729e-05 -1.4735493e-23 0.00052806674 6.2152244e-23 9.6868696e-42)
(0.0004041719 -3.2186525e-05 1.7326385e-25 0.00038318817 3.3706683e-23 4.5700473e-42)
(0.00033906661 -3.8470654e-05 -7.1104037e-24 0.00027027934 4.0135003e-23 8.9375084e-42)
(0.00029128551 -3.7435126e-05 -3.1450574e-25 0.00018315929 4.9498943e-25 2.0259817e-45)
(0.00025376926 -3.1604871e-05 1.4620373e-23 0.00011832619 -2.5652005e-23 7.9864922e-42)
(0.00022289735 -2.3693058e-05 2.332888e-24 7.0895838e-05 -3.4638754e-24 3.9406129e-43)