/*--------------------------------*- C++ -*----------------------------------*\
| =========                 |                                                 |
| \\      /  F ield         | OpenFOAM: The Open Source CFD Toolbox           |
|  \\    /   O peration     | Version:  5.0                                   |
|   \\  /    A nd           | Web:      www.OpenFOAM.org                      |
|    \\/     M anipulation  |                                                 |
\*---------------------------------------------------------------------------*/
FoamFile
{
    version     2.0;
    format      ascii;
    class       volScalarField;
    location    "280";
    object      p;
}
// * * * * * * * * * * * * * * * * * * * * * * * * * * * * * * * * * * * * * //

dimensions      [0 2 -2 0 0 0 0];

internalField   nonuniform List<scalar> 
9200
(
0.0010056033
0.0010203451
0.0026086735
0.0010312113
0.0026434717
0.0043391075
0.0010561069
0.0026802413
0.0043917869
0.0059052043
0.0010785204
0.0027491781
0.0044544999
0.0059717007
0.007442723
0.0011025065
0.0028288505
0.0045619795
0.0060558703
0.0075214798
0.0088740391
0.0011185505
0.0029274509
0.0046896798
0.0061944577
0.007624241
0.0089622941
0.010219376
0.0011243306
0.0030348419
0.0048445955
0.006362793
0.0077896841
0.0090793218
0.010314651
0.011473963
0.00112186
0.0031434631
0.0050182915
0.0065685705
0.0079926893
0.0092642968
0.010441878
0.011574551
0.012643826
0.0010984691
0.0032269186
0.0052101107
0.0068101155
0.0082420187
0.0094909056
0.010639092
0.011709505
0.01274868
0.01373244
0.0010088409
0.0032739429
0.0054063738
0.0070911507
0.008539554
0.0097658181
0.010877709
0.011915044
0.012890183
0.013840709
0.014744366
0.00079555982
0.0033425601
0.0055948055
0.007413475
0.0088908649
0.010089077
0.011160267
0.012161341
0.01310301
0.013987961
0.014855298
0.015683903
0.00044232136
0.0033932976
0.005784023
0.0078012882
0.0093069424
0.010465037
0.011482796
0.012447623
0.013357526
0.014207376
0.015007726
0.015796739
0.016555369
-5.5222372e-05
0.0033442478
0.0059639498
0.0082529305
0.0098036973
0.010904152
0.011843891
0.012765846
0.013648116
0.014469412
0.015232904
0.015954043
0.016669217
0.017363032
-0.00071017991
0.0031485965
0.006091431
0.00875534
0.010391253
0.011426493
0.012254954
0.013111485
0.013962999
0.014762889
0.015502363
0.016185276
0.016830966
0.017476779
0.018111228
-0.0015362742
0.0027700154
0.0061172169
0.0093017788
0.011092439
0.012040897
0.012710869
0.013480717
0.014287488
0.01507414
0.015802831
0.016463603
0.017068188
0.017641926
0.018223529
0.01880436
-0.0025546525
0.0021309022
0.0059821105
0.0098770754
0.011932068
0.012774084
0.013235946
0.013800779
0.014596344
0.015382393
0.016121249
0.016777785
0.017357389
0.017883722
0.01839045
0.018913689
0.019446828
-0.0038178413
0.0012038862
0.0056208325
0.010464633
0.012937501
0.013654009
0.01384724
0.014130923
0.014874281
0.015660409
0.01643637
0.017115528
0.017687981
0.018183407
0.018634352
0.019080373
0.019551591
0.020042957
-0.0058599286
-5.3220489e-05
0.0049601431
0.011062939
0.014140708
0.014711688
0.01455439
0.01450206
0.015080334
0.015913668
0.016722129
0.017456557
0.018052474
0.018530514
0.018941171
0.019323114
0.019715804
0.020141581
0.020597038
-0.0078415329
-0.001749592
0.0039031194
0.011660827
0.015548762
0.015977344
0.015384361
0.014881062
0.01517781
0.016083496
0.016978608
0.017788275
0.018434958
0.01892272
0.01930184
0.019632695
0.019953719
0.020300973
0.020687973
0.021113269
-0.010309888
-0.0043636526
0.0023555158
0.01216952
0.01714368
0.017469284
0.016362558
0.015258582
0.015174333
0.016102994
0.017164681
0.0181078
0.018837186
0.019351001
0.019716386
0.020000643
0.020261101
0.020530299
0.02084021
0.021195057
0.021595529
-0.013730569
-0.008238698
0.00017287397
0.012433483
0.018921835
0.019196147
0.017498527
0.015632918
0.015033081
0.015931745
0.017229499
0.018377333
0.019247511
0.019818281
0.020180779
0.020429435
0.020629271
0.020830412
0.021057327
0.021337987
0.021666929
0.022047397
-0.016594447
-0.012763798
-0.0025265618
0.01225515
0.020967186
0.021140048
0.018816505
0.015997239
0.014700502
0.015509797
0.017115638
0.018569051
0.019648201
0.020316466
0.020697217
0.020916361
0.021062612
0.021192015
0.021345366
0.021539605
0.021798523
0.022107271
0.022472452
-0.018864468
-0.0172422
-0.0059849129
0.011376154
0.023412345
0.023282947
0.020308378
0.016346206
0.014109101
0.014746436
0.016753375
0.018644775
0.020026503
0.020847842
0.021267282
0.021465384
0.021558819
0.021620771
0.021694149
0.021811124
0.021981478
0.022225413
0.022519755
0.022874183
-0.020776333
-0.021594371
-0.01042027
0.010145541
0.026279956
0.02556138
0.021945039
0.016665547
0.013190378
0.013504306
0.016056492
0.018562086
0.020366837
0.021412423
0.021898358
0.022080981
0.022121687
0.022113832
0.022110479
0.022141398
0.022232281
0.022386434
0.022622583
0.022908578
0.023255487
-0.022396653
-0.026082625
-0.014969111
0.0089360242
0.029223484
0.027926406
0.023659015
0.016926346
0.011883107
0.011613016
0.014933996
0.018270253
0.020658597
0.022016745
0.022600629
0.022771285
0.022754515
0.022673563
0.022590475
0.022538579
0.022539092
0.022612666
0.022759161
0.022994874
0.023276912
0.023618793
-0.023746409
-0.030561725
-0.01932073
0.007571828
0.031320285
0.030350069
0.02536197
0.017063446
0.0099490668
0.0094717511
0.013286319
0.017696054
0.020879651
0.022665949
0.023387545
0.023547739
0.023463188
0.023300557
0.023134741
0.022998161
0.022912088
0.022891812
0.022958134
0.023105948
0.023345381
0.023626406
0.023966601
-0.024801168
-0.034762685
-0.023360903
0.0061163166
0.032317578
0.032606471
0.026888694
0.016942358
0.0072265706
0.0057595353
0.011012398
0.016730494
0.020987376
0.023357239
0.024268863
0.024423118
0.024255474
0.023996314
0.023740897
0.023519294
0.023345949
0.023236586
0.023206874
0.023275392
0.023429132
0.023675438
0.023959275
0.024300973
-0.025528355
-0.038512063
-0.02703618
0.0045528238
0.032584288
0.03520691
0.028036774
0.016474351
0.0036696722
0.00086486344
0.0079036638
0.015195319
0.020909007
0.024084729
0.025256194
0.025409697
0.025140603
0.024760857
0.024405762
0.024096306
0.023839794
0.023640982
0.023515288
0.023489352
0.023564028
0.023728077
0.023987632
0.024278444
0.024623547
-0.025961655
-0.041699534
-0.030242591
0.0029224173
0.03196103
0.037801613
0.028664843
0.015641844
-0.00064523758
-0.0052302757
0.0038359576
0.012926819
0.020541238
0.024825257
0.026354474
0.026517473
0.026124977
0.025597379
0.025113449
0.02471874
0.024385822
0.024105351
0.023886856
0.023757372
0.023736694
0.023823517
0.024006909
0.024285829
0.024586366
0.024936073
-0.026021487
-0.044284317
-0.032897437
0.0012477791
0.030573725
0.037865792
0.028609832
0.014345665
-0.0058236623
-0.012754583
-0.0016210901
0.009683153
0.019733677
0.025545464
0.027554427
0.027747435
0.027210993
0.026501734
0.0258702
0.025371168
0.024969164
0.024622043
0.024320839
0.024090535
0.023966454
0.023952799
0.024062794
0.024272577
0.02457307
0.024884832
0.025240128
-0.025847797
-0.046414323
-0.034951743
-0.00047373319
0.028567818
0.035764778
0.027737211
0.012598455
-0.012252183
-0.022201281
-0.0094960043
0.005244519
0.018165281
0.026184135
0.028826081
0.029085437
0.02839172
0.02746608
0.026652375
0.026036896
0.025570259
0.025174493
0.024811053
0.024490836
0.02425739
0.024138828
0.024146559
0.024289665
0.024527905
0.024850648
0.025175276
0.025536913
-0.025289727
-0.048295493
-0.036650571
-0.0022577076
0.025942842
0.033863054
0.025990596
0.010326286
-0.019390782
-0.033417681
-0.020196335
-0.00052872461
0.01575257
0.026561762
0.030100888
0.030492188
0.029646843
0.028473704
0.027440256
0.026687769
0.026161119
0.025740733
0.025342619
0.024954975
0.024618798
0.024384542
0.024281314
0.024323247
0.024502208
0.024771768
0.02512007
0.025458988
0.025827315
-0.024222964
-0.048850247
-0.038106965
-0.0046654484
0.022841866
0.029267884
0.023474627
0.0073649461
-0.02689487
-0.045517376
-0.033014218
-0.0087395215
0.012441692
0.026518119
0.031283671
0.031889708
0.030930734
0.029494671
0.028204716
0.027288269
0.02670318
0.026287203
0.025894346
0.025472459
0.025052912
0.024701414
0.024473429
0.024400491
0.024484576
0.02470294
0.025008306
0.025383622
0.025737116
0.026112153
-0.02277133
-0.047945674
-0.038791915
-0.0073701758
0.018334081
0.026898148
0.020243968
0.0037455296
-0.034475849
-0.058254207
-0.047568075
-0.019674703
0.0073095679
0.026032288
0.032208627
0.033175133
0.032171879
0.030479708
0.028904416
0.027793525
0.02714665
0.026767068
0.026433872
0.026026485
0.025556893
0.025099144
0.024737843
0.024531647
0.024500318
0.02463262
0.02489711
0.025240836
0.025642503
0.026010442
0.026392035
-0.020961165
-0.045833364
-0.038572013
-0.010110944
0.013225299
0.021863632
0.016577496
-0.0003696728
-0.041931937
-0.071065227
-0.062332604
-0.03184467
0.00023586941
0.024799632
0.032999932
0.034180021
0.033268439
0.031362754
0.029484706
0.028148534
0.027429517
0.027119726
0.026911246
0.026592985
0.026123216
0.025584894
0.025091239
0.024734181
0.0245635
0.024584158
0.024771977
0.025086275
0.025468605
0.025897192
0.026279656
0.026667302
-0.018818147
-0.042629837
-0.037455577
-0.012797501
0.0073882262
0.017457869
0.012266698
-0.0046841766
-0.048901095
-0.083337811
-0.076707697
-0.044125039
-0.0072913954
0.022338496
0.033280721
0.034865644
0.034080555
0.032045093
0.029868276
0.028275793
0.027468555
0.027262839
0.027259103
0.027124533
0.02673472
0.026160743
0.025547489
0.025029971
0.024693912
0.024573373
0.024656593
0.024905979
0.025272273
0.025693961
0.02614907
0.026545321
0.026938411
-0.016404357
-0.038597095
-0.035644254
-0.015461452
0.0011185538
0.011552348
0.0080223905
-0.0078906322
-0.055668844
-0.094445049
-0.090296237
-0.056085733
-0.015067847
0.01847786
0.032783357
0.034720995
0.034431194
0.032421151
0.029956089
0.02807814
0.027155634
0.027086489
0.02738693
0.027557634
0.027360216
0.026821196
0.026119681
0.025439626
0.024917428
0.024621877
0.02456706
0.024721842
0.025037504
0.025457383
0.025918653
0.026398714
0.026807741
0.027205494
-0.013776037
-0.033889122
-0.033178876
-0.018127124
-0.0055456693
0.0045593601
0.003065702
-0.010384146
-0.060020343
-0.10452795
-0.10312768
-0.067308554
-0.023056275
0.013795578
0.031105324
0.033729196
0.034046359
0.032358383
0.029640368
0.027450637
0.026377459
0.02646202
0.027178264
0.027806398
0.027951401
0.027553059
0.026815857
0.025986272
0.025260373
0.024758628
0.024525596
0.024550409
0.024784404
0.025169416
0.025643205
0.026142642
0.026646309
0.027067155
0.027468628
-0.011001925
-0.028540765
-0.030008999
-0.020681696
-0.012499433
-0.0034010052
-0.0028129491
-0.01340122
-0.06366504
-0.1115069
-0.11526256
-0.07814891
-0.031194337
0.0083894318
0.028157333
0.032150943
0.032798924
0.031720199
0.028813534
0.02628467
0.025007225
0.025234617
0.026484678
0.027760909
0.02843667
0.028330475
0.027640411
0.0266904
0.025754053
0.025014543
0.024563026
0.024412458
0.024527301
0.024848424
0.02530368
0.025831045
0.026366904
0.026892413
0.027323694
0.027727997
-0.022723486
-0.0081458368
-0.026275328
-0.022982501
-0.019632193
-0.012211585
-0.009606611
-0.017259798
-0.0668997
-0.11824345
-0.12574172
-0.087995316
-0.039314105
0.0023515316
0.024080799
0.029839616
0.030733161
0.030319661
0.0273949
0.024456284
0.022902879
0.02321062
0.025098454
0.027273945
0.028720126
0.029110342
0.028588727
0.027571476
0.026429117
0.025426158
0.024711638
0.024338423
0.024286497
0.024503306
0.024915343
0.025442595
0.026021933
0.026592088
0.027137082
0.027577376
0.027983424
-0.022048753
-0.016576858
-0.0053034298
-0.024832741
-0.026915136
-0.021743812
-0.017395353
-0.022090092
-0.069466378
-0.12287642
-0.13737868
-0.096352415
-0.047198069
-0.0036766146
0.018595494
0.026732459
0.027781275
0.028010006
0.025304094
0.021854612
0.019907758
0.020160276
0.022749482
0.026121768
0.028673617
0.029830432
0.029645675
0.028643044
0.027316907
0.026031108
0.025011317
0.024360071
0.024090387
0.024156129
0.024486181
0.024989244
0.025588131
0.02621647
0.026818038
0.027380326
0.027828166
0.028234976
-0.026120125
-0.017449557
-0.010360023
-0.0025092271
-0.034162288
-0.031798989
-0.02589445
-0.027659583
-0.071459295
-0.12532901
-0.14680479
-0.10667192
-0.056781229
-0.0098741698
0.012483414
0.022705166
0.023850632
0.024735457
0.022434565
0.018394497
0.015880682
0.015826483
0.019090752
0.023996748
0.028099717
0.030388691
0.030779086
0.029911282
0.028444853
0.026869225
0.025504434
0.024519907
0.02397023
0.023831402
0.02403232
0.024479181
0.025073743
0.025740768
0.026414797
0.027045031
0.027622166
0.028075979
0.02848253
-0.041189338
-0.026850003
-0.012782833
-0.004271819
0.00019411832
-0.042072638
-0.034633501
-0.033462256
-0.072799475
-0.12574744
-0.15447604
-0.11676977
-0.067110003
-0.019708328
0.0062259924
0.017617452
0.019081551
0.020410298
0.018716215
0.014049929
0.010700087
0.0099564134
0.013691262
0.020471131
0.026713969
0.030628198
0.031927561
0.031367095
0.029833594
0.027978159
0.026236606
0.024862533
0.023967283
0.023557551
0.023575463
0.023920322
0.024484745
0.025169616
0.025900982
0.026617185
0.027272979
0.02786243
0.028320672
0.02872594
-0.052188491
-0.047945963
-0.026970042
-0.0081266416
0.0016272773
0.0027591908
-0.043364563
-0.039150446
-0.073319847
-0.12357024
-0.16001963
-0.12591681
-0.076305207
-0.029713409
-0.004095071
0.012149531
0.013265363
0.015101122
0.014105927
0.0088432475
0.0043447511
0.0022977983
0.0060549501
0.014983393
0.024095377
0.030305541
0.032985438
0.032977855
0.031490025
0.029388352
0.027251377
0.025436053
0.024125806
0.023372996
0.023139919
0.02333156
0.023823828
0.02450605
0.025278022
0.026069428
0.026823799
0.027501688
0.028100948
0.028562086
0.028965178
-0.051671101
-0.061689613
-0.054168026
-0.02657863
-0.0035705127
0.0073632116
0.0051834654
-0.044223302
-0.072767627
-0.11872198
-0.1606355
-0.13212207
-0.083843939
-0.040233611
-0.013803141
0.0027938137
0.0070329247
0.0087728648
0.0086546129
0.0028841679
-0.0031948182
-0.0073771537
-0.0046423496
0.0067919636
0.019732572
0.029089434
0.033778925
0.034673699
0.033397476
0.031116501
0.028584786
0.026286804
0.024494746
0.023320473
0.022760596
0.02273203
0.023105593
0.023747822
0.024545179
0.025399877
0.026246353
0.027034305
0.027730925
0.028337485
0.02880005
0.029200045
-0.048535122
-0.059227782
-0.070055423
-0.059774429
-0.025864245
0.00071584546
0.012421585
0.0074499729
-0.071194747
-0.11264475
-0.14144121
-0.13459168
-0.089149382
-0.05027605
-0.025292516
-0.006580723
-0.0017356083
0.0019326946
0.002337522
-0.0037211684
-0.011853915
-0.019373444
-0.019279015
-0.0053289878
0.012936726
0.026570098
0.034072942
0.03632962
0.035502629
0.033155355
0.030260407
0.02745347
0.025119165
0.023446125
0.022476199
0.022151339
0.022343365
0.02290428
0.023695895
0.024603824
0.025535596
0.026431577
0.027248412
0.02796031
0.028571803
0.029034433
0.029430499
-0.0685905
-0.052379259
-0.065813341
-0.077137069
-0.064603667
-0.024948327
0.0046752948
0.01684983
0.0095001041
-0.10494473
-0.13470122
-0.13261704
-0.092017985
-0.059678709
-0.037374073
-0.018859353
-0.0099624012
-0.0065732292
-0.0044118892
-0.010888258
-0.021733641
-0.033280509
-0.037644424
-0.02082494
0.0035556625
0.021574386
0.033389961
0.037747805
0.037699625
0.035460364
0.032277598
0.028962825
0.026039887
0.023791594
0.022326841
0.021622081
0.021560032
0.021983003
0.022733932
0.023670484
0.024683001
0.025685045
0.026624572
0.027465654
0.028189553
0.02880377
0.029265077
0.029656313
-0.095848553
-0.064617711
-0.055450786
-0.071344285
-0.083004661
-0.068455095
-0.02385403
0.0083378216
0.020663293
0.011305803
-0.12544926
-0.1271038
-0.092682555
-0.068138729
-0.05005836
-0.033025872
-0.020892003
-0.014161323
-0.011992104
-0.018299607
-0.032259265
-0.04917205
-0.057989764
-0.038755027
-0.0080555811
0.013587675
0.030750377
0.038501546
0.039807965
0.037935648
0.034598803
0.030820152
0.027282542
0.024397656
0.022351791
0.021177195
0.020779754
0.020999107
0.021660315
0.022598499
0.023673626
0.02478297
0.02584761
0.026824707
0.027685635
0.028418542
0.029033149
0.029491588
0.029877331
-0.11381916
-0.085450498
-0.059455771
-0.057286089
-0.075785229
-0.087949667
-0.071496943
-0.022604402
0.011639429
0.023846277
0.012844566
-0.11913179
-0.09110072
-0.075246507
-0.062888463
-0.048705816
-0.034515772
-0.023948489
-0.018622834
-0.025402718
-0.043742364
-0.065521042
-0.079629502
-0.059834488
-0.023967371
0.0025491993
0.026544941
0.038086221
0.041482115
0.040414628
0.037136677
0.032994533
0.02885745
0.02528897
0.022587114
0.020851874
0.020030201
0.019968662
0.020482032
0.021382276
0.022501031
0.023706199
0.024903169
0.026022569
0.027031766
0.027908437
0.028646909
0.029259166
0.029713512
0.030093704
-0.10892652
-0.10014548
-0.074285999
-0.05341223
-0.057837607
-0.0790218
-0.10238175
-0.073118855
-0.02126569
0.014476794
0.026265233
0.014085642
-0.087550368
-0.080797593
-0.075473153
-0.065170828
-0.050531606
-0.036779226
-0.026682989
-0.031043014
-0.052247904
-0.083362554
-0.1010478
-0.083653608
-0.045052113
-0.01225375
0.019784536
0.036565688
0.042337657
0.042604594
0.039738836
0.035408857
0.030739186
0.026476279
0.023059233
0.020676254
0.019337659
0.018911933
0.019207686
0.02001985
0.02115374
0.022443859
0.023768007
0.025042727
0.026209885
0.02724589
0.028133317
0.028873075
0.029480958
0.029931366
0.030316164
-0.082620911
-0.096804557
-0.085453851
-0.062618941
-0.046856512
-0.057058644
-0.08076499
-0.10327849
-0.073279993
-0.019827445
0.016885889
0.028318337
0.014989931
-0.084903855
-0.087518602
-0.082310157
-0.069022846
-0.052205826
-0.036955273
-0.037820524
-0.058317123
-0.09448697
-0.12411164
-0.10887264
-0.068855878
-0.030126382
0.0094300487
0.032785041
0.04225449
0.044190382
0.042171932
0.037930143
0.032862479
0.027938511
0.023773436
0.020674585
0.018725839
0.017845911
0.01784827
0.018513065
0.019620456
0.020977897
0.022427211
0.02385808
0.025201747
0.026409913
0.027465666
0.028357321
0.02909542
0.029699858
0.030156928
0.030548513
-0.087099955
-0.075936534
-0.083660705
-0.070325109
-0.050911857
-0.039923928
-0.054870415
-0.080510099
-0.099645894
-0.072245054
-0.018219525
0.019055194
0.029810387
0.015722824
-0.098627935
-0.10009476
-0.089505162
-0.070132
-0.049275322
-0.046108871
-0.06432388
-0.10446386
-0.13937021
-0.13732966
-0.096410683
-0.050109011
-0.003437452
0.025542882
0.040221767
0.045016177
0.044191131
0.040368123
0.035113509
0.0296207
0.0247123
0.020847917
0.018212334
0.016786414
0.016411398
0.016862686
0.01789654
0.019289551
0.020856301
0.022450063
0.023976649
0.025380962
0.026620344
0.027686243
0.028577925
0.029316881
0.029930445
0.030391507
0.030784532
-0.10817832
-0.086978938
-0.068147667
-0.06999675
-0.055392139
-0.039435045
-0.032591628
-0.051453796
-0.07826546
-0.095426496
-0.070099181
-0.016215273
0.020814835
0.031161582
0.01619656
-0.1180808
-0.11137697
-0.090185382
-0.063376577
-0.05570572
-0.070988371
-0.11225358
-0.15884669
-0.1614169
-0.12743987
-0.073295014
-0.018950681
0.016357084
0.035052584
0.044178714
0.045411816
0.042479661
0.037326904
0.031426068
0.02582832
0.021180671
0.01779647
0.015741172
0.014903701
0.015066504
0.015972757
0.017366892
0.019029977
0.020788437
0.022512571
0.024125188
0.025577191
0.026833766
0.027904101
0.028800724
0.029558531
0.030168351
0.030631459
0.031023978
-0.13515601
-0.11598801
-0.08487363
-0.059877319
-0.056486152
-0.041028949
-0.028212715
-0.025048856
-0.046994387
-0.074516214
-0.090085164
-0.067225819
-0.013561083
0.022110656
0.031221117
0.016316281
-0.13415909
-0.11170502
-0.079077188
-0.066128374
-0.078700374
-0.11887192
-0.17268848
-0.19620731
-0.15695938
-0.098195199
-0.037052367
0.0053408869
0.028208659
0.041062305
0.045327364
0.043921314
0.03928532
0.033210044
0.027037673
0.021629638
0.017461063
0.014707233
0.013323593
0.013121182
0.013836439
0.015191302
0.016929368
0.018841525
0.020774677
0.022617341
0.02429988
0.025779621
0.027045314
0.028128739
0.029056936
0.029806353
0.030413835
0.030875874
0.031266842
-0.15701862
-0.150732
-0.12164528
-0.08147911
-0.051517758
-0.043604833
-0.02775562
-0.017362458
-0.017547946
-0.041586252
-0.069745546
-0.084649798
-0.062797485
-0.010860633
0.022831025
0.030102027
0.016175534
-0.1341699
-0.096376732
-0.07685883
-0.086804671
-0.12553139
-0.18319709
-0.22098805
-0.19972304
-0.12095186
-0.056274169
-0.0070318527
0.019905411
0.036057845
0.043795585
0.044331552
0.040738327
0.034784574
0.028213658
0.022121643
0.017166047
0.013664022
0.011661309
0.01101598
0.011474699
0.012740262
0.014526661
0.016584763
0.018725635
0.020818374
0.022760315
0.024485455
0.025981164
0.027269932
0.028405825
0.029318374
0.030064414
0.030664537
0.031124889
0.031512905
-0.15680768
-0.17909932
-0.16367578
-0.12515389
-0.077341789
-0.043446875
-0.03162312
-0.015871836
-0.0070992764
-0.010148536
-0.035794996
-0.065283873
-0.078224751
-0.05750663
-0.0081376024
0.022875651
0.027790218
0.01591449
-0.11408965
-0.087278209
-0.094592814
-0.13179483
-0.19125359
-0.2425513
-0.23820425
-0.15545738
-0.080415688
-0.02028267
0.010268246
0.029430745
0.040500247
0.043376818
0.041394497
0.035931733
0.029192707
0.022544701
0.016845982
0.012572256
0.00989193
0.0087322247
0.0088668324
0.0099912742
0.011790568
0.013981736
0.016335398
0.018689303
0.020915871
0.022920826
0.024671195
0.026203969
0.027573928
0.028687458
0.029593035
0.030328303
0.03092103
0.031377932
0.031762101
-0.1302344
-0.17853539
-0.19840224
-0.17387525
-0.12644557
-0.072689819
-0.035501886
-0.020605086
-0.0056448787
0.0023533622
-0.0033220737
-0.030660299
-0.060150501
-0.071102571
-0.051282033
-0.0055317212
0.022229335
0.025369349
0.015554297
-0.097061007
-0.10178058
-0.13701219
-0.19602906
-0.25848742
-0.27495216
-0.1965102
-0.10965211
-0.04113621
-0.00043240963
0.021401841
0.034977294
0.040974189
0.040878048
0.036355697
0.029776696
0.022758462
0.016401665
0.011371353
0.0079743606
0.0062385846
0.005983921
0.006912904
0.0086879888
0.01099221
0.013560726
0.016190862
0.018728646
0.021040859
0.023082838
0.024888575
0.026542739
0.027882574
0.028985872
0.029874042
0.030599302
0.031182366
0.031635007
0.032014173
-0.10593305
-0.14358041
-0.19678768
-0.21444779
-0.18122969
-0.12568526
-0.067722268
-0.027812375
-0.011199704
0.0026705231
0.01023457
0.0031121854
-0.026505806
-0.054246001
-0.063119395
-0.044332041
-0.0031354599
0.020970411
0.022473166
0.015180355
-0.10809843
-0.14025254
-0.19687784
-0.26772791
-0.30343542
-0.2379858
-0.14045422
-0.06350699
-0.019125405
0.011829703
0.027854069
0.036783057
0.038615217
0.035879824
0.029720471
0.022585164
0.015712837
0.0099724995
0.0058496608
0.0034896318
0.0027869032
0.0034656917
0.0051760301
0.0075713868
0.010352054
0.013276344
0.016147491
0.018804454
0.021168742
0.023289685
0.025271414
0.026887146
0.028212059
0.029291052
0.030163458
0.030876146
0.031448526
0.031895568
0.032268993
-0.1129078
-0.11306439
-0.15258613
-0.20960369
-0.22717816
-0.18449566
-0.12323864
-0.062882719
-0.021252108
-0.0044859182
0.0091637519
0.017566143
0.0072122031
-0.022174222
-0.047763266
-0.054399714
-0.036911871
-0.001080454
0.019330944
0.019107112
0.014613095
-0.1406244
-0.1935455
-0.26860797
-0.32287118
-0.27643369
-0.17085045
-0.090412079
-0.035769517
-0.0064768098
0.020393896
0.030344959
0.034688883
0.033958173
0.028791623
0.021817491
0.014622131
0.0082722969
0.0034359077
0.00042471347
-0.00077612737
-0.00039806118
0.001207531
0.0036693609
0.0066566882
0.0098891379
0.013123616
0.016155225
0.018882742
0.021357954
0.023728085
0.025662212
0.027257382
0.028548545
0.0296061
0.03045967
0.03115875
0.031718753
0.032159477
0.032526328
-0.13780938
-0.11472125
-0.11835509
-0.15648288
-0.21642297
-0.23219667
-0.18291447
-0.11951054
-0.058494309
-0.015971812
0.00046628705
0.015470654
0.022193057
0.010930366
-0.017745128
-0.040615471
-0.045238712
-0.02948129
0.00063726926
0.017529779
0.015773993
0.013501711
-0.18594213
-0.2596054
-0.32875837
-0.30626399
-0.20031215
-0.11790079
-0.058259671
-0.020918242
0.0028226117
0.023991011
0.027439852
0.030557764
0.026637563
0.020250928
0.012959119
0.0061318893
0.00064203069
-0.0030354989
-0.0047706578
-0.0047381276
-0.0032752444
-0.00077006098
0.0024179518
0.0059717717
0.0095977494
0.01303686
0.016166095
0.019043907
0.02186701
0.02417803
0.026084907
0.027634497
0.028896303
0.029928928
0.030762535
0.0314462
0.031992802
0.032426261
0.032786038
-0.17474484
-0.13151711
-0.11297333
-0.12135622
-0.15595265
-0.21668144
-0.2270221
-0.17734194
-0.11467132
-0.054107427
-0.011319149
0.0064236905
0.019889366
0.026419773
0.014438362
-0.013418014
-0.032807663
-0.035842578
-0.022393683
0.0019778799
0.015677882
0.013053061
0.011668765
-0.24356985
-0.31674539
-0.31843032
-0.22476178
-0.14490959
-0.081248471
-0.04151516
-0.010877178
0.0083359651
0.027135159
0.024844761
0.023220664
0.017577392
0.010545862
0.0034171187
-0.0026571066
-0.0069761228
-0.0092777065
-0.009627239
-0.0083409753
-0.0058145434
-0.0024302259
0.0014586456
0.0055052438
0.0093896012
0.012958998
0.016286027
0.019642615
0.022391776
0.02466755
0.026513786
0.028024351
0.029252801
0.030259404
0.031070943
0.031738166
0.032270069
0.032695873
0.033047802
-0.22275131
-0.1598689
-0.12225062
-0.10789496
-0.1195427
-0.15191
-0.2079254
-0.21455009
-0.16875085
-0.10820327
-0.049459315
-0.0062664622
0.011594544
0.02392677
0.029981287
0.017600871
-0.0092709472
-0.024616365
-0.026512151
-0.015645053
0.002986914
0.013794583
0.010971928
0.0094296144
-0.29317012
-0.31308793
-0.24228767
-0.16722791
-0.10426112
-0.062814194
-0.030399921
-0.0046664614
0.0080974096
0.018572561
0.017697556
0.013738533
0.0071541276
-2.9101229e-05
-0.0065626685
-0.011515303
-0.014383468
-0.015151686
-0.014070995
-0.011541842
-0.0079636403
-0.0037227532
0.00077448744
0.0051416168
0.0091897507
0.013037192
0.016999894
0.020260589
0.022966008
0.025161665
0.026956897
0.028423888
0.029617957
0.030596371
0.031384423
0.032033977
0.032550672
0.032967719
0.033311406
-0.26362451
-0.19734859
-0.14264049
-0.11026997
-0.099352644
-0.11219224
-0.14377516
-0.19068369
-0.19705653
-0.15767853
-0.10026168
-0.043411915
-0.0011714918
0.016262863
0.026978398
0.032678406
0.020438686
-0.0052298429
-0.016369951
-0.018098933
-0.010039742
0.0037408526
0.011838395
0.0092703972
0.0074026572
-0.29559023
-0.24997335
-0.18059166
-0.12455005
-0.084678292
-0.051185856
-0.024546203
-0.0033202103
0.00660516
0.011371556
0.0080788041
0.002726117
-0.0043671292
-0.011222171
-0.016729414
-0.020205571
-0.02140482
-0.020559275
-0.018042056
-0.014268098
-0.0096547182
-0.0046723031
0.00021484981
0.0047858576
0.0091943558
0.01389213
0.017733798
0.020941003
0.023541917
0.025671521
0.027410517
0.028833171
0.029990505
0.030939115
0.031702262
0.032334068
0.032833593
0.033241511
0.033576578
-0.26794661
-0.22886491
-0.16990333
-0.12384738
-0.096624172
-0.087786139
-0.10099144
-0.13155269
-0.1694443
-0.17947281
-0.14305503
-0.092303451
-0.0345365
0.0036564112
0.020073239
0.029131295
0.034299541
0.022879104
-0.0010049935
-0.0090202285
-0.011166759
-0.0057704359
0.0043760398
0.010003269
0.0077523942
0.0057298403
-0.2443034
-0.18486244
-0.14004842
-0.10523829
-0.073407438
-0.045873709
-0.022114611
-0.0052966947
0.0013435342
0.0018980288
-0.0032604328
-0.0096493733
-0.016727745
-0.022773103
-0.026808091
-0.028508318
-0.027910513
-0.025417883
-0.021441323
-0.016428889
-0.010921972
-0.0054738587
-0.00033928337
0.0046976217
0.010234612
0.014764742
0.018546359
0.021619146
0.024134731
0.026192649
0.027874998
0.029250796
0.030369467
0.03128705
0.032025429
0.032636793
0.03311852
0.033516754
0.033843081
-0.22667593
-0.23292513
-0.19273042
-0.14183103
-0.10418072
-0.081752504
-0.074388091
-0.087406985
-0.11725239
-0.14703441
-0.15737567
-0.13075007
-0.079513762
-0.026153193
0.0081309928
0.023067135
0.030377455
0.034427597
0.023901758
0.003596658
-0.00349417
-0.0057044129
-0.0023254032
0.0048151467
0.0084513266
0.0064009132
0.0043936586
-0.18216607
-0.14928012
-0.1227118
-0.095148439
-0.069097468
-0.046451227
-0.022950405
-0.0083305193
-0.0066168003
-0.0097018582
-0.016235624
-0.023161549
-0.02966637
-0.034370256
-0.036528574
-0.036253193
-0.033787062
-0.029594463
-0.024148292
-0.01806985
-0.012016034
-0.0062753417
-0.00054528316
0.0059680354
0.011280051
0.01573887
0.019350777
0.022314563
0.024739495
0.026725824
0.028348686
0.029675538
0.030754493
0.031641758
0.032351614
0.032941825
0.033404804
0.033793088
0.034110666
-0.17200333
-0.20056053
-0.19583362
-0.15732513
-0.11472035
-0.084458451
-0.066187677
-0.06021162
-0.072506767
-0.10221349
-0.12531545
-0.13897992
-0.11356321
-0.066957495
-0.017957271
0.012023386
0.025224145
0.030851146
0.033024531
0.023193159
0.0074355847
0.00021175104
-0.001795195
0.00039342358
0.0050706809
0.0072322761
0.0052608917
0.0033603195
-0.15149017
-0.13449872
-0.11447336
-0.093323242
-0.073197582
-0.047360433
-0.02584837
-0.013071014
-0.017222899
-0.023303069
-0.030710786
-0.037566049
-0.042843497
-0.045679263
-0.045670862
-0.043286309
-0.038856177
-0.03293023
-0.026221708
-0.019510704
-0.013119904
-0.0066283134
0.0010142425
0.0072200763
0.012456951
0.016696215
0.020173148
0.023022438
0.025357279
0.027268979
0.028830248
0.030107419
0.031148026
0.031999896
0.032680515
0.033248272
0.03369204
0.034070121
0.034379099
-0.147006
-0.15551186
-0.17039355
-0.15940285
-0.12460108
-0.089515499
-0.065449132
-0.05074071
-0.046054993
-0.056837587
-0.085750384
-0.10969651
-0.11839684
-0.096153078
-0.054276159
-0.010374359
0.015202816
0.026589832
0.030809999
0.030696871
0.021997537
0.0096373162
0.0029740914
0.00098026628
0.0024227523
0.0051978098
0.0062490162
0.0043446345
0.0025899192
-0.13967455
-0.12985569
-0.11687955
-0.10153167
-0.078596651
-0.050706122
-0.027309291
-0.021290266
-0.030196718
-0.038847418
-0.046454175
-0.05252233
-0.055856409
-0.056408731
-0.054028891
-0.049370282
-0.042907617
-0.035495283
-0.028064911
-0.020976989
-0.013651972
-0.0047081627
0.0025133713
0.0086453343
0.013602536
0.017672859
0.021007622
0.023744023
0.025986127
0.0278208
0.029320134
0.030549917
0.031545599
0.032361209
0.033011005
0.033555655
0.033979818
0.034347515
0.034647984
-0.13989938
-0.13725232
-0.13575598
-0.13914591
-0.12571185
-0.095196618
-0.066558063
-0.047680327
-0.036340523
-0.031980326
-0.042110465
-0.07026902
-0.092429441
-0.097950534
-0.078126518
-0.041772056
-0.0035688751
0.017593401
0.027166071
0.030104602
0.028410418