/*--------------------------------*- C++ -*----------------------------------*\
| =========                 |                                                 |
| \\      /  F ield         | OpenFOAM: The Open Source CFD Toolbox           |
|  \\    /   O peration     | Version:  5.0                                   |
|   \\  /    A nd           | Web:      www.OpenFOAM.org                      |
|    \\/     M anipulation  |                                                 |
\*---------------------------------------------------------------------------*/
FoamFile
{
    version     2.0;
    format      ascii;
    class       surfaceScalarField;
    location    "280";
    object      phi;
}
// * * * * * * * * * * * * * * * * * * * * * * * * * * * * * * * * * * * * * //

dimensions      [0 3 -1 0 0 0 0];

internalField   nonuniform List<scalar> 
18180
(
-0.0018988797
-1.3896412
-0.0036962758
-1.299665
-0.0018484024
-1.3877928
-0.0053828903
-1.2156452
-0.0035996193
-1.2979138
-0.001761731
-1.3860311
-0.0069809674
-1.1371609
-0.005257735
-1.2139871
-0.0034330227
-1.2962425
-0.0016378065
-1.3843933
-0.0084724684
-1.0638252
-0.0068402297
-1.1355784
-0.0050232242
-1.2123969
-0.003193204
-1.2946871
-0.0015016722
-1.3828916
-0.0098401343
-0.99529649
-0.008350955
-1.0623144
-0.0065523622
-1.1340493
-0.0046747987
-1.2109153
-0.0029243464
-1.2932644
-0.0013661327
-1.3815255
-0.011047655
-0.93125512
-0.0097903229
-0.99385712
-0.0080373422
-1.0608295
-0.0061044531
-1.1326196
-0.0042756889
-1.209564
-0.0026540042
-1.2919766
-0.0012486815
-1.3802768
-0.012059307
-0.87142544
-0.011152113
-0.92989333
-0.0094993845
-0.99239508
-0.0075042843
-1.0594296
-0.0055706106
-1.1313247
-0.003869997
-1.208348
-0.0024182456
-1.290807
-0.0011537076
-1.3791231
-0.012846685
-0.81554218
-0.012429562
-0.870148
-0.010972624
-0.92842009
-0.0089086368
-0.99099073
-0.0068242563
-1.058176
-0.0050199439
-1.1301748
-0.0035166555
-1.2072496
-0.0022289186
-1.2897318
-0.0010786199
-1.3780445
-0.013296475
-0.76340904
-0.013589071
-0.81438267
-0.012512433
-0.86860819
-0.010374243
-0.92695449
-0.0080605354
-0.98975445
-0.0061075491
-1.0570884
-0.0045427049
-1.1291487
-0.0032376082
-1.2062409
-0.0020834954
-1.2887269
-0.0010157685
-1.3770287
-0.013302312
-0.71477464
-0.014690432
-0.76230768
-0.014223819
-0.81267128
-0.01196926
-0.86701317
-0.0093140316
-0.92570099
-0.0071361261
-0.98872587
-0.0054931245
-1.056138
-0.0041763778
-1.1282099
-0.0030302717
-1.2052941
-0.0019666445
-1.287776
-0.0009577496
-1.3760709
-0.012770751
-0.66952714
-0.01590269
-0.71356238
-0.016262049
-0.76026945
-0.013802773
-0.81083777
-0.010621641
-0.86570556
-0.0081061089
-0.92473101
-0.0063535152
-0.98786548
-0.0050420315
-1.0552723
-0.0039179896
-1.1273222
-0.0028686052
-1.2043922
-0.0018607083
-1.2868731
-0.00089892096
-1.375172
-0.011583691
-0.6274836
-0.017335683
-0.66809415
-0.018638406
-0.71118602
-0.015932015
-0.75814021
-0.012024706
-0.80943471
-0.0090150001
-0.86479667
-0.0070997179
-0.9239848
-0.0058147478
-0.98709276
-0.0047472251
-1.0544431
-0.0037252465
-1.1264656
-0.0027221862
-1.2035307
-0.0017510997
-1.2860209
-0.00083530218
-1.3743367
-0.0096585445
-0.58839909
-0.018993709
-0.62582558
-0.021472366
-0.66526019
-0.018439007
-0.70867903
-0.013553377
-0.75661154
-0.0098363633
-0.80861334
-0.007696811
-0.86419958
-0.0064621956
-0.92333736
-0.0055026544
-0.98633733
-0.0045413494
-1.053627
-0.0035511216
-1.1256366
-0.0025670446
-1.2027147
-0.0016285166
-1.2852277
-0.00076484488
-1.3735719
-0.006935802
-0.55206205
-0.020861282
-0.58653151
-0.025031246
-0.6222667
-0.021515366
-0.66218383
-0.015279931
-0.70695248
-0.010519555
-0.75592835
-0.0080831325
-0.80822702
-0.0069366916
-0.86372508
-0.0061565701
-0.92268344
-0.0053118786
-0.9855668
-0.0043575831
-1.0528205
-0.0033600021
-1.1248437
-0.0023887636
-1.2019545
-0.0014897356
-1.2845028
-0.00068831355
-1.3728836
-0.0034318221
-0.51817469
-0.022968341
-0.54995499
-0.029565901
-0.58199686
-0.025370064
-0.618412
-0.017283837
-0.66017992
-0.011055345
-0.70641669
-0.0081349332
-0.75587655
-0.0071475927
-0.80801612
-0.0066598378
-0.86322181
-0.0060208954
-0.92197442
-0.005150596
-0.98477379
-0.0041470673
-1.0520334
-0.0031304858
-1.124102
-0.0021825389
-1.2012617
-0.0013376531
-1.2838534
-0.00060921278
-1.3722744
0.00093693635
-0.48651061
-0.025352594
-0.51579044
-0.035310809
-0.54421008
-0.030218413
-0.57714851
-0.019655386
-0.61604045
-0.01140016
-0.65983511
-0.0077514066
-0.70680021
-0.0069855603
-0.75603858
-0.0069238187
-0.80775214
-0.0066306038
-0.8626121
-0.0059381346
-0.92118688
-0.0049489929
-0.98397186
-0.0038755034
-1.0512884
-0.0028563201
-1.1234282
-0.0019536133
-1.2006457
-0.001179828
-1.2832828
-0.000532265
-1.3717421
0.0063789874
-0.45717265
-0.02811569
-0.48374751
-0.04250408
-0.50859717
-0.036267974
-0.53816052
-0.022501211
-0.57430268
-0.011501214
-0.61593939
-0.0068117574
-0.66077476
-0.0062840881
-0.70750168
-0.0069426827
-0.75601971
-0.0071293149
-0.80725343
-0.0067301123
-0.86182012
-0.0058007217
-0.92033515
-0.0046508364
-0.98319653
-0.0035308939
-1.0506139
-0.0025456805
-1.1228361
-0.0017145997
-1.200111
-0.0010258401
-1.2827893
-0.00046165889
-1.3712804
0.013449834
-0.43071446
-0.031019856
-0.45426849
-0.051254712
-0.47499688
-0.043658794
-0.50120635
-0.025919348
-0.53474239
-0.011304442
-0.57449946
-0.0051589065
-0.61759224
-0.0048922252
-0.66216662
-0.0065706673
-0.7078737
-0.0075577566
-0.75559127
-0.0075900656
-0.80639347
-0.0067575894
-0.86086326
-0.0055021279
-0.91948386
-0.0042336175
-0.98249381
-0.0031271346
-1.0500324
-0.0022175566
-1.1223332
-0.001480947
-1.1996558
-0.00088449165
-1.2823664
-0.0004002922
-1.3708801
0.022149113
-0.40678685
-0.033374681
-0.42835964
-0.061582105
-0.44394109
-0.052500719
-0.46615495
-0.029951606
-0.49717409
-0.010747035
-0.53529979
-0.0026125055
-0.57704586
-0.002612362
-0.61987211
-0.0056241468
-0.66311314
-0.0078794801
-0.70755198
-0.0085405719
-0.75464077
-0.007899913
-0.80525115
-0.0064979351
-0.85986745
-0.0050033018
-0.91871418
-0.0037181748
-0.98190277
-0.0026944476
-1.0495555
-0.0018952332
-1.1219189
-0.0012665763
-1.1992738
-0.00076199786
-1.2820047
-0.00034988789
-1.3705302
0.031036183
-0.38265473
-0.034038152
-0.40612338
-0.073523986
-0.41641775
-0.063134261
-0.43330755
-0.034676231
-0.46143033
-0.009765268
-0.49815586
0.0010274204
-0.53893972
0.00078510017
-0.58044332
-0.003928149
-0.6215681
-0.0079952411
-0.66299738
-0.0096297948
-0.70646275
-0.009273005
-0.75326767
-0.0077083659
-0.80404072
-0.0058966724
-0.85897408
-0.0043458144
-0.91808654
-0.0031540738
-0.98144314
-0.0022676638
-1.0491831
-0.0015996128
-1.1215858
-0.0010812081
-1.1989546
-0.00066150603
-1.2816931
-0.00031113822
-1.3702191
0.040272286
-0.3575601
-0.032772358
-0.38392053
-0.087411134
-0.39223623
-0.076279386
-0.40327263
-0.040531506
-0.42745228
-0.0082811507
-0.46291445
0.005961705
-0.50309014
0.0055597999
-0.54371442
-0.0012749127
-0.58309655
-0.0078003932
-0.62176295
-0.010928529
-0.66169865
-0.011002753
-0.704733
-0.009219228
-0.75175681
-0.0069729044
-0.80296449
-0.0050443486
-0.85827554
-0.0036099744
-0.91763064
-0.0025966372
-0.98111417
-0.0018777953
-1.0489049
-0.0013455386
-1.1213215
-0.0009296295
-1.1986864
-0.00058344445
-1.2814208
-0.0002834846
-1.3699356
0.049614711
-0.33262188
-0.031133601
-0.35919885
-0.10187671
-0.36945495
-0.092794109
-0.37572151
-0.048516474
-0.39528766
-0.0063379899
-0.42939544
0.012375522
-0.46932826
0.011961612
-0.50949195
0.0025683921
-0.54755772
-0.0071822957
-0.58371465
-0.012492892
-0.62019859
-0.013252136
-0.65944926
-0.011183065
-0.70276917
-0.0083203242
-0.75040939
-0.0058540965
-0.80215474
-0.0040728919
-0.85781262
-0.0028810846
-0.91734619
-0.0020919049
-0.98090006
-0.0015468258
-1.0487036
-0.0011406575
-1.1211105
-0.00081237958
-1.1984575
-0.00052617564
-1.2811781
-0.00026489596
-1.3696707
0.058306113
-0.30733612
-0.03113045
-0.33262503
-0.11663093
-0.34444464
-0.11287526
-0.3493738
-0.059465201
-0.36477278
-0.0042405809
-0.39738507
0.020471968
-0.43749188
0.020241574
-0.47760823
0.0078672872
-0.51479085
-0.0060093514
-0.54873067
-0.014389337
-0.58181821
-0.01621371
-0.61723701
-0.013784058
-0.65684827
-0.010056882
-0.70103261
-0.0068290671
-0.74943442
-0.0045547462
-0.80167288
-0.003111152
-0.85758256
-0.002228095
-0.91721
-0.001671189
-0.98077569
-0.001285825
-1.0485584
-0.00098567986
-1.1209372
-0.00072707597
-1.1982566
-0.00048666627
-1.2809563
-0.00025243335
-1.3694183
0.06626983
-0.28242317
-0.032398418
-0.30606815
-0.13207144
-0.31718451
-0.13385337
-0.32346653
-0.073087515
-0.33575148
-0.0022306931
-0.36678267
0.030488145
-0.40740125
0.030631709
-0.44788202
0.014904766
-0.4846457
-0.0041202793
-0.51667992
-0.016698912
-0.54642109
-0.02012415
-0.57790777
-0.01725255
-0.61376852
-0.012329902
-0.65457525
-0.0080321283
-0.69982955
-0.0050678421
-0.74892132
-0.0032709556
-0.80151308
-0.0022612488
-0.8575494
-0.0016969332
-0.91718425
-0.0013488591
-0.98071266
-0.0010952462
-1.0484489
-0.00087581048
-1.1207884
-0.00066943748
-1.1980738
-0.00046108488
-1.2807477
-0.00024345593
-1.3691748
0.073382829
-0.25839621
-0.03377359
-0.281048
-0.14706239
-0.2910772
-0.15281636
-0.29822152
-0.087791372
-0.30876268
-0.00022342673
-0.33775875
0.042592472
-0.37888699
0.043340894
-0.42011043
0.023901875
-0.45687913
-0.0013611534
-0.48740483
-0.019513132
-0.5138657
-0.02526453
-0.54128071
-0.021854196
-0.57330612
-0.015315737
-0.61078269
-0.009541
-0.65306638
-0.0056217792
-0.69927561
-0.0033366758
-0.7488556
-0.0021554383
-0.80161889
-0.0015903826
-0.85765595
-0.001306367
-0.91722675
-0.0011238265
-0.98068408
-0.0009668885
-1.0483578
-0.00080336336
-1.1206545
-0.00063376213
-1.1979011
-0.00044556859
-1.2805456
-0.00023676395
-1.3689381
0.079697362
-0.235786
-0.03527076
-0.25689904
-0.16151903
-0.26659137
-0.16967931
-0.27421425
-0.10194301
-0.28406988
0.0014794556
-0.31046556
0.056660612
-0.35182689
0.058409594
-0.39395569
0.034891505
-0.43110006
0.0023786517
-0.46061893
-0.02294543
-0.48397253
-0.031962845
-0.50716738
-0.027890564
-0.53524435
-0.019204049
-0.56941781
-0.011440326
-0.60888336
-0.0062232986
-0.65246486
-0.0032736785
-0.69933861
-0.0018608114
-0.74915023
-0.0013047139
-0.80190456
-0.0011231711
-0.85783915
-0.0010513159
-0.91729926
-0.00098370547
-0.98066726
-0.00088738222
-1.0482738
-0.00076006621
-1.1205282
-0.00061378484
-1.1977329
-0.00043717016
-1.2803452
-0.00023250776
-1.3687056
0.085289563
-0.21477529
-0.036806553
-0.23425021
-0.17527906
-0.24313901
-0.18550643
-0.25076424
-0.11526836
-0.26088891
0.0023538075
-0.28494423
0.07224332
-0.32604827
0.07562928
-0.36904657
0.047757186
-0.40682138
0.0070166533
-0.43573806
-0.027247518
-0.45631684
-0.040599572
-0.4753358
-0.035696377
-0.49936157
-0.024202515
-0.53024588
-0.01381773
-0.56704041
-0.0068728553
-0.60823381
-0.003034306
-0.65270423
-0.0013111363
-0.69988829
-0.00077618619
-0.74967876
-0.00075060147
-0.80227713
-0.00084765441
-0.85804281
-0.00091119178
-0.91737177
-0.00090875478
-0.98064589
-0.00084225833
-1.0481916
-0.00073783824
-1.1204041
-0.00060428133
-1.1975658
-0.00043395828
-1.2801437
-0.00023079052
-1.3684748
0.09023379
-0.19541645
-0.038291464
-0.21329038
-0.18818839
-0.22134088
-0.20000591
-0.22863953
-0.12731674
-0.23871585
0.0026300864
-0.26116519
0.088821611
-0.30152253
0.094846222
-0.34526521
0.062570405
-0.38385979
0.012535736
-0.41234046
-0.032868743
-0.43011684
-0.051648453
-0.44526796
-0.045626599
-0.46540558
-0.030529495
-0.49303459
-0.016755698
-0.52730791
-0.0075643903
-0.56634887
-0.0025569247
-0.60871119
-0.00042344547
-0.65359192
7.7949801e-05
-0.70074242
-0.00012266144
-0.7503067
-0.00047031
-0.80265447
-0.00072961093
-0.85822439
-0.00085757661
-0.91742295
-0.00087600031
-0.98061215
-0.00081910471
-1.0481103
-0.00072977731
-1.1202787
-0.00060202623
-1.1973977
-0.00043393244
-1.2799406
-0.00023074657
-1.368244
0.094604042
-0.17770898
-0.039618513
-0.1940894
-0.20019271
-0.20128606
-0.2132092
-0.20813759
-0.13783975
-0.21811652
0.0031521598
-0.23923793
0.10592401
-0.27826758
0.11592387
-0.32260018
0.079720893
-0.3624157
0.019699848
-0.39102391
-0.039613959
-0.40559524
-0.065472572
-0.41629272
-0.057951473
-0.43294309
-0.038385073
-0.45755001
-0.02031965
-0.48947064
-0.0082766138
-0.52659569
-0.0017685472
-0.56713725
0.00090347271
-0.61003811
0.0013609327
-0.6548749
0.000846065
-0.70171115
0.00013861126
-0.75091562
-0.00040866473
-0.80297542
-0.00072520115
-0.85835677
-0.00085842135
-0.91744053
-0.00086582368
-0.98056543
-0.00081673352
-1.0480234
-0.00073277978
-1.1201479
-0.00060395224
-1.1972277
-0.00043491325
-1.2797364
-0.00023109947
-1.3680129
0.097436057
-0.1893403
-0.040692845
-0.17663465
-0.21126675
-0.18301535
-0.22517083
-0.18932443
-0.14696167
-0.19901567
0.0042026522
-0.21916702
0.12306129
-0.25637521
0.13810559
-0.3004493
0.099142335
-0.34202162
0.029680712
-0.37239656
-0.045987797
-0.38465007
-0.081660228
-0.38940758
-0.072710564
-0.40153363
-0.047816997
-0.42351117
-0.024537745
-0.45333191
-0.008962255
-0.488785
-0.00058197173
-0.52778226
0.0027854716
-0.56901925
0.0031945075
-0.61187168
0.0022614558
-0.6562903
0.0010540671
-0.7026266
9.3134646e-05
-0.75141742
-0.00049815856
-0.80320246
-0.00078862214
-0.85842657
-0.00088355072
-0.9174228
-0.00087665113
-0.98050551
-0.00082959766
-1.0479265
-0.00073907342
-1.1200128
-0.00060586142
-1.1970568
-0.00043540399
-1.2795321
-0.00023098574
-1.3677819
0.10044598
-0.18348928
-0.041270087
-0.18876306
-0.22141628
-0.16648512
-0.23591976
-0.17226643
-0.15481965
-0.18146645
0.0058922075
-0.20070522
0.13977718
-0.23588291
0.16036382
-0.27863344
0.11920053
-0.32050749
0.042231973
-0.35457288
-0.050464577
-0.36791978
-0.099012235
-0.36729806
-0.08991638
-0.37220177
-0.058711504
-0.39063912
-0.029328418
-0.41872049
-0.0095404266
-0.45275374
0.0011056995
-0.49047267
0.0053476978
-0.53034449
0.0057158919
-0.57154063
0.004249783
-0.61386001
0.002370336
-0.65760656
0.000829788
-0.70336326
-0.0001563722
-0.75175921
-0.00067060537
-0.80332048
-0.00087826009
-0.85843186
-0.00092158703
-0.91737787
-0.00090073334
-0.98043437
-0.00084148506
-1.0478241
-0.00074115541
-1.1198775
-0.00060619785
-1.196886
-0.000434905
-1.2793282
-0.00023007056
-1.3675519
0.10352178
-0.17742635
-0.041013116
-0.18374625
-0.23063114
-0.1795482
-0.24553361
-0.15687127
-0.16157731
-0.16550877
0.0080978549
-0.1836721
0.15580887
-0.21673691
0.18193838
-0.25745747
0.1391438
-0.29857671
0.054698585
-0.33297411
-0.052673243
-0.35236421
-0.11698595
-0.34994607
-0.10980262
-0.34741182
-0.071576025
-0.35933725
-0.034488014
-0.38547953
-0.0098811277
-0.41837979
0.0034130502
-0.45506109
0.0087184961
-0.49384347
0.0090728798
-0.53370148
0.0069555428
-0.57424639
0.0042019245
-0.6156916
0.0018716807
-0.65864846
0.00032700294
-0.70384663
-0.00050752212
-0.75192229
-0.00086686103
-0.80333188
-0.00096938869
-0.85838406
-0.00096483056
-0.91731377
-0.0009213527
-0.98035451
-0.00084529641
-1.04772
-0.00074237514
-1.1197413
-0.00060585949
-1.196715
-0.00043308702
-1.2791252
-0.00022833489
-1.3673235
0.10664084
-0.1712908
-0.040193237
-0.17824623
-0.23888497
-0.17549241
-0.25573271
-0.1693491
-0.16734703
-0.15110155
0.010610116
-0.16802103
0.17102646
-0.19888969
0.20235354
-0.23715207
0.15862274
-0.2769364
0.066925142
-0.31080327
-0.052758705
-0.33288865
-0.13563086
-0.3337193
-0.13252579
-0.32722289
-0.087965348
-0.3310225
-0.040269207
-0.35355605
-0.0097836041
-0.38557705
0.0064662467
-0.42143299
0.013023877
-0.45936647
0.013413591
-0.49818418
0.010536091
-0.53728203
0.0066837637
-0.57672823
0.0033062264
-0.61712614
0.00098900931
-0.65931046
-0.0003010119
-0.70405314
-0.00087210657
-0.75191705
-0.0010451345
-0.80325613
-0.0010470202
-0.85830187
-0.00099693033
-0.91723819
-0.00092892859
-0.98027087
-0.00084653963
-1.0476158
-0.00074208177
-1.1196051
-0.00060312079
-1.196545
-0.00042974129
-1.2789237
-0.00022588621
-1.3670977
0.10978266
-0.16537854
-0.038963577
-0.17252046
-0.24599401
-0.17113719
-0.26480267
-0.16642245
-0.17709478
-0.15960134
0.013306557
-0.15379799
0.18525614
-0.18225071
0.22136417
-0.21790032
0.17712342
-0.25565275
0.078721946
-0.2887332
-0.053718569
-0.30984341
-0.15349076
-0.31502875
-0.15775442
-0.30849067
-0.10868675
-0.30650149
-0.048049425
-0.32324228
-0.0090860819
-0.35425358
0.010400876
-0.38951168
0.01837845
-0.42678756
0.018876276
-0.46482916
0.015153921
-0.50280201
0.0099685525
-0.54056682
0.0052402239
-0.57866223
0.0018774392
-0.61801457
-5.1883042e-05
-0.65955959
-0.00092253405
-0.70400272
-0.0011849822
-0.7517772
-0.0011786265
-0.80312453
-0.0010946639
-0.85820414
-0.0010071286
-0.91715999
-0.00092716732
-0.98019025
-0.00084370318
-1.0475142
-0.0007373446
-1.1194709
-0.00059797387
-1.1963768
-0.00042510258
-1.2787245
-0.0002228898
-1.3668748
0.1129019
-0.15985035
-0.037434608
-0.16690751
-0.25174352
-0.16677095
-0.27257699
-0.16336288
-0.18582033
-0.15769691
0.0082357184
-0.15453051
0.19852821
-0.16707006
0.23896389
-0.19985042
0.19431414
-0.23509104
0.089672206
-0.26660301
-0.056494163
-0.28595761
-0.17105723
-0.29227694
-0.18374371
-0.28903946
-0.13240118
-0.28477624
-0.05936383
-0.29518709
-0.0079839102
-0.32434445
0.015390368
-0.35924307
0.024870298
-0.39600353
0.025579412
-0.4334907
0.020967216
-0.47064245
0.014222299
-0.50705576
0.0078017448
-0.54312834
0.0030541276
-0.57983892
0.00024109739
-0.61830755
-0.0010545961
-0.65942753
-0.0014390001
-0.7037487
-0.0014060654
-0.75154976
-0.0012517201
-0.80296747
-0.0011061446
-0.85810512
-0.00099933725
-0.91708782
-0.00091803666
-0.98011591
-0.00083540746
-1.0474161
-0.00072991137
-1.1193389
-0.00059131892
-1.1962105
-0.00041951418
-1.2785279
-0.00021948752
-1.3666553
0.11593793
-0.15479971
-0.035605146
-0.16167982
-0.25605175
-0.16259928
-0.27898733
-0.1603606
-0.19345276
-0.15573045
0.0036950571
-0.15315625
0.20440973
-0.16041203
0.25498161
-0.18308778
0.21002183
-0.21555811
0.099637764
-0.2450566
-0.059941284
-0.26315589
-0.18836737
-0.26864747
-0.20721473
-0.26880592
-0.15626947
-0.26517116
-0.073939044
-0.27020103
-0.0073366831
-0.29583431
0.021670376
-0.33062446
0.032567449
-0.36694022
0.0336099
-0.40403402
0.028117283
-0.44064076
0.01961864
-0.47603879
0.011139963
-0.51039397
0.0045992275
-0.54467344
0.00058284015
-0.58018066
-0.0013119964
-0.61805015
-0.0018724915
-0.65899404
-0.0017930562
-0.70336171
-0.0015195382
-0.75128194
-0.0012632923
-0.80281032
-0.0010863924
-0.85801806
-0.0009779212
-0.91702794
-0.00090200961
-0.98004931
-0.00082364322
-1.0473224
-0.00072064961
-1.1192096
-0.00058331518
-1.1960467
-0.00041313875
-1.2783343
-0.00021583858
-1.3664394
0.11886219
-0.15038597
-0.033459386
-0.15694547
-0.25893407
-0.15879749
-0.2840383
-0.15754832
-0.19993688
-0.15387648
-0.00031981539
-0.15171558
0.21031186
-0.15905838
0.26727496
-0.17270537
0.22406561
-0.19713156
0.10842512
-0.22434547
-0.063718605
-0.24127928
-0.20504167
-0.24648159
-0.22776888
-0.24809331
-0.17845065
-0.24662474
-0.090510869
-0.24859934
-0.008097562
-0.26944015
0.029271717
-0.30343565
0.041497131
-0.33955414
0.04300035
-0.37633067
0.036708847
-0.41262558
0.026324402
-0.44734653
0.015425457
-0.48032429
0.0066165241
-0.51241127
0.00098859112
-0.54507919
-0.0017450066
-0.57974765
-0.0025665276
-0.61735611
-0.0024211476
-0.65836595
-0.001965754
-0.70291549
-0.0015287939
-0.75101644
-0.001221701
-0.80267502
-0.0010426377
-0.85795335
-0.00094611518
-0.91698383
-0.00088113955
-0.97999181
-0.00080951853
-1.0472335
-0.00070958473
-1.1190833
-0.00057422056
-1.1958857
-0.00040636389
-1.2781437
-0.00021210321
-1.3662273
0.12171344
-0.14681379
-0.030926167
-0.15291919
-0.26040735
-0.15547219
-0.28775171
-0.15508407
-0.20523299
-0.1522522
-0.0037004551
-0.15049584
0.21602659
-0.15743031
0.27933212
-0.17111554
0.23923138
-0.18787114
0.11608522
-0.20479166
-0.06773424
-0.22032984
-0.22098583
-0.22533512
-0.24667488
-0.22757559
-0.19851824
-0.22802572
-0.10783445
-0.22930116
-0.011140062
-0.24555684
0.037648137
-0.27781657
0.051814516
-0.31375304
0.053692284
-0.35024608
0.046798001
-0.38641982
0.034489368
-0.42079055
0.020843463
-0.45276453
0.0092362765
-0.48294404
0.0014852114
-0.51290789
-0.0024178606
-0.54440633
-0.0036223143
-0.57869186
-0.0033937671
-0.6163835
-0.0026774721
-0.65765423
-0.0019680017
-0.70247628
-0.001449929
-0.75078821
-0.0011393751
-0.80257828
-0.00098205235
-0.85791741
-0.0009077278
-0.91695724
-0.00085786619
-0.97994347
-0.00079383077
-1.0471493
-0.00069762803
-1.1189599
-0.00056485873
-1.1957272
-0.00039950186
-1.2779563
-0.0002084195
-1.3660189
-0.14421771
0.1245038
-0.028007111
-0.14973285
-0.26050452
-0.15282202
-0.29015702
-0.15306689
-0.20935371
-0.15096336
-0.0063117085
-0.14964095
0.22147956
-0.15594881
0.29088308
-0.16898128
0.25383298
-0.18571714
0.13189063
-0.20367655
-0.071503554
-0.20102235
-0.23588305
-0.20543262
-0.26411244
-0.20789755
-0.21668102
-0.20941282
-0.12452802
-0.21133215
-0.016457153
-0.22398407
0.045941137
-0.25384984
0.063486122
-0.28948818
0.065628687
-0.32568944
0.058392949
-0.36184103
0.044241268
-0.39617172
0.027596816
-0.4275439
0.012624101
-0.45615236
0.0021205759
-0.4835794
-0.0033914944
-0.51193426
-0.0051587521
-0.54286989
-0.0048388626
-0.57724677
-0.0037644177
-0.61529655
-0.0026642398
-0.65695799
-0.0018290071
-0.7020972
-0.0013050046
-0.75062258
-0.0010305745
-0.80252976
-0.00091306673
-0.85791207
-0.00086750132
-0.91694761
-0.00083396345
-0.97990333
-0.00077783403
-1.0470691
-0.00068567908
-1.1188391
-0.00055549577
-1.1955712
-0.00039277246
-1.277772
-0.0002048812
-1.365814
-0.14749175
-0.024733062
-0.14262562
0.12723564
-0.25926568
-0.15097169
-0.29137702
-0.15160201
-0.21236786
-0.15005274
-0.0082244272
-0.14905064
0.2267989
-0.15496028
0.30153268
-0.1665984
0.26760206
-0.18275036
0.14705859
-0.2008851
-0.061669159
-0.21351095
-0.24970223
-0.18720317
-0.27999872
-0.18954634
-0.2329902
-0.19158837
-0.13969054
-0.1942503
-0.023260498
-0.20452881
0.053515473
-0.23155841
0.076302291
-0.26666601
0.07871806
-0.30257755
0.071431265
-0.33872776
0.055682276
-0.37328204
0.035900025
-0.40447493
0.016986817
-0.43190662
0.0029710151
-0.45700279
-0.0047348686
-0.48223603
-0.0073233453
-0.50976966
-0.0069123033
-0.54079645
-0.0053607148
-0.57565047
-0.0037204748
-0.61424031
-0.0024315586
-0.65635544
-0.0015866312
-0.70181558
-0.0011195786
-0.75053358
-0.00091079777
-0.80253203
-0.00084348757
-0.85793609
-0.0008279619
-0.91695361
-0.00081063495
-0.97987053
-0.00076245701
-1.0469923
-0.00067410156
-1.1187205
-0.00054649942
-1.1954174
-0.00038639402
-1.2775905
-0.00020156622
-1.3656125
-0.14981991
-0.25693753
-0.14628832
-0.021070366
-0.1423463
0.12981863
-0.29162003
-0.15072868
-0.21438424
-0.14958563
-0.0094819872
-0.14879518
0.23197613
-0.15422787
0.31096827
-0.16439588
0.28010981
-0.17910615
0.1612431
-0.19693487
-0.051234058
-0.2113202
-0.25318084
-0.21003234
-0.29453042
-0.17267146
-0.24747885
-0.17505769
-0.1530599
-0.17821901
-0.030572034
-0.18693876
0.060073265
-0.2110866
0.089975606
-0.24523172
0.092870478
-0.28081843
0.085772033
-0.31691832
0.068858017
-0.3519035
0.045963667
-0.38334568
0.022577644
-0.41006576
0.004155937
-0.43309154
-0.006503507
-0.45523416
-0.010284409
-0.47927497
-0.0098040034
-0.50687796
-0.0076282682
-0.5385289
-0.0052600737
-0.57411087
-0.0033450974
-0.61332678
-0.0020417177
-0.65590035
-0.0012829443
-0.70165221
-0.00091826042
-0.75052612
-0.00079170503
-0.80258381
-0.00077639771
-0.85798765
-0.00079102828
-0.91697322
-0.00078926983
-0.97984372
-0.0007482864
-1.0469181
-0.00066340221
-1.1186036
-0.00053820383
-1.1952656
-0.00038049226
-1.2774115
-0.00019851104
-1.365414
-0.15046801
-0.29097193
-0.14982929
-0.25339655
-0.14600447
-0.017412193
-0.14290749
0.13232949
-0.21553399
-0.14957893
-0.0099582154
-0.1491094
0.23689805
-0.1537171
0.31917984
-0.16243944
0.29087004
-0.17515612
0.17383567
-0.19169872
-0.041094091
-0.20707484
-0.25516593
-0.2093351
-0.30658307
-0.19797969
-0.26028877
-0.15986154
-0.16474319
-0.1633744
-0.037740771
-0.17105028
0.065616395
-0.19248189
0.10407773
-0.22518873
0.10798061
-0.26034185
0.10123688
-0.29628327
0.083753703
-0.331814
0.057989962
-0.36392979
0.029689089
-0.39045712
0.0058397148
-0.41174954
-0.0087526275
-0.43084242
-0.014241485
-0.45127708
-0.013740837
-0.47533813
-0.010759007
-0.50374723
-0.0074275338
-0.53636144
-0.0046713785
-0.57278459
-0.0027374904
-0.612631
-0.0015608584
-0.65562244
-0.00095606428
-0.70161441
-0.00071959142
-0.75059823
-0.00067891357
-0.80268129
-0.00071515917
-0.85806352
-0.0007589194
-0.91700357
-0.00077085498
-0.97982115
-0.00073598513
-1.0468455
-0.00065402212
-1.1184878
-0.00053073452
-1.1951154
-0.00037513314
-1.2772349
-0.00019572415
-1.3652182
-0.15047072
-0.21553128
-0.15166476
-0.28913646
-0.15040046
-0.24900056
-0.14656524
-0.013754451
-0.14434466
0.13453192
-0.0094414921
-0.15009565
0.24155609
-0.15376744
0.32625111
-0.16078837
0.29963309
-0.17120249
0.18464492
-0.18596537
-0.03120978
-0.20158303
-0.25573742
-0.20650335
-0.31734345
-0.19857472
-0.27723059
-0.18103787
-0.17500555
-0.14959918
-0.044377192
-0.15673798
0.070204351
-0.17563823
0.11818707
-0.20659123
0.12386216
-0.24107028
0.1176262
-0.27673117
0.10028067
-0.31281024
0.072154174
-0.34597822
0.038657693
-0.3728984
0.0082515727
-0.39286898
-0.011521556
-0.40898061
-0.019424256
-0.42565965
-0.018997854
-0.44602007
-0.014977667
-0.47111947
-0.010387631
-0.50078713
-0.0065244555
-0.53450836
-0.0037493819
-0.5717727
-0.0019986204
-0.61219324
-0.0010474063
-0.6555311
-0.00063539991
-0.7016986
-0.00053432992
-0.75074281
-0.00057740274
-0.80281905
-0.00066368709
-0.85815875
-0.00073300852
-0.91704141
-0.00075627443
-0.97980086
-0.00072608577
-1.0467735
-0.00064608411
-1.1183724
-0.00052419399
-1.1949663
-0.00037034073
-1.2770603
-0.00019320201
-1.365025
-0.15208671
-0.0078254999
-0.15291396
-0.21428208
-0.15333994
-0.28619698
-0.15163597
-0.24392983
-0.14775829
-0.01034082
-0.14650874
0.13622564
0.24603741
-0.15457697
0.33203595
-0.15955228
0.30642101
-0.16757628
0.19331439
-0.17987196
-0.021872354
-0.1953028
-0.25478095
-0.2025395
-0.32667204
-0.19717477
-0.29262863
-0.18317668
-0.195939
-0.16010442
-0.050255718
-0.14372066
0.073967337
-0.16050096
0.13195962
-0.18941078
0.14023861
-0.22296768
0.13470596
-0.25815004
0.11821436
-0.29466487
0.088474651
-0.32913071
0.049761425
-0.35708195
0.011702682
-0.37634951
-0.014810189
-0.38958035
-0.026111568
-0.4022933
-0.025903094
-0.41875441
-0.020545373
-0.44045236
-0.014323688
-0.46718342
-0.0090281017
-0.49828348
-0.0051571524
-0.53310059
-0.0026444604
-0.57112686
-0.0012165279
-0.61202412
-0.00054674272
-0.65561975
-0.00033974431
-0.70189319
-0.00036968834
-0.75095053
-0.00049323683
-0.8029895
-0.00062404273
-0.85826772
-0.00071416244
-0.91708353
-0.00074597559
-0.97978097
-0.00071865655
-1.0467009
-0.00063964005
-1.118257
-0.00051857986
-1.1948181
-0.00036608564
-1.2768874
-0.00019091212
-1.3648341
-0.15622444
0.25017513
-0.154981
-0.0057584542
-0.15604983
-0.2115722
-0.15573797
-0.28209497
-0.15346579
-0.23822233
-0.14947175
-0.0073778172
-0.14922229
0.13735065
0.33633755
-0.15887857
0.31128829
-0.16441957
0.19982797
-0.17408986
-0.013702026
-0.18804229
-0.25287575
-0.19720799
-0.3346059
-0.19460564
-0.30633761
-0.18346579
-0.21528881
-0.16382687
-0.072101711
-0.13825843
0.077300787
-0.14705411
0.14503259
-0.17357393
0.15683078
-0.20600296
0.15218642
-0.24044814
0.13714028
-0.27707595
0.10649043
-0.31268065
0.062816571
-0.34218586
0.016246799
-0.36162607
-0.018665625
-0.37249407
-0.034595835
-0.38109608
-0.034840055
-0.39335634
-0.027761264
-0.41153852
-0.019431475
-0.43534457
-0.012309835
-0.46390168
-0.0070404501
-0.49640019
-0.0035457361
-0.53219932
-0.0014861936
-0.57085719
-0.00045878295
-0.61211208
-8.9125997e-05
-0.65587037
-8.0108209e-05
-0.70218277
-0.00023366738
-0.7512101
-0.00042973167
-0.80318381
-0.00059686258
-0.85838502
-0.00070268754
-0.91712681
-0.00073994181
-0.97975969
-0.00071370761
-1.0466268
-0.00063470041
-1.1181408
-0.0005138363
-1.1946703
-0.00036231267
-1.276716
-0.00018882271
-1.3646453
-0.15891293
0.33902604
-0.15795867
0.2531528
-0.15901104
-0.0027972433
-0.1600151
-0.20729507
-0.15885287
-0.27670789
-0.15593437
-0.23175971
-0.1517908
-0.0048093076
-0.15239024
0.13787566
0.31425121
-0.1618415
0.20389986
-0.16849146
-0.0073480241
-0.18044387
-0.24999486
-0.19092318
-0.34099074
-0.19082315
-0.31832082
-0.18262243
-0.23303579
-0.16571881
-0.093228777
-0.1426998
0.064304655
-0.12526229
0.15761294
-0.15963446
0.17330319
-0.19004634
0.16971307
-0.22352961
0.15643099
-0.25973886
0.12517552
-0.29576104
0.076822729
-0.3266868
0.021041453
-0.34698051
-0.023690699
-0.35660099
-0.045276317
-0.36181359
-0.046259036
-0.3696771
-0.036963352
-0.38415425
-0.025911315
-0.40505868
-0.016491133
-0.43116328
-0.0094733174
-0.46146882
-0.0047428974
-0.49520303
-0.0018742575
-0.53181125
-0.0003729188
-0.57094306
0.00022634021
-0.61242755
0.00030747657
-0.65625796
0.00013375497
-0.70255019
-0.00013173411
-0.7515081
-0.00038743079
-0.80339324
-0.00058213807
-0.85850557
-0.00069836968
-0.91716839
-0.0007379756
-0.97973542
-0.00071113101
-1.0465504
-0.00063109498
-1.1180236
-0.00050985048
-1.1945228
-0.00035894303
-1.2765459
-0.00018688804
-1.3644584
-0.15994411
0.31528239
-0.15883581
0.33990318
-0.16110665
0.25524841
-0.16378094
0.0009685952
-0.16466394
-0.201484
-0.16271717
-0.26992509
-0.15905414
-0.22449637
-0.1546518
-0.0025477458
-0.15599288
0.13771727
0.20557491
-0.16351654
-0.0027074204
-0.17313206
-0.24621251
-0.18422622
-0.34562247
-0.18629145
-0.32832158
-0.18082239
-0.24904566
-0.16661256
-0.11301706
-0.14593053
0.049977642
-0.12837279
0.15873685
-0.1263862
0.18943497
-0.17576624
0.18693203
-0.2072653
0.17539463
-0.24249326
0.14347307
-0.27803641
0.089906923
-0.30884523
0.024936565
-0.33058192
-0.031943404
-0.33872781
-0.059342871
-0.34253444
-0.060723634
-0.34734899
-0.048547788
-0.35809266
-0.033960032
-0.37610553
-0.021673948
-0.39987586
-0.012515272
-0.42812132
-0.0062646926
-0.45994702
-0.0023901063
-0.49468718
-0.00028189861
-0.53190227
0.00062802337
-0.57134474
0.00081975222
-0.61293982
0.00063458049
-0.65675878
0.00029395992
-0.70297588
-6.4450991e-05
-0.75183108
-0.00036563405
-0.80360975
-0.00057918873
-0.85862475
-0.00070064682
-0.91720571