/*--------------------------------*- C++ -*----------------------------------*\
| =========                 |                                                 |
| \\      /  F ield         | OpenFOAM: The Open Source CFD Toolbox           |
|  \\    /   O peration     | Version:  5.0                                   |
|   \\  /    A nd           | Web:      www.OpenFOAM.org                      |
|    \\/     M anipulation  |                                                 |
\*---------------------------------------------------------------------------*/
FoamFile
{
    version     2.0;
    format      ascii;
    class       surfaceScalarField;
    location    "280";
    object      phi_0;
}
// * * * * * * * * * * * * * * * * * * * * * * * * * * * * * * * * * * * * * //

dimensions      [0 3 -1 0 0 0 0];

internalField   nonuniform List<scalar> 
18180
(
-0.0018974062
-1.3896194
-0.0036932052
-1.2996443
-0.0018473951
-1.387772
-0.005378148
-1.2156252
-0.0035972642
-1.2978944
-0.0017619745
-1.38601
-0.0069743095
-1.1371411
-0.0052536591
-1.2139688
-0.00343325
-1.2962231
-0.0016393117
-1.3843707
-0.0084634791
-1.0638048
-0.0068335829
-1.1355611
-0.0050230892
-1.212379
-0.0031960994
-1.2946663
-0.0015035909
-1.3828671
-0.0098280552
-0.99527456
-0.0083402252
-1.0622982
-0.0065512122
-1.134033
-0.0046789376
-1.2108961
-0.0029282723
-1.2932417
-0.0013675811
-1.3814995
-0.01103126
-0.9312303
-0.0097728456
-0.99384194
-0.008034007
-1.0608154
-0.0061097381
-1.1326022
-0.0042817168
-1.2095427
-0.00265717
-1.2919521
-0.0012491097
-1.3802504
-0.01203632
-0.87139653
-0.011123487
-0.92987965
-0.0094917288
-0.99238422
-0.0075106057
-1.0594145
-0.0055791641
-1.1313048
-0.0038750388
-1.2083248
-0.00241942
-1.2907818
-0.0011530182
-1.3790974
-0.012813072
-0.81550777
-0.012383034
-0.87013698
-0.010956868
-0.92841451
-0.0089157821
-0.99097904
-0.0068361836
-1.0581575
-0.0050273745
-1.1301524
-0.0035186308
-1.2072256
-0.0022276879
-1.2897071
-0.0010771284
-1.3780203
-0.013245401
-0.76336843
-0.013514095
-0.81437671
-0.01248306
-0.86861079
-0.010382022
-0.92694828
-0.0080774046
-0.98973782
-0.0061183076
-1.0570665
-0.0045457295
-1.1291253
-0.0032356686
-1.2062176
-0.0020803582
-1.2887039
-0.0010139386
-1.3770063
-0.013224366
-0.71473042
-0.014571486
-0.76231104
-0.014172443
-0.81268733
-0.01197783
-0.86701498
-0.0093387884
-0.92568689
-0.0071521652
-0.98870396
-0.005497571
-1.0561147
-0.0041734827
-1.1281875
-0.0030251864
-1.2052728
-0.0019626135
-1.2877552
-0.00095601482
-1.3760503
-0.012651916
-0.66948096
-0.015724053
-0.71357785
-0.01618001
-0.76030347
-0.013813988
-0.81085117
-0.010658984
-0.86569479
-0.0081308814
-0.92470817
-0.006360307
-0.98784123
-0.0050377579
-1.0552504
-0.0039103937
-1.1273023
-0.0028621058
-1.2043733
-0.0018568762
-1.2868543
-0.00089765567
-1.3751527
-0.011405436
-0.62743252
-0.01707569
-0.66812932
-0.018516512
-0.71124135
-0.015949564
-0.75816789
-0.012083051
-0.8094271
-0.0090538245
-0.86477184
-0.0071106218
-0.92395786
-0.0058086943
-0.98707029
-0.0047363493
-1.0544245
-0.0037156847
-1.1264487
-0.0027161054
-1.2035141
-0.001748383
-1.2860036
-0.00083481295
-1.3743179
-0.0093997615
-0.58834101
-0.018617813
-0.62589039
-0.021300232
-0.6653456
-0.018465552
-0.70872536
-0.013644193
-0.75660675
-0.0098967729
-0.80858415
-0.0077148288
-0.86416764
-0.0064540326
-0.92331252
-0.0054873739
-0.98631927
-0.0045279531
-1.0536122
-0.0035422847
-1.1256226
-0.0025628258
-1.2026996
-0.00162753
-1.2852109
-0.00076528323
-1.3735526
-0.0065728369
-0.55199758
-0.020324442
-0.58663438
-0.024796605
-0.62239402
-0.021556446
-0.6622547
-0.015417229
-0.70695233
-0.010614181
-0.75588934
-0.0081127616
-0.80818622
-0.0069263499
-0.86369532
-0.0061354814
-0.92266441
-0.0052931883
-0.98555403
-0.0043451489
-1.0528093
-0.0033539781
-1.1248314
-0.0023873351
-1.2019398
-0.0014906881
-1.2844855
-0.00068959498
-1.372863
-0.0029382045
-0.518106
-0.022216969
-0.55010505
-0.029253787
-0.5821772
-0.025436055
-0.61851441
-0.017487409
-0.66018452
-0.011201484
-0.70636502
-0.0081831717
-0.75581893
-0.0071363028
-0.80797627
-0.0066318773
-0.86319892
-0.0059945863
-0.92196302
-0.0051329431
-0.98476624
-0.004138512
-1.0520248
-0.0031286098
-1.1240901
-0.0021841882
-1.2012463
-0.001340317
-1.2838348
-0.00061105545
-1.3722519
0.001595708
-0.4864426
-0.024324396
-0.51599858
-0.03490427
-0.54445457
-0.030323459
-0.5772898
-0.019951602
-0.61605022
-0.011619804
-0.6597662
-0.0078301055
-0.70671809
-0.0069715054
-0.75598373
-0.0068864751
-0.80772167
-0.0065927254
-0.86260078
-0.0059120311
-0.92118393
-0.0049366703
-0.98396808
-0.0038730131
-1.0512804
-0.0028589401
-1.1234154
-0.0019579338
-1.2006287
-0.0011836351
-1.2832622
-0.00053431974
-1.3717176
0.0072394073
-0.45709078
-0.026750073
-0.48401692
-0.041988233
-0.50891461
-0.036430719
-0.53834731
-0.022922767
-0.57431863
-0.011822907
-0.61584712
-0.0069348343
-0.66066147
-0.0062675827
-0.70742201
-0.006885388
-0.75598482
-0.0070706647
-0.80724373
-0.0066891408
-0.86182367
-0.0057820281
-0.92033857
-0.0046473262
-0.98319376
-0.0035350608
-1.0506043
-0.002552186
-1.1228211
-0.0017206667
-1.2000917
-0.0010300733
-1.2827664
-0.00046361321
-1.371254
0.014535654
-0.43057785
-0.029252679
-0.45458817
-0.050618081
-0.47538707
-0.043902971
-0.50144236
-0.026504888
-0.53476519
-0.011764753
-0.57437678
-0.0053442242
-0.61743773
-0.0048751772
-0.66205388
-0.0064788508
-0.70782855
-0.0074698574
-0.75558563
-0.0075249417
-0.80640793
-0.0067279165
-0.86087778
-0.0054971033
-0.91948879
-0.0042400201
-0.9824888
-0.0031368525
-1.0500196
-0.002226568
-1.1223152
-0.0014876271
-1.1996341
-0.00088848052
-1.2823416
-0.00040189662
-1.3708521
0.023479949
-0.40657698
-0.031115022
-0.4287155
-0.060804869
-0.44440138
-0.05284692
-0.46644313
-0.030744959
-0.49720229
-0.01139123
-0.53513871
-0.0028823133
-0.57683869
-0.0025969531
-0.61971595
-0.0054857678
-0.66304696
-0.007747203
-0.7075512
-0.0084421
-0.75466847
-0.0078544777
-0.80528136
-0.0064908326
-0.85988405
-0.0050132629
-0.91871555
-0.0037328067
-0.98189285
-0.0027076213
-1.0495386
-0.0019050739
-1.1218978
-0.0012728234
-1.1992498
-0.00076523818
-1.2819782
-0.00035095053
-1.3705011
0.032546466
-0.38240417
-0.031177851
-0.40651415
-0.072556403
-0.41696397
-0.063584649
-0.43366365
-0.035725872
-0.46146221
-0.010644989
-0.49794853
0.00064602431
-0.53866705
0.00079557603
-0.58023122
-0.00372889
-0.62147283
-0.0077937326
-0.66300043
-0.0094841236
-0.70650918
-0.0092047435
-0.7533182
-0.007699029
-0.80407317
-0.0059126975
-0.85898462
-0.0043678228
-0.91808053
-0.0031734328
-0.98142704
-0.002281819
-1.0491618
-0.001608719
-1.1215619
-0.0010862485
-1.1989288
-0.0006636954
-1.2816655
-0.00031155039
-1.3701896
0.041965854
-0.35731863
-0.029273163
-0.38430886
-0.08615277
-0.39291778
-0.076807082
-0.40374154
-0.041890973
-0.42749855
-0.0094545892
-0.46265261
0.0054368861
-0.50273939
0.0055610551
-0.54343253
-0.00099712402
-0.58296299
-0.0074987701
-0.62176779
-0.010713214
-0.66177134
-0.01090074
-0.70481318
-0.0092060073
-0.75181122
-0.0069983279
-0.80298754
-0.0050778197
-0.85827462
-0.003638601
-0.91761536
-0.0026169562
-0.9810919
-0.0018906243
-1.0488799
-0.0013527135
-1.1212954
-0.00093301578
-1.1986594
-0.000584475
-1.2813925
-0.00028328084
-1.3699063
0.051504351
-0.33242417
-0.026966667
-0.35962513
-0.10014058
-0.37032104
-0.093365847
-0.37635901
-0.050248091
-0.39538442
-0.0078809081
-0.42907223
0.011672094
-0.46888782
0.011947607
-0.50912594
0.0029454846
-0.54737513
-0.0067423223
-0.58371944
-0.012175321
-0.62030568
-0.013101409
-0.65957067
-0.011164411
-0.70285478
-0.0083597361
-0.75044981
-0.0059048763
-0.80216048
-0.0041155175
-0.85779771
-0.0029105645
-0.91732175
-0.0021098203
-0.9808727
-0.0015565699
-1.0486761
-0.001145205
-1.1210832
-0.00081394995
-1.19843
-0.0005261094
-1.2811497
-0.00026427031
-1.369642
0.060438716
-0.30722915
-0.026255465
-0.33313537
-0.1143657
-0.34540001
-0.11349685
-0.35019004
-0.061656972
-0.36495013
-0.0062692964
-0.39699603
0.019549763
-0.4369499
0.020203168
-0.47714338
0.0083669856
-0.51454745
-0.0053837768
-0.54873368
-0.013924947
-0.58196981
-0.015992931
-0.61741416
-0.013758547
-0.65697654
-0.010117866
-0.70109665
-0.0069057966
-0.74944889
-0.0046183188
-0.80165768
-0.0031542638
-0.85755401
-0.0022534017
-0.91717817
-0.0016842507
-0.98074502
-0.0012914977
-1.0485298
-0.00098744754
-1.1209097
-0.00072689079
-1.1982292
-0.000485696
-1.2809283
-0.00025164147
-1.3693904
0.068626242
-0.28235657
-0.026859989
-0.30662463
-0.12937943
-0.31812164
-0.13455023
-0.32434663
-0.075843135
-0.33600388
-0.0048958028
-0.36632363
0.029297987
-0.40674425
0.0305584
-0.44730513
0.015553938
-0.48433033
-0.0032535654
-0.51667766
-0.016028604
-0.54663002
-0.019804538
-0.5781582
-0.017219154
-0.61395355
-0.012423603
-0.6546708
-0.0081472967
-0.69985515
-0.0051622291
-0.74890498
-0.0033341458
-0.8014778
-0.0022973481
-0.85751006
-0.0017145502
-0.91714787
-0.0013558097
-0.98068071
-0.0010967005
-1.0484205
-0.00087507317
-1.1207615
-0.00066775475
-1.1980471
-0.00045947816
-1.2807205
-0.00024266357
-1.3691477
0.075940785
-0.25837134
-0.02759352
-0.28162304
-0.14409611
-0.29190795
-0.15363515
-0.29903672
-0.091119398
-0.30907037
-0.0036695291
-0.33723015
0.041083152
-0.37810879
0.043231461
-0.41941732
0.024721998
-0.45647319
-0.00019041566
-0.48739348
-0.018559221
-0.51414704
-0.024809939
-0.54162462
-0.021813741
-0.57356362
-0.01545833
-0.61091883
-0.0097120798
-0.65310602
-0.0057605051
-0.69925687
-0.0034289475
-0.74881018
-0.0022071615
-0.80156798
-0.0016143691
-0.85761024
-0.0013147087
-0.91718897
-0.0011245414
-0.98065287
-0.00096471117
-1.0483309
-0.00080059139
-1.1206287
-0.00063100682
-1.1978756
-0.00044358384
-1.2805195
-0.00023597344
-1.3689118
0.082437184
-0.2357956
-0.028491082
-0.25747378
-0.15833017
-0.26738897
-0.17057873
-0.27496437
-0.10574516
-0.28441096
-0.0028387645
-0.30990113
0.054793216
-0.35094021
0.058277195
-0.39315453
0.03592514
-0.43062046
0.0039510029
-0.46061461
-0.02160537
-0.48434733
-0.031328871
-0.50762811
-0.027846852
-0.53559151
-0.019417794
-0.56960415
-0.011690966
-0.60893994
-0.0064245926
-0.65244193
-0.0034071573
-0.69927866
-0.0019348605
-0.74908248
-0.0013376564
-0.8018447
-0.0011330151
-0.85779194
-0.0010505124
-0.917263
-0.00097901284
-0.98063857
-0.00088258884
-1.0482489
-0.00075580699
-1.1205039
-0.00061042396
-1.1977088
-0.00043499269
-1.2803205
-0.00023164738
-1.3686801
0.088194231
-0.21480945
-0.02947829
-0.23480839
-0.17191513
-0.24388882
-0.18650695
-0.25146075
-0.11946801
-0.26124152
-0.0028711039
-0.28437862
0.069963453
-0.32507137
0.075485174
-0.36814819
0.049047182
-0.40627657
0.0090856396
-0.43575509
-0.025396794
-0.45682319
-0.039734358
-0.47594185
-0.035657237
-0.49981772
-0.024516762
-0.53049254
-0.01417837
-0.56711675
-0.0071603467
-0.60820419
-0.003224703
-0.65262438
-0.0014165102
-0.69979701
-0.00082165448
-0.74959849
-0.00076213058
-0.80221558
-0.00084392711
-0.85799852
-0.00090259379
-0.91733942
-0.0009002763
-0.98062088
-0.00083589021
-1.0481688
-0.000732694
-1.1203816
-0.00060066655
-1.1975431
-0.00043174891
-1.2801204
-0.00022987071
-1.3684502
0.093285745
-0.19546382
-0.030464712
-0.21382302
-0.18468405
-0.22203947
-0.20112893
-0.22926685
-0.13190808
-0.23902067
-0.0034917157
-0.26062091
0.086054729
-0.30046989
0.094675977
-0.34426217
0.064118133
-0.38321914
0.015176081
-0.41236701
-0.030364722
-0.43078717
-0.050504518
-0.44605303
-0.045607949
-0.46599114
-0.030983078
-0.49335141
-0.017264788
-0.52740613
-0.0079676075
-0.56630949
-0.0028240373
-0.60860485
-0.00057150101
-0.65346939
1.5283125e-05
-0.70063395
-0.00013616975
-0.75022445
-0.00046165584
-0.80259785
-0.00071461366
-0.8581865
-0.00084332862
-0.91739637
-0.00086575957
-0.98059101
-0.00081172693
-1.0480898
-0.00072421251
-1.1202581
-0.00059844804
-1.1973764
-0.00043188977
-1.2799184
-0.00022987953
-1.3682204
0.097782688
-0.17775761
-0.031341107
-0.19458742
-0.19657632
-0.20193076
-0.21446797
-0.20870043
-0.14280612
-0.21836881
-0.0037900983
-0.23872229
0.10260281
-0.27716899
0.11570063
-0.32149455
0.081477591
-0.36162163
0.022922211
-0.39096527
-0.036356391
-0.40637534
-0.064030073
-0.41726161
-0.057989064
-0.43367191
-0.039029181
-0.45794503
-0.021025095
-0.4895911
-0.0088312261
-0.52654251
-0.0021364905
-0.56699704
0.00069834351
-0.6098747
0.0012744017
-0.65472851
0.00083009698
-0.70160022
0.00015496214
-0.75084106
-0.00038355421
-0.80292891
-0.00070224852
-0.85832758
-0.00084153255
-0.9174206
-0.00085486888
-0.98054787
-0.00080854625
-1.0480054
-0.00072735252
-1.1201292
-0.00060079515
-1.1972075
-0.00043321545
-1.2797151
-0.00023040531
-1.36799
0.10070014
-0.18935666
-0.032007328
-0.17709139
-0.20756023
-0.18360351
-0.22657096
-0.18982776
-0.15228444
-0.19922211
-0.0034925725
-0.21866634
0.11915538
-0.25527486
0.13783907
-0.29930743
0.1010875
-0.34110446
0.033457206
-0.37215662
-0.041915981
-0.38540568
-0.079913052
-0.39049236
-0.072857226
-0.40239345
-0.048716792
-0.4239843
-0.025497788
-0.45347234
-0.0097098331
-0.48871249
-0.0010789412
-0.52760006
0.0025060574
-0.56880475
0.0030764236
-0.61167672
0.0022425434
-0.65614096
0.0010818833
-0.70252714
0.00013362316
-0.75135824
-0.00046173984
-0.80316942
-0.00076169219
-0.85840742
-0.00086634187
-0.91740913
-0.00086502931
-0.98049139
-0.00082177475
-1.047911
-0.00073470047
-1.1199953
-0.0006033813
-1.1970373
-0.00043414339
-1.2795113
-0.00023052871
-1.3677594
0.10378222
-0.18350205
-0.032199513
-0.18916447
-0.21763479
-0.16701683
-0.23745982
-0.17271466
-0.16048638
-0.18162582
-0.0025053505
-0.20020934
0.13530919
-0.23482014
0.16007488
-0.27751067
0.12141539
-0.31963532
0.046561444
-0.35420869
-0.04548808
-0.36858453
-0.096892929
-0.36842581
-0.090177978
-0.37317161
-0.059934067
-0.39117617
-0.030608565
-0.41887353
-0.010527668
-0.4526545
0.00044848683
-0.49023992
0.0049740523
-0.53006805
0.005556527
-0.57128485
0.004226799
-0.61366098
0.0024143963
-0.65747347
0.00089279012
-0.70328631
-9.95926e-05
-0.75172039
-0.00062859073
-0.80330252
-0.00085104225
-0.85842272
-0.00090468633
-0.91736947
-0.00088974094
-0.98042342
-0.00083546409
-1.0478102
-0.00073782937
-1.1198608
-0.00060439141
-1.1968671
-0.00043411915
-1.2793077
-0.00022986222
-1.3675296
0.10692071
-0.17744778
-0.031576419
-0.18412515
-0.22671662
-0.18008264
-0.24720742
-0.15726923
-0.16755429
-0.16564674
-0.00093657651
-0.18319459
0.15083713
-0.21573728
0.181637
-0.25638227
0.14163696
-0.29773224
0.059545422
-0.3326193
-0.046689083
-0.35300769
-0.11432708
-0.35115038
-0.11007149
-0.34853229
-0.073157258
-0.35994842
-0.036154555
-0.38563019
-0.011156649
-0.41824455
0.0025629688
-0.45476899
0.0082284982
-0.49349437
0.0088605174
-0.53337204
0.0069267081
-0.57398476
0.0042679269
-0.61551451
0.0019665427
-0.65854722
0.00041350276
-0.7037994
-0.00044307428
-0.75190591
-0.00082467833
-0.80332889
-0.00094389323
-0.85838352
-0.00094941732
-0.91730979
-0.00091287001
-0.98034601
-0.0008409329
-1.0477071
-0.00073997698
-1.1197252
-0.00060480651
-1.1966964
-0.00043279396
-1.2791048
-0.00022835816
-1.3673012
0.11009289
-0.17133287
-0.030424938
-0.17859926
-0.23483787
-0.1760039
-0.25743391
-0.16985614
-0.17362284
-0.15120069
0.00097200869
-0.16755533
0.16560037
-0.19795783
0.20204032
-0.2361406
0.16136551
-0.27611082
0.072307213
-0.31049403
-0.045784255
-0.33352412
-0.13224185
-0.33509292
-0.1326509
-0.32857096
-0.089885339
-0.33180421
-0.042403122
-0.35369985
-0.011392871
-0.38539396
0.0053913717
-0.42107295
0.012394398
-0.45893489
0.013134511
-0.49776836
0.010498489
-0.53694382
0.0067781997
-0.57649504
0.0034446939
-0.61699266
0.0011177558
-0.65925148
-0.00020395474
-0.70403852
-0.00080812417
-0.75192246
-0.0010068101
-0.80326597
-0.0010252412
-0.85830769
-0.00098531179
-0.91723735
-0.00092327838
-0.98026367
-0.00084369401
-1.0476034
-0.00074093729
-1.1195891
-0.00060288631
-1.1965263
-0.00042991179
-1.2789032
-0.0002261105
-1.3670751
0.11327823
-0.16543542
-0.028917823
-0.17283999
-0.24182994
-0.17160719
-0.26653268
-0.16690513
-0.18350769
-0.15997129
0.0031389608
-0.15336764
0.17943029
-0.18138524
0.22104526
-0.21696277
0.18010519
-0.25488029
0.084732681
-0.28853629
-0.045695899
-0.31058238
-0.14925812
-0.31650786
-0.1576908
-0.31005302
-0.11089907
-0.30755723
-0.050783776
-0.32342356
-0.011083977
-0.35400874
0.0090735955
-0.38907619
0.017586664
-0.42626522
0.018514814
-0.46431519
0.015102877
-0.50237275
0.010098071
-0.54026369
0.0054366051
-0.57848695
0.0020646183
-0.61793952
9.1560036e-05
-0.65954699
-0.00082718218
-0.70401946
-0.0011281311
-0.75180114
-0.0011474421
-0.80314377
-0.0010788183
-0.85821419
-0.00099986394
-0.91716077
-0.00092408538
-0.98018328
-0.00084269381
-1.0475017
-0.00073740509
-1.1194546
-0.00059844739
-1.1963577
-0.0004256734
-1.2787037
-0.00022328138
-1.3668518
0.11642679
-0.159909
-0.02717494
-0.1671783
-0.24748197
-0.16718796
-0.27433076
-0.16380911
-0.19236656
-0.15804627
-0.0024152501
-0.15441708
0.19233721
-0.16627457
0.23865531
-0.19899528
0.1975305
-0.23438808
0.096340577
-0.26648818
-0.047451998
-0.28678019
-0.16607277
-0.29376773
-0.18353931
-0.29065935
-0.13489767
-0.28605442
-0.062852356
-0.29548865
-0.010481829
-0.32402571
0.013789034
-0.35872418
0.023894718
-0.39538424
0.025117924
-0.43286833
0.02089541
-0.47010772
0.014392893
-0.50666757
0.0080726544
-0.54289974
0.0033202157
-0.57974254
0.00044939175
-0.61829735
-0.00091457687
-0.6594596
-0.0013554921
-0.7037921
-0.0013610414
-0.75158754
-0.001229789
-0.8029928
-0.0010968029
-0.85811725
-0.00099613504
-0.91708872
-0.00091753049
-0.98010844
-0.0008360843
-1.047403
-0.00073096331
-1.1193221
-0.00059241006
-1.196191
-0.000420426
-1.2785065
-0.00022000933
-1.3666318
0.11947643
-0.15485284
-0.02518948
-0.16189446
-0.25170465
-0.16295562
-0.28075961
-0.16075911
-0.20011726
-0.15605841
-0.0074012922
-0.15306022
0.1976575
-0.15973736
0.25470526
-0.18232453
0.21346966
-0.21493445
0.10695205
-0.24499955
-0.049951405
-0.26398877
-0.18282655
-0.27002641
-0.20698082
-0.27032622
-0.15904834
-0.26650868
-0.078226414
-0.27068037
-0.010510787
-0.29545969
0.019775896
-0.33001257
0.031391532
-0.366221
0.033029994
-0.40329631
0.02801481
-0.43998773
0.019834442
-0.47554927
0.011503508
-0.51009843
0.0049694991
-0.54454903
0.00087973141
-0.58017288
-0.0011093784
-0.61810255
-0.0017512989
-0.65906379
-0.001728302
-0.70342484
-0.0014889497
-0.75132838
-0.0012512312
-0.80283837
-0.001083284
-0.8580301
-0.00097852448
-0.91702772
-0.00090390667
-0.98004062
-0.00082575673
-1.0473082
-0.00072262037
-1.1191919
-0.00058494774
-1.1960265
-0.0004143142
-1.2783122
-0.00021644957
-1.3664154
0.12240013
-0.15042936
-0.022940019
-0.15710231
-0.25450887
-0.15909024
-0.28582268
-0.15789255
-0.20670332
-0.15417305
-0.011819134
-0.15164056
0.20298673
-0.15838945
0.26683136
-0.17186346
0.22773736
-0.19659222
0.11635187
-0.22433427
-0.052842988
-0.24210796
-0.19904569
-0.24776964
-0.22752248
-0.24948475
-0.18143837
-0.24793619
-0.095478542
-0.24925656
-0.01212253
-0.26906862
0.027030697
-0.30271449
0.040118112
-0.33873915
0.042284789
-0.37547579
0.036563139
-0.41184464
0.026586503
-0.44673979
0.015900132
-0.47994589
0.0071210704
-0.51225
0.0014048071
-0.5450741
-0.0014556407
-0.57982662
-0.0023928608
-0.61746099
-0.0023289112
-0.65846318
-0.0019232371
-0.70299055
-0.0015132853
-0.75106633
-0.0012191595
-0.8027025
-0.0010452844
-0.85796334
-0.00095016931
-0.91698146
-0.0008850762
-0.9799813
-0.00081289503
-1.0472179
-0.00071231807
-1.1190645
-0.00057624671
-1.1958646
-0.00040771517
-1.278121
-0.00021276217
-1.3662026
0.12523794
-0.14684291
-0.020362711
-0.15300667
-0.25591153
-0.15569965
-0.28953874
-0.15537418
-0.21208368
-0.15251219
-0.015555406
-0.15043678
0.20813513
-0.15678897
0.27876775
-0.17032585
0.2428216
-0.1869477
0.12456366
-0.20480401
-0.056056676
-0.22112059
-0.21459517
-0.22655849
-0.24641599
-0.22887613
-0.20164627
-0.22927685
-0.11332205
-0.23009268
-0.01611836
-0.24526073
0.034961538
-0.27699946
0.050245494
-0.31284188
0.052823787
-0.34927815
0.046592392
-0.38550504
0.034793066
-0.4200512
0.021445645
-0.4522853
0.0099098028
-0.48273462
0.0020592888
-0.51290448
-0.002010767
-0.54451897
-0.0033766742
-0.57884281
-0.0032639538
-0.61652594
-0.0026189492
-0.65776747
-0.0019482897
-0.70255555
-0.0014487898
-0.7508367
-0.0011454865
-0.8026023
-0.00098970809
-0.8579238
-0.00091465609
-0.91695188
-0.00086342429
-0.97993077
-0.0007982055
-1.047132
-0.00070089378
-1.1189399
-0.00056714582
-1.1957051
-0.00040094929
-1.2779328
-0.00020908918
-1.3659935
-0.14423074
0.12800495
-0.017455546
-0.14975007
-0.25593831
-0.15297988
-0.29193793
-0.15330046
-0.21626902
-0.15118883
-0.018486728
-0.14958087
0.21306354
-0.15536519
0.29022786
-0.16824908
0.25735469
-0.18485894
0.14053808
-0.20292212
-0.0590973
-0.20176339
-0.22913657
-0.20657919
-0.26386958
-0.20910489
-0.21994361
-0.21057879
-0.13041771
-0.21218118
-0.022410865
-0.22380018
0.042670659
-0.25296985
0.06172961
-0.28848358
0.064598416
-0.32461651
0.058103965
-0.36078972
0.044573419
-0.3952854
0.028337573
-0.42694313
0.013504235
-0.45587973
0.0029008344
-0.48357617
-0.0028258697
-0.51208938
-0.0048152124
-0.54308044
-0.004658531
-0.57744823
-0.0036850147
-0.61545988
-0.002639728
-0.65707603
-0.0018306661
-0.70217367
-0.0013165674
-0.75066561
-0.0010437328
-0.80254827
-0.00092450361
-0.85791395
-0.0008765394
-0.91693876
-0.00084081768
-0.97988816
-0.00078291259
-1.04705
-0.00068930131
-1.1188177
-0.00055792545
-1.1955481
-0.0003942395
-1.2777476
-0.00020552831
-1.365788
-0.14745103
-0.014235255
-0.14261899
0.13070202
-0.25462652
-0.15106186
-0.29313613
-0.15178169
-0.2193261
-0.15024339
-0.020689907
-0.14898565
0.21792406
-0.15444138
0.3008139
-0.16595123
0.27106739
-0.18196178
0.15584517
-0.20016602
-0.04857166
-0.21344776
-0.2426098
-0.18829016
-0.27980335
-0.19064542
-0.23640671
-0.19264179
-0.14591853
-0.19507797
-0.030141176
-0.20445087
0.049519001
-0.23064852
0.074332728
-0.26557296
0.077527106
-0.30141227
0.071030669
-0.33754321
0.056020298
-0.3722366
0.036781778
-0.4037296
0.018112466
-0.43155136
0.0040159216
-0.45699482
-0.0039589594
-0.48244308
-0.006848009
-0.51005658
-0.0066650192
-0.54107395
-0.005254837
-0.57587841
-0.0036910932
-0.61440851
-0.0024383157
-0.65646838
-0.0016066272
-0.70188361
-0.0011410566
-0.75056829
-0.00092906336
-0.80254371
-0.0008577358
-0.85793276
-0.0008386463
-0.91694094
-0.00081845736
-0.97985261
-0.00076798781
-1.0469713
-0.00067790495
-1.1186977
-0.00054894701
-1.1953934
-0.00038781228
-1.2775653
-0.00020216285
-1.3655858
-0.14985915
-0.25221841
-0.14618763
-0.010666611
-0.14233018
0.13324685
-0.29333301
-0.15086498
-0.22137126
-0.14973652
-0.022199368
-0.14873393
0.22270263
-0.15376423
0.31023261
-0.16386009
0.28352101
-0.17840485
0.17017639
-0.19629301
-0.037549811
-0.21118787
-0.24523135
-0.21082621
-0.29443236
-0.17366115
-0.25105552
-0.17599661
-0.15958184
-0.17897847
-0.038280429
-0.18693872
0.055253298
-0.21018517
0.087743702
-0.24405949
0.09152919
-0.27957505
0.085228482
-0.31561008
0.069167738
-0.35069065
0.046977159
-0.38243198
0.023986612
-0.40960375
0.005535915
-0.43307135
-0.0054491865
-0.45550459
-0.0096324085
-0.47965868
-0.0094693444
-0.50725225
-0.007489885
-0.5388389
-0.0052268204
-0.57434268
-0.00336072
-0.61348611
-0.0020746793
-0.65600033
-0.0013169803
-0.70170769
-0.00094689933
-0.75055045
-0.00081377814
-0.80258767
-0.00079285575
-0.85797855
-0.00080287447
-0.91695652
-0.00079763525
-0.97982297
-0.00075402729
-1.0468952
-0.00066720613
-1.1185795
-0.0005405656
-1.1952407
-0.00038180605
-1.2773857
-0.0001990359
-1.3653868
-0.15055219
-0.29263996
-0.14980471
-0.24860133
-0.14586989
-0.0071269007
-0.14288326
0.13572136
-0.22255437
-0.14968188
-0.022881882
-0.14905401
0.22728826
-0.15331955
0.31847532
-0.16200694
0.29422004
-0.17455912
0.18291047
-0.19113893
-0.026936234
-0.20690659
-0.24632123
-0.21009799
-0.30615837
-0.1991002
-0.26402322
-0.16069345
-0.17152406
-0.16405439
-0.046141669
-0.17111724
0.059932559
-0.19161798
0.101516
-0.22395747
0.10650418
-0.25903448
0.1005192
-0.29486577
0.083986809
-0.33042915
0.059108813
-0.3628223
0.031413848
-0.38985922
0.0076383809
-0.41170621
-0.0073314267
-0.43118912
-0.013353924
-0.45178308
-0.013293531
-0.4758345
-0.010582241
-0.5041599
-0.0073933339
-0.53667239
-0.0047018601
-0.57300154
-0.0027900547
-0.61277073
-0.0016135059
-0.6557038
-0.0010000331
-0.70165456
-0.00075324668
-0.75061099
-0.0007038524
-0.80267667
-0.00073298262
-0.85804844
-0.00077135196
-0.9169828
-0.00077939965
-0.97979759
-0.00074168751
-1.0468207
-0.00065767873
-1.1184623
-0.00053292472
-1.1950896
-0.00037629747
-1.2772084
-0.00019616109
-1.3651906
-0.15050877
-0.22259779
-0.15168828
-0.29075639
-0.15032217
-0.24414905
-0.1464082
-0.0036019515
-0.14431679
0.13788383
-0.022535377
-0.15002838
0.23169075
-0.1534565
0.32560481
-0.16044905
0.30294882
-0.17073572
0.19384245
-0.18549109
-0.016713144
-0.20136202
-0.24601911
-0.2072087
-0.31662768
-0.19962868
-0.28069112
-0.1824323
-0.18201617
-0.15020134
-0.053343028
-0.15685303
0.0636477
-0.17483238
0.11522653
-0.20532852
0.12226067
-0.23971395
0.11670923
-0.27522452
0.10037741
-0.31125637
0.073335008
-0.34465535
0.040721156
-0.37212961
0.010564955
-0.39278579
-0.0096181189
-0.40941952
-0.018223923
-0.42631912
-0.018407312
-0.4466693
-0.014757844
-0.47165889
-0.010358478
-0.50119476
-0.0065791237
-0.53479512
-0.0038309383
-0.57196066
-0.0020783026
-0.61230594
-0.0011135436
-0.65559029
-0.00068584866
-0.70172195
-0.00057145921
-0.75074338
-0.00060393169
-0.80280572
-0.00068202499
-0.85813777
-0.00074551503
-0.91701669
-0.00076466208
-0.97977462
-0.00073154416
-1.0467468
-0.00064947558
-1.1183458
-0.00052614252
-1.1949397
-0.00037132252
-1.2770333
-0.00019354069
-1.3649971
-0.15200979
-0.021034356
-0.15290953
-0.22137654
-0.15329889
-0.28777968
-0.15150071
-0.23905654
-0.1475812
-0.00033754528
-0.14648303
0.13953448
0.23602942
-0.15436706
0.33145994
-0.15931162
0.3097505
-0.16725073
0.20263297
-0.17952624
-0.0071992709
-0.19500497
-0.24422984
-0.20315129
-0.32570144
-0.19813494
-0.29581914
-0.18450066
-0.20278358
-0.16166489
-0.059696676
-0.14384769
0.066563201
-0.15976853
0.12853497
-0.18814082
0.13851393
-0.22158177
0.13357682
-0.25658154
0.11812413
-0.29297124
0.089682819
-0.32760418
0.052193233
-0.35612743
0.014646707
-0.37621137
-0.012279545
-0.39012437
-0.024500656
-0.40314279
-0.025132655
-0.41959377
-0.02028111
-0.44114603
-0.014310567
-0.4677068
-0.0091209141
-0.49865297
-0.0052808271
-0.53334523
-0.0027626185
-0.57127634
-0.0013140632
-0.61210542
-0.00062102643
-0.65565511
-0.000394156
-0.70189926
-0.00040857339
-0.75093874
-0.00052005323
-0.80296769
-0.0006422003
-0.85824108
-0.00072630108
-0.91705505
-0.00075393605
-0.97975223
-0.00072370698
-1.0466726
-0.00064266532
-1.1182293
-0.00052023591
-1.1947908
-0.00036686301
-1.27686
-0.00019114686
-1.3648059
-0.15611835
0.24013798
-0.15493141
-0.019012477
-0.15597851
-0.21869692
-0.15561825
-0.28366215
-0.15326368
-0.23337406
-0.14927083
0.0024502509
-0.14919612
0.1406102
0.3358411
-0.15874822
0.31467496
-0.16423608
0.20912484
-0.1737426
0.0010058538
-0.18773137
-0.24153226
-0.19770254
-0.3333875
-0.19546524
-0.30925209
-0.18470199
-0.22194677
-0.16533746
-0.081783711
-0.13957786
0.069075603
-0.14636009
0.14109156
-0.17232511
0.15498224
-0.20460913
0.15085167
-0.23885662
0.13684729
-0.27530469
0.10776046
-0.31104888
0.065711483
-0.34112243
0.01999755
-0.36147827
-0.015320722
-0.37317019
-0.032449972
-0.38217505
-0.033846207
-0.39442924
-0.027457496
-0.41241739
-0.019453087
-0.43600351
-0.01246098
-0.46436674
-0.0072244128
-0.49670938
-0.0037174726
-0.53239038
-0.0016272616
-0.57096314
-0.00056627071
-0.61216017
-0.0001675029
-0.65588177
-0.00013617578
-0.70217166
-0.00027240418
-0.75118639
-0.0004558615
-0.80315403
-0.00061426987
-0.85835311
-0.00071410702
-0.91709488
-0.00074726401
-0.97972867
-0.00071821239
-1.0465971
-0.00063728677
-1.1181122
-0.00051516585
-1.1946425
-0.00036287325
-1.2766882
-0.00018895168
-1.364617
-0.15889767
0.33862042
-0.157965
0.24317157
-0.15897478
-0.016016207
-0.15987092
-0.21444425
-0.15864432
-0.2782815
-0.15565458
-0.22699031
-0.15155428
0.0048084086
-0.1523616
0.14108028
0.31771984
-0.1617931
0.21319011
-0.16830135
0.0075291428
-0.18026589
-0.23800636
-0.19125728
-0.33952538
-0.19156466
-0.32096436
-0.18375297
-0.23950701
-0.16714175
-0.10301413
-0.14410705
0.05503873
-0.12554099
0.15315721
-0.15842575
0.17132658
-0.18866945
0.16820199
-0.22195945
0.15597645
-0.25798579
0.12665455
-0.29419878
0.080401141
-0.32573854
0.025888916
-0.3470138
-0.019198655
-0.35760033
-0.0424154
-0.36320476
-0.044987366
-0.37103389
-0.036634794
-0.38525194
-0.025997987
-0.40587249
-0.016729068
-0.43173543
-0.0097418583
-0.46184929
-0.004987727
-0.49543913
-0.0020745178
-0.53194312
-0.00052535762
-0.57100406
0.00011522757
-0.6124429
0.00022785881
-0.6562458
7.866253e-05
-0.70252272
-0.0001688887
-0.75147336
-0.00041215021
-0.80335615
-0.00059834682
-0.85846887
-0.00070880375
-0.91713334
-0.00074449456
-0.97970239
-0.00071499687
-1.0465194
-0.00063319882
-1.1179942
-0.0005108351
-1.1944945
-0.00035928304
-1.2765179
-0.00018691299
-1.3644301
-0.16002748
0.31884965
-0.15891615
0.33957158
-0.16122442
0.24542121
-0.16376869
-0.012118437
-0.16445069
-0.20863788
-0.16242198
-0.2715141
-0.15870049
-0.2198441
-0.15438107
0.00682788
-0.15596394
0.14085842
0.21486291
-0.16346589
0.012193156
-0.17296537
-0.23386583
-0.18440642
-0.3438827
-0.18689996
-0.33070197
-0.18182705
-0.25532445
-0.16793554
-0.12284805
-0.14730782
0.039728907
-0.12879722
0.15333186
-0.12571564
0.18732926
-0.17442843
0.1852829
-0.20575036
0.17484822
-0.24083122
0.1452857
-0.27661693
0.094316362
-0.308114
0.031120595
-0.33097022
-0.025780657
-0.34043179
-0.055542626
-0.34447311
-0.059115992
-0.34907613
-0.048222047
-0.35944664
-0.034158358
-0.37709157
-0.022037767
-0.40056379
-0.012899616
-0.42857767
-0.006607393
-0.46022963
-0.0026687706
-0.49484487
-0.00049424654
-0.53197424
0.00047273511
-0.57136156
0.00070897832
-0.61292402
0.00055759945
-0.65672474
0.00024188073
-0.70293349
-9.9094485e-05
-0.75178642
-0.00038837083
-0.80356613
-0.00059386099
-0.85858382
-0.00070989565
-0.91716794
-0.00074529998
-0.97967209
-0.00071376391