/*--------------------------------*- C++ -*----------------------------------*\
| =========                 |                                                 |
| \\      /  F ield         | OpenFOAM: The Open Source CFD Toolbox           |
|  \\    /   O peration     | Version:  5.0                                   |
|   \\  /    A nd           | Web:      www.OpenFOAM.org                      |
|    \\/     M anipulation  |                                                 |
\*---------------------------------------------------------------------------*/
FoamFile
{
    version     2.0;
    format      ascii;
    class       volScalarField;
    location    "280";
    object      pMean;
}
// * * * * * * * * * * * * * * * * * * * * * * * * * * * * * * * * * * * * * //

dimensions      [0 2 -2 0 0 0 0];

internalField   nonuniform List<scalar> 
9200
(
0.00051158149
0.00053203681
0.001289762
0.00055458936
0.0013342434
0.0021164617
0.00059494803
0.0013865754
0.0021829923
0.0028269417
0.00064564248
0.0014722998
0.0022704401
0.0029114702
0.0034899106
0.00070846161
0.0015777706
0.0024052325
0.0030279025
0.0035896422
0.0040648057
0.00078630664
0.0017004345
0.0025709412
0.0032010163
0.0037312891
0.0041758217
0.0045631738
0.00087688194
0.0018409451
0.0027598987
0.0034149789
0.0039372094
0.0043384465
0.0046833214
0.0049836851
0.00097683
0.0019915471
0.0029702485
0.0036587019
0.0041916837
0.004571195
0.0048637058
0.0051100157
0.005330391
0.0010772069
0.0021479929
0.0031912222
0.0039300319
0.0044790543
0.0048599388
0.00511849
0.0053045263
0.0054605709
0.0056085661
0.0011620683
0.0022985706
0.0034186395
0.0042137969
0.0047960089
0.0051850416
0.0054360329
0.0055766918
0.0056660668
0.0057398961
0.0058230735
0.0011941992
0.002427945
0.0036352785
0.0044982887
0.0051241552
0.0055431334
0.0057934225
0.0059183787
0.0059512037
0.0059529037
0.0059529811
0.0059803918
0.0011279815
0.0025096553
0.0038149359
0.0047627143
0.0054504661
0.0059141411
0.0061878018
0.0063037704
0.0063123086
0.0062461697
0.0061698988
0.0061060434
0.0060861341
0.00096618817
0.0025154094
0.0039271959
0.0049843244
0.0057541166
0.006285073
0.0065973461
0.0067311687
0.0067208902
0.0066216287
0.0064662851
0.0063229436
0.0062047488
0.006147559
0.00075428399
0.002426798
0.0039517607
0.0051348226
0.0060153733
0.0066339001
0.0070092805
0.0071779189
0.0071772779
0.0070485976
0.0068504056
0.0066169254
0.0064175832
0.0062561811
0.0061702675
0.000554618
0.0022219706
0.0038536791
0.0051824995
0.0062035842
0.0069414435
0.0074026685
0.0076315619
0.0076585865
0.0075296329
0.0072897721
0.0070033185
0.0067034131
0.0064605613
0.0062661268
0.0061617451
0.00035103711
0.0019159324
0.0035890832
0.0050925516
0.0062835435
0.0071765698
0.0077588118
0.0080729347
0.008153235
0.0080419809
0.0077898363
0.007448493
0.0070851913
0.0067319809
0.0064577968
0.0062420921
0.0061274335
0.0001481131
0.0015519814
0.0031862057
0.0048287077
0.0062189992
0.0073023415
0.0080463756
0.0084825494
0.0086430492
0.0085756821
0.0083289102
0.0079609183
0.0075284881
0.0071015921
0.0067085662
0.006416649
0.0061896033
0.0060743923
-5.6885802e-05
0.0011811933
0.0027183535
0.0044010887
0.0059765042
0.0072807207
0.0082286023
0.008829445
0.0091074881
0.0091130321
0.0088978745
0.0085197359
0.0080451948
0.0075344714
0.0070582403
0.0066402776
0.0063428776
0.006116016
0.0060078476
-0.00026923971
0.00083482484
0.0022148448
0.0038716041
0.0055502753
0.0070812772
0.0082654282
0.0090774719
0.0095180477
0.0096337792
0.0094797193
0.009117822
0.0086158877
0.0080461795
0.0074715448
0.0069617942
0.0065333135
0.0062440346
0.0060267702
0.0059337668
-0.0005804968
0.00046906732
0.0017033958
0.0032699827
0.0049813769
0.0066825986
0.0081226504
0.0091869301
0.0098388627
0.01011092
0.010055406
0.0097394263
0.009235383
0.0086188847
0.0079679883
0.0073458253
0.0068186328
0.0063953327
0.0061257478
0.0059282187
0.0058568759
-0.00092191215
9.0137832e-05
0.0011719293
0.0026243225
0.0043077492
0.0061064726
0.0077725783
0.0091102555
0.010029183
0.010510196
0.010599439
0.010366455
0.009889702
0.009249974
0.0085316947
0.0078158061
0.0071636269
0.0066364144
0.0062323442
0.0059949404
0.0058253423
0.0057818244
-0.0011838241
-0.00029652811
0.00057066323
0.0019346983
0.0035551095
0.0053947617
0.0072197247
0.0088243042
0.010035763
0.010788045
0.011079233
0.010975189
0.010561803
0.0099271251
0.009162895
0.0083582699
0.0075956914
0.0069324919
0.0064218378
0.0060519932
0.0058569307
0.0057232336
0.0057124787
-0.0013637521
-0.00065704158
-0.00014326502
0.001125471
0.0027320141
0.0045676521
0.0064974015
0.0083223475
0.0098290346
0.010894675
0.011449679
0.011534472
0.011229608
0.010635316
0.0098512362
0.0089761788
0.008103844
0.0073147406
0.0066596422
0.0061830345
0.005860074
0.0057174926
0.0056260778
0.0056522849
-0.0015411426
-0.001034643
-0.00093972664
0.00012188566
0.0017617519
0.0036354604
0.005618025
0.0076131244
0.0093897077
0.010779389
0.01166324
0.012001222
0.011864885
0.011354468
0.010583715
0.0096616598
0.0086939711
0.0077748709
0.0069805033
0.0063535994
0.0059264842
0.0056633731
0.0055812999
0.0055376277
0.0056040077
-0.0017387451
-0.0015162708
-0.0018035625
-0.0010247332
0.00054316822
0.0025347843
0.0045965704
0.0067077634
0.0087116571
0.010411795
0.011653635
0.012323507
0.012426498
0.012058052
0.011342814
0.01040415
0.0093610822
0.0083218449
0.0073789339
0.0066018643
0.0060218898
0.0056600946
0.0054671886
0.0054527962
0.0054609768
0.0055698431
-0.0019729996
-0.0020795731
-0.0027300669
-0.0022434549
-0.0009040155
0.0011441836
0.0033746706
0.0056165842
0.0077997415
0.0097838481
0.011378572
0.01243874
0.012859475
0.012708869
0.012103568
0.01118836
0.010097057
0.0089533768
0.0078670657
0.0069251154
0.0061873581
0.0056732993
0.0053899361
0.0052770107
0.0053356284
0.0053986717
0.0055515696
-0.0022602474
-0.0027555338
-0.0037706059
-0.003522553
-0.0024602061
-0.00056097875
0.0018262755
0.0042992896
0.006656061
0.0088839991
0.010821942
0.012282163
0.013106862
0.013252171
0.012832706
0.011992446
0.010889405
0.0096643778
0.0084451307
0.0073384698
0.0064227495
0.0057465426
0.0053150364
0.005122871
0.0050972563
0.0052329036
0.0053527408
0.0055506261
-0.0025825151
-0.003525348
-0.0049291737
-0.0049457726
-0.0040919271
-0.00242108
-0.00010372313
0.0026196698
0.0052524394
0.0077024284
0.0099577819
0.011812592
0.013084557
0.013626065
0.013480115
0.012785302
0.011718824
0.010445307
0.0091115451
0.0078448556
0.0067458843
0.0058823366
0.0052879947
0.0049552954
0.0048640577
0.0049319503
0.0051471733
0.0053247549
0.0055676694
-0.0029152394
-0.0043555032
-0.0061608872
-0.006467776
-0.0058830344
-0.0043990828
-0.0022664305
0.00049407144
0.0034519764
0.006212514
0.0087655091
0.011008068
0.012727062
0.013754114
0.013977207
0.01352199
0.012557476
0.011279759
0.0098597854
0.0084460999
0.0071626936
0.0061006882
0.0053139261
0.0048214387
0.0046002585
0.0046186943
0.0047842688
0.0050804135
0.0053157308
0.0056023537
-0.0032831029
-0.0051985931
-0.0073963312
-0.0080236504
-0.0077741144
-0.0065521294
-0.0045945804
-0.0019697303
0.0011446863
0.0043008457
0.0072096663
0.0098347577
0.012009551
0.013541859
0.014256172
0.01413594
0.013364862
0.012143154
0.010676411
0.0091387355
0.0076779666
0.0064105447
0.0054144087
0.0047285322
0.0043548862
0.0042571179
0.0043908612
0.0046569501
0.0050340025
0.0053261213
0.0056543211
-0.0036506872
-0.0060658803
-0.0086219799
-0.0095776121
-0.0096870821
-0.0088148053
-0.0071059273
-0.0046544977
-0.001607961
0.0018335431
0.0052139746
0.008242689
0.010878821
0.012934616
0.014207706
0.01454911
0.014079639
0.01299819
0.011539862
0.0099126313
0.0082916715
0.0068194943
0.0056010024
0.004699414
0.004136034
0.003896825
0.0039312065
0.0041847428
0.0045521846
0.0050088152
0.0053560731
0.005724555
-0.0039311586
-0.0069479506
-0.0098753558
-0.011114882
-0.011592463
-0.01110364
-0.0097362725
-0.0075230436
-0.0046434057
-0.0011857782
0.0026219393
0.0061963088
0.0092825107
0.011873133
0.01373792
0.01467244
0.014616746
0.013790571
0.01241695
0.010749552
0.0089967696
0.0073308601
0.0058843782
0.0047481736
0.0039673793
0.0035465387
0.0034540081
0.0036277817
0.0040033829
0.0044714222
0.0050053571
0.0054056421
0.0058138245
-0.00408319
-0.0077139812
-0.011167695
-0.012671909
-0.013479454
-0.013377589
-0.01239842
-0.01051445
-0.0078755978
-0.004567019
-0.000631531
0.0035148998
0.0072068794
0.010306703
0.012782325
0.014371416
0.014894365
0.014437106
0.013258302
0.011620025
0.0097790723
0.0079408385
0.0062708699
0.0048880275
0.0038656244
0.0032305523
0.002968748
0.0030334393
0.0033506918
0.0038489256
0.0044156092
0.0050237927
0.0054745349
0.0059214977
-0.0041579297
-0.0083246193
-0.012331379
-0.014284828
-0.015377121
-0.015624943
-0.015035858
-0.013548129
-0.011226308
-0.0081608066
-0.0043494934
7.1260732e-05
0.0044469517
0.0082217976
0.01127415
0.0135512
0.014779279
0.014842262
0.013989337
0.012479166
0.010612057
0.0086389029
0.006759934
0.0051282114
0.0038459551
0.0029676332
0.0024998741
0.0024114183
0.0026402917
0.0031035962
0.0037229208
0.0043852641
0.0050639953
0.0055623175
0.0060450737
-0.004180291
-0.0088312631
-0.013292529
-0.015820066
-0.017347927
-0.017881561
-0.017640247
-0.016555553
-0.0146338
-0.011877428
-0.0082945065
-0.0039332414
0.00086618759
0.0054210273
0.0091995361
0.012125702
0.014122656
0.014904523
0.014506449
0.013261253
0.011455695
0.0094021608
0.0073443002
0.0054715036
0.0039204852
0.002774722
0.0020675326
0.0017861395
0.001881649
0.0022797012
0.0028888348
0.0036264908
0.0043803659
0.0051253745
0.0056687311
0.0061819732
-0.0041743859
-0.0092787558
-0.014085319
-0.017180236
-0.019263494
-0.020219022
-0.020250495
-0.0195204
-0.018019308
-0.01566971
-0.012389193
-0.0082203771
-0.0033566517
0.0017670981
0.0063995154
0.010078774
0.012816607
0.014438684
0.014705542
0.01386676
0.012250479
0.010195053
0.0080052328
0.0059139977
0.0040949822
0.0026664665
0.0016901056
0.0011785114
0.001098563
0.001386253
0.0019551844
0.0027084283
0.0035601984
0.0044005413
0.0052067601
0.0057921842
0.0063308763
-0.0041687417
-0.009650631
-0.014799519
-0.018325305
-0.021011114
-0.022510325
-0.022958964
-0.02249203
-0.021359572
-0.019451927
-0.016576985
-0.01268589
-0.0079427195
-0.0026045782
0.0027252959
0.0073011371
0.010824872
0.013288882
0.014435329
0.014170664
0.012905683
0.010962351
0.0087108217
0.0064404476
0.004368656
0.0026513009
0.0013844601
0.00060788237
0.00031224675
0.00044587583
0.00093037109
0.0016700438
0.0025634103
0.0035240399
0.0044451636
0.0053071116
0.0059309105
0.0064901661
-0.004173044
-0.0099486253
-0.015409656
-0.019342547
-0.022518305
-0.024665476
-0.025627244
-0.025581762
-0.024706807
-0.023185911
-0.020767973
-0.017262038
-0.01274461
-0.0074404662
-0.0017489277
0.0036390952
0.0080747003
0.011393223
0.013478735
0.014056086
0.013293679
0.011623282
0.0094110747
0.0070228504
0.0047302325
0.0027317165
0.0011615789
9.3067479e-05
-0.0004575476
-0.00052027648
-0.00016476853
0.00051874104
0.0014260908
0.0024544083
0.0035173002
0.0045131635
0.0054252616
0.0060835297
0.0066589619
-0.004192824
-0.010180789
-0.015905302
-0.020224747
-0.023818966
-0.026559388
-0.028199035
-0.028638803
-0.028191495
-0.026927247
-0.024910332
-0.021859451
-0.017687411
-0.012552575
-0.0067944384
-0.00090319158
0.0044408525
0.0086835895
0.011724379
0.013302843
0.013280324
0.012059675
0.010032222
0.0076163295
0.0051556008
0.0029000994
0.0010270199
-0.00035267663
-0.0011903949
-0.0014924612
-0.0013096531
-0.0007269099
0.00015441768
0.0012248222
0.0023812651
0.0035391508
0.0046032901
0.0055598928
0.0062485286
0.0068370734
-0.010349461
-0.0042357457
-0.016275859
-0.02094725
-0.024966867
-0.028173736
-0.030497251
-0.031622017
-0.031644757
-0.030820259
-0.029062139
-0.026413493
-0.02267558
-0.017843737
-0.012189846
-0.0061139173
-0.00013099268
0.0050864797
0.0090777414
0.011730641
0.012696183
0.01211426
0.010466363
0.0081525016
0.0056036289
0.0031362328
0.00097675777
-0.00072081107
-0.0018711061
-0.0024493406
-0.0024849086
-0.0020473337
-0.0012358598
-0.00016012827
0.0010665989
0.0023435502
0.0035884958
0.0047141533
0.0057096586
0.0064245195
0.0070239453
-0.016510409
-0.010429435
-0.0043066208
-0.021485245
-0.025909659
-0.029598257
-0.032460497
-0.034329733
-0.035032166
-0.034680582
-0.03338638
-0.030975891
-0.027622534
-0.023201439
-0.017802893
-0.011743645
-0.0054615591
0.00051842644
0.0055263445
0.0091871329
0.011329724
0.011638316
0.010558645
0.0085325535
0.006012191
0.003403458
0.00099463922
-0.0010120837
-0.0024882608
-0.0033739132
-0.0036689132
-0.0034240634
-0.0027265232
-0.0016877581
-0.0004236194
0.00095149834
0.0023400779
0.0036639158
0.0048442438
0.0058731821
0.0066102707
0.0072184558
-0.021803603
-0.016582818
-0.010415202
-0.0043942855
-0.026603572
-0.030764491
-0.034159596
-0.036664522
-0.038158064
-0.038485871
-0.037671572
-0.035736401
-0.032587121
-0.028529409
-0.023514639
-0.017651417
-0.011294068
-0.004894952
0.00098417345
0.0056940765
0.0089275438
0.010450695
0.010136419
0.0086143134
0.0062891853
0.0036440881
0.0010485386
-0.0012381755
-0.0030392956
-0.0042522393
-0.004843139
-0.0048353671
-0.0043007221
-0.0033416299
-0.0020800415
-0.00063525746
0.00087865005
0.0023695011
0.0037638163
0.0049919804
0.0060490469
0.0068047098
0.0074194737
-0.027010174
-0.021874984
-0.016485476
-0.010323582
-0.0044943111
-0.031637479
-0.035562724
-0.038645811
-0.040862473
-0.04203436
-0.041914993
-0.040463346
-0.037772348
-0.033891052
-0.029210186
-0.023696637
-0.017467621
-0.010903896
-0.0044904931
0.0011952105
0.0055007835
0.0082113704
0.0090491656
0.008210289
0.0063054953
0.0037728966
0.0010849392
-0.0014269687
-0.0035316579
-0.0050784255
-0.0059914959
-0.0062620447
-0.0059369682
-0.0051070039
-0.0038885899
-0.0024110804
-0.00079543151
0.00084691348
0.0024301049
0.0038865054
0.0051557574
0.0062357682
0.0070065436
0.0076259058
-0.032165024
-0.027107358
-0.021693526
-0.016235309
-0.010152831
-0.0045880564
-0.036625888
-0.040284605
-0.043117127
-0.045100621
-0.045900654
-0.045158282
-0.042938608
-0.039504142
-0.034962807
-0.029742622
-0.023822196
-0.017315029
-0.010645196
-0.004323707
0.0010495801
0.0048678927
0.0069825757
0.007150822
0.0058809727
0.0036713946
0.0010255047
-0.0016267565
-0.0039885766
-0.0058558201
-0.0071047955
-0.0076860771
-0.0076159424
-0.0069633978
-0.0058369356
-0.0043645052
-0.0026803186
-0.00090497167
0.00085455325
0.0025200916
0.0040301885
0.0053339389
0.0064319613
0.0072145373
0.0078365878
-0.037284066
-0.032313918
-0.026891498
-0.021277044
-0.015844405
-0.0098847561
-0.0046464094
-0.041536202
-0.044987584
-0.047627008
-0.04932987
-0.049595383
-0.048076014
-0.045106084
-0.040999095
-0.035881022
-0.030203433
-0.023958495
-0.01726813
-0.01060345
-0.0044901477
0.00045414242
0.0037423587
0.005197058
0.0048016856
0.0031717416
0.00075925358
-0.0019102925
-0.0044528573
-0.0066024118
-0.0081822907
-0.0090952278
-0.0093181847
-0.0088917677
-0.0079062729
-0.0064859237
-0.0047675979
-0.0028881783
-0.00096543868
0.00089970486
0.0026374227
0.0041929568
0.00552484
0.0066362567
0.0074275695
0.0080505007
-0.042317494
-0.037487733
-0.032076314
-0.026369622
-0.020645521
-0.015314015
-0.0095176401
-0.0046308373
-0.046413361
-0.049717273
-0.052124159
-0.053407805
-0.052963233
-0.05068715
-0.047032583
-0.04232994
-0.036709147
-0.03065587
-0.024172956
-0.017416762
-0.01087756
-0.0051002561
-0.00065419878
0.0020670345
0.0028715349
0.0020484129
0.0001303375
-0.0023810364
-0.0049907315
-0.0073553561
-0.0092367935
-0.010484617
-0.011028721
-0.010871714
-0.010078492
-0.0087588159
-0.007050836
-0.0050972864
-0.0030358381
-0.00097869977
0.00098014283
0.0027799197
0.0043727433
0.0057267703
0.006847452
0.0076446826
0.0082666977
-0.047298435
-0.0425635
-0.037225485
-0.031467304
-0.025563886
-0.019823865
-0.014646194
-0.0090566995
-0.0045183105
-0.051295825
-0.054425336
-0.05648757
-0.057176437
-0.056020866
-0.053058535
-0.048789947
-0.043551552
-0.037516832
-0.031184503
-0.024572358
-0.01787484
-0.01159623
-0.0062384531
-0.0023158013
-0.00017065263
8.9970154e-05
-0.0010733808
-0.0031832513
-0.005699825
-0.0081740427
-0.010298965
-0.011861727
-0.012738727
-0.012886085
-0.012332778
-0.011166781
-0.0095160152
-0.0075297864
-0.0053541863
-0.0031249896
-0.00094703448
0.0010933385
0.0029450611
0.0045675663
0.0059384045
0.0070645817
0.0078648953
0.0084842541
-0.052259707
-0.047563557
-0.042259071
-0.03652224
-0.030514766
-0.024507951
-0.018823124
-0.013852162
-0.0084593097
-0.0042405072
-0.05614159
-0.059004066
-0.060574664
-0.060647812
-0.058833293
-0.055257811
-0.050423815
-0.044735063
-0.038383996
-0.031889259
-0.025279644
-0.01878404
-0.012863765
-0.007940598
-0.0045254879
-0.0029331666
-0.0030906663
-0.0045110263
-0.0067123149
-0.0091494365
-0.01142138
-0.013250546
-0.014450143
-0.014922379
-0.014650375
-0.013689293
-0.012149131
-0.010174465
-0.0079221002
-0.0055395318
-0.0031577673
-0.00087326565
0.0012362767
0.0031305133
0.0047760001
0.0061587992
0.0072864458
0.0080868418
0.0087022656
-0.05716299
-0.052516566
-0.047191091
-0.041439872
-0.035420999
-0.029248301
-0.023241514
-0.017644426
-0.012848535
-0.0076504498
-0.0038080816
-0.060857152
-0.063318524
-0.064397829
-0.063887303
-0.061473317
-0.057329655
-0.052004288
-0.045945126
-0.039418758
-0.032901467
-0.026446275
-0.02027369
-0.014705267
-0.010185046
-0.0072606699
-0.0061624728
-0.0066179052
-0.0082101659
-0.010404489
-0.012686287
-0.014696025
-0.016180085
-0.016977038
-0.017015626
-0.016306572
-0.014931032
-0.013020142
-0.010732104
-0.0082283142
-0.0056553461
-0.0031371776
-0.00076087551
0.0014062397
0.0033347724
0.0049971403
0.0063863603
0.0075108923
0.0083091618
0.0089203651
-0.061927756
-0.057387845
-0.052045628
-0.046227387
-0.040166521
-0.033944138
-0.027717946
-0.02172182
-0.016200775
-0.011577209
-0.0066410738
-0.0033184699
-0.065319898
-0.067383894
-0.068007514
-0.066964643
-0.063982675
-0.059329317
-0.053584661
-0.047303558
-0.040765196
-0.034387436
-0.028218459
-0.022370074
-0.017086972
-0.012977301
-0.010500632
-0.0097699018
-0.010441392
-0.012108719
-0.014208707
-0.016271203
-0.017965429
-0.019060224
-0.019419879
-0.019000529
-0.017841713
-0.016049978
-0.013776013
-0.011187989
-0.0084499741
-0.0057046665
-0.0030671736
-0.00061306369
0.0016017265
0.0035570015
0.0052287634
0.0066175827
0.0077359467
0.0085323048
0.0091494494
-0.066451588
-0.062112083
-0.056797472
-0.050904435
-0.044743323
-0.038458695
-0.032120819
-0.025842896
-0.019884393
-0.014503009
-0.01009037
-0.0055768833
-0.0028187214
-0.069547349
-0.071257645
-0.071460336
-0.069921023
-0.066416742
-0.061320489
-0.055287801
-0.048954875
-0.042583355
-0.036511574
-0.030635369
-0.025028187
-0.020004639
-0.016280993
-0.014169544
-0.013678421
-0.014490364
-0.016145102
-0.018081003
-0.019869134
-0.021200033
-0.021866139
-0.021757934
-0.020861205
-0.019244856
-0.017039989
-0.014414175
-0.011542615
-0.008589913
-0.0056918194
-0.0029514434
-0.00043125447
0.001821996
0.0037940625
0.0054654613
0.0068495508
0.0079636209
0.0087714535
0.0093929697
-0.070751321
-0.066605181
-0.061392222
-0.05545612
-0.049173079
-0.042769447
-0.036294163
-0.029856965
-0.023603321
-0.017782098
-0.012635594
-0.0085726823
-0.0044980782
-0.002285258
-0.073608838
-0.074982638
-0.07479167
-0.072809712
-0.068829588
-0.063413633
-0.057269959
-0.05106675
-0.045040522
-0.039328386
-0.033660265
-0.028210094
-0.023427371
-0.02001301
-0.018154707
-0.017829862
-0.018700989
-0.020270759
-0.021984798
-0.023449096
-0.02437369
-0.024575091
-0.023972757
-0.022583805
-0.020506931
-0.017896377
-0.014933519
-0.011798426
-0.008652626
-0.0056207164
-0.0027912395
-0.00021607106
0.0020626305
0.004038048
0.0057031761
0.0070870621
0.0082161615
0.0090250206
0.0096447028
-0.074906244
-0.070885168
-0.065764179
-0.05983886
-0.053450656
-0.04690191
-0.040229446
-0.033614554
-0.027187597
-0.021106816
-0.015529731
-0.010773224
-0.0070444747
-0.0033726735
-0.0017448682
-0.077539291
-0.078589914
-0.078048031
-0.07567301
-0.071341337
-0.065773003
-0.059723477
-0.053825827
-0.048221503
-0.042817506
-0.03723297
-0.031867522
-0.027282914
-0.024083477
-0.022394776
-0.022165972
-0.023030028
-0.024446617
-0.025889001
-0.026983915
-0.027462094
-0.027166157
-0.026047377
-0.024156196
-0.021620506
-0.018616056
-0.015335284
-0.011959895
-0.0086424719
-0.0054924374
-0.0025869685
2.6555529e-05
0.0023125362
0.0042837313
0.0059506534
0.0073653395
0.0084820843
0.0092884516
0.009904354
-0.078948729
-0.075037338
-0.069932953
-0.064007216
-0.057548236
-0.0508435
-0.043949711
-0.037102605
-0.030500831
-0.02428116
-0.018456819
-0.013295094
-0.0088891111
-0.0054511804
-0.0022450378
-0.0012245088
-0.081368615
-0.082112556
-0.081273608
-0.078626265
-0.074113989
-0.068602525
-0.062828851
-0.057335765
-0.05213592
-0.046906093
-0.041260278
-0.035948514
-0.031506414
-0.028404461
-0.026820051
-0.026630719
-0.027429129
-0.028639766
-0.029765765
-0.030449151
-0.030443014
-0.029620056
-0.027966534
-0.02556757
-0.022579973
-0.019198784
-0.015623517
-0.012031296
-0.0085601032
-0.0053069631
-0.0023462665
0.00028162628
0.0025651132
0.0045448618
0.0062610894
0.0076571616
0.0087602413
0.0095605146
0.01017196
-0.082909134
-0.07909332
-0.073989148
-0.067981395
-0.061438906
-0.054594757
-0.047465902
-0.04034638
-0.033535693
-0.027171002
-0.02122052
-0.015835468
-0.011017581
-0.0069275697
-0.0038025799
-0.0011627954
-0.00072374616
-0.085116507
-0.085598471
-0.084589505
-0.081841572
-0.077363539
-0.072107971
-0.066729834
-0.061636743
-0.056688134
-0.051444449
-0.045662345
-0.040404097
-0.035983633
-0.032888442
-0.031367621
-0.031175974
-0.031862395
-0.032824598
-0.033591447
-0.033822095
-0.03329552
-0.031918688
-0.029716123
-0.026809072
-0.023382767
-0.019647345
-0.015802206
-0.012012489
-0.0084046771
-0.0050738234
-0.0020888931
0.00054089082
0.002840684
0.0048982204
0.0065859105
0.007964124
0.009047175
0.0098414889
0.010447201
-0.086791691
-0.08308222
-0.077962721
-0.071852406
-0.065148653
-0.058126871
-0.050775761
-0.0433663
-0.036301746
-0.029761596
-0.02369105
-0.018205177
-0.013149384
-0.0086514616
-0.004907831
-0.0021717665
-0.0001646975
-0.00024233454
-0.088808705
-0.089158893
-0.0881755
-0.085518188
-0.081307293
-0.076457083
-0.071473805
-0.066631409
-0.061726573
-0.056327989
-0.050405118
-0.045093359
-0.040568392
-0.037481112
-0.03599058
-0.035777083
-0.036304179
-0.036978872
-0.037344716
-0.037081272
-0.035999171
-0.034044198
-0.031283413
-0.027875433
-0.024030444
-0.019964725
-0.015870071
-0.011901673
-0.0081875592
-0.0048184155
-0.0018252955
0.00083280951
0.0032470747
0.0052675047
0.0069294324
0.0082795045
0.0093439693
0.010130683
0.010729929
-0.090608084
-0.086999023
-0.081879475
-0.075652212
-0.068760228
-0.061464917
-0.053866628
-0.046172613
-0.03883425
-0.032070512
-0.025842104
-0.020281081
-0.015113931
-0.010365938
-0.0062197071
-0.0028758862
-0.00062852272
0.00074908502
0.00023104658
-0.092554141
-0.092998556
-0.09223301
-0.089883308
-0.086144549
-0.081735508
-0.076984876
-0.072166539
-0.067091247
-0.061501279
-0.05536714
-0.049863691
-0.045182297
-0.042138531
-0.040664455
-0.040404932
-0.040736531
-0.041084135
-0.041004935
-0.040205219
-0.038532964
-0.035979932
-0.032659596
-0.028765796
-0.024524178
-0.020147812
-0.015823565
-0.011712509
-0.0079409696
-0.0045540056
-0.0015167887
0.0013041761
0.003672369
0.0056600884
0.0072806285
0.0086056721
0.0096494803
0.010428046
0.011019783
-0.094456907
-0.090838628
-0.085729005
-0.079405597
-0.072309144
-0.064705706
-0.056764646
-0.048770668
-0.041154396
-0.034135214
-0.027704759
-0.022018094
-0.016789393
-0.011911706
-0.0075001944
-0.0037661639
-0.00092237841
0.00080032011
0.0015409754
0.0007374577
-0.096565483
-0.09732841
-0.096994802
-0.095183325
-0.091995065
-0.087858088
-0.083110664
-0.07806882
-0.072663101
-0.066858855
-0.060401694
-0.054639158
-0.049810929
-0.046843665
-0.045382782
-0.045046755
-0.045146587
-0.045122567
-0.044550971
-0.043170573
-0.040876265
-0.037713242
-0.033840955
-0.029479424
-0.024857698
-0.020190789
-0.015678252
-0.011484899
-0.0076817596
-0.004229421
-0.00096706507
0.0017985963
0.0041263272
0.0060591589
0.007643349
0.0089408412
0.0099636444
0.010732951
0.011316538
-0.098557207
-0.094688374
-0.089492173
-0.083093844
-0.075833573
-0.067893994
-0.059566027
-0.051194001
-0.043273938
-0.035991981
-0.02932273
-0.023453196
-0.018125457
-0.013180404
-0.0086185345
-0.0046143996
-0.0013961308
0.00087515923
0.0021299712
0.002230163
0.0012342237
-0.10107975
-0.10241039
-0.10273189
-0.10156287
-0.098788825
-0.094656563
-0.089677567
-0.084149469
-0.078332896
-0.072241461
-0.065382194
-0.059330973
-0.054465259
-0.051581174
-0.050139892
-0.049691733
-0.049520562
-0.049075395
-0.047958677
-0.045953235
-0.043012316
-0.039237033
-0.034823392
-0.030005532
-0.025021659
-0.020111301
-0.015483503
-0.011239985
-0.0073434688
-0.0035867432
-0.00038811885
0.0023284443
0.0045849392
0.0064703338
0.008015144
0.0092850641
0.010285653
0.011045158
0.011619854
-0.10316753
-0.09877375
-0.093241857
-0.086683664
-0.079300488
-0.071064266
-0.062316361
-0.053541662
-0.045242824
-0.037666475
-0.030746068
-0.024647369
-0.019157961
-0.014113184
-0.0094771963
-0.0053159266
-0.0018211881
0.00080133475
0.0025508698
0.0032860445
0.0028177883
0.0016036391
-0.10635813
-0.10848698
-0.10960316
-0.10899531
-0.10633398
-0.10197068
-0.096453213
-0.090257562
-0.08398801
-0.077512301
-0.07018934
-0.063902062
-0.059164627
-0.056337915
-0.054925146
-0.054336904
-0.053844537
-0.052919434
-0.051201656
-0.048532876
-0.044930406
-0.040542303
-0.035590412
-0.030329247
-0.025035866
-0.019969434
-0.01526618
-0.010892677
-0.006591361
-0.0029065055
0.0002342931
0.0028603893
0.0050559163
0.0068905556
0.0083960536
0.0096373947
0.010615129
0.011364077
0.01192952
-0.10854474
-0.10335851
-0.097209729
-0.09025369
-0.08265327
-0.074175827
-0.065046258
-0.055855898
-0.047149182
-0.039206716
-0.031998509
-0.025653339
-0.019954246
-0.014747048
-0.01002101
-0.0057770509
-0.0021152227
0.00077605343
0.0028372837
0.0040330227
0.0041978623
0.0032471238
0.0017816332
-0.11263039
-0.11572705
-0.11761174
-0.11727679
-0.11445536
-0.10954425
-0.10322582
-0.096251681
-0.08953279
-0.082543959
-0.074794241
-0.068448048
-0.063878933
-0.061145748
-0.059748575
-0.058973844
-0.058098741
-0.05662774
-0.054256566
-0.050894974
-0.046616044
-0.04160508
-0.036120612
-0.03047227
-0.024972829
-0.019797486
-0.014918212
-0.010013343
-0.0057905145
-0.0021728211
0.00085524445
0.0034048472
0.0055355765
0.0073199453
0.0087850257
0.0099973248
0.010951429
0.01168963
0.012244985
-0.11489252
-0.10869254
-0.10165302
-0.094018645
-0.085960483
-0.077143639
-0.067688785
-0.058139393
-0.049023114
-0.040684658
-0.033119016
-0.026498811
-0.020564939
-0.015148555
-0.010271966
-0.0059483987
-0.0021850587
0.00087245108
0.0031551667
0.0046268669
0.0052043554
0.0048207916
0.0035056576
0.0018367944
-0.12006765
-0.12414869
-0.12657779
-0.12620853
-0.12292204
-0.1171418
-0.10983754
-0.10208145
-0.094852086
-0.08731863
-0.079239431
-0.072994468
-0.068612972
-0.066025025
-0.064611972
-0.063588493
-0.062258225
-0.06017566
-0.057106075
-0.053019479
-0.048035261
-0.04239541
-0.036436309
-0.030521761
-0.024871563
-0.01945933
-0.013892311
-0.0090707677
-0.0049240767
-0.0014452772
0.0014885387
0.0039574045
0.0060242025
0.0077573203
0.0091814035
0.010364275
0.01129473
0.01202108
0.012565947
-0.12239212
-0.1149665
-0.10679333
-0.098205922
-0.089415088
-0.080042983
-0.070164905
-0.060319095
-0.050856267
-0.042133469
-0.034179407
-0.02722818
-0.021023974
-0.015373941
-0.010302473
-0.0058438475
-0.0019967656
0.001168387
0.0035793007
0.0052270749
0.0060216818
0.0060058675
0.0051747698
0.0035760921
0.0017941864
-0.12870391
-0.13360014
-0.13628376
-0.13557077
-0.13146804
-0.12455183
-0.1162076
-0.10768719
-0.099872164
-0.091824415
-0.083523502
-0.07758229
-0.073421874
-0.070997873
-0.069506232
-0.068160261
-0.066299228
-0.063544685
-0.059724497
-0.054859767
-0.049146572
-0.042936597
-0.036641005
-0.030524365
-0.02456173
-0.018266964
-0.012784522
-0.0080476525
-0.0040698861
-0.00070574044
0.0021289615
0.0045185966
0.0065204777
0.0082019215
0.0095847425
0.010738835
0.011643782
0.012357936
0.012891976
-0.1311083
-0.12235878
-0.11283743
-0.10303925
-0.093229995
-0.08306181
-0.072567784
-0.062319537
-0.052572834
-0.043529129
-0.035199621
-0.027899172
-0.021369659
-0.015453756
-0.010166229
-0.0055351923
-0.0015705608
0.0016842748
0.0041722594
0.005891482
0.0068152881
0.0069753333
0.0064770276
0.0053053422
0.0035212977
0.0016870532
-0.13842104
-0.143877
-0.14651606
-0.14508981
-0.13983972
-0.13165752
-0.12229149
-0.11300439
-0.1045586
-0.096082873
-0.087796981
-0.082273357
-0.078370509
-0.076064773
-0.074419795
-0.072669447
-0.070204191
-0.066704905
-0.062051882
-0.056359456
-0.049974181
-0.043349498
-0.036790683
-0.030268313
-0.023182024
-0.016969011
-0.011577874
-0.0070445147
-0.0032043117
3.9598776e-05
0.002777424
0.0050869824
0.0070235687
0.0086535321
0.0099963232
0.011119142
0.011998005
0.012699488
0.013222718
-0.14095489
-0.13097274
-0.11997915
-0.10874258
-0.097636526
-0.086414503
-0.075075729
-0.064253925
-0.054121109
-0.044815011
-0.036159141
-0.028535104
-0.021665951
-0.015434529
-0.0099041409
-0.005081122
-0.0009706199
0.0023989173
0.0049426019
0.0066804071
0.0076320972
0.0078941712
0.0075513281
0.0066881922
0.0052712648
0.003380411
0.0015249493
-0.14902825
-0.15476886
-0.15700705
-0.15450076
-0.14788459
-0.13843096
-0.12806132
-0.11798493
-0.10889614
-0.10010859
-0.092244185
-0.087103952
-0.08347508
-0.081221776
-0.079341318
-0.077103087
-0.073941671
-0.069582107
-0.064012283
-0.057542095
-0.050659528
-0.043700994
-0.036622897
-0.028681153
-0.02166676
-0.01554955
-0.010400853
-0.0060307136
-0.0023346992
0.00079217454
0.0034324063
0.0056616936
0.0075335101
0.0091143166
0.01041354
0.011504408
0.012356564
0.013045249
0.013557764
-0.15174357
-0.14073819
-0.12830779
-0.11549621
-0.10285538
-0.090310375
-0.077919736
-0.066291376
-0.05562145
-0.045965283
-0.037022499
-0.029118637
-0.021945105
-0.015390361
-0.0095689128
-0.004533919
-0.00025404684
0.0032443681
0.0058561773
0.0075869638
0.0085284655
0.0088076505
0.0085524107
0.0078344591
0.006690618
0.0051136155
0.0031862896
0.001360834
-0.16032109
-0.1660183
-0.16746959
-0.16361645
-0.15558674
-0.14485976