/*--------------------------------*- C++ -*----------------------------------*\
| =========                 |                                                 |
| \\      /  F ield         | OpenFOAM: The Open Source CFD Toolbox           |
|  \\    /   O peration     | Version:  5.0                                   |
|   \\  /    A nd           | Web:      www.OpenFOAM.org                      |
|    \\/     M anipulation  |                                                 |
\*---------------------------------------------------------------------------*/
FoamFile
{
    version     2.0;
    format      ascii;
    class       volScalarField;
    location    "280";
    object      pPrime2Mean;
}
// * * * * * * * * * * * * * * * * * * * * * * * * * * * * * * * * * * * * * //

dimensions      [0 4 -4 0 0 0 0];

internalField   nonuniform List<scalar> 
9200
(
1.0753015e-06
1.142653e-06
6.8255032e-06
1.2335965e-06
7.11297e-06
1.8750849e-05
1.4345822e-06
7.4615289e-06
1.9430188e-05
3.4316041e-05
1.7418867e-06
8.151365e-06
2.0376439e-05
3.5371533e-05
5.3645451e-05
2.2729764e-06
9.1082084e-06
2.2146921e-05
3.6869588e-05
5.506927e-05
7.5345439e-05
3.1435269e-06
1.0537148e-05
2.4599085e-05
3.9604333e-05
5.7012493e-05
7.6988043e-05
9.8954463e-05
4.5802152e-06
1.2530294e-05
2.813194e-05
4.3341981e-05
6.052905e-05
7.9160625e-05
0.0001007197
0.00012406265
6.8339751e-06
1.5295884e-05
3.2899503e-05
4.8649391e-05
6.5237471e-05
8.3115541e-05
0.00010291173
0.00012583538
0.00015042415
1.0282742e-05
1.8980484e-05
3.9319599e-05
5.5686386e-05
7.1800145e-05
8.8298662e-05
0.00010697617
0.00012784844
0.00015213869
0.00017792934
1.5101325e-05
2.3799592e-05
4.7813626e-05
6.4948599e-05
8.0331939e-05
9.5440107e-05
0.00011217526
0.00013174881
0.00015383376
0.00017954184
0.00020653964
1.9883579e-05
2.9806322e-05
5.8918357e-05
7.6873918e-05
9.137337e-05
0.00010455208
0.00011929406
0.0001366009
0.00015737713
0.00018082704
0.00020803435
0.00023623291
2.2699105e-05
3.7556471e-05
7.3371469e-05
9.2176518e-05
0.00010539896
0.00011615615
0.00012823433
0.00014324432
0.0001616372
0.00018390075
0.00020886314
0.00023761967
0.00026703902
2.6086806e-05
5.0104049e-05
9.3211771e-05
0.00011210702
0.00012323767
0.00013065681
0.00013948351
0.00015146822
0.00016751771
0.00018743207
0.00021142392
0.00023798718
0.00026833957
0.00029892821
3.4879792e-05
7.3077638e-05
0.00012345112
0.00013947839
0.00014631297
0.00014884302
0.00015335454
0.00016172325
0.00017470553
0.00019240597
0.00021418791
0.00024005606
0.00026826553
0.00030018097
0.00033194828
5.091344e-05
0.00011512177
0.00017200503
0.00018023053
0.00017768414
0.00017213169
0.00017056878
0.00017423715
0.00018362663
0.00019841821
0.00021823863
0.00024209687
0.00026990149
0.000299715
0.00033318783
0.000366039
7.5194537e-05
0.00018270431
0.00025117684
0.00024403684
0.00022325875
0.00020344173
0.00019242651
0.00018966995
0.00019445432
0.00020589012
0.0002230871
0.00024530645
0.00027132133
0.00030101783
0.0003323788
0.00036730198
0.00040123672
0.00010716899
0.00027490032
0.00037146278
0.00034519491
0.00029374601
0.00024863838
0.00022154322
0.0002091659
0.00020780983
0.00021495932
0.00022915665
0.00024911926
0.0002738489
0.00030197146
0.00033345429
0.00036620825
0.00040255804
0.00043746641
0.00014268654
0.00038738388
0.00053081337
0.00049879039
0.0004054026
0.00031857128
0.00026334679
0.00023502611
0.00022470873
0.00022621322
0.00023656279
0.00025397152
0.00027684566
0.00030404047
0.00033411555
0.00036717954
0.00040122857
0.00043886418
0.00047472945
0.00017565279
0.00050711374
0.00072027261
0.0007048928
0.00057539673
0.00042918605
0.0003280343
0.00027204435
0.00024713799
0.00024054365
0.00024586212
0.00025994258
0.00028075301
0.00030651884
0.00033598416
0.00036774661
0.00040219118
0.00043733417
0.00047621655
0.00051296837
0.00020105958
0.00062240331
0.00091843455
0.00095202828
0.00080651916
0.0005996194
0.00043120955
0.00032937789
0.00027918208
0.00025972525
0.00025785742
0.00026753664
0.00028560793
0.00030985356
0.00033829727
0.00036970667
0.00040284276
0.00043837358
0.00047451553
0.00051453859
0.00055216556
0.00021244211
0.00071875899
0.0011055712
0.0012134424
0.001085987
0.00083804675
0.00059346084
0.00042309106
0.00032893896
0.00028714161
0.00027412596
0.00027749238
0.00029184631
0.00031401697
0.00034150347
0.00037226069
0.00040517957
0.00043928218
0.00047569579
0.00051266112
0.00055380354
0.00059228628
0.00021079629
0.00078197244
0.0012669045
0.0014586938
0.0013871263
0.0011328274
0.00082765692
0.00057290842
0.00041162213
0.00032977238
0.00029753155
0.00029120806
0.0003001369
0.00031937351
0.00034549923
0.00037586293
0.00040839399
0.00044227729
0.00047698364
0.00051399468
0.00055173197
0.00059396057
0.00063330956
0.00020500044
0.00081327401
0.001391087
0.0016705334
0.0016758644
0.0014592079
0.0011260458
0.0007945797
0.00054591638
0.00040081498
0.00033383078
0.00031116605
0.00031172003
0.00032648473
0.00035056839
0.00038033623
0.0004129657
0.00044658033
0.00048086399
0.000515742
0.00055321177
0.00059164632
0.00063498223
0.00067521691
0.00019947162
0.00082497617
0.0014616259
0.0018388919
0.0019285174
0.0017816926
0.0014681148
0.0010882942
0.00075117947
0.00051917126
0.00039420397
0.00034189308
0.00032866919
0.0003363939
0.00035713188
0.00038587327
0.00041865553
0.00045272715
0.00048663821
0.00052069114
0.00055545264
0.00059320577
0.00063236341
0.0006768399
0.00071799908
0.00019611195
0.00083082764
0.0014928184
0.0019329291
0.002130697
0.0020693105
0.0018160806
0.0014362172
0.0010344681
0.0007066369
0.00049742266
0.00039268482
0.0003547161
0.00035087025
0.0003660251
0.00039271805
0.00042555309
0.00046045269
0.00049494591
0.0005282692
0.00056156526
0.00059589306
0.00063391153
0.0006738362
0.00071951845
0.00076164791
0.00019486303
0.00082965503
0.0015083179
0.0019678926
0.0022563887
0.0023049657
0.0021370094
0.0018052123
0.0013816516
0.00097462402
0.00066471194
0.00048019085
0.00039704134
0.00037295254
0.00037872539
0.00040151121
0.00043373918
0.0004697562
0.00050554473
0.00053927678
0.00057117587
0.0006031781
0.00063696385
0.00067524023
0.00071603767
0.00076300775
0.00080614457
0.00019359683
0.00082060581
0.0015042979
0.0019721183
0.0023071113
0.002472444
0.0024099462
0.0021570378
0.001765036
0.0013142902
0.0009119391
0.00062500681
0.00046937463
0.00040805543
0.0003977154
0.00041337211
0.00044361099
0.00048056681
0.00051838424
0.00055356862
0.0005853148
0.00061494349
0.00064534389
0.00067849062
0.00071714762
0.00075894936
0.0008072978
0.00085145626
0.00019104374
0.00080352464
0.0014826906
0.0019516917
0.0023123434
0.0025543484
0.0026189556
0.0024660341
0.0021435492
0.001704567
0.0012389086
0.00084873729
0.00059278173
0.00046730227
0.00042705496
0.00043032765
0.00045598408
0.0004930254
0.00053326306
0.00057110328
0.00060401844
0.00063252098
0.00065924118
0.00068777638
0.00072039676
0.00075959137
0.00080256432
0.00085237489
0.00089757718
0.00018588867
0.0007786313
0.0014480487
0.0019104286
0.0022906466
0.0025744391
0.0027422843
0.0027153657
0.0024866619
0.0021055405
0.001627652
0.0011579153
0.00078972449
0.00056946423
0.00047515386
0.00045558957
0.00047239138
0.00050763846
0.00055009876
0.00059161089
0.00062734088
0.00065620641
0.00068038222
0.00070366201
0.00073033925
0.00076258592
0.00080255658
0.00084688395
0.00089822936
0.00094454783
0.00017416808
0.00074981983
0.0014038576
0.0018565964
0.0022450405
0.0025621622
0.0027922686
0.0028920857
0.0027802151
0.002481823
0.0020443715
0.001536868
0.0010731453
0.00073593133
0.00055738773
0.00049496816
0.00049533745
0.00052545972
0.00056909573
0.00061485017
0.00065503605
0.00068626437
0.0007094044
0.00072830555
0.0007479449
0.00077285086
0.00080504118
0.00084605311
0.00089191451
0.000944858
0.00099235696
0.00015870123
0.00070787982
0.0013541697
0.001792769
0.0021862265
0.0025249146
0.0027994998
0.0029842632
0.003011151
0.0028179542
0.0024512081
0.0019598267
0.0014347606
0.00098711705
0.00069487834
0.00056066388
0.00052900775
0.00054838918
0.00059087133
0.00064073144
0.00068678448
0.00072260008
0.00074690955
0.00076277587
0.00077582061
0.0007917715
0.00081527434
0.000847763
0.00089010612
0.00093766147
0.00099224502
0.001040836
0.0001391152
0.00065854097
0.0012784632
0.0017265937
0.0021170565
0.0024729683
0.0027817828
0.0030196246
0.0031521977
0.0030970566
0.0028258637
0.0023902575
0.0018528798
0.0013258834
0.00090987971
0.00067181285
0.00058199632
0.00057958548
0.00061669859
0.00066948061
0.00072229612
0.00076493299
0.00079309138
0.00080813584
0.00081556643
0.00082243106
0.00083501221
0.00085753843
0.00089078581
0.00093473897
0.00098412756
0.0010403471
0.0010898508
0.00011553142
0.0005940373
0.0011936751
0.0016303349
0.002047744
0.002410785
0.002746822
0.0030292542
0.0032285634
0.0032988249
0.0031531816
0.0027984289
0.0022977657
0.0017298351
0.0012150529
0.00084910053
0.00067022491
0.00062459501
0.00064892697
0.00070181118
0.00076143749
0.00081288745
0.00084786677
0.00086501589
0.0008688234
0.00086701465
0.00086783187
0.00087751501
0.00089969321
0.00093414831
0.00097998063
0.0010313061
0.0010891271
0.0011394029
9.2171676e-05
0.00051451869
0.0010836832
0.0015304162
0.001942948
0.0023503044
0.0027010379
0.0030194793
0.0032718203
0.0034290798
0.0034220554
0.0031705354
0.0027344026
0.0021768686
0.0015974318
0.0011120455
0.00081399273
0.0006953988
0.00069121705
0.0007392628
0.00080445781
0.00086610448
0.00091093315
0.00093371129
0.00093680328
0.00092782788
0.00091654938
0.00091174567
0.00091930526
0.00094177656
0.00097791713
0.0010258649
0.001079178
0.0011385358
0.0011895854
7.1042525e-05
0.00042931725
0.00094845392
0.0014073522
0.0018406891
0.002246248
0.0026583109
0.0029976423
0.0032939872
0.0035149657
0.0036159363
0.0034991178
0.0031439022
0.0026320001
0.0020347571
0.0014631417
0.0010318242
0.00081125209
0.00075135535
0.00078452894
0.00085220744
0.00092445855
0.00098189376
0.0010142094
0.0010203699
0.0010068033
0.00098419766
0.00096367523
0.00095410179
0.00096039735
0.00098390431
0.0010221646
0.0010724205
0.0011277214
0.0011884704
0.0012404107
5.3016393e-05
0.0003480042
0.00080129236
0.00125783
0.0017144741
0.0021525633
0.0025626908
0.0029786595
0.0033015579
0.0035783682
0.0037568688
0.0037634847
0.0035246435
0.0030734634
0.002497825
0.0018809059
0.001338578
0.00098808417
0.00084573543
0.00084219483
0.00090637303
0.00098819879
0.0010603865
0.0011062709
0.0011200153
0.0011055496
0.0010735312
0.0010370916
0.0010081392
0.00099487025
0.0010009473
0.001026183
0.0010669688
0.0011196665
0.0011769384
0.001238912
0.0012917544
3.9039425e-05
0.00027506021
0.00066114877
0.0010878259
0.0015600508
0.0020310385
0.0024868028
0.0028950767
0.0033120064
0.0036255128
0.0038705324
0.0039708778
0.0038612161
0.0034977491
0.0029633254
0.0023403994
0.0017272169
0.0012452415
0.00099094322
0.00092297063
0.00096996023
0.0010582174
0.0011462709
0.0012095558
0.0012359339
0.0012253055
0.0011870716
0.001135644
0.0010859623
0.0010498047
0.0010341993
0.0010410961
0.0010687623
0.0011123995
0.0011676
0.0012267874
0.0012898343
0.0013435502
3.0140133e-05
0.00021573348
0.00053459149
0.00092190127
0.0013802518
0.0018821086
0.0023779162
0.0028421367
0.0032425969
0.0036748513
0.0039666169
0.004142269
0.0041377966
0.0038939701
0.0034223291
0.0028200883
0.0021726074
0.0015916994
0.0012001372
0.0010451074
0.0010488403
0.0011363732
0.001239767
0.001323738
0.0013680924
0.0013669541
0.0013270027
0.0012628802
0.0011921444
0.0011304559
0.0010887636
0.0010722757
0.0010810787
0.0011117751
0.0011585197
0.0012162159
0.0012772144
0.0013411675
0.001395691
2.7041744e-05
0.00017475977
0.00043081456
0.00077204764
0.0011963359
0.0017016937
0.0022422997
0.0027502232
0.0032175484
0.003625386
0.0040662244
0.0042966034
0.0043709933
0.0042459126
0.0038693121
0.0033086256
0.0026548924
0.0020089499
0.0014938615
0.0012197861
0.0011576895
0.0012257234
0.0013417879
0.0014486338
0.0015162447
0.0015310727
0.0014951668
0.0014221051
0.0013313179
0.0012423096
0.0011705285
0.0011252165
0.0011094062
0.0011211055
0.0011553677
0.0012053703
0.0012655005
0.001328161
0.0013928454
0.0014480252
0.00015568969
3.0007997e-05
0.00035841512
0.00064925847
0.0010309266
0.0015070839
0.0020675533
0.0026301763
0.0031454826
0.003634091
0.0040476112
0.0044556573
0.004588839
0.0045527435
0.0042960106
0.003800422
0.0031635456
0.0024803262
0.0018701379
0.0014633283
0.0013121547
0.001334651
0.0014540363
0.0015845326
0.0016802365
0.00171794
0.0016930645
0.0016163472
0.0015080307
0.0013910881
0.0012858285
0.0012063291
0.0011595314
0.0011459117
0.0011614353
0.0011996504
0.0012529813
0.0013154228
0.0013795559
0.0014447866
0.0015004308
0.00032412504
0.00016023473
3.9123253e-05
0.00056395874
0.00089528204
0.001331899
0.0018685079
0.0024645598
0.0030419848
0.0035876848
0.0041039379
0.0044762097
0.0048155173
0.00483779
0.0046793999
0.0042845694
0.0036904908
0.002996341
0.0023145331
0.001787705
0.0015186937
0.0014801684
0.00158031
0.0017322025
0.0018599349
0.0019276983
0.0019218681
0.0018483258
0.0017266813
0.0015826519
0.0014414462
0.0013227076
0.0012382647
0.0011921357
0.0011821759
0.0012022717
0.001244731
0.0013013594
0.0013659364
0.0014313197
0.0014969
0.0015528235
0.0005235775
0.00033082682
0.00018820295
5.4298581e-05
0.00080107677
0.0011882483
0.00168524
0.0022667255
0.0028899138
0.0035053989
0.0040935807
0.0045942299
0.0048846309
0.0051383553
0.0050414028
0.0047493418
0.0042255596
0.0035481857
0.002820884
0.0021906382
0.0017917764
0.0016720221
0.0017323496
0.0018929719
0.0020555271
0.0021603152
0.0021824399
0.0021204575
0.001991436
0.0018228611
0.0016445323
0.0014820986
0.0013533222
0.0012668702
0.0012235584
0.0012185334
0.0012438367
0.0012906791
0.0013504967
0.0014169828
0.0014833683
0.0015490863
0.0016051226
0.00075628795
0.00053155276
0.00037784093
0.00023722595
7.5207569e-05
0.0010899736
0.0015365494
0.0020769962
0.0026967223
0.0033709026
0.0040418
0.0046320162
0.0050733494
0.0052641293
0.0054256581
0.0051990283
0.0047664886
0.0041275548
0.003382992
0.0026674314
0.0021457771
0.0019107134
0.0019263635
0.0020724253
0.0022674912
0.002415855
0.0024754199
0.0024347823
0.0023062627
0.0021175277
0.0019024427
0.0016928633
0.0015132768
0.0013782911
0.0012928418
0.0012543497
0.0012553567
0.001286299
0.0013375507
0.0014003637
0.0014684922
0.001535617
0.0016012582
0.0016572371
0.0010448948
0.00076468782
0.00058604549
0.00046025412
0.00030293628
0.00010058409
0.0014362954
0.0019234411
0.0025003069
0.0031832081
0.0039332603
0.004624248
0.0051704196
0.0055386449
0.0056177962
0.0056747904
0.0053053157
0.0047293504
0.0039920403
0.0032183871
0.0025794753
0.002217898
0.0021577389
0.0022852225
0.0024975255
0.0026944254
0.0028012389
0.0027930432
0.002674768
0.0024723599
0.0022227311
0.0019638413
0.0017275886
0.0015356252
0.0013984866
0.0013169491
0.0012850577
0.0012929648
0.0013298104
0.0013853651
0.001450915
0.0015203856
0.0015879736
0.0016533269
0.0017090785
0.0013930681
0.0010569642
0.00082395177
0.00068066702
0.00056978509
0.0003793731
0.00012922381
0.001821342
0.0023421201
0.0029791382
0.0037535752
0.0045538903
0.0052175663
0.0057069607
0.0059904527
0.0059457631
0.0058801857
0.0053544142
0.0046442805
0.0038370219
0.0030977624
0.0026044679
0.0024353575
0.0025380779
0.0027531902
0.0029960488
0.0031601355
0.0031966324
0.0031002176
0.0028928457
0.0026129792
0.0023042838
0.0020064414
0.0017492397
0.0015501738
0.0014149248
0.001339995
0.0013161985
0.0013316455
0.0013744695
0.0014341227
0.0015020897
0.0015725782
0.0016403454
0.0017052024
0.0017605602
0.0017802062
0.0014105223
0.001122854
0.00092612609
0.00080473749
0.00069549249
0.0004604462
0.00015922743
0.0022380464
0.0028141013
0.0035398704
0.0043917585
0.0051967124
0.005822833
0.0062452538
0.00643044
0.0062413312
0.0060307781
0.0053389633
0.0045200483
0.003701397
0.0030793062
0.0027849721
0.0028214153
0.0030486612
0.0033230592
0.0035516978
0.0036463961
0.0035854409
0.0033841352
0.0030807384
0.002723701
0.0023607074
0.0020305138
0.0017589652
0.0015582125
0.0014287161
0.00136277
0.0013482561
0.0013716267
0.0014203474
0.0014837941
0.0015538171
0.0016249809
0.0016926371
0.0017567946
0.0018116061
0.0021992746
0.0018033384
0.0014845611
0.0012335734
0.0010590702
0.00094542013
0.000825587
0.00053969635
0.00018773541
0.0027055707
0.0033645954
0.0041733512
0.0050643609
0.0058637994
0.0064445012
0.0067881076
0.0068540446
0.0064908795
0.0061180353
0.0052667809
0.004390857
0.0036484995
0.0032171369
0.0031563547
0.0033768555
0.0036860275
0.0039760186
0.0041426578
0.0041327161
0.0039509797
0.003633339
0.0032318236
0.0028018037
0.0023917669
0.0020371938
0.0017583341
0.0015612126
0.0014410045
0.0013860278
0.0013816451
0.0014130908
0.0014674741
0.0015343377
0.0016060121
0.001677493
0.0017447516
0.0018080202
0.0018621452
0.0026673666
0.0022286769
0.0018854593
0.0016043502
0.0013751412
0.0012072728
0.0010877754
0.00095154572
0.00060718694
0.00020931658
0.0032476471
0.003988791
0.0048533824
0.0057739962
0.0065600553
0.0070881333
0.0073318613
0.0072467387
0.0066815932
0.0061353614
0.0051647386
0.004319177
0.0037443187
0.0035614201
0.0037347478
0.0040898456
0.0044384836
0.0046851775
0.0047434036
0.004597457
0.0042777775
0.0038382908
0.0033415748
0.0028461583
0.0023984116
0.0020282808
0.0017492079
0.0015607512
0.0014529116
0.0014104467
0.0014167213
0.0014561658
0.0015158551
0.001585684
0.0016585717
0.0017300066
0.0017966026
0.0018588107
0.0019121116
0.0032062043
0.0027022733
0.0023195205
0.0020139409
0.0017540387
0.0015294024
0.0013544101
0.0012180053
0.0010543087
0.00064960184
0.00022189433
0.003862982
0.0046645868
0.0055824683
0.0065288907
0.0072950621
0.0077540778
0.0078647199
0.007586626
0.0068019727
0.0060982481
0.0050933309
0.00438102
0.0040508555
0.0041443853
0.0045181973
0.0049461604
0.0052752773
0.0054177699
0.0053266666
0.0050203355
0.0045525679
0.0039920292
0.0034075585
0.0028573044
0.0023825801
0.0020060898
0.0017336947
0.0015584187
0.001465477
0.001436621
0.001453768
0.0015009359
0.0015654531
0.0016377344
0.001711378
0.0017824316
0.0018481304
0.0019091045
0.0019614331
0.0038173171
0.0032441614
0.0028018255
0.0024573214
0.0021702739
0.001912154
0.0016781381
0.0014776291
0.0013087976
0.0011149117
0.00066333757
0.00022704321
0.0045337795
0.0053937181
0.0063665044
0.0073395273
0.0080706786
0.0084289295
0.0083584806
0.0078578255
0.006850464
0.0060544448
0.0051328572
0.0046492111
0.0046193262
0.0049814934
0.0054890027
0.0059169109
0.0061550443
0.0061398154
0.0058661676
0.0053834298
0.0047652123
0.0040903344
0.0034295821
0.0028371815
0.0023470479
0.0019733352
0.0017139746
0.0015557421
0.0014796431
0.0014650615
0.0014929933
0.0015474253
0.0016161838
0.0016903636
0.0017643395
0.0018347218
0.001899275
0.0019588076
0.0020123919
0.0044866478
0.0038579562
0.0033516338
0.0029493981
0.0026202809
0.0023312897
0.0020573026
0.0017853838
0.0015476619
0.001347827
0.0011294615
0.00066119065
0.00022257194
0.0052599852
0.0061815735
0.0072175499
0.0082122044
0.0088775452
0.00908627
0.0087869169
0.0080499926
0.006856165
0.0060932299
0.0053650981
0.0051876286
0.005486224
0.0060583015
0.0066064748
0.0069577143
0.00703646
0.0068184306
0.0063384424
0.0056725738
0.0049089925
0.004131752
0.0034093446
0.0027889482
0.0022951791
0.0019329122
0.0016921944
0.001554144
0.001496247
0.0014961745
0.0015345163
0.0015955806
0.0016679252
0.0017434842
0.0018174265
0.0018868181
0.0019498978
0.0020098269
0.002066145
0.0052123087
0.0045327103
0.0039735244
0.0035087321
0.0031192969
0.0027840776
0.0024671807
0.0021405346
0.0018245906
0.0015584553
0.0013378113
0.0011236304
0.00063963988
0.00021172047
0.0060465623
0.0070400836
0.0081454005
0.0091409587
0.0096898091
0.0096906115
0.0091331628
0.0081707067
0.0068976393
0.0063026881
0.0058641607
0.0060540355
0.006650562
0.0073299385
0.0078227531
0.0080173345
0.0078782522
0.0074232672
0.0067244893
0.0058778202
0.0049807738
0.0041174644
0.0033502782
0.0027166686
0.0022307234
0.0018877516
0.0016704102
0.001554914
0.0015159839
0.0015302386
0.0015783501
0.0016453035
0.0017206092
0.00179709
0.001870577
0.0019385054
0.0020016067
0.0020634757
0.0021212409
0.0059981494
0.0052643133
0.0046585881
0.0041396787
0.0036842987
0.0032868243
0.0029041169
0.0025221459
0.0021410545
0.0018012513
0.0015183055
0.0013149658
0.0010820704
0.00060534963
0.00019529078
0.0069054394
0.0079804294
0.0091457166
0.010102723
0.010471552
0.010212683
0.0093974228
0.0082796188
0.007065714
0.0067696367
0.0067040121
0.0072731044
0.0080677161
0.0087316595
0.0090781168
0.009043907
0.0086404582
0.0079291079
0.0070101386
0.0059936492
0.0049807623
0.0040509998
0.0032571491
0.0026250524
0.002157579
0.001840719
0.0016505369
0.0015591545
0.0015393537
0.0015673741
0.0016244545
0.0016965598
0.0017742568
0.0018511044
0.0019234823
0.0019910906
0.0020559563
0.0021187066
0.0021776733
0.0068563886
0.0060550756
0.0054003534
0.0048343794
0.0043188458
0.0038499266
0.0033845727
0.002926359
0.0024810623
0.0020779553
0.0017213964
0.0014738302
0.0012520425
0.0010213609
0.0005555362
0.00017485222
0.0078485458
0.0089991477
0.010197628
0.011056754
0.011181479
0.010642656
0.0096063378
0.0084564801
0.007453743
0.007577089
0.0079307908
0.0088138709
0.009663257
0.010196217
0.010311789
0.0099887691
0.009291325
0.0083169883
0.0071867547
0.0060188439
0.0049123013
0.0039377614
0.0031357199
0.002519159
0.0020796407
0.0017945412
0.0016342468
0.0015677134
0.0015666591
0.0016076446
0.0016728557
0.0017494045
0.001828766
0.0019051111
0.0019771953
0.0020464641
0.0021121284
0.0021755142
0.0022354255
0.0077994017
0.0069183141
0.0061998802
0.0055841097
0.0050162943
0.0044815875
0.0039234022
0.0033678709
0.0028429159
0.0023752623
0.0019517348
0.0016470139
0.0013820995
0.0011706208
0.00093890414
0.00049229676
0.00015303081
0.0088728373
0.010077487
0.011263167
0.011949691
0.011796723
0.010992796
0.0098315471
0.0088001392
0.0081487873
0.0087879274
0.0095414918
0.010592846
0.011349731
0.011657307
0.011463558
0.010811749
0.0098060775
0.0085742517
0.0072510058
0.0059561501
0.0047812822
0.0037846301
0.0029923706
0.0024041548
0.0020006711
0.0017516705
0.0016228696
0.0015811783
0.0015981383
0.0016511833
0.0017236507
0.0018036974
0.0018835958
0.0019599586
0.0020340101
0.00210393
0.0021701524
0.0022338644
0.0022944773
0.0088233525
0.0078676822
0.0070716426
0.0063885442
0.0057664493
0.0051675137
0.004520782
0.0038595851
0.0032384391
0.0026918573
0.0021999962
0.0018417974
0.0015164035
0.0012733013
0.0010665764
0.00083683116
0.00041912754
0.00013144928
0.0099578608
0.011175904
0.012284233
0.012743469
0.012314857
0.011317087
0.010161737
0.0093980936
0.0092288536
0.010424616
0.011460235
0.01250032
0.013043363
0.013043441
0.012484003
0.011480431
0.010167433
0.0086948833
0.0072046905
0.0058117372
0.0045957002
0.0035994721
0.0028338002
0.0022851088
0.0019241219
0.0017141117
0.0016174018
0.001600044
0.0016341049
0.0016981431
0.0017766471
0.0018587612
0.0019394493
0.002018416
0.0020932106
0.002163578
0.0022299697
0.0022937273
0.002354801
0.0099024973
0.008897006
0.0080310865
0.0072639613
0.0065668706
0.0058926967
0.0051649384
0.0044002072
0.0036793193
0.0030381622
0.0024640214
0.0020534895
0.0016672117
0.0013719069
0.0011424118
0.00094525251
0.00071780863
0.00034318673
0.00011112881
0.011061999
0.012250945
0.013216198
0.013427002
0.012773852
0.011699556
0.010685769
0.01033528
0.010732009
0.01243055
0.013560455
0.01443591
0.014674734
0.014291593
0.013336061
0.011972463
0.010365662
0.0086790289
0.007053853
0.0055946204
0.0043650588
0.0033907505
0.0026667007
0.0021667411
0.001852912
0.0016834443
0.0016187446
0.0016248659
0.001674786
0.0017482552
0.0018310194
0.001915258
0.0019996506
0.0020795871
0.0021549806
0.0022253173
0.0022915449
0.0023550555
0.002416367
0.010993977
0.0099724169
0.0090686909
0.0082272296
0.007433875
0.0066590668
0.0058376918
0.0049785229
0.0041616424
0.0034237753
0.0027549231
0.002280123
0.0018317142
0.001481412
0.0012073858
0.00099683139
0.00080900978
0.00059142164
0.00027033578
9.2204533e-05
0.012142889
0.013258825
0.014038876
0.014025104
0.013249435
0.012209305
0.01149246
0.011669345
0.012630006
0.014677139
0.015720329
0.016314779
0.016172743
0.015354408
0.013988837
0.012272986
0.010398406
0.0085320767
0.0068083488
0.0053159701
0.0040998242
0.0031670983
0.002497368
0.0020531431
0.0017894464
0.0016611432
0.0016278421
0.0016559967
0.0017198075
0.0018005495
0.0018875091
0.001977141
0.0020629527
0.0021437948
0.0022191984
0.0022891158
0.0023548161
0.0024178012
0.0024791384
0.012061226
0.011055248
0.010142901
0.0092638349
0.0083901039
0.0074853522
0.0065390885
0.0055758466
0.0046690046
0.0038421438
0.0030771675
0.0025312201
0.0020090208
0.0016019555
0.0012775117
0.0010317285
0.00084074669
0.00066729569
0.00047024713
0.00020466059
7.5127852e-05
0.013158657
0.014161086
0.01476345
0.014605398
0.013801921
0.012930895
0.012653157
0.013390532
0.014826143
0.017021401
0.01783855
0.018064176
0.017475785
0.016198736
0.014420751
0.012376647
0.010269731
0.0082643602
0.006480951
0.0049884862
0.0038108854
0.0029367826
0.0023314128
0.0019478592
0.0017360101
0.0016486791
0.0016451892
0.0016929374
0.0017680718
0.0018560316
0.0019507849
0.0020425871
0.0021298671
0.0022108899
0.0022858326
0.002354897
0.002419719
0.0024819025
0.0025430754
0.01306376
0.012111224
0.011218709
0.010324756
0.0094139784
0.0083911627
0.007286483
0.0061929424
0.0051854228
0.0042782608
0.0034249078
0.0028096874
0.0022076895
0.0017330577
0.0013577458
0.0010667355
0.00085116789
0.00068325217
0.00053246033
0.00035988023
0.00014947357
6.0040836e-05
0.014070498
0.014961292
0.015452177
0.015233048
0.014498474
0.013952483
0.014168024
0.015429502
0.017181707
0.0193463
0.019830503
0.019628029
0.018539231
0.016798587
0.014623244
0.01228545
0.0099899002
0.0078900841
0.0060867029
0.0046256501
0.0035088805
0.0027073069
0.0021738488
0.001854295
0.0016947945
0.0016467715
0.0016701024
0.001734506
0.0018210758
0.0019201574
0.0020182056
0.0021123624
0.0022002041
0.0022808381
0.0023548034
0.0024225819
0.0024861735
0.0025472949
0.0026081298
0.013961229
0.013096927
0.012264294
0.011379143
0.010449634
0.009349886
0.0080977333
0.0068473524
0.0057114675
0.0047148655
0.0037801651
0.0031086163
0.0024284407
0.0018829673
0.0014469109
0.0011111577
0.00085894813
0.00067626163
0.00053756633
0.00041032668
0.0002663209
0.00010651254
4.6737472e-05
0.014878581
0.015712737
0.016170641
0.015957563
0.015430902
0.015277926
0.015976709
0.017678848
0.019570475
0.021555218
0.021640967
0.020951863
0.019336717
0.017135384
0.014594788
0.01200874
0.0095741949
0.0074266092
0.0056419653
0.0042408497
0.0032036571
0.0024855585
0.0020295445
0.001775595
0.0016668117
0.0016546077
0.0017014084
0.0017829875
0.0018851333
0.0019891705
0.0020908624
0.0021862182
0.0022739356
0.0023535526
0.0024260172
0.0024920768
0.0025540912
0.0026139013
0.0026742662
0.01475581
0.013973396
0.013231759
0.012400246
0.011463158
0.010300685
0.0089379928
0.0075470971
0.0062626008
0.0051506272
0.0041249734
0.0034098501
0.0026636279
0.0020512425
0.0015521445
0.0011636717
0.00087502207
0.0006645561
0.00051861133
0.00040966271
0.00030792321
0.00019479588
7.4842946e-05
3.4817404e-05
0.015633325
0.016481895
0.016965006
0.016861247
0.016620375
0.016855593
0.01800499
0.020031558
0.021889378
0.023587243
0.023225685
0.021993823
0.019855191
0.017205461
0.014343077
0.011562352
0.0090421037
0.0068933811
0.005163341
0.0038467857
0.0029044452
0.0022782841
0.0019029252
0.0017131665
0.0016511102
0.0016711484
0.0017425716
0.0018456035
0.0019550579
0.0020645729
0.0021684237
0.0022641418
0.0023509657
0.0024289324
0.0024993675
0.0025632708
0.0026233691
0.0026816588
0.0027414294
0.01549266
0.01474789
0.014091529
0.013343853
0.012429228
0.011213595
0.0097503391
0.0082604839
0.006844342
0.0056013947
0.004461216
0.0036973599
0.0028970855
0.0022306354
0.0016733093
0.0012303285
0.00089883633
0.00066023612
0.00049399991
0.00038601725
0.00030616056
0.00022979513
0.00014278047
5.2414783e-05
2.5246645e-05
0.01639991
0.017317872
0.017903691
0.017972914
0.018009187
0.018614421
0.020176513
0.022380395
0.024065337
0.025401017
0.024543975
0.022726471
0.020078799
0.017009635
0.013883671
0.010967253
0.0084161595
0.0063105426
0.0046668329
0.0034556042
0.0026203869
0.0020915553
0.0017959611
0.001665939
0.0016470103
0.0017012409
0.0018017515
0.0019153886
0.0020328532
0.0021459187
0.0022509004
0.0023460269
0.002431188
0.0025068593
0.002574721
0.002636038
0.0026939269
0.002750485
0.002809564
0.016239881
0.015461829
0.01485017
0.014182063
0.013309526
0.012068224
0.010512794
0.0089296011
0.0074220062
0.006069325
0.004801612
0.0039704326
0.0031127472
0.0024051721
0.0018034075
0.0013108392
0.00093535971
0.0006641397
0.00047680305
0.00035720996
0.00028394228
0.00022986518
0.00017315307
0.00010491763
3.6913036e-05
1.7383872e-05
0.01723594
0.018283546
0.019015072
0.019233045
0.019511712
0.020495602
0.022402436
0.024644871
0.026053782
0.026974432
0.025553986
0.023129662
0.019989999
0.016562017
0.013237479
0.010248557
0.0077203022
0.0056979865
0.0041681738
0.0030794642
0.0023596229
0.0019281415
0.0017074867
0.001633855
0.0016611152
0.0017541626
0.0018698593
0.0019949554
0.0021179183
0.0022332516
0.0023381721
0.0024317626
0.0025144732
0.0025871828
0.0026519302
0.0027102792
0.0027656589
0.0028202911
0.0028786092
0.017066458
0.016181213
0.015542604
0.01492213
0.014087964
0.012836245
0.01121163
0.0095465555
0.0079510736
0.0065209064
0.0051440224
0.0042402828
0.0033114048
0.0025613876
0.0019283314
0.0013992829
0.00098404063
0.00068070047
0.00046917187
0.0003355049
0.00025738447
0.0002124482
0.00017587959
0.00013210029
7.7753319e-05
2.6400894e-05
1.1347079e-05
0.018201575
0.019406599
0.020243679
0.020550566
0.021078238
0.022457551
0.024599705
0.026772067
0.027828005
0.028290025
0.026202071
0.023193204
0.019598334
0.015883951
0.012431446
0.0094339692
0.0069787336
0.005075666
0.0036832887
0.0027290998
0.002125967
0.0017868282
0.0016384123
0.0016255346
0.0017039052
0.0018184149
0.0019502225
0.0020834972
0.0022103346
0.0023264314
0.0024301229
0.0025212098
0.0026006565
0.0026697331
0.0027308856
0.0027858721
0.0028384449
0.0028909793
0.0029485025
0.018033898
0.016980642
0.016234137
0.01559483
0.014767636
0.013504737
0.011836154
0.010099162
0.0084270293
0.0069255707
0.0054624285
0.0045057712
0.0035020907
0.0027000145
0.0020355992
0.0014832202