/*--------------------------------*- C++ -*----------------------------------*\
| =========                 |                                                 |
| \\      /  F ield         | OpenFOAM: The Open Source CFD Toolbox           |
|  \\    /   O peration     | Version:  5.0                                   |
|   \\  /    A nd           | Web:      www.OpenFOAM.org                      |
|    \\/     M anipulation  |                                                 |
\*---------------------------------------------------------------------------*/
FoamFile
{
    version     2.0;
    format      ascii;
    class       volVectorField;
    location    "280";
    object      U;
}
// * * * * * * * * * * * * * * * * * * * * * * * * * * * * * * * * * * * * * //

dimensions      [0 1 -1 0 0 0 0];

internalField   nonuniform List<vector> 
9200
(
(1.0389651 0.00074472958 -1.7223597e-24)
(1.0391475 0.0023760928 8.1482088e-22)
(1.0367222 0.00074537164 0)
(1.0394328 0.0037834807 -4.3102441e-22)
(1.0368783 0.0023997818 7.1158212e-22)
(1.0357343 0.00073287372 0)
(1.039826 0.0051884891 -4.3239695e-23)
(1.0371478 0.0038271215 1.0054423e-23)
(1.0358765 0.0023728238 0)
(1.0342906 0.00070344986 0)
(1.0402796 0.0064766841 8.9258074e-22)
(1.0375079 0.0052609598 6.6695949e-22)
(1.036128 0.0037889351 4.0341949e-22)
(1.0344092 0.0022888142 2.4604592e-23)
(1.0331843 0.00066779401 2.3512575e-25)
(1.0407933 0.0076845 8.5481886e-22)
(1.0379509 0.0065960791 -2.9506842e-23)
(1.0364615 0.005216304 1.3464143e-21)
(1.0346329 0.0036575387 5.527881e-22)
(1.033287 0.0021755484 1.7562458e-23)
(1.0320924 0.00063103241 -1.0349032e-21)
(1.0413461 0.0087756049 8.950052e-22)
(1.0384879 0.0078798127 9.6732837e-22)
(1.0368672 0.0065631689 -8.0914612e-22)
(1.0349159 0.0050363553 -5.962608e-23)
(1.0334911 0.003474963 4.9759135e-22)
(1.0321823 0.0020500683 5.0526875e-22)
(1.031128 0.00060138685 8.8818813e-23)
(1.0419557 0.0097164518 4.6525859e-22)
(1.0391327 0.0091007707 8.1099955e-22)
(1.0373549 0.0078872852 9.7003557e-22)
(1.0352471 0.0063479499 5.7496234e-23)
(1.0337412 0.004774348 -1.2795792e-21)
(1.0323712 0.0032706765 -5.683106e-22)
(1.0312135 0.0019390377 -5.836278e-22)
(1.0302325 0.00058028042 9.6320387e-22)
(1.0426346 0.01046425 -1.2034402e-21)
(1.0399254 0.01024025 8.3504796e-22)
(1.0379282 0.0092042736 5.712493e-23)
(1.0356176 0.0076505138 4.5932155e-22)
(1.0340214 0.0060037768 1.304968e-22)
(1.032599 0.0044752402 -1.903735e-21)
(1.0313971 0.0030905609 1.6963101e-22)
(1.0303196 0.001853464 -9.930719e-22)
(1.0294025 0.00056518831 -2.0455755e-21)
(1.0433507 0.011001126 9.5144543e-22)
(1.0409266 0.011326941 -3.0780586e-22)
(1.0385979 0.010538497 -5.1817907e-23)
(1.0360003 0.0089776537 -2.2129311e-22)
(1.0343078 0.0072052423 -1.9563627e-22)
(1.0328495 0.0056012297 2.1471531e-22)
(1.0316228 0.0042110248 6.6604549e-22)
(1.0305009 0.0029551543 1.1179723e-21)
(1.0294937 0.0017944194 6.3409571e-22)
(1.0286216 0.00055200004 1.6374732e-22)
(1.0440946 0.011295522 -4.6303116e-22)
(1.0423132 0.012302643 2.2847301e-22)
(1.0393989 0.011969809 6.249839e-22)
(1.0363774 0.010383343 -7.7039254e-22)
(1.0345415 0.0084049892 5.3321131e-22)
(1.0330903 0.0066651699 -1.7174574e-21)
(1.0318781 0.0052477677 6.7658867e-23)
(1.0307317 0.0040176389 1.682794e-21)
(1.0296714 0.0028674841 -8.420469e-22)
(1.0287146 0.0017526069 1.8539381e-21)
(1.0278848 0.00053844339 -2.8077779e-22)
(1.0452238 0.011111486 8.9654705e-23)
(1.0438226 0.013182541 -5.7947342e-22)
(1.0401494 0.013632606 -8.2208046e-22)
(1.0366887 0.011968943 0)
(1.0346792 0.0096387711 3.5652276e-23)
(1.0332591 0.0076763527 -3.1499396e-22)
(1.0321399 0.006196966 -3.4006973e-22)
(1.031002 0.0050014485 -8.2982503e-22)
(1.0299049 0.0039021145 -2.1401667e-22)
(1.0288837 0.0028110823 -1.0678797e-21)
(1.0279744 0.0017153506 -7.2771976e-22)
(1.0271907 0.00052370774 1.6781498e-22)
(1.046766 0.010386501 3.576207e-23)
(1.0457027 0.014351787 -1.9126134e-24)
(1.0408677 0.015604058 0)
(1.0368508 0.013799024 0)
(1.0345926 0.010949391 -1.7161026e-22)
(1.0333105 0.0086252252 -2.1934203e-22)
(1.0323569 0.0070499601 -4.4871898e-22)
(1.031305 0.0058937742 9.7651445e-22)
(1.0301826 0.0048724419 1.0106923e-22)
(1.02911 0.0038363025 2.5412778e-24)
(1.0281304 0.0027625224 1.2017198e-21)
(1.027272 0.0016705656 -1.3018068e-21)
(1.0265417 0.00050639914 2.6871601e-21)
(1.0485736 0.0090539275 -7.9708061e-22)
(1.0483711 0.015684329 2.6738635e-23)
(1.041797 0.017886985 -2.6185553e-22)
(1.03684 0.015923841 5.6390264e-23)
(1.0342189 0.012355176 -3.3306619e-23)
(1.0331592 0.0095142573 -1.5633996e-22)
(1.032498 0.0077655512 2.6730147e-22)
(1.0316076 0.0066801581 1.5666417e-23)
(1.0305181 0.0057657767 1.0893667e-21)
(1.0293816 0.004814974 1.0168689e-21)
(1.0283401 0.0037809149 3.3059783e-22)
(1.027412 0.0026997938 9.5761673e-22)
(1.0266128 0.0016089269 6.521914e-22)
(1.0259426 0.00048427524 -7.3735849e-22)
(1.0507699 0.0072136159 1.2898555e-22)
(1.0518588 0.017230606 9.2268376e-22)
(1.0429662 0.02069403 -3.913861e-22)
(1.0365744 0.018474285 7.3946938e-23)
(1.0334623 0.013913625 -6.9632688e-23)
(1.0327185 0.010282655 2.9109168e-22)
(1.0325006 0.0083070781 2.5387243e-22)
(1.0319021 0.007305869 -3.4147357e-22)
(1.0308974 0.0065722372 -9.4418393e-23)
(1.0297271 0.0057382509 -1.199143e-22)
(1.0285892 0.0047710733 -1.9655183e-23)
(1.0275956 0.0037011739 -1.4420123e-22)
(1.026736 0.0026064363 -1.2309896e-21)
(1.0260045 0.001525334 6.2593734e-22)
(1.0253987 0.00045628505 -5.6551044e-22)
(1.053269 0.0044625577 2.2715304e-21)
(1.0561522 0.018878448 -1.5564516e-21)
(1.0443951 0.024261991 4.9589519e-23)
(1.0359538 0.021650348 3.3983123e-23)
(1.0321307 0.015702909 -1.5572311e-22)
(1.0318265 0.010908164 -4.5198733e-22)
(1.0323667 0.0085836399 -4.153338e-23)
(1.0321862 0.0077004186 3.1732626e-23)
(1.0313423 0.0072364563 -2.1093703e-22)
(1.03015 0.0066089791 -2.5665973e-22)
(1.0289112 0.0057304674 -2.1235575e-21)
(1.0278064 0.0046913691 4.5664535e-22)
(1.0268905 0.0035728886 3.8391136e-22)
(1.0261127 0.0024741527 1.9163922e-22)
(1.0254542 0.00142025 3.8125092e-23)
(1.0249138 0.00042391155 6.2916206e-22)
(1.0561647 0.0013303068 0)
(1.0610715 0.020897244 -1.9238885e-21)
(1.0460128 0.028826769 9.1813247e-22)
(1.0348801 0.025645108 0)
(1.0300428 0.017794904 0)
(1.0303388 0.011373451 0)
(1.0319212 0.0084409631 1.1339197e-22)
(1.0326187 0.0078052937 4.7898386e-22)
(1.0319411 0.0076945145 3.4053153e-22)
(1.0307121 0.0073890118 6.2710912e-22)
(1.0293181 0.0066833871 9.2408586e-23)
(1.0280698 0.0056744016 4.6445952e-22)
(1.0270502 0.0045381098 1.0768529e-24)
(1.0262399 0.0033837465 -4.4000651e-22)
(1.0255518 0.0023045371 -1.2836886e-22)
(1.0249665 0.0012996035 -3.0663728e-22)
(1.024488 0.00039010361 0)
(1.0594712 -0.0026532477 4.7360657e-21)
(1.0663271 0.02302205 5.0973743e-21)
(1.0475412 0.034566573 -1.6680335e-21)
(1.0331509 0.030672757 1.4960392e-21)
(1.0270058 0.020293223 1.3052859e-21)
(1.0280592 0.011619426 0)
(1.031097 0.0078047799 7.687952e-22)
(1.0330066 0.0073630166 -2.1626779e-22)
(1.0327854 0.0078625788 4.4637611e-22)
(1.031529 0.0080343031 3.8485461e-22)
(1.0298888 0.0076296567 -3.782676e-22)
(1.0283885 0.0066955699 1.2273246e-22)
(1.0272338 0.0055105281 7.8095522e-22)
(1.0263495 0.0042933383 -1.4454331e-21)
(1.0256588 0.0031363325 -3.9716399e-22)
(1.0250597 0.0021079111 -2.0648902e-21)
(1.024542 0.0011727814 -8.2107637e-22)
(1.0241181 0.00035761589 -7.9466401e-22)
(1.064997 -0.0067270729 -4.5447465e-22)
(1.073042 0.025523477 3.3134401e-21)
(1.0487967 0.041739293 1.0683376e-21)
(1.0303925 0.036904604 8.6591778e-22)
(1.0227655 0.023296206 -2.5417617e-22)
(1.0247632 0.011596432 -4.5591476e-22)
(1.0297744 0.0065135984 -1.8088682e-21)
(1.0333346 0.0062979621 -8.5880152e-22)
(1.0339729 0.0077401209 -8.3608964e-23)
(1.0325609 0.0085434655 -6.5434532e-22)
(1.03067 0.0086037776 -9.0119551e-23)
(1.0288175 0.0078050879 -8.5370027e-22)
(1.0274126 0.0065475456 1.4746224e-22)
(1.0264484 0.0052053949 1.1799913e-22)
(1.0257314 0.0039620703 1.7854447e-22)
(1.0251575 0.0028474196 3.1205063e-22)
(1.0246375 0.0019000568 -6.8418187e-22)
(1.0241774 0.0010496818 3.1449839e-23)
(1.0237979 0.0003287756 -7.5619336e-22)
(1.0710048 -0.013951674 -3.5209792e-21)
(1.0840224 0.0277569 -6.4008851e-21)
(1.0513194 0.050303288 1.1240334e-20)
(1.0265474 0.044408195 -1.1577695e-21)
(1.0170611 0.026900425 1.1409116e-22)
(1.0201917 0.011236077 -1.8513288e-22)
(1.0278067 0.0043891137 2.4747144e-22)
(1.0336457 0.0043889053 -6.213728e-24)
(1.0355028 0.0070431213 -1.5080785e-23)
(1.0340539 0.0090239111 3.8109438e-22)
(1.0316363 0.0096829798 -1.0970427e-21)
(1.029329 0.0090948212 2.8611438e-22)
(1.0276002 0.0077234278 4.6027133e-22)
(1.0264842 0.0061831391 -4.1013057e-23)
(1.0257639 0.004767106 1.2186867e-22)
(1.0252126 0.0035681103 9.8983038e-22)
(1.0247391 0.0025417709 -2.1316703e-22)
(1.0242815 0.0016979281 1.125012e-21)
(1.023866 0.00093847719 2.9805398e-22)
(1.0235196 0.00030600435 7.9312303e-22)
(1.0772088 -0.020184952 -3.5848595e-22)
(1.0999508 0.030485844 -1.5318777e-20)
(1.0583451 0.060262744 1.3874751e-21)
(1.0230169 0.053350459 5.7950363e-22)
(1.0096312 0.031070461 -1.3290961e-21)
(1.0141068 0.010478159 -1.3026022e-21)
(1.0250257 0.0012259438 2.1931847e-21)
(1.0339342 0.0013956948 1.3311522e-21)
(1.0374991 0.0056257601 3.7101352e-22)
(1.0362292 0.0093018378 0)
(1.0330585 0.010885086 7.4887436e-22)
(1.0299592 0.010639018 2.9237258e-22)
(1.0277425 0.009128307 -6.5039423e-22)
(1.0264325 0.0072827698 1.0061992e-22)
(1.0256907 0.0056122089 -4.391657e-22)
(1.0252126 0.0042369535 7.7538117e-22)
(1.0247986 0.0031472615 1.4976179e-22)
(1.0243997 0.0022448151 -3.4559754e-22)
(1.0239842 0.0015159865 6.7865398e-22)
(1.0235991 0.00084492504 4.9171155e-23)
(1.0232748 0.00029151833 7.6329603e-22)
(1.0763218 -0.027209439 4.9208974e-21)
(1.1074214 0.028993637 -1.8670353e-20)
(1.0714709 0.071511996 -1.1225071e-20)
(1.0226776 0.064140353 1.5902242e-21)
(1.000711 0.036013853 -4.1434354e-21)
(1.0062517 0.0092577357 8.4238365e-23)
(1.0212571 -0.0031800388 0)
(1.0341868 -0.002936393 4.4587249e-22)
(1.0401118 0.0032578447 2.1116187e-22)
(1.0392558 0.0092844674 1.0635525e-21)
(1.0351422 0.01230079 4.0628161e-22)
(1.0308768 0.012521235 5.040732e-23)
(1.0278687 0.01084815 -7.3833174e-23)
(1.0262296 0.0085813179 3.679841e-22)
(1.0254635 0.0065248387 -2.4020851e-22)
(1.0250809 0.0049008149 2.5926528e-22)
(1.0248025 0.0036700233 -9.7915726e-23)
(1.0244839 0.0027373566 6.0787181e-22)
(1.0241299 0.001977441 1.2647273e-22)
(1.0237356 0.0013640796 1.7220663e-23)
(1.0233677 0.00077251593 4.0545888e-22)
(1.0230546 0.00028607191 0)
(1.0692449 -0.035744056 8.7478597e-22)
(1.1077431 0.027845393 1.2241465e-20)
(1.0870466 0.084878304 -5.5660433e-22)
(1.0254561 0.077513066 1.3616577e-21)
(0.99108229 0.042380542 -4.524252e-21)
(0.99625485 0.0075504231 1.8882087e-21)
(1.016341 -0.0090367693 -7.3953165e-22)
(1.034337 -0.0088869103 7.2897756e-22)
(1.0434995 -0.0003011345 -1.1273349e-22)
(1.0433774 0.008835099 -9.3739042e-23)
(1.0381081 0.013995388 -1.9296022e-24)
(1.0321907 0.014945102 -1.9579541e-22)
(1.0279808 0.013040715 -1.0588946e-22)
(1.0258261 0.01017508 1.2547158e-21)
(1.0249945 0.0075607637 8.8829196e-22)
(1.0247634 0.0055633577 6.3423702e-22)
(1.0246703 0.0041381036 -1.3656175e-22)
(1.0245238 0.0031218617 -9.4620105e-22)
(1.0242542 0.0023709165 -3.3995399e-23)
(1.0239162 0.0017536624 3.6497437e-22)
(1.0235255 0.0012469431 0)
(1.0231638 0.0007222973 -9.1737507e-22)
(1.0228513 0.00028764223 -2.6812955e-24)
(1.055011 -0.043952006 -5.7053887e-21)
(1.1041674 0.0263233 3.8787968e-20)
(1.0884077 0.098570556 -2.3201464e-20)
(1.0262824 0.095548435 -4.2240441e-21)
(0.98028646 0.051254281 -7.9297336e-21)
(0.98363518 0.0053493073 0)
(1.0100346 -0.016538567 -2.6135498e-22)
(1.0343188 -0.016741717 9.7857343e-22)
(1.0477524 -0.0053415908 -1.3089223e-21)
(1.0488863 0.0078363484 -1.8810948e-21)
(1.04223 0.016039502 8.9171387e-22)
(1.0340534 0.018119291 3.2884028e-22)
(1.0280889 0.015923679 -2.4989723e-22)
(1.0251304 0.012200486 6.5327208e-22)
(1.0241883 0.0087869094 -7.3460769e-22)
(1.0241586 0.0062442798 -1.433842e-21)
(1.0243547 0.004531829 -2.2566793e-22)
(1.0244436 0.0034076688 -3.2935321e-22)
(1.0243538 0.0026387333 9.5512906e-22)
(1.0240899 0.0020708575 -2.8951494e-22)
(1.0237436 0.0015809543 -7.8304908e-22)
(1.0233442 0.0011651167 8.4931943e-22)
(1.0229801 0.00069265339 -6.4839729e-22)
(1.0226588 0.00029159305 -1.4803564e-24)
(1.0348856 -0.051450239 1.0932879e-22)
(1.0921307 0.027665123 3.5412777e-20)
(1.0717143 0.11210093 -2.5084174e-22)
(1.0189288 0.11557813 1.3869869e-20)
(0.96680408 0.063095183 4.2813336e-21)
(0.96818222 0.0032266137 -8.6160076e-21)
(1.0019249 -0.025923868 -3.4729439e-22)
(1.0340608 -0.026761359 -7.3560582e-22)
(1.0530038 -0.012180604 4.161662e-22)
(1.0560721 0.0061369328 -1.1985484e-21)
(1.04783 0.018534541 8.6801161e-22)
(1.0366177 0.02231657 -3.2506926e-22)
(1.0281923 0.019765332 5.9568518e-22)
(1.0240486 0.014837823 -7.2747827e-23)
(1.0229084 0.010280757 -1.0745212e-21)
(1.0231582 0.0069634646 -2.5810586e-23)
(1.0237588 0.0048347779 -4.9490687e-23)
(1.0242111 0.0035544391 -4.6963363e-22)
(1.0243642 0.0027761443 0)
(1.024263 0.0022514068 -1.0405995e-22)
(1.0239698 0.0018474805 -3.0571784e-23)
(1.0235994 0.0014616575 6.3331407e-23)
(1.0231826 0.00111633 -4.3568161e-23)
(1.0228095 0.00067999457 9.2530291e-22)
(1.022474 0.00029351492 5.2332565e-22)
(1.0115755 -0.058034976 7.6954582e-21)
(1.0748222 0.02887576 -2.2221248e-20)
(1.0494677 0.12619252 -7.5734218e-21)
(1.0030028 0.13467628 -1.7118147e-21)
(0.95253626 0.076740884 9.219941e-21)
(0.95057518 0.0011505484 1.1805421e-21)
(0.9918141 -0.037500628 -4.2695315e-22)
(1.0334664 -0.03921281 8.4472366e-23)
(1.0592572 -0.02113214 -3.2690955e-21)
(1.0652315 0.0034822414 -3.1314967e-22)
(1.0552484 0.021574705 -1.4231938e-21)
(1.0400407 0.02785284 1.6857338e-23)
(1.0282404 0.02488666 -2.1467058e-22)
(1.0224382 0.018303572 -3.4645486e-22)
(1.0209877 0.012143786 -3.5754377e-22)
(1.0216102 0.0077347117 1.4239856e-21)
(1.0227809 0.0050195222 2.1305146e-21)
(1.023747 0.0035180427 6.0383839e-22)
(1.024273 0.0027304477 8.5499823e-22)
(1.0243848 0.0022851934 2.0534972e-23)
(1.0242214 0.0019733168 -1.0000714e-21)
(1.0238759 0.0016981425 -2.4927484e-22)
(1.0234728 0.0013934473 7.0230121e-22)
(1.023032 0.0010961543 -8.154713e-22)
(1.0226462 0.00068028053 7.004366e-22)
(1.0222953 0.00029293199 -3.800771e-23)
(0.98672116 -0.063879818 -2.774214e-22)
(1.05272 0.03014768 -2.6439029e-20)
(1.0278731 0.1400533 3.1112682e-20)
(0.98567073 0.15089578 -1.5796083e-20)
(0.93972012 0.091855187 -1.8440128e-21)
(0.93207921 -0.0012162577 9.7754117e-21)
(0.97994675 -0.051436856 1.5602358e-21)
(1.0321881 -0.054285285 2.022379e-21)
(1.0663685 -0.03238202 7.8872819e-21)
(1.0764389 -0.00035100398 3.3728576e-21)
(1.0647975 0.025254738 -1.7068905e-22)
(1.0444751 0.035102137 2.6115257e-21)
(1.0281853 0.031653553 -1.107482e-21)
(1.0201356 0.022847411 -5.6605509e-22)
(1.018216 0.014487143 -2.940129e-22)
(1.0193287 0.008572424 2.9395275e-22)
(1.0212827 0.0050412473 -2.9679722e-23)
(1.0229741 0.0032342891 8.9330126e-24)
(1.0240259 0.0024394262 2.0384943e-22)
(1.0244639 0.0021171937 5.7828976e-23)
(1.0244584 0.0019493662 0)
(1.0242034 0.0018015195 -3.6873527e-22)
(1.0237928 0.0016126582 -4.1772373e-23)
(1.0233544 0.0013688636 0)
(1.0228868 0.0010986769 1.0008478e-21)
(1.0224865 0.00069052553 3.6547722e-24)
(1.0221204 0.00029341056 -5.1298004e-22)
(0.96100633 -0.06901876 -2.3903948e-21)
(1.0281659 0.031431993 -2.0498612e-21)
(1.0023649 0.15331938 2.5900636e-20)
(0.96432335 0.16622461 -3.5122485e-21)
(0.92479576 0.10525242 -1.1448981e-21)
(0.91358298 -0.0023301029 -1.2612798e-20)
(0.96556125 -0.066857562 -2.2818769e-22)
(1.029628 -0.071875013 9.0820176e-22)
(1.0736511 -0.045785932 -2.6861658e-21)
(1.0891187 -0.0053209275 -7.7879028e-21)
(1.0763704 0.029819643 4.7967456e-21)
(1.049976 0.04450974 -4.9614663e-24)
(1.0279233 0.040477893 -9.802715e-23)
(1.0169173 0.02873472 -4.6827848e-22)
(1.0143548 0.017437289 -9.055999e-22)
(1.0160893 0.0094803907 -2.7881202e-22)
(1.0190988 0.0048403746 -1.4356195e-21)
(1.0217879 0.0026114747 -1.0787027e-21)
(1.0235813 0.0018171373 -4.3457853e-22)
(1.0244744 0.0016783217 -6.9859975e-22)
(1.0247098 0.0017287913 -3.6066565e-22)
(1.0245461 0.0017606677 1.0008614e-22)
(1.0241869 0.0017185459 3.2436527e-23)
(1.0237104 0.0015804905 0)
(1.02324 0.0013770846 0)
(1.0227445 0.0011185255 -7.2887199e-23)
(1.0223266 0.0007092349 9.0379716e-22)
(1.0219478 0.00029836074 9.8382075e-22)
(0.93498899 -0.07355537 0)
(1.0024634 0.032598474 -1.3934756e-20)
(0.97557909 0.16559882 -2.3543891e-20)
(0.93959178 0.18050094 -5.1682075e-21)
(0.90434231 0.11783587 -3.1812588e-22)
(0.89457143 -0.0033036446 1.6045588e-21)
(0.94912437 -0.083710841 -2.4093508e-21)
(1.0251459 -0.091556641 4.3077268e-21)
(1.0801328 -0.061185416 -1.1399391e-20)
(1.1022403 -0.011143234 2.0839997e-21)
(1.0887671 0.035634854 -5.7961903e-22)
(1.0558566 0.056615518 -1.5522435e-21)
(1.0272015 0.051815562 7.6000399e-22)
(1.0124827 0.036254151 -1.0527963e-21)
(1.0091062 0.02111075 -2.9329763e-22)
(1.011639 0.010457418 -1.0168118e-21)
(1.0160319 0.0043329477 -1.498194e-22)
(1.0200668 0.001534851 -3.0534658e-22)
(1.0228817 0.00074251947 -1.1018481e-22)
(1.0244147 0.00087689901 -3.488391e-22)
(1.0249764 0.001247174 -2.4001709e-22)
(1.0249499 0.0015469238 -1.837104e-22)
(1.0246211 0.0016949105 2.5539427e-23)
(1.0241567 0.001697914 8.4030093e-22)
(1.0236304 0.0015918323 2.4960003e-22)
(1.0231284 0.0014089276 -1.107389e-23)
(1.0226023 0.0011520085 -9.605155e-22)
(1.022165 0.00073481943 5.9589942e-22)
(1.0217758 0.00030780196 -1.4718258e-21)
(0.90926762 -0.077375445 2.6063139e-21)
(0.97649649 0.033420418 0)
(0.94838794 0.17702279 0)
(0.91394338 0.19342809 0)
(0.88246556 0.12904239 1.6922877e-21)
(0.87529796 -0.0035634534 4.3130397e-22)
(0.93142306 -0.10153492 -1.491543e-21)
(1.018706 -0.11344837 -3.8799411e-21)
(1.0856947 -0.079002219 -2.5370519e-20)
(1.116122 -0.018184391 3.2877484e-20)
(1.101594 0.043154931 -8.5357642e-21)
(1.0604766 0.072041841 2.0598697e-21)
(1.0250595 0.066141015 2.7077531e-22)
(1.0064142 0.04570666 1.8240091e-21)
(1.0021079 0.025618412 2.170229e-21)
(1.0056902 0.011483857 -1.9528107e-22)
(1.011863 0.0034184235 -1.131243e-21)
(1.0176689 -0.00014076756 2.4712929e-22)
(1.0218636 -0.00093143378 6.8784594e-22)
(1.0242793 -0.0004165182 4.63516e-22)
(1.0252951 0.00042313851 2.2223023e-22)
(1.0254382 0.0011100037 -1.4959172e-22)
(1.0251441 0.0015323897 -3.4709099e-22)
(1.0246619 0.0017152382 2.6395227e-22)
(1.0241176 0.0017157969 2.5745561e-24)
(1.0235542 0.001637009 1.9462882e-22)
(1.0230136 0.0014594285 -7.4610461e-22)
(1.0224578 0.0011946637 1.142045e-24)
(1.0220021 0.00076443411 -2.3073162e-21)
(1.0216033 0.00031935184 -8.8520859e-22)
(0.88200112 -0.081432267 -4.1970163e-21)
(0.95117251 0.035137992 -1.1899714e-20)
(0.92171725 0.18734976 0)
(0.88828683 0.20521942 0)
(0.8597507 0.13860273 0)
(0.85671285 -0.0022196906 0)
(0.91375372 -0.11947551 0)
(1.0098509 -0.13711982 1.1407853e-21)
(1.090367 -0.099850099 9.5413767e-21)
(1.132325 -0.028042988 -4.8950724e-20)
(1.1185634 0.051559534 4.841746e-22)
(1.0657513 0.091065688 -8.8026407e-21)
(1.020192 0.083614648 5.4689921e-21)
(0.9979417 0.057332775 2.5072176e-21)
(0.99293877 0.03103193 -2.8212813e-22)
(0.99792454 0.012516079 5.5882167e-22)
(1.0063541 0.0019747556 -2.646828e-22)
(1.0144351 -0.0025847108 5.2215982e-22)
(1.0204546 -0.0033877596 -5.4920613e-22)
(1.0240691 -0.002358317 -2.0397957e-22)
(1.0257101 -0.00086187297 -2.2647664e-23)
(1.0260785 0.00039331129 -3.7355519e-22)
(1.0257972 0.0012024909 -2.1567447e-23)
(1.0252684 0.0016323425 1.2394515e-22)
(1.0246592 0.0017809384 -1.0835269e-22)
(1.0240609 0.0017832217 -6.2206531e-22)
(1.0234639 0.0017127362 -2.1147619e-22)
(1.0228892 0.0015222658 3.262049e-22)
(1.0223113 0.0012408661 9.9902551e-25)
(1.0218388 0.00079505869 1.6635724e-21)
(1.0214306 0.00033078137 5.7524158e-22)
(0.85319765 -0.085296731 4.9070211e-21)
(0.92421531 0.03551923 -1.3647527e-21)
(0.89651762 0.19647114 -1.5347297e-20)
(0.86346898 0.21580765 -1.9866624e-20)
(0.83719981 0.14706831 0)
(0.83780394 -0.0045538973 0)
(0.89646952 -0.13705848 -1.4290112e-21)
(0.99827703 -0.16135317 -1.0093993e-20)
(1.0907104 -0.12227348 3.6457581e-20)
(1.1486937 -0.041362737 -5.8329573e-20)
(1.1435907 0.058504013 -1.5046786e-21)
(1.0794126 0.11236274 1.4516165e-20)
(1.0158506 0.10444871 5.4790082e-22)
(0.98612104 0.070940346 -2.551826e-22)
(0.98110138 0.037359666 -1.8568541e-21)
(0.9880038 0.013457482 -7.9355295e-23)
(0.99926298 -0.00013936793 2.7055318e-21)
(1.0101947 -0.0059884824 -7.5492566e-23)
(1.0185708 -0.0068377691 -1.3169267e-21)
(1.023787 -0.0051464435 -2.2239408e-22)
(1.026284 -0.0027506346 -6.8633361e-22)
(1.0269543 -0.00069397014 1.584382e-22)
(1.0266678 0.00068394687 -1.3784022e-22)
(1.0260208 0.001446057 -2.9029631e-22)
(1.0253109 0.0017901302 -4.2852333e-23)
(1.0246231 0.0018865207 -2.277503e-22)
(1.0239929 0.0018884284 -1.6864725e-22)
(1.0233617 0.0017945891 -1.7962108e-22)
(1.0227643 0.0015850986 4.4592831e-22)
(1.0221657 0.001286676 -3.2577678e-23)
(1.0216757 0.00082484399 8.0359179e-22)
(1.0212582 0.00034108251 6.0844821e-23)
(0.8240479 -0.089165714 -3.6030866e-21)
(0.89606727 0.036336325 1.2769222e-21)
(0.87077613 0.2051984 1.841198e-20)
(0.84002521 0.22533879 3.6469332e-20)
(0.81563848 0.15433184 0)
(0.81862488 -0.0066805105 0)
(0.87926124 -0.15413902 0)
(0.9843729 -0.18516915 -1.043524e-21)
(1.0851935 -0.144868 -6.0922277e-20)
(1.1541291 -0.056004092 -6.362688e-20)
(1.1690253 0.06316968 -1.9094717e-21)
(1.1043296 0.13418829 4.1247067e-21)
(1.0205048 0.12822547 -1.6195119e-20)
(0.97277163 0.086620311 3.4945677e-21)
(0.96598294 0.044348195 -9.298838e-22)
(0.97561384 0.014167457 0)
(0.99035163 -0.0030951331 7.7733547e-22)
(1.0047767 -0.010553748 -6.3891431e-22)
(1.0161207 -0.011518204 -3.9114993e-22)
(1.0234346 -0.0090075553 1.6919786e-22)
(1.0270958 -0.0054278833 2.110516e-22)
(1.0281827 -0.0022594001 3.0657927e-22)
(1.0278648 -7.3276203e-05 2.4912021e-22)
(1.0270151 0.0011735759 2.0836841e-22)
(1.0260999 0.0017598377 1.2799743e-23)
(1.0252815 0.001974439 -4.9389466e-23)
(1.0245611 0.0020214942 1.7131769e-23)
(1.0239123 0.0019933475 -1.0390261e-23)
(1.0232629 0.00186432 4.6288487e-22)
(1.0226435 0.001645296 3.3700743e-22)
(1.0220201 0.0013315443 1.5010244e-23)
(1.0215131 0.00085298346 -2.2538859e-21)
(1.021087 0.00035010671 8.5448017e-22)
(0.79478475 -0.09247949 -6.7673295e-21)
(0.86516832 0.032590565 0)
(0.84383247 0.21299817 2.2324384e-20)
(0.81689242 0.23470179 6.4919777e-20)
(0.7957101 0.16038926 -1.1577954e-20)
(0.79988167 -0.0088209011 -1.6217512e-21)
(0.86177387 -0.17056655 -3.9649173e-20)
(0.96846478 -0.2078994 1.8654196e-20)
(1.074786 -0.16705738 1.3670828e-20)
(1.151843 -0.070796889 1.547517e-19)
(1.1736831 0.064020015 -5.9549909e-20)
(1.1324917 0.15766692 -4.9112969e-20)
(1.0354468 0.15525674 1.9200457e-21)
(0.96432633 0.10558702 -1.2513271e-21)
(0.94748372 0.051667151 -2.0049094e-21)
(0.96046451 0.014424448 2.9328902e-22)
(0.97941933 -0.0070764364 3.6817664e-22)
(0.99802005 -0.016486508 3.1979256e-22)
(1.0130051 -0.017672181 -1.44833e-22)
(1.0230099 -0.014200161 2.3852635e-23)
(1.0282368 -0.0091086226 3.622569e-22)
(1.0299091 -0.0044471358 1.9768527e-22)
(1.029543 -0.0011250381 -1.6312937e-22)
(1.0283708 0.00081251671 3.0014698e-22)
(1.0271162 0.0017422116 2.0680584e-22)
(1.0260514 0.0020856627 5.4719823e-23)
(1.0251991 0.0021687445 6.746542e-23)
(1.0244804 0.0021538588 2.5089531e-23)
(1.0238252 0.0020812598 1.6605414e-22)
(1.0231609 0.0019380502 -5.1275162e-23)
(1.0225168 0.0017071572 2.2742411e-22)
(1.0218736 0.0013742465 2.0893283e-23)
(1.0213514 0.0008791131 9.1259499e-22)
(1.0209172 0.00035803455 -1.593977e-21)
(0.76674519 -0.095435273 6.4145178e-21)
(0.83140725 0.03176915 -2.2593541e-22)
(0.81598274 0.21970091 -5.7358945e-21)
(0.7942905 0.24438199 -3.7902255e-20)
(0.77619646 0.16771933 6.3135919e-20)
(0.78229519 -0.01278768 7.7657082e-20)
(0.84377871 -0.18555452 6.9269065e-21)
(0.95111635 -0.22926853 0)
(1.0603408 -0.18853834 4.4688518e-20)
(1.1444898 -0.084729311 2.1315906e-19)
(1.172297 0.063939102 5.238248e-21)
(1.1507223 0.18142162 2.4060203e-20)
(1.050345 0.18762422 0)
(0.96375278 0.13030627 3.2699288e-21)
(0.92741698 0.060718725 3.2146868e-21)
(0.94214154 0.013791555 -4.1671048e-22)
(0.96633695 -0.012276943 -2.9470388e-21)
(0.98978973 -0.023969946 0)
(1.0091241 -0.025536805 3.532556e-22)
(1.0224982 -0.020995309 4.6421328e-22)
(1.0298016 -0.014045981 -6.8950677e-23)
(1.0323069 -0.0074295308 3.4374607e-22)
(1.0318945 -0.0025521784 0)
(1.0302571 0.00036816172 1.5121282e-22)
(1.0284727 0.001777611 1.586592e-22)
(1.027004 0.0022881276 -1.3218004e-23)
(1.0259096 0.0023778444 7.2093812e-23)
(1.025087 0.0023357671 -5.2083355e-23)
(1.0243921 0.0022552154 -1.250899e-24)
(1.0237386 0.0021590927 5.2330128e-22)
(1.023059 0.0020073977 -1.00588e-21)
(1.0223928 0.0017621546 -5.8927552e-22)
(1.0217291 0.0014130106 0)
(1.0211914 0.00090316402 -3.5711329e-23)
(1.0207494 0.0003650525 -4.7243588e-22)
(0.74067383 -0.098244822 9.8879735e-21)
(0.79899052 0.031156261 -8.2692412e-21)
(0.78887354 0.22556186 1.5983753e-20)
(0.77237175 0.25297307 -1.136117e-20)
(0.75755879 0.17745117 2.6074448e-20)
(0.76353702 -0.012460582 1.2425016e-20)
(0.82720045 -0.20129123 6.2444956e-20)
(0.9325447 -0.24898123 5.0851611e-21)
(1.0426773 -0.20844378 0)
(1.1310213 -0.097707339 -7.6487172e-20)
(1.1652054 0.066293361 7.1174993e-20)
(1.1413125 0.2031768 -8.4735072e-21)
(1.0537953 0.22241719 1.5085413e-20)
(0.96481947 0.16144531 -4.792493e-21)
(0.90931276 0.073089089 2.3864046e-21)
(0.92014593 0.012472564 1.4763214e-21)
(0.95099864 -0.018952376 -5.1914488e-21)
(0.97999082 -0.033183259 -1.1964674e-21)
(1.0043818 -0.035323273 1.2270711e-21)
(1.0218687 -0.02966941 -8.77395e-22)
(1.0318758 -0.020519921 3.5026505e-22)
(1.0355691 -0.011419804 -3.2501124e-22)
(1.0351551 -0.0044534729 0)
(1.0328858 -0.00016287585 4.7345587e-23)
(1.0303285 0.0019366395 4.2760078e-23)
(1.0282289 0.0026639024 1.481522e-23)
(1.026738 0.0027358068 -1.1308086e-22)
(1.025717 0.0025939475 -3.8545086e-23)
(1.0249655 0.0024485201 -1.6742903e-23)
(1.0243061 0.0023301364 0)
(1.0236571 0.0022272203 -4.09021e-22)
(1.0229615 0.0020657847 -1.0983278e-21)
(1.0222722 0.0018115095 1.6195674e-21)
(1.0215867 0.0014485871 -5.254181e-22)
(1.0210332 0.00092555917 6.9766249e-23)
(1.0205843 0.00037131885 1.6852683e-21)
(0.71707724 -0.10075493 -1.0470778e-20)
(0.76920945 0.029603326 -3.3047426e-22)
(0.76354068 0.23055272 -1.3251369e-20)
(0.75212916 0.26060684 -3.6423042e-22)
(0.74030845 0.18534096 -1.3962536e-19)
(0.74514856 -0.0070983241 -1.0213813e-19)
(0.80709842 -0.21225192 -1.1498283e-21)
(0.91443137 -0.26738327 3.2983861e-20)
(1.0231556 -0.22763518 6.1042824e-21)
(1.1129743 -0.10910907 6.4944267e-20)
(1.150398 0.070481078 5.601462e-22)
(1.1185844 0.22553642 -2.8459401e-20)
(1.0456686 0.25465408 2.5760672e-21)
(0.96425087 0.19452936 -1.191643e-20)
(0.89523887 0.09170033 7.152577e-22)
(0.8948646 0.010034632 0)
(0.93337595 -0.02722773 6.9653428e-22)
(0.9686101 -0.044228827 1.1883184e-21)
(0.9986998 -0.047213257 -5.1270146e-22)
(1.021082 -0.040480364 -3.9415646e-23)
(1.0345306 -0.028832692 3.2679524e-22)
(1.0398939 -0.016669412 1.7412612e-23)
(1.0396019 -0.0069628748 5.9797815e-23)
(1.0365222 -0.00078166211 0)
(1.0328848 0.0022959994 -5.2780035e-22)
(1.0298518 0.0033384537 -6.5233573e-23)
(1.0277354 0.0033567578 -1.5317321e-22)
(1.026385 0.0030382192 1.5848003e-22)
(1.025509 0.0027183921 -6.4072898e-24)
(1.0248509 0.0025108525 1.5402754e-24)
(1.024231 0.0023830157 2.1362617e-22)
(1.0235829 0.0022825189 -3.9629716e-22)
(1.0228679 0.0021185161 1.1055596e-23)
(1.0221524 0.0018579401 1.6479453e-21)
(1.0214451 0.0014817747 -6.4827823e-24)
(1.0208773 0.00094661004 -4.7509167e-23)
(1.0204215 0.00037702886 6.0687849e-22)
(0.696599 -0.10300365 -8.49713e-22)
(0.74217414 0.028596259 2.0175823e-20)
(0.74147594 0.23512365 -2.8669394e-20)
(0.7341596 0.26712993 9.3138136e-21)
(0.72493358 0.19256459 1.0103397e-23)
(0.7286917 -0.0035959675 2.4606569e-22)
(0.78528915 -0.22025691 4.1089907e-20)
(0.8918323 -0.28433392 -1.572669e-21)
(1.0015926 -0.24301988 0)
(1.0912166 -0.12037593 -1.1096399e-20)
(1.1305313 0.074613521 0)
(1.0973043 0.24650694 0)
(1.0301805 0.28306824 -1.8364795e-20)
(0.9606253 0.22611542 7.2159181e-22)
(0.88717117 0.1145093 6.2243721e-22)
(0.87092632 0.011116598 7.2100483e-22)
(0.91275492 -0.038087915 1.0781917e-22)
(0.95586397 -0.057213851 -1.6831419e-21)
(0.99203445 -0.061291912 -5.8999732e-22)
(1.0200835 -0.053642021 -2.669024e-22)
(1.0378083 -0.039280152 -3.8464358e-22)
(1.0454796 -0.02346375 -6.5839015e-22)
(1.0455367 -0.01024716 -5.2998211e-23)
(1.0414894 -0.0015090825 -4.4332692e-22)
(1.0363961 0.0029585948 -1.2035629e-22)
(1.0320346 0.0044584333 3.8667087e-23)
(1.0289815 0.0044005291 1.8265946e-22)
(1.0271022 0.0037917205 -1.3384333e-22)
(1.0260079 0.0031783423 -2.2584179e-24)
(1.0253163 0.0027534802 -2.1323315e-22)
(1.0247577 0.0025309048 -2.0482816e-23)
(1.0241722 0.0024157023 -4.3882703e-23)
(1.0235179 0.0023273603 3.1887657e-22)
(1.0227785 0.002166233 9.8270158e-22)
(1.0220351 0.0019004553 -3.2841331e-21)
(1.0213065 0.0015125279 -6.6625733e-22)
(1.0207238 0.00096684169 -5.9233601e-22)
(1.0202618 0.00038238079 0)
(0.67992364 -0.10504972 2.3878013e-20)
(0.71864256 0.027284527 -1.8412654e-22)
(0.72264841 0.2391002 -1.1806105e-20)
(0.71915646 0.27244894 9.8698294e-21)
(0.71188387 0.19908503 8.9735067e-20)
(0.71452987 -5.8332443e-05 6.6472088e-20)
(0.76423864 -0.22785561 -1.6124604e-21)
(0.86700406 -0.30029998 -6.3275384e-20)
(0.97496798 -0.26139941 -8.8774476e-21)
(1.0657553 -0.12786997 -9.5141702e-20)
(1.1060253 0.078569708 1.251397e-21)
(1.0732591 0.26659155 0)
(1.01032 0.30848644 0)
(0.94965897 0.2542202 1.1832388e-20)
(0.88138439 0.1397399 -6.6750549e-21)
(0.85083574 0.012908836 -5.660984e-21)
(0.88965264 -0.049634455 1.330077e-21)
(0.94145106 -0.072192386 3.6502752e-22)
(0.98432925 -0.077588396 -3.5029868e-22)
(1.018748 -0.069288597 -1.6485236e-21)
(1.0416616 -0.052147239 -1.2197525e-22)
(1.0524715 -0.032127718 -4.2092311e-22)