/*--------------------------------*- C++ -*----------------------------------*\
| =========                 |                                                 |
| \\      /  F ield         | OpenFOAM: The Open Source CFD Toolbox           |
|  \\    /   O peration     | Version:  5.0                                   |
|   \\  /    A nd           | Web:      www.OpenFOAM.org                      |
|    \\/     M anipulation  |                                                 |
\*---------------------------------------------------------------------------*/
FoamFile
{
    version     2.0;
    format      ascii;
    class       volVectorField;
    location    "280";
    object      U_0;
}
// * * * * * * * * * * * * * * * * * * * * * * * * * * * * * * * * * * * * * //

dimensions      [0 1 -1 0 0 0 0];

internalField   nonuniform List<vector> 
9200
(
(1.0389479 0.00074421518 -1.7012736e-24)
(1.0391298 0.0023741892 8.1411026e-22)
(1.0367066 0.0007450986 0)
(1.0394144 0.0037802618 -4.3052462e-22)
(1.0368626 0.0023983497 7.1125333e-22)
(1.0357191 0.00073309622 0)
(1.0398063 0.0051837783 -4.3206453e-23)
(1.0371317 0.0038244327 1.0446377e-23)
(1.0358615 0.0023730575 0)
(1.0342744 0.00070418355 0)
(1.0402575 0.0064702648 8.9067489e-22)
(1.0374913 0.0052565021 6.6445531e-22)
(1.0361131 0.0037890123 4.0324705e-22)
(1.0343933 0.0022908732 2.4601722e-23)
(1.0331668 0.00066865705 2.347884e-25)
(1.0407671 0.0076758966 8.5297694e-22)
(1.0379333 0.0065889283 -3.0467113e-23)
(1.0364469 0.0052158294 1.3457724e-21)
(1.0346171 0.0036607509 5.523561e-22)
(1.0332699 0.002178366 1.7514764e-23)
(1.0320734 0.00063159303 -1.0347184e-21)
(1.0413133 0.0087639639 8.890181e-22)
(1.0384686 0.0078682482 9.6767248e-22)
(1.0368534 0.0065613857 -8.0951581e-22)
(1.0349007 0.0050406793 -5.9518749e-23)
(1.0334741 0.0034796122 4.9786554e-22)
(1.0321632 0.0020523851 5.0540801e-22)
(1.0311082 0.00060140172 8.8912845e-23)
(1.0419128 0.0097006202 4.5519638e-22)
(1.039111 0.0090819287 8.0775465e-22)
(1.037343 0.0078828321 9.6932425e-22)
(1.0352331 0.006353249 5.62686e-23)
(1.0337247 0.0047811838 -1.2806326e-21)
(1.0323519 0.0032746147 -5.6878834e-22)
(1.0311935 0.0019399015 -5.8331936e-22)
(1.0302129 0.00057979808 9.6233092e-22)
(1.0425764 0.010441481 -1.1903824e-21)
(1.0399011 0.010209619 8.3955769e-22)
(1.0379201 0.0091947482 5.4206757e-23)
(1.0356065 0.0076566601 4.6066105e-22)
(1.0340058 0.0060132396 1.2890285e-22)
(1.0325793 0.0044812864 -1.906808e-21)
(1.0313766 0.0030921043 1.6825296e-22)
(1.0302993 0.0018524764 -9.9204121e-22)
(1.0293838 0.00056445257 -2.0427188e-21)
(1.0432701 0.010966753 9.3141904e-22)
(1.0408992 0.011277052 -3.2311836e-22)
(1.0385968 0.010519693 -5.0707425e-23)
(1.0359954 0.0089844263 -2.1318891e-22)
(1.0342945 0.0072184795 -1.9581584e-22)
(1.0328292 0.0056099261 2.1426531e-22)
(1.0316015 0.0042135467 6.6740267e-22)
(1.0304803 0.0029535039 1.1187332e-21)
(1.0294744 0.0017918651 6.3453835e-22)
(1.0286041 0.00055121535 1.6381585e-22)
(1.0439907 0.011247766 -4.5385251e-22)
(1.0422839 0.012222425 2.1090191e-22)
(1.0394116 0.011935475 6.3351587e-22)
(1.0363839 0.010390267 -7.7239659e-22)
(1.0345326 0.0084238655 5.440561e-22)
(1.0330692 0.006677857 -1.7274024e-21)
(1.0318554 0.0052515014 6.81747e-23)
(1.0307103 0.0040151209 1.6840525e-21)
(1.0296522 0.0028630671 -8.4124669e-22)
(1.028697 0.0017492081 1.8521584e-21)
(1.0278688 0.00053769415 -2.7951804e-22)
(1.0450979 0.011031477 9.3255527e-23)
(1.0437941 0.013056837 -5.4419496e-22)
(1.0401881 0.013574454 -8.1862647e-22)
(1.0367169 0.011976924 0)
(1.0346775 0.0096669713 3.5410138e-23)
(1.0332368 0.0076955538 -3.138101e-22)
(1.0321145 0.0062024651 -3.4177314e-22)
(1.0309792 0.0049977446 -8.3155827e-22)
(1.0298853 0.0038952026 -2.1859696e-22)
(1.0288665 0.0028051918 -1.0665741e-21)
(1.0279587 0.001711979 -7.257381e-22)
(1.0271759 0.00052308243 1.6747655e-22)
(1.0466008 0.010255072 4.0884771e-23)
(1.0456872 0.014167767 -2.337884e-23)
(1.0409412 0.015513527 0)
(1.0369073 0.013811108 0)
(1.0345995 0.010992661 -1.7921607e-22)
(1.0332865 0.0086553397 -2.1233746e-22)
(1.032327 0.0070585924 -4.5253732e-22)
(1.0312797 0.0058883548 9.8114646e-22)
(1.0301626 0.0048624528 1.0167244e-22)
(1.0290931 0.0038271925 2.6096656e-24)
(1.0281153 0.0027567418 1.1965653e-21)
(1.0272578 0.0016680535 -1.291971e-21)
(1.0265276 0.00050609116 2.6713179e-21)
(1.0483188 0.0088759139 -8.267644e-22)
(1.048382 0.015418298 3.0723675e-23)
(1.0419223 0.017757495 -2.8460202e-22)
(1.0369341 0.015942861 7.7549584e-23)
(1.0342384 0.012423523 -4.6684499e-23)
(1.033132 0.0095613467 -1.5388491e-22)
(1.0324608 0.0077794328 2.7022163e-22)
(1.0315775 0.0066726262 1.5921683e-23)
(1.0304965 0.0057516067 1.0974391e-21)
(1.0293651 0.0048020426 1.0237849e-21)
(1.0283261 0.0037721473 3.300758e-22)
(1.0273986 0.0026955821 9.5578548e-22)
(1.0265994 0.0016079429 6.5009584e-22)
(1.0259285 0.00048448048 -7.3216039e-22)
(1.0504395 0.0069641208 2.1602145e-22)
(1.0519073 0.016846668 1.0734083e-21)
(1.0431711 0.020513978 -3.834409e-22)
(1.0367254 0.018502772 7.0552435e-23)
(1.0335028 0.014018809 -6.8337735e-23)
(1.0326848 0.010356029 2.8751334e-22)
(1.032451 0.0083311047 2.5796881e-22)
(1.0318639 0.0072961281 -3.4537586e-22)
(1.030872 0.0065525517 -9.7291471e-23)
(1.0297107 0.0057202683 -1.2132329e-22)
(1.0285767 0.0047586756 -1.9643961e-23)
(1.0275838 0.0036949293 -1.48057e-22)
(1.0267235 0.0026049043 -1.2240913e-21)
(1.025991 0.0015262336 6.2060102e-22)
(1.0253839 0.00045702999 -5.6012193e-22)
(1.0528534 0.0041087649 2.3168675e-21)
(1.0562522 0.018334036 -1.648801e-21)
(1.0447112 0.024020155 9.374371e-23)
(1.0361875 0.02169617 -3.0702258e-24)
(1.0321998 0.015860649 -1.3183334e-22)
(1.0317841 0.011023435 -4.8155666e-22)
(1.0322914 0.0086206984 -3.4302747e-23)
(1.032133 0.0076898957 3.2586153e-23)
(1.0313092 0.0072096024 -2.1274282e-22)
(1.0301322 0.0065838929 -2.6684034e-22)
(1.0289007 0.0057130638 -2.1245314e-21)
(1.0277971 0.0046825912 4.4782372e-22)
(1.0268798 0.0035707554 3.815861e-22)
(1.0261001 0.0024758301 1.9238222e-22)
(1.02544 0.0014229607 4.0332066e-23)
(1.0248978 0.00042504271 6.224773e-22)
(1.055675 0.00086387988 0)
(1.0612443 0.020141355 -2.1042522e-21)
(1.0464788 0.028507972 9.0915749e-22)
(1.0352265 0.025719172 0)
(1.0301505 0.018027391 0)
(1.0302814 0.011549763 0)
(1.0318107 0.0085040463 1.1514957e-22)
(1.0325349 0.0077910112 4.8898449e-22)
(1.0318912 0.0076583233 3.5605765e-22)
(1.0306898 0.0073535052 6.310414e-22)
(1.0293101 0.0066584922 9.6375905e-23)
(1.0280645 0.0056619155 4.6472072e-22)
(1.0270427 0.0045353818 2.9374866e-24)
(1.026229 0.0033864945 -4.3749487e-22)
(1.0255382 0.0023092514 -1.2958337e-22)
(1.0249509 0.0013036514 -3.0336696e-22)
(1.0244705 0.00039141607 0)
(1.0588724 -0.0032186909 4.9594115e-21)
(1.0665895 0.022000011 5.4194476e-21)
(1.0482036 0.034155467 -1.8572989e-21)
(1.0336442 0.030789469 1.3929791e-21)
(1.0271655 0.020628923 1.2491521e-21)
(1.0279796 0.011881718 0)
(1.0309372 0.0079054656 7.7359308e-22)
(1.0328721 0.007346793 -2.2708395e-22)
(1.0327213 0.007817459 4.4240119e-22)
(1.0315003 0.0079814818 4.1092485e-22)
(1.0298841 0.0075920496 -3.7976432e-22)
(1.0283899 0.0066773891 1.2786421e-22)
(1.0272312 0.0055067941 7.7299065e-22)
(1.0263413 0.0042976091 -1.4402442e-21)
(1.0256464 0.0031436367 -4.0115804e-22)
(1.0250443 0.002114862 -2.0416202e-21)
(1.0245247 0.0011774663 -8.1269282e-22)
(1.024099 0.00035892087 -7.8366275e-22)
(1.0641471 -0.0074950897 -4.2886838e-22)
(1.0733721 0.024177895 3.5776562e-21)
(1.0496855 0.041225836 1.0843646e-21)
(1.0310654 0.037085091 7.2438295e-22)
(1.0229915 0.023770998 -2.4526553e-22)
(1.0246523 0.011977111 -4.9444734e-22)
(1.0295439 0.0066685734 -1.8700389e-21)
(1.0331344 0.0062803462 -9.1051841e-22)
(1.0338782 0.0076599563 -1.0065246e-22)
(1.0325279 0.0084618096 -6.6526471e-22)
(1.0306739 0.0085430643 -9.6265875e-23)
(1.0288307 0.0077765617 -8.5230491e-22)
(1.0274189 0.0065421385 1.3703619e-22)
(1.0264453 0.0052122325 1.2087607e-22)
(1.0257209 0.0039728425 1.8239547e-22)
(1.0251426 0.0028579774 3.0847549e-22)
(1.02462 0.0019080603 -6.7505775e-22)
(1.0241583 0.0010542932 2.9855632e-23)
(1.0237774 0.00032986092 -7.4386482e-22)
(1.0697861 -0.014949372 -3.594111e-21)
(1.0843492 0.02604479 -6.9675121e-21)
(1.0524392 0.049675994 1.1419242e-20)
(1.0274251 0.044678123 -1.0680599e-21)
(1.0173622 0.027553714 6.6109548e-23)
(1.0200381 0.011776011 -2.0778327e-22)
(1.0274781 0.004619243 2.5243876e-22)
(1.0333529 0.0043715196 -2.1672986e-23)
(1.035351 0.006918993 -2.5934335e-23)
(1.0340157 0.0089036148 3.4921827e-22)
(1.0316527 0.0095875056 -1.0987543e-21)
(1.0293622 0.0090495388 2.9133904e-22)
(1.027622 0.007715545 4.6252523e-22)
(1.026489 0.0061933207 -4.1360476e-23)
(1.0257567 0.0047833348 1.2623606e-22)
(1.0251983 0.0035835486 9.7711775e-22)
(1.0247213 0.0025537706 -2.0400012e-22)
(1.0242619 0.0017057283 1.1104474e-21)
(1.0238454 0.00094241955 2.9411587e-22)
(1.0234982 0.00030661595 7.7913428e-22)
(1.0760038 -0.021255594 -3.6409606e-22)
(1.1002144 0.028343838 -1.6366294e-20)
(1.059712 0.059495466 1.3896509e-21)
(1.0241437 0.053724679 3.539311e-22)
(1.0100216 0.031943917 -1.3472417e-21)
(1.013897 0.011226441 -1.2795298e-21)
(1.0245648 0.001557166 2.2210705e-21)
(1.0335136 0.0013813494 1.4808251e-21)
(1.0372663 0.0054430297 4.0101783e-22)
(1.0361762 0.0091175708 0)
(1.0330922 0.010744216 7.4962963e-22)
(1.0300193 0.010571006 3.1130134e-22)
(1.0277871 0.0091178755 -6.4040393e-22)
(1.0264507 0.0072991422 8.3242624e-23)
(1.025689 0.0056365318 -4.3962387e-22)
(1.0251991 0.0042595149 7.6710577e-22)
(1.02478 0.0031647318 1.5594954e-22)
(1.0243791 0.002256427 -3.3719948e-22)
(1.0239628 0.0015225196 6.6580107e-22)
(1.0235774 0.00084774052 4.9289363e-23)
(1.0232527 0.0002914475 7.4842685e-22)
(1.0749358 -0.028552685 4.2839368e-21)
(1.1073596 0.026168723 -1.9026042e-20)
(1.0731564 0.070513434 -1.0740721e-20)
(1.0241764 0.064605426 2.2362766e-21)
(1.0012535 0.037154468 -3.9579388e-21)
(1.0059674 0.010270228 4.7144056e-23)
(1.0206241 -0.0027177744 0)
(1.0335946 -0.0029436034 3.7895385e-22)
(1.0397666 0.0029986977 1.3978617e-22)
(1.0391744 0.009004245 1.0129341e-21)
(1.0352022 0.01209249 4.1605057e-22)
(1.0309796 0.012418797 6.0535982e-23)
(1.0279474 0.010833875 -7.7024533e-23)
(1.026268 0.0086076769 3.6825747e-22)
(1.0254705 0.0065616434 -2.3168041e-22)
(1.0250693 0.0049340494 2.5073706e-22)
(1.0247823 0.0036949437 -9.6868827e-23)
(1.0244611 0.0027540572 5.980261e-22)
(1.0241069 0.0019871637 1.2939711e-22)
(1.023713 0.0013686305 1.7864542e-23)
(1.0233453 0.00077391328 3.9723959e-22)
(1.0230326 0.00028532719 0)
(1.0676622 -0.037326367 6.8424114e-22)
(1.1077192 0.024547142 1.2140277e-20)
(1.0891912 0.083590159 -5.5002419e-22)
(1.0275874 0.078013889 2.3519789e-21)
(0.99195683 0.043867683 -4.5114261e-21)
(0.99588337 0.0088905151 1.860642e-21)
(1.0154913 -0.008408998 -6.3575765e-22)
(1.033523 -0.0088812954 8.2086527e-22)
(1.0430016 -0.0006582368 -9.7711889e-23)
(1.0432503 0.0084195489 -8.2441381e-23)
(1.0382042 0.01368736 -3.4932864e-24)
(1.0323579 0.014792934 -2.2072939e-22)
(1.0281136 0.013020174 -1.0549673e-22)
(1.0258961 0.010216167 1.2787749e-21)
(1.025015 0.0076167085 8.899944e-22)
(1.0247543 0.0056126351 6.2857854e-22)
(1.0246479 0.0041740064 -1.3967285e-22)
(1.0244976 0.003145056 -9.3009638e-22)
(1.0242283 0.0023843719 -3.1744628e-23)
(1.0238916 0.0017604536 3.5743171e-22)
(1.0235021 0.001249178 0)
(1.0231411 0.00072223103 -8.9708239e-22)
(1.0228296 0.00028657803 -2.8241224e-24)
(1.0532446 -0.045820358 -6.7547071e-21)
(1.1043898 0.022389812 3.8467434e-20)
(1.0909446 0.096787998 -2.4742658e-20)
(1.0292714 0.096099696 -4.6443721e-21)
(0.98165214 0.053157868 -6.4810452e-21)
(0.9831864 0.0071046361 0)
(1.0089154 -0.015705178 -2.3276016e-22)
(1.0332266 -0.016715464 9.6602841e-22)
(1.0470516 -0.0058222527 -1.1917735e-21)
(1.0486911 0.0072376638 -1.7015004e-21)
(1.0423749 0.015585388 8.6771561e-22)
(1.0343145 0.017895027 3.1195788e-22)
(1.0283029 0.015894971 -2.3591682e-22)
(1.0252479 0.012264246 6.4893501e-22)
(1.0242289 0.0088717111 -7.2407777e-22)
(1.0241531 0.006317774 -1.4309404e-21)
(1.0243283 0.0045841498 -2.4583615e-22)
(1.0244116 0.0034401728 -3.2345083e-22)
(1.024323 0.0026567523 9.2667281e-22)
(1.024062 0.0020793645 -2.7357549e-22)
(1.0237185 0.0015841981 -7.6295204e-22)
(1.0233206 0.0011650123 8.2706282e-22)
(1.0229574 0.00069133551 -6.3169011e-22)
(1.0226377 0.00029076173 -1.5772768e-24)
(1.0331392 -0.053483518 2.8444235e-22)
(1.0929748 0.023157052 3.5254304e-20)
(1.0747414 0.10980943 1.4416111e-22)
(1.0224061 0.1162095 1.6707221e-20)
(0.96868957 0.065583198 3.3145016e-21)
(0.96766553 0.0055352938 -8.6339174e-21)
(1.0004675 -0.024840243 -3.1533431e-22)
(1.0326256 -0.026702899 -9.0737151e-22)
(1.0520388 -0.012812942 3.9417114e-22)
(1.0557782 0.0052964079 -1.1020529e-21)
(1.0480405 0.017873389 8.4464653e-22)
(1.0370141 0.021989435 -2.978394e-22)
(1.0285253 0.019726411 5.9056777e-22)
(1.024236 0.014936227 -7.4541207e-23)
(1.0229783 0.010408608 -1.0814338e-21)
(1.0231575 0.0070730978 -2.2820597e-23)
(1.0237257 0.0049114398 -5.3135336e-23)
(1.0241695 0.0036005874 -4.6079834e-22)
(1.0243252 0.002800326 0)
(1.0242298 0.002261961 -1.0314459e-22)
(1.0239416 0.0018504882 -3.0128625e-23)
(1.0235744 0.0014611407 6.212099e-23)
(1.0231594 0.0011141018 -4.1103193e-23)
(1.0227874 0.00067777261 9.0185486e-22)
(1.0224534 0.00029322154 5.1016369e-22)
(1.0099762 -0.060207204 8.1665254e-21)
(1.0759274 0.023781926 -2.2172368e-20)
(1.0524908 0.1235653 -8.2961838e-21)
(1.0063266 0.13540285 -2.0766982e-21)
(0.95482426 0.079904366 7.7638293e-21)
(0.94998014 0.0041665387 1.2511462e-21)
(0.98992527 -0.036082679 -3.7840403e-22)
(1.0316174 -0.039111201 9.6588698e-23)
(1.0579499 -0.021938926 -3.0611979e-21)
(1.0648032 0.0023020388 -3.5175778e-22)
(1.0555451 0.020626057 -1.395383e-21)
(1.0406294 0.027382406 1.5447773e-23)
(1.0287411 0.024837064 -2.1993072e-22)
(1.0227251 0.018454803 -3.4706363e-22)
(1.0210991 0.012335299 -3.6529965e-22)
(1.0216158 0.007896991 1.4359029e-21)
(1.0227373 0.005131907 2.163603e-21)
(1.0236901 0.0035840637 5.919093e-22)
(1.0242207 0.0027631637 8.3404299e-22)
(1.0243425 0.0022980259 2.118245e-23)
(1.0241879 0.0019754692 -9.7440166e-22)
(1.0238486 0.0016961316 -2.3729558e-22)
(1.0234486 0.0013894577 6.7928922e-22)
(1.0230096 0.0010922261 -7.919678e-22)
(1.0226249 0.00067747658 6.8181492e-22)
(1.0222753 0.00029293941 -3.7065391e-23)
(0.98533311 -0.066177794 -2.8788358e-22)
(1.0540388 0.024511922 -2.6291247e-20)
(1.0310758 0.137198 3.2011138e-20)
(0.98878826 0.1517106 -1.7802884e-20)
(0.94222469 0.095492277 -2.3915065e-21)
(0.93151068 0.0025720103 9.4455285e-21)
(0.97763545 -0.04967963 1.6049089e-21)
(1.029869 -0.054147203 2.1234386e-21)
(1.064686 -0.03340022 7.389399e-21)
(1.0758467 -0.0019389507 3.4020456e-21)
(1.0652105 0.023909668 -1.4349861e-22)
(1.0453286 0.034438234 2.5767947e-21)
(1.0289129 0.031595813 -1.09923e-21)
(1.0205577 0.023076445 -5.7192128e-22)
(1.0183842 0.014770409 -2.9472986e-22)
(1.0193419 0.0088099455 3.0057138e-22)
(1.0212228 0.0052049529 -4.2610434e-23)
(1.022894 0.003328978 2.53933e-23)
(1.0239528 0.002484166 1.9160868e-22)
(1.024407 0.0021324434 6.3002501e-23)
(1.0244164 0.0019498869 0)
(1.0241715 0.0017958246 -3.5591309e-22)
(1.0237675 0.0016064091 -4.3334589e-23)
(1.0233315 0.0013622143 0)
(1.0228655 0.0010935749 9.7189824e-22)
(1.0224662 0.00068734075 4.0005317e-24)
(1.0221011 0.00029322132 -4.9917612e-22)
(0.95983774 -0.07143118 -2.4926499e-21)
(1.0296441 0.025293642 -2.078037e-21)
(1.0056783 0.15031478 2.5682236e-20)
(0.96748701 0.16710702 -3.6672622e-21)
(0.92734558 0.10918275 -1.2635859e-21)
(0.91316009 0.0023196975 -1.1216063e-20)
(0.96284802 -0.064715136 -2.2055589e-22)
(1.026834 -0.071732 6.758465e-22)
(1.0715829 -0.047077718 -2.5898215e-21)
(1.0883767 -0.0074073474 -7.4389515e-21)
(1.0769809 0.02794807 4.8664278e-21)
(1.0511945 0.043592847 1.5509346e-23)
(1.028955 0.040419015 -8.4864744e-23)
(1.0175196 0.029075761 -4.6876376e-22)
(1.0145985 0.017849692 -9.1695795e-22)
(1.0161112 0.0098231269 -2.7951424e-22)
(1.0190147 0.0050760979 -1.4713851e-21)
(1.0216731 0.0027469325 -1.0566889e-21)
(1.0234767 0.0018787642 -4.291652e-22)
(1.0243946 0.0016962591 -7.1805704e-22)
(1.0246539 0.001725716 -3.4666376e-22)
(1.0245072 0.0017497205 1.0328068e-22)
(1.0241587 0.0017071266 3.1731577e-23)
(1.0236873 0.0015707438 0)
(1.0232185 0.0013687993 0)
(1.0227245 0.0011127101 -7.0828372e-23)
(1.0223075 0.00070581127 8.7775376e-22)
(1.0219291 0.00029774231 9.5685352e-22)
(0.93402735 -0.076069562 0)
(1.0040614 0.025994376 -1.3941388e-20)
(0.97894595 0.16249591 -2.2841259e-20)
(0.94269593 0.18149263 -6.0745923e-21)
(0.90666167 0.12209923 -7.8929784e-22)
(0.89427517 0.0021744025 1.20119e-21)
(0.94604555 -0.081101618 -2.2565308e-21)
(1.0218451 -0.09140172 3.8850639e-21)
(1.077644 -0.062783921 -1.066334e-20)
(1.101349 -0.013859657 1.943658e-21)
(1.0896882 0.033064733 -5.8139292e-22)
(1.0575948 0.055373275 -1.5341931e-21)
(1.0286357 0.051768086 8.3560107e-22)
(1.0133194 0.036751955 -1.0559523e-21)
(1.0094459 0.021699827 -2.9505783e-22)
(1.0116697 0.010943735 -1.0336874e-21)
(1.0159123 0.0046671463 -1.4894102e-22)
(1.0199022 0.0017267865 -3.2167643e-22)
(1.0227304 0.00082800481 -7.8992355e-23)
(1.0243001 0.00089790292 -3.6938851e-22)
(1.0248989 0.0012376688 -2.2898371e-22)
(1.0249 0.0015271894 -1.763357e-22)
(1.0245874 0.0016748073 2.6408184e-23)
(1.0241327 0.001683212 8.0478656e-22)
(1.023609 0.0015795261 2.4349082e-22)
(1.0231086 0.0013997832 -1.1917576e-23)
(1.0225835 0.0011459485 -9.2973811e-22)
(1.0221469 0.00073140423 5.782108e-22)
(1.0217578 0.00030692141 -1.4308156e-21)
(0.90848584 -0.079992579 2.6979946e-21)
(0.97816586 0.026367009 0)
(0.95176267 0.17385998 0)
(0.91695882 0.1945436 0)
(0.88458609 0.13362345 1.6312202e-21)
(0.87490058 0.003105531 0)
(0.92804732 -0.098385987 -1.3758683e-21)
(1.0148601 -0.11324355 -3.7074141e-21)
(1.0826722 -0.080860776 -2.3994687e-20)
(1.1148992 -0.021582289 3.1904591e-20)
(1.1027944 0.039721679 -8.4347182e-21)
(1.062851 0.070431633 2.0443766e-21)
(1.0270042 0.066134284 2.105119e-22)
(1.0075459 0.046419871 1.8332699e-21)
(1.0025647 0.026443772 2.1759366e-21)
(1.0057279 0.012160827 -1.9690071e-22)
(1.0116934 0.0038840523 -1.1559193e-21)
(1.0174342 0.00012753613 2.4195603e-22)
(1.0216456 -0.0008135365 7.1106543e-22)
(1.0241136 -0.00039181312 4.6893688e-22)
(1.0251849 0.00040310423 2.0984356e-22)
(1.0253709 0.0010761309 -1.5391876e-22)
(1.0251032 0.0014996256 -3.2567089e-22)
(1.0246362 0.0016904176 2.4525641e-22)
(1.0240973 0.0016985643 5.8019647e-24)
(1.0235352 0.0016230411 1.8589752e-22)
(1.0229958 0.0014501043 -7.1720178e-22)
(1.0224402 0.0011889642 7.3878799e-26)
(1.0219848 0.00076137059 -2.2380162e-21)
(1.0215859 0.0003185138 -8.6032672e-22)
(0.88140209 -0.084135301 -4.3008968e-21)
(0.9528589 0.027731877 -9.2278563e-21)
(0.92504514 0.184138 0)
(0.8911768 0.20646508 0)
(0.86176449 0.14349656 0)
(0.85627482 0.0051956926 0)
(0.91021552 -0.11571514 0)
(1.0055375 -0.13685556 1.0871601e-21)
(1.0867487 -0.1019107 8.8369951e-21)
(1.1304524 -0.0321118 -4.7446915e-20)
(1.1196811 0.047193069 4.6134696e-22)
(1.0686137 0.089071136 -8.6959363e-21)
(1.0226909 0.083714056 5.6205878e-21)
(0.99941496 0.058340837 2.4454106e-21)
(0.99353031 0.032167459 -2.824509e-22)
(0.99796282 0.013439825 5.6365364e-22)
(1.0061158 0.0026112335 -2.730229e-22)
(1.0141051 -0.0022154901 5.3685766e-22)
(1.020144 -0.0032262014 -5.5022654e-22)
(1.0238301 -0.0023291766 -2.0103619e-22)
(1.0255516 -0.00089797726 -2.1034776e-23)
(1.0259848 0.00033735092 -3.7254894e-22)
(1.0257454 0.0011499322 -2.2161865e-23)
(1.0252393 0.0015920532 1.1544754e-22)
(1.0246407 0.0017544314 -1.1018048e-22)
(1.0240443 0.0017631796 -5.8797383e-22)
(1.0234479 0.0016987699 -2.0239121e-22)
(1.0228729 0.0015138897 3.1353598e-22)
(1.0222944 0.0012360626 9.0123706e-25)
(1.021822 0.00079264296 1.613219e-21)
(1.0214137 0.00033019285 5.5896741e-22)
(0.85267208 -0.088101172 4.9417768e-21)
(0.9258271 0.027641316 -1.1840494e-21)
(0.89978789 0.19317087 -1.4439804e-20)
(0.86620728 0.21718539 -2.0461777e-20)
(0.83906318 0.15225999 0)
(0.83739505 0.0038193613 0)
(0.89283612 -0.13266154 -1.2857051e-21)
(0.99365359 -0.16103782 -9.7743236e-21)
(1.0867355 -0.12460352 3.4343797e-20)
(1.1462769 -0.046095612 -5.6997272e-20)
(1.1442441 0.053078297 -1.3951538e-21)
(1.0824597 0.10997482 1.4704563e-20)
(1.0188363 0.10471483 4.6794899e-22)
(0.98794044 0.072337154 -2.3942152e-22)
(0.98183126 0.038894867 -1.8415317e-21)
(0.9880292 0.014692294 -8.1761745e-23)
(0.99893217 0.00071311443 2.7607637e-21)
(1.0097389 -0.0054891838 -7.7895446e-23)
(1.0181353 -0.0066181321 -1.3640826e-21)
(1.0234463 -0.0051115211 -1.8373585e-22)
(1.0260562 -0.0028101698 -7.0962268e-22)
(1.0268219 -0.00078297147 1.4838914e-22)
(1.0265994 0.00060099996 -1.0653518e-22)
(1.0259878 0.0013824176 -2.8554895e-22)
(1.0252943 0.001747734 -5.5645785e-23)
(1.0246107 0.0018583222 -2.1041171e-22)
(1.0239799 0.0018686155 -1.5894446e-22)
(1.0233475 0.0017835093 -1.7010941e-22)
(1.0227486 0.0015784688 4.2812153e-22)
(1.0221493 0.0012830256 -3.1401874e-23)
(1.0216593 0.00082324269 7.7925962e-22)
(1.0212415 0.00034081398 5.9122988e-23)
(0.82361822 -0.092021229 -3.552574e-21)
(0.89754535 0.028101112 1.0392043e-21)
(0.8739626 0.20180539 1.6873801e-20)
(0.84259773 0.22685332 3.6749404e-20)
(0.81749934 0.15969938 0)
(0.81812852 0.0024876394 0)
(0.87555596 -0.14919033 0)
(0.97962809 -0.1848193 -1.0403266e-21)
(1.0810556 -0.14752046 -5.8682094e-20)
(1.151994 -0.0613315 -6.2438973e-20)
(1.1693192 0.056596891 -1.7278552e-21)
(1.1075841 0.13130471 4.1918128e-21)
(1.0239718 0.12862062 -1.6671323e-20)
(0.97500821 0.088495813 3.7592555e-21)
(0.96682803 0.046373673 -9.5787502e-22)
(0.97560284 0.01578468 0)
(0.98989815 -0.0019778117 7.9311103e-22)
(1.0041594 -0.0098911663 -6.5954119e-22)
(1.0155215 -0.01122325 -4.0196906e-22)
(1.0229564 -0.0089645586 1.7677119e-22)
(1.0267711 -0.0055199957 1.9447032e-22)
(1.0279942 -0.0023961116 3.1603389e-22)
(1.027772 -0.00020153708 2.3463807e-22)
(1.026977 0.0010749417 1.8744428e-22)
(1.0260869 0.0016931983 2.5677125e-23)
(1.025276 0.0019324388 -5.0979712e-23)
(1.0245545 0.0019939619 1.7976255e-23)
(1.0239025 0.0019774616 -9.5475989e-24)
(1.0232497 0.0018555346 4.3869091e-22)
(1.0226286 0.0016403009 3.2326369e-22)
(1.0220041 0.0013291958 1.4632316e-23)
(1.0214969 0.00085226382 -2.186084e-21)
(1.0210703 0.00035014967 8.3082443e-22)
(0.79451813 -0.095405759 -6.623104e-21)
(0.86652817 0.024095564 0)
(0.8468562 0.20946484 1.9621834e-20)
(0.81930148 0.23630519 6.4600196e-20)
(0.79740242 0.1660548 -1.4200638e-20)
(0.79934057 0.00086004663 -1.2964517e-21)
(0.85803171 -0.16511182 -3.9487857e-20)
(0.96375778 -0.20753727 1.7142966e-20)
(1.0705351 -0.17001296 1.3386655e-20)
(1.1496938 -0.076718057 1.4998406e-19)
(1.1736127 0.056187453 -5.861065e-20)
(1.136237 0.15392307 -4.9082852e-20)
(1.0396208 0.15554502 1.8861788e-21)
(0.96731665 0.10794957 -8.7413518e-22)
(0.94847279 0.05427737 -1.9271841e-21)
(0.96037682 0.016493597 3.1311947e-22)
(0.97880644 -0.0056449454 3.7625101e-22)
(0.9972011 -0.015625109 3.1230004e-22)
(1.0121977 -0.017281451 -1.5183816e-22)
(1.0223506 -0.014145436 2.3422122e-23)
(1.0277797 -0.0092440297 3.8087154e-22)
(1.0296414 -0.00465043 1.6320081e-22)
(1.0294146 -0.0013187332 -1.6721917e-22)
(1.028325 0.00066225136 3.1881736e-22)
(1.0271092 0.0016397477 1.8043358e-22)
(1.0260565 0.0020216386 4.4438735e-23)
(1.0252028 0.0021297881 5.5598847e-23)
(1.0244781 0.0021318186 2.6852317e-23)
(1.0238172 0.0020698285 1.5401679e-22)
(1.0231489 0.0019315433 -4.8515379e-23)
(1.0225024 0.0017043069 2.1808047e-22)
(1.0218578 0.0013734098 2.00852e-23)
(1.0213351 0.00087928677 8.8541522e-22)
(1.0209004 0.0003583588 -1.5505478e-21)
(0.76661932 -0.098418041 6.2154669e-21)
(0.83264055 0.023171528 -2.338923e-22)
(0.81878613 0.21593845 -3.4358872e-21)
(0.7965207 0.2459994 -3.7555722e-20)
(0.77774872 0.17362928 6.2613582e-20)
(0.78162512 -0.0025755165 8.1000331e-20)
(0.83998356 -0.17963617 7.0381011e-21)
(0.94649128 -0.22888185 0)
(1.0559974 -0.19174302 4.3950818e-20)
(1.142159 -0.091351636 2.067734e-19)
(1.1723749 0.054897661 5.644751e-21)
(1.1550156 0.17661772 2.4119611e-20)
(1.0556728 0.18764758 0)
(0.96788352 0.13308426 3.2373805e-21)
(0.92882761 0.064049433 2.9953387e-21)
(0.94192508 0.016371009 -4.5777878e-22)
(0.96552201 -0.010483495 -3.0197355e-21)
(0.98872576 -0.02287329 0)
(1.0080595 -0.025026638 3.915157e-22)
(1.0216068 -0.020922918 5.0985435e-22)
(1.0291679 -0.014236473 -1.0199005e-22)
(1.0319298 -0.0077228649 3.603815e-22)
(1.0317153 -0.0028377332 0)
(1.0302003 0.00014333823 1.2487215e-22)
(1.0284751 0.0016235295 1.7386621e-22)
(1.0270253 0.0021926495 -1.4473289e-23)
(1.0259292 0.0023227619 6.2402146e-23)
(1.025097 0.0023058098 -3.8142809e-23)
(1.0243925 0.002240419 -1.4571796e-24)
(1.0237314 0.0021519101 4.8255844e-22)
(1.0230469 0.0020045776 -9.5199797e-22)
(1.0223781 0.0017618413 -5.647555e-22)
(1.021713 0.0014137077 0)
(1.0211749 0.00090418021 -3.4648285e-23)
(1.0207325 0.00036562806 -4.5991119e-22)
(0.74064576 -0.10126645 9.7182862e-21)
(0.80011834 0.022343531 -7.2895341e-21)
(0.7914045 0.22159268 1.7896748e-20)
(0.77433678 0.25462565 -1.0965895e-20)
(0.75893961 0.18363935 2.3952334e-20)
(0.76298918 -0.0018002109 1.2526555e-20)
(0.82346355 -0.1950595 6.3981946e-20)
(0.92800522 -0.2486036 4.8789737e-21)
(1.0383418 -0.21193588 0)
(1.1287439 -0.10506169 -7.4641014e-20)
(1.1661967 0.055977474 7.0929933e-20)
(1.1465588 0.19738199 -8.279163e-21)
(1.0600434 0.22224545 1.5747636e-20)
(0.96979902 0.16464184 -5.2853707e-21)
(0.91157172 0.077398463 2.7101245e-21)
(0.91976666 0.01566457 1.4796929e-21)
(0.9499252 -0.01676444 -5.3647149e-21)
(0.97863717 -0.031815767 -1.3029214e-21)
(1.0030086 -0.034666222 1.2644766e-21)
(1.0206881 -0.029569246 -9.8395944e-22)
(1.0310122 -0.020776502 4.0653116e-22)
(1.0350432 -0.011830964 -3.7372286e-22)
(1.0349047 -0.0048649187 0)
(1.0328132 -0.00049279304 4.003695e-23)
(1.0303451 0.0017083102 4.5980141e-23)
(1.0282747 0.0025227335 2.75179e-23)
(1.0267817 0.0026562646 -1.1467829e-22)
(1.0257465 0.0025529284 -3.9828052e-23)
(1.0249794 0.002429581 -5.1573407e-24)
(1.0243074 0.0023224875 0)
(1.0236498 0.0022249993 -3.7599471e-22)
(1.0229491 0.0020664304 -1.0387278e-21)
(1.0222571 0.0018133949 1.5559916e-21)
(1.0215703 0.0014506852 -5.0900648e-22)
(1.0210164 0.00092733577 6.7557843e-23)
(1.020567 0.0003721107 1.6409873e-21)
(0.71711861 -0.10380496 -1.0280146e-20)
(0.77021241 0.020400004 -3.1907986e-22)
(0.76571115 0.22642621 -1.3936472e-20)
(0.75379066 0.26228281 -4.0217633e-22)
(0.74147995 0.19189321 -1.3825812e-19)
(0.74471521 0.0039629 -1.0981026e-19)
(0.80339606 -0.20550659 -1.089215e-21)
(0.91003514 -0.26706535 3.2500051e-20)
(1.018973 -0.23134422 6.0194207e-21)
(1.1107337 -0.1173668 6.0267278e-20)
(1.1519692 0.05897467 4.5459488e-22)
(1.1240508 0.21889858 -2.9024919e-20)
(1.0518744 0.25434309 2.4230977e-21)
(0.96939194 0.19809983 -1.2356352e-20)
(0.8985183 0.097088207 6.3817897e-22)
(0.89449634 0.01407544 0)
(0.93194048 -0.024584351 8.6206782e-22)
(0.96692106 -0.042561262 1.2820132e-21)
(0.99696369 -0.046380399 -6.2831917e-22)
(1.0195482 -0.040338387 -7.3575202e-23)
(1.0333726 -0.029165297 3.511927e-22)
(1.0391691 -0.017230338 -5.3759439e-23)
(1.0392525 -0.0075425853 1.0285527e-22)
(1.0364268 -0.0012570309 0)
(1.0329221 0.0019627136 -5.1515319e-22)
(1.0299344 0.0031320293 -4.2548219e-23)
(1.0278157 0.0032418221 -1.6634218e-22)
(1.0264442 0.0029809764 1.8290684e-22)
(1.0255442 0.0026939208 -6.6947097e-24)
(1.0248659 0.0025031052 -1.2032571e-23)
(1.0242317 0.0023827201 1.7958279e-22)
(1.0235747 0.0022854033 -3.6857872e-22)
(1.0228546 0.0021223176 1.0095013e-23)
(1.0221367 0.0018619663 1.5840984e-21)
(1.0214282 0.0014851885 -7.6330554e-24)
(1.02086 0.00094903648 -4.6299665e-23)
(1.0204038 0.00037799405 5.9135341e-22)
(0.69668358 -0.10606409 -8.5660691e-22)
(0.74296583 0.019150169 2.0284582e-20)
(0.74329144 0.23090276 -3.0274574e-20)
(0.735497 0.26882924 7.9091458e-21)
(0.72599091 0.19923562 6.1701659e-23)
(0.72838139 0.0079495531 2.0061858e-22)
(0.78169029 -0.21281212 4.1528665e-20)
(0.88753739 -0.28387937 -2.3789207e-21)
(0.99767706 -0.24707861 0)
(1.0888679 -0.12975743 -1.0531493e-20)
(1.1324868 0.062043852 0)
(1.102818 0.23929108 0)
(1.0360659 0.2827661 -1.9246202e-20)
(0.96574114 0.2300239 7.231375e-22)
(0.89128705 0.12099642 7.6929567e-22)
(0.87081234 0.016243706 7.4215474e-22)
(0.91085814 -0.035038429 1.1314784e-22)
(0.95380549 -0.055222524 -1.5324453e-21)
(0.98988635 -0.060252711 -4.6694059e-22)
(1.0181344 -0.053439873 -2.1880364e-22)
(1.0362866 -0.03969428 -4.5641281e-22)
(1.0444944 -0.024208383 -6.0546869e-22)
(1.0450512 -0.011047242 -4.4320421e-23)
(1.0413613 -0.0021821653 -4.4796195e-22)
(1.0364628 0.0024798034 -1.2057133e-22)
(1.0321708 0.0041603246 4.3754344e-23)
(1.0291159 0.0042357071 1.8379521e-22)
(1.0272058 0.0037118112 -1.4634607e-22)
(1.0260753 0.0031466956 -3.0012758e-24)
(1.0253527 0.0027462522 -2.4611417e-22)
(1.0247714 0.0025341956 -1.8456435e-23)
(1.0241711 0.0024226442 -4.0602669e-23)
(1.023508 0.0023349308 2.8785683e-22)
(1.022764 0.0021732151 9.351344e-22)
(1.0220184 0.0019065218 -3.1577278e-21)
(1.0212889 0.0015170572 -6.4393401e-22)
(1.020706 0.00096976708 -5.7570474e-22)
(1.0202436 0.00038346695 0)
(0.68002459 -0.10810772 2.3432906e-20)
(0.71918939 0.017780564 -2.0531076e-22)
(0.72410688 0.23495216 -1.2681981e-20)
(0.72020224 0.27414699 8.1210647e-21)
(0.71282074 0.2058561 8.9059961e-20)
(0.71430779 0.011926734 6.8682359e-20)
(0.76089085 -0.21977643 -1.385469e-21)
(0.86286281 -0.29968894 -6.5359502e-20)
(0.97130189 -0.26551268 -8.720083e-21)
(1.063486 -0.13795639 -1.0159346e-19)
(1.1082499 0.064810143 1.0023359e-21)
(1.0789193 0.25878899 0)
(1.0161299 0.30815818 0)
(0.954767 0.25836315 1.1654652e-20)
(0.88602514 0.14698442 -6.8039875e-21)
(0.85136154 0.019419413 -5.5173554e-21)
(0.88736042 -0.045952234 1.2940948e-21)
(0.93894331 -0.069901849 3.1094714e-22)
(0.98174143 -0.076317826 -1.9979775e-22)
(1.0163285 -0.069002272 -1.6352331e-21)
(1.0397025 -0.0526407 -1.1671124e-22)
(1.0511521 -0.033088085 -4.0149386e-22)