/*--------------------------------*- C++ -*----------------------------------*\
| =========                 |                                                 |
| \\      /  F ield         | OpenFOAM: The Open Source CFD Toolbox           |
|  \\    /   O peration     | Version:  5.0                                   |
|   \\  /    A nd           | Web:      www.OpenFOAM.org                      |
|    \\/     M anipulation  |                                                 |
\*---------------------------------------------------------------------------*/
FoamFile
{
    version     2.0;
    format      ascii;
    class       volVectorField;
    location    "280";
    object      UMean;
}
// * * * * * * * * * * * * * * * * * * * * * * * * * * * * * * * * * * * * * //

dimensions      [0 1 -1 0 0 0 0];

internalField   nonuniform List<vector> 
9200
(
(1.0301656 0.00036642365 -2.468975e-24)
(1.0303696 0.0011721943 3.7727144e-22)
(1.0291359 0.00034708628 0)
(1.0306856 0.0019279283 -2.0518888e-22)
(1.0292942 0.0011196825 3.2680716e-22)
(1.0286657 0.00033497892 0)
(1.0310941 0.002673056 -1.9615884e-23)
(1.0295601 0.0018421658 -1.2462631e-23)
(1.0288148 0.0010712984 0)
(1.0280458 0.00030564246 0)
(1.03157 0.0034585958 4.5467008e-22)
(1.0298844 0.0025379387 3.9178939e-22)
(1.0290565 0.0017655774 1.882965e-22)
(1.0281699 0.00097722746 1.0462452e-23)
(1.027555 0.00028242285 3.2028502e-25)
(1.0320825 0.0042341573 4.2870788e-22)
(1.0302596 0.0032738684 1.0935173e-23)
(1.0293509 0.0024236941 6.5253011e-22)
(1.0283826 0.0016205052 2.8346063e-22)
(1.0276707 0.00088970761 2.722553e-23)
(1.0271329 0.00025224627 -3.6564914e-22)
(1.0325914 0.0050574594 5.5186829e-22)
(1.0306601 0.0039795276 4.6027375e-22)
(1.0296876 0.0031216674 -3.8411429e-22)
(1.0286387 0.0022126803 -3.4706846e-23)
(1.0278627 0.0014828409 1.9710252e-22)
(1.0272362 0.00077976916 2.0528916e-22)
(1.0267531 0.00022352495 4.4044871e-23)
(1.0330668 0.0058900199 4.2208506e-22)
(1.0310597 0.0047184336 4.4766017e-22)
(1.0300448 0.0037795747 5.0702818e-22)
(1.028931 0.0028528799 7.5830279e-23)
(1.0280905 0.0020126646 -5.8190062e-22)
(1.0274087 0.001313381 -2.5674359e-22)
(1.0268494 0.00067023965 -1.5070646e-22)
(1.0264682 0.00019258897 2.5654377e-22)
(1.0334893 0.0067544331 -7.657838e-22)
(1.0314466 0.0054422731 3.5812067e-22)
(1.0303927 0.0044624155 7.2443622e-23)
(1.0292433 0.0034477184 2.0795828e-22)
(1.0283465 0.0025957389 1.6887876e-22)
(1.0276132 0.0017706002 -7.7562735e-22)
(1.0270063 0.001143547 -1.362132e-22)
(1.0265594 0.0005502459 -2.2700036e-22)
(1.0262186 0.00016297952 -4.7295728e-22)
(1.0338099 0.0076215704 6.8222173e-22)
(1.0317918 0.0061749232 3.6594574e-24)
(1.0307123 0.0051195366 -3.9391113e-23)
(1.029549 0.0040712416 -2.5286878e-22)
(1.0286199 0.0031279845 -1.0639644e-22)
(1.0278398 0.0022892905 2.8453434e-22)
(1.027191 0.0015281384 2.5890425e-22)
(1.0267045 0.00095780623 3.5094674e-22)
(1.0263066 0.00043282683 2.1140244e-22)
(1.0260522 0.00013327357 5.1814557e-23)
(1.033963 0.0084763862 -3.0617564e-22)
(1.0320685 0.00688343 2.4369314e-22)
(1.0309877 0.0057750131 2.6753651e-22)
(1.0298399 0.004671943 -3.9839705e-22)
(1.0288852 0.0036871097 7.1680065e-23)
(1.0280813 0.0027531825 -5.862932e-22)
(1.0273921 0.0019813879 9.5054127e-23)
(1.0268752 0.0012633993 4.0599417e-22)
(1.0264419 0.00077577771 -1.6760698e-22)
(1.0261405 0.00031192264 4.1824013e-22)
(1.0259194 0.00010553811 -2.2234774e-23)
(1.0340317 0.0093195968 1.7468806e-23)
(1.0321943 0.0075596471 -4.3700107e-22)
(1.0311985 0.0064082781 -4.4713062e-22)
(1.0301066 0.005270376 0)
(1.0291371 0.0042194612 2.4253888e-23)
(1.028313 0.0032475982 -3.1720548e-22)
(1.0276064 0.0023771212 -1.0076561e-22)
(1.027056 0.0016452408 -2.0150327e-22)
(1.0266015 0.001004183 -3.2130914e-22)
(1.0262706 0.00058774054 -1.9532144e-22)
(1.0260094 0.00019656482 -9.9434031e-23)
(1.0258538 7.9107311e-05 2.8884448e-23)
(1.0339733 0.010142127 2.3653153e-23)
(1.0322263 0.0082275881 3.4276756e-23)
(1.0313087 0.0070197515 0)
(1.0303361 0.0058461667 0)
(1.0293558 0.0047515081 -5.0894354e-23)
(1.0285318 0.0037208546 -3.4139411e-22)
(1.0278061 0.0028050148 6.0761142e-23)
(1.0272478 0.0019677515 3.1815368e-22)
(1.0267654 0.0013151931 4.8771356e-23)
(1.0264252 0.00073537783 3.8268236e-24)
(1.0261363 0.00040790675 5.6404433e-23)
(1.0259494 8.3208075e-05 7.526705e-23)
(1.0258168 5.5311137e-05 6.8110199e-23)
(1.0332535 0.010775248 -2.996604e-22)
(1.0322376 0.0089286536 1.1346705e-23)
(1.0312942 0.0075859047 -1.3015525e-22)
(1.0304696 0.0063865618 4.5402609e-23)
(1.0295355 0.0052687318 -3.204211e-24)
(1.0287241 0.0042006249 -1.3287497e-22)
(1.0279928 0.0032131907 1.2102201e-22)
(1.0274213 0.0023259065 2.2498263e-23)
(1.0269378 0.0015641712 5.0224504e-22)
(1.0265783 0.00097097353 4.7622379e-22)
(1.0262893 0.00047779051 4.1135262e-23)
(1.0260782 0.00023030397 1.3067883e-22)
(1.0259194 -2.1813682e-05 6.4855143e-23)
(1.0258304 3.3927239e-05 1.2006876e-23)
(1.0315535 0.01112317 -3.7713538e-22)
(1.0319973 0.0095941048 4.8564904e-22)
(1.0311898 0.0081145927 -1.6816599e-22)
(1.0304667 0.0068929855 2.1515973e-23)
(1.029644 0.0057710032 -2.9291017e-23)
(1.0288802 0.0046689723 1.8120287e-22)
(1.028151 0.0036315388 1.2723927e-22)
(1.0275777 0.0026676292 -1.5037887e-22)
(1.0270867 0.0018499036 -1.5140865e-22)
(1.0267376 0.0011423754 -7.5367758e-23)
(1.0264356 0.00063940256 -2.5148618e-24)
(1.0262362 0.0002217873 -1.7533272e-22)
(1.0260525 6.5102602e-05 8.3858552e-24)
(1.0259441 -0.00012023931 -5.2681079e-23)
(1.025866 1.5735561e-05 5.0311733e-23)
(1.0288912 0.011205253 7.3430758e-22)
(1.0309697 0.010060343 -7.3918838e-22)
(1.0309917 0.008671879 1.6188091e-22)
(1.0303327 0.0073588589 -1.6268926e-22)
(1.0296364 0.0062472575 6.6045305e-23)
(1.028975 0.005127462 -3.3046348e-22)
(1.0282681 0.0040433134 -1.4766429e-22)
(1.027702 0.0030235642 4.5468381e-23)
(1.0272164 0.0021224185 -5.3337915e-23)
(1.0268674 0.0013518834 -4.504602e-22)
(1.0265856 0.00073341435 -2.8657917e-22)
(1.0263829 0.00030693304 -2.7983471e-22)
(1.0262196 -1.7484738e-05 -2.2423472e-23)
(1.0260871 -9.0780753e-05 5.4860014e-23)
(1.0259923 -0.00020792078 6.8902168e-23)
(1.0259353 7.4903942e-07 -7.6028372e-23)
(1.0254523 0.011157221 0)
(1.0291249 0.010329283 -8.5899417e-22)
(1.0301878 0.0091408518 3.0404873e-22)
(1.0301282 0.0078413131 0)
(1.0294543 0.0066828945 0)
(1.0289727 0.0055669593 0)
(1.0283361 0.0044559365 7.3586581e-23)
(1.0277812 0.0033770895 2.4482966e-22)
(1.0273102 0.0024117683 6.307738e-22)
(1.026972 0.0015493601 1.6332919e-22)
(1.0267004 0.00086418746 1.6567355e-22)
(1.0265312 0.00032016234 6.495092e-23)
(1.0263718 -6.3843517e-06 6.9476305e-23)
(1.0262707 -0.0002452267 2.4597404e-23)
(1.0261475 -0.00023046283 -5.2374461e-23)
(1.0260781 -0.00028534038 4.6310734e-23)
(1.0260196 -1.0642624e-05 0)
(1.0217222 0.01101971 5.8305952e-22)
(1.026343 0.010388477 1.7270812e-21)
(1.0285371 0.0094189267 -1.5101142e-21)
(1.0295244 0.0083267241 -3.2500846e-22)
(1.0291726 0.0071282622 -1.8522486e-22)
(1.0287758 0.0059686484 0)
(1.0283286 0.0048594498 3.0418437e-22)
(1.0278136 0.003738028 -2.2911749e-22)
(1.0273552 0.0027032371 -2.6726947e-22)
(1.0270348 0.001765143 8.566012e-22)
(1.0267858 0.00098412309 -8.7319076e-23)
(1.0266381 0.00036819957 2.1105046e-22)
(1.0265243 -7.2559311e-05 -2.2191084e-22)
(1.0264368 -0.00030814399 2.6923048e-23)
(1.0263519 -0.0004509516 -1.6558677e-22)
(1.0262515 -0.00035491209 4.1528498e-22)
(1.0261803 -0.00035013397 1.2334374e-22)
(1.0261221 -1.8316785e-05 1.554914e-22)
(1.0183582 0.010888846 -7.4156919e-23)
(1.0228206 0.010276925 8.2185862e-22)
(1.0260146 0.009591532 3.8341651e-22)
(1.0281238 0.0086391576 -7.7526917e-22)
(1.0286272 0.0076111443 4.4647225e-23)
(1.0284106 0.0063575484 -3.9040421e-22)
(1.0281344 0.0052340313 -8.0626021e-22)
(1.027788 0.0040981177 -7.6258333e-22)
(1.0273537 0.0030067542 -3.6954683e-22)
(1.0270445 0.0019881733 -3.3649421e-22)
(1.0268239 0.0011232239 -2.1108904e-22)
(1.0267092 0.00040432308 -3.7500803e-23)
(1.0266295 -0.00010842723 -3.9435948e-22)
(1.0266025 -0.00045507361 1.1624831e-22)
(1.0265379 -0.00058400093 1.4305417e-22)
(1.0264849 -0.00063653198 -8.1649964e-23)
(1.0263742 -0.00046002419 1.7867117e-22)
(1.026304 -0.00040212949 -2.8296524e-23)
(1.0262319 -2.2132935e-05 1.7449515e-22)
(1.0148541 0.010744964 -6.8064287e-22)
(1.0194694 0.010098518 -1.0729752e-21)
(1.0227876 0.0096239719 4.2036519e-21)
(1.0258839 0.0088344448 3.5402941e-22)
(1.0274161 0.0079860431 -3.7811139e-22)
(1.0278499 0.006799338 -1.8519877e-22)
(1.0276965 0.0055744691 1.6368866e-23)
(1.0276083 0.0044427711 -2.6716603e-22)
(1.0273025 0.0033156523 -1.4179435e-22)
(1.0270037 0.0022266989 -7.0180995e-22)
(1.026804 0.0012729792 -2.538551e-22)
(1.026725 0.0004587299 2.2790483e-22)
(1.0266937 -0.00015857199 1.3078775e-22)
(1.0267154 -0.00057800349 -1.5951884e-23)
(1.0267241 -0.0008088491 1.610837e-22)
(1.0267001 -0.00083690573 -3.6168041e-22)
(1.0266402 -0.00079541649 2.3283769e-22)
(1.0265238 -0.00054560715 -2.9978688e-22)
(1.0264363 -0.00044022424 -7.1221137e-23)
(1.0263473 -2.2106538e-05 -1.9736206e-22)
(1.0095055 0.010517272 -2.9050569e-23)
(1.0165806 0.010060281 -1.7146442e-21)
(1.0195259 0.0095565258 6.4519463e-24)
(1.0228587 0.0089134355 -1.0597748e-21)
(1.0253893 0.0082477941 -1.1149523e-22)
(1.0267566 0.0071959526 4.0325441e-22)
(1.0270692 0.0059587118 -2.9753845e-22)
(1.0271421 0.0047359472 4.955336e-22)
(1.0271356 0.003622902 5.6955035e-22)
(1.0269148 0.0024773958 0)
(1.0267285 0.001441468 2.0278858e-22)
(1.026676 0.00052687291 6.8671199e-22)
(1.0266946 -0.00019256392 3.2985356e-22)
(1.0267811 -0.00071941769 -6.8952166e-22)
(1.0268531 -0.0010180451 -2.6182057e-23)
(1.0269173 -0.001138153 -2.7937636e-22)
(1.0268905 -0.0010574526 1.7847354e-22)
(1.0268305 -0.00092743779 2.0699627e-22)
(1.0266841 -0.00060963814 -2.6218734e-22)
(1.0265765 -0.0004642052 -6.1669456e-24)
(1.026462 -1.8238612e-05 -1.9783852e-22)
(1.0014003 0.0098352649 1.3140852e-21)
(1.0124379 0.0097079666 -1.6667287e-21)
(1.0166758 0.0094863776 -2.4982043e-21)
(1.0197458 0.0089063236 2.518665e-21)
(1.0225418 0.0084025856 1.3795996e-21)
(1.0248984 0.0074915974 -2.5881584e-22)
(1.0260392 0.0063532118 0)
(1.0264282 0.0050486982 -5.552706e-22)
(1.0266908 0.003881658 -4.5395588e-22)
(1.026744 0.0027384423 -1.4789447e-22)
(1.0266003 0.0016272974 3.5052285e-22)
(1.0265647 0.00061614732 3.2599374e-22)
(1.0266241 -0.00021202172 -1.327534e-22)
(1.0267738 -0.00084970398 2.471246e-23)
(1.02693 -0.0012523717 3.4157045e-22)
(1.0270739 -0.0014342503 -3.2235014e-22)
(1.0271466 -0.0014302185 3.8736981e-23)
(1.0271258 -0.0012455243 -3.0925879e-22)
(1.0270348 -0.0010292184 4.0596694e-23)
(1.0268565 -0.00065167362 4.5353306e-24)
(1.0267172 -0.00047383552 -1.3428712e-22)
(1.0265728 -1.0598101e-05 0)
(0.99117979 0.0091878286 3.3731352e-22)
(1.0047681 0.0091439203 1.1439662e-21)
(1.0132666 0.0093687101 -2.8341201e-23)
(1.0170523 0.0088679181 3.0611437e-21)
(1.0194511 0.0084765243 1.1397649e-21)
(1.0222058 0.0076844845 -7.2474487e-22)
(1.0243078 0.0066664066 5.6731389e-22)
(1.0253913 0.0053973675 -7.9539099e-22)
(1.0259019 0.0041146802 -1.9200459e-22)
(1.0263462 0.002973259 6.6900648e-23)
(1.0264092 0.0018312987 -3.2118212e-23)
(1.0263925 0.00072872141 -8.0776364e-22)
(1.0264829 -0.0002094655 -4.6638491e-24)
(1.0266871 -0.0009666075 1.0976605e-21)
(1.0269253 -0.0014826454 7.0371013e-23)
(1.0271736 -0.001764273 -2.5364133e-22)
(1.0273406 -0.0018100633 -1.0135062e-22)
(1.0274318 -0.0016850664 6.0231742e-22)
(1.0273798 -0.0013959421 5.8992255e-23)
(1.0272578 -0.001100001 -1.980739e-22)
(1.0270313 -0.00067113685 0)
(1.0268551 -0.00046923248 3.1032575e-22)
(1.0266757 7.6001123e-07 6.275682e-24)
(0.97889759 0.0085117854 -1.5004405e-21)
(0.9945052 0.0083331224 3.844798e-21)
(1.0066986 0.008948544 -4.4084757e-21)
(1.014105 0.0088411349 -1.8243151e-21)
(1.0168041 0.0085298597 3.3475973e-21)
(1.0191299 0.0078117017 0)
(1.0217599 0.0068754859 1.2774415e-22)
(1.0237687 0.0056965061 -6.8296371e-22)
(1.0248198 0.0043883677 -3.2849771e-22)
(1.0255486 0.0031390682 5.6753542e-22)
(1.0260555 0.0020373704 9.0488474e-23)
(1.0261618 0.00086622131 -3.5171879e-22)
(1.0262708 -0.0001791783 4.9423138e-22)
(1.0265189 -0.0010620744 -1.3694922e-22)
(1.0268334 -0.0017034398 4.707678e-22)
(1.027183 -0.0020996368 2.1295874e-22)
(1.027475 -0.0022345963 -7.7185778e-22)
(1.0276759 -0.0021456951 2.5465007e-22)
(1.0277432 -0.0018951366 -1.0009859e-21)
(1.0276617 -0.0015073141 4.0400207e-22)
(1.0274857 -0.0011386332 4.9268666e-22)
(1.027206 -0.00066805946 -3.8750894e-22)
(1.0269859 -0.0004507689 2.01818e-22)
(1.0267678 1.5486102e-05 6.1771438e-24)
(0.96491313 0.0077873875 -1.6483783e-24)
(0.98296613 0.0077998821 3.9080636e-21)
(0.997322 0.0081044745 7.5687084e-22)
(1.0084163 0.0086500431 1.2207139e-20)
(1.0142522 0.0086526309 -2.7990313e-21)
(1.0164336 0.0079035021 3.9300739e-21)
(1.0186974 0.0070256291 1.1505225e-22)
(1.0213608 0.0059015231 2.164187e-21)
(1.0232829 0.0046553921 -4.4723717e-22)
(1.0243921 0.0033251513 -1.7273472e-22)
(1.02532 0.0021678392 3.3444301e-22)
(1.0258219 0.001027953 7.5975067e-22)
(1.0259923 -0.00011905769 -1.1514431e-24)
(1.0262685 -0.0011275346 -9.7556434e-23)
(1.0266485 -0.0019066119 -3.2505787e-22)
(1.0270967 -0.0024330365 1.3885744e-22)
(1.0275125 -0.0026762528 -1.4951711e-22)
(1.0278586 -0.0026636738 4.2906128e-22)
(1.0280472 -0.0024305277 0)
(1.0280931 -0.0020582267 5.6559923e-23)
(1.0279522 -0.0015777589 1.9601463e-23)
(1.027718 -0.0011448721 -3.9120674e-23)
(1.0273748 -0.00064287059 1.0689564e-23)
(1.0271063 -0.00041896941 -2.918433e-22)
(1.0268465 3.3506737e-05 -9.7997734e-23)
(0.949839 0.0070549323 1.0198363e-21)
(0.96965571 0.0071804365 -2.6931811e-21)
(0.98579303 0.0074864339 -1.9820449e-21)
(0.99940107 0.0079692163 -1.8021661e-21)
(1.0095891 0.0086059449 -1.1576546e-20)
(1.0140775 0.008078626 -5.3951945e-22)
(1.0159301 0.0071346809 1.1076914e-22)
(1.0183212 0.0060420457 -1.9318066e-22)
(1.0210011 0.0048401757 -1.5213053e-21)
(1.0228815 0.0035408779 2.9941504e-22)
(1.0241149 0.0022688731 -2.0358917e-22)
(1.0251738 0.0011493282 -8.5403656e-23)
(1.0256332 -2.232139e-05 -4.7690392e-22)
(1.0259381 -0.0011588835 -8.4940796e-23)
(1.026369 -0.0020805957 -3.9940779e-22)
(1.0269055 -0.0027552255 4.2218429e-22)
(1.0274467 -0.0031264619 1.1709537e-21)
(1.027939 -0.0032128965 -6.3653215e-22)
(1.0282907 -0.0030373114 -1.0370106e-21)
(1.0284693 -0.0026616016 1.3208285e-23)
(1.0284572 -0.0021713517 1.0491694e-21)
(1.0282539 -0.0016062269 2.8606999e-22)
(1.0279462 -0.0011190968 -4.7578263e-22)
(1.0275343 -0.00059630569 3.5150053e-22)
(1.0272134 -0.00037456891 -1.9740012e-22)
(1.0269098 5.4185819e-05 1.0435262e-23)
(0.93426913 0.0063293364 -4.5418244e-23)
(0.95501233 0.0065791438 -3.3893897e-21)
(0.97266685 0.0067351624 8.5579494e-21)
(0.988324 0.0073591609 -1.0922323e-20)
(1.0013694 0.008156398 1.1656588e-20)
(1.0102758 0.0081845173 -6.5640854e-21)
(1.0136369 0.0073088013 -3.0796839e-21)
(1.0154721 0.0061466495 -2.7891485e-21)
(1.0180099 0.0049582511 3.0337141e-21)
(1.0207121 0.003698328 8.3743426e-22)
(1.0225522 0.0024074889 -9.6391051e-23)
(1.02398 0.0011826108 2.1210612e-22)
(1.0250562 8.1818746e-05 3.4505064e-22)
(1.0255311 -0.001147352 -5.6483548e-22)
(1.0259945 -0.0022194969 -1.5759087e-23)
(1.0266065 -0.0030521123 3.0762454e-22)
(1.0272651 -0.0035748356 -6.2993045e-22)
(1.0279095 -0.0037838297 7.5388851e-22)
(1.0284294 -0.0036910123 -5.8666299e-22)
(1.0287873 -0.0033516326 1.7065742e-22)
(1.0289142 -0.0028340089 0)
(1.0288418 -0.002232102 4.7830871e-22)
(1.0285542 -0.0015930406 2.332919e-23)
(1.0281673 -0.0010620661 0)
(1.027681 -0.00052950278 -4.3024564e-22)
(1.027305 -0.00031848062 -2.5181495e-23)
(1.0269561 7.7359198e-05 4.4615622e-23)
(0.91855731 0.0056750354 -4.1190642e-22)
(0.93977554 0.0060098566 -3.3513197e-22)
(0.95831224 0.0060956179 8.3819666e-21)
(0.97577241 0.0066367402 -1.0358494e-21)
(0.99064506 0.007478739 3.114476e-21)
(1.0028411 0.0079638828 9.3471571e-21)
(1.0105309 0.0074968567 3.7556508e-22)
(1.0131694 0.0062864243 3.6424339e-21)
(1.0150727 0.005035063 -3.9560995e-22)
(1.0177948 0.0037908459 -2.0289511e-21)
(1.0204775 0.0025481755 1.1395832e-21)
(1.0223227 0.0012294237 7.5179006e-24)
(1.0239697 8.6813819e-05 -1.9253911e-22)
(1.0249769 -0.0010967655 -4.8715659e-23)
(1.0255313 -0.0023134678 -7.3940717e-22)
(1.0261972 -0.0033161354 3.9621548e-23)
(1.026963 -0.0040059645 -1.501756e-21)
(1.027754 -0.0043654388 1.326464e-21)
(1.0284537 -0.0043819967 3.9423098e-22)
(1.0290004 -0.0041059187 -5.3464426e-22)
(1.0293183 -0.0035986316 7.1122929e-22)
(1.0293904 -0.0029440302 1.7802115e-23)
(1.0292282 -0.0022409322 -3.9074446e-23)
(1.0288512 -0.0015384991 0)
(1.028376 -0.00097525311 0)
(1.0278119 -0.00044383769 3.6095544e-23)
(1.0273792 -0.00025160874 -1.6594476e-22)
(1.0269843 0.00010251566 -3.4378034e-23)
(0.90303376 0.0050567433 0)
(0.92433136 0.0054531585 -2.2040906e-21)
(0.94340772 0.0054571204 -8.6473263e-21)
(0.96183029 0.0061397605 -7.0147812e-21)
(0.97838223 0.0068674313 -1.3402693e-20)
(0.9926611 0.0072714877 -1.5061674e-21)
(1.0040476 0.0074048459 5.6754996e-21)
(1.0105716 0.0065068437 8.163164e-21)
(1.0127453 0.0051492642 -5.8971134e-21)
(1.0147468 0.0038373289 8.3395326e-22)
(1.017641 0.0026228831 -1.6225382e-22)
(1.0202679 0.0013453976 -3.3583587e-22)
(1.0222471 4.2038561e-05 4.629553e-22)
(1.0240206 -0.0010965194 -1.4016844e-22)
(1.0249559 -0.0023555822 4.2001843e-23)
(1.0256808 -0.0035366245 -8.169964e-22)
(1.0265358 -0.0044104139 1.2819008e-22)
(1.0274658 -0.0049410544 -7.5419335e-22)
(1.0283442 -0.0050989888 1.5470529e-21)
(1.0290963 -0.0049148898 -8.1201633e-22)
(1.0296207 -0.0044462253 6.1312532e-22)
(1.029893 -0.0037734498 4.0550363e-22)
(1.0298742 -0.0029915929 -3.9972919e-24)
(1.0296182 -0.0021966446 -1.3586574e-21)
(1.0291372 -0.0014443096 -3.1787665e-22)
(1.0285692 -0.00086030224 5.5336128e-23)
(1.0279249 -0.00034082836 3.2482951e-22)
(1.0274345 -0.00017534648 -6.5772368e-23)
(1.0269938 0.00012908724 -5.9829766e-23)
(0.8879886 0.0044431169 1.2069043e-21)
(0.9089462 0.0047231649 0)
(0.92819788 0.0046972931 0)
(0.94712984 0.0054219778 0)
(0.96475628 0.0063994182 3.9856706e-21)
(0.98076037 0.0067827979 -1.2326637e-20)
(0.99452722 0.006712134 3.2870396e-22)
(1.0052075 0.0064676277 8.5644055e-23)
(1.010516 0.0053514575 -1.1543426e-20)
(1.012347 0.0039447861 8.1804772e-21)
(1.0144753 0.0026622313 -2.3369646e-21)
(1.0174914 0.0014129225 5.5948565e-22)
(1.0200825 7.6820405e-05 -4.6703036e-22)
(1.0223329 -0.0012127449 2.8211105e-22)
(1.0240972 -0.0023864454 8.5456899e-22)
(1.0250572 -0.003704642 1.1564252e-22)
(1.0259835 -0.0047760498 -9.836228e-22)
(1.0270388 -0.0054999949 -4.6492852e-22)
(1.0280917 -0.0058244225 8.1597265e-22)
(1.0290526 -0.0057677362 3.9927644e-24)
(1.0298059 -0.0053668515 -7.314541e-22)
(1.0302991 -0.0047054975 -7.1969314e-23)
(1.0304849 -0.0038743301 1.0819885e-21)
(1.0303694 -0.0029732888 -7.2255227e-22)
(1.0299983 -0.0021021259 8.0075231e-25)
(1.0294091 -0.0013122462 -2.1879264e-22)
(1.0287437 -0.00071941463 4.362204e-22)
(1.028018 -0.00022222515 1.2679749e-22)
(1.0274701 -9.0640784e-05 1.4325608e-22)
(1.026985 0.00015678656 -9.696236e-23)
(0.87241888 0.0037649572 -1.8126256e-22)
(0.89389172 0.0040401634 -2.8357316e-21)
(0.91288564 0.0039266182 0)
(0.93200062 0.0047686348 0)
(0.95027038 0.0056881384 0)
(0.96752093 0.0063069976 0)
(0.98304431 0.0062138815 0)
(0.99644263 0.0058603881 -1.6732973e-24)
(1.00625 0.0053949106 6.2153416e-21)
(1.0103416 0.0041152839 -1.2606883e-20)
(1.0119249 0.0027959489 9.1617042e-23)
(1.0142016 0.0014738218 -2.3118497e-21)
(1.0173192 0.00013619334 2.8419224e-21)
(1.020013 -0.0013155678 -5.1070433e-22)
(1.0225902 -0.0025411493 -3.878468e-23)
(1.0242377 -0.0038251096 3.9481544e-22)
(1.0253095 -0.0050943898 -6.7021395e-22)
(1.0264702 -0.0060287173 5.2240225e-22)
(1.027688 -0.0065469477 2.8522553e-22)
(1.0288577 -0.0066461928 2.5319579e-22)
(1.0298488 -0.0063509936 9.7440328e-23)
(1.0305906 -0.0057297721 3.3888461e-22)
(1.0310072 -0.0048792549 -4.50628e-24)
(1.0310979 -0.0038970072 -4.3886689e-22)
(1.030858 -0.0028929114 1.6282536e-22)
(1.0303668 -0.0019574554 1.2083987e-21)
(1.0296616 -0.0011449895 2.7966965e-22)
(1.0288969 -0.00055485096 -1.9432223e-22)
(1.0280899 -8.9834956e-05 1.5014047e-23)
(1.0274856 1.3560564e-06 -3.2074944e-24)
(1.0269579 0.00018548396 8.0952223e-23)
(0.85612057 0.0029145218 -1.4589101e-21)
(0.8782191 0.0032785104 -7.283961e-22)
(0.89777639 0.0032030379 -9.5783623e-21)
(0.91670738 0.0040850296 -1.5850014e-20)
(0.93533327 0.0050774121 0)
(0.95324573 0.0056088807 0)
(0.97023677 0.0056590571 -6.7961169e-23)
(0.98546096 0.0052710943 -1.3811835e-20)
(0.99841313 0.0049294966 1.7508403e-20)
(1.0069568 0.0042504642 -1.603413e-20)
(1.01 0.0029482825 -2.1377104e-22)
(1.0114024 0.0016534008 5.1564392e-21)
(1.0139068 0.00020813042 -6.7662203e-22)
(1.0171774 -0.0013177615 2.0148417e-22)
(1.0202018 -0.0027859134 3.2033686e-22)
(1.0229289 -0.0040027566 -4.6370891e-24)
(1.0244836 -0.0053565303 1.544634e-21)
(1.0257608 -0.0065176986 -9.3468272e-23)
(1.0271288 -0.0072512985 -1.5798458e-21)
(1.0285013 -0.0075380983 2.1750937e-21)
(1.0297352 -0.0073800265 -7.8562067e-22)
(1.0307401 -0.0068384742 -6.5281058e-22)
(1.0314209 -0.0059958155 1.7475942e-21)
(1.031748 -0.0049619056 5.9247474e-22)
(1.0317101 -0.0038445172 -3.2862145e-22)
(1.0313402 -0.0027492751 7.5911555e-22)
(1.0307154 -0.0017667227 3.6031331e-22)
(1.0298913 -0.00094457406 1.2112693e-22)
(1.0290267 -0.00036900959 -2.0501535e-22)
(1.02814 5.4443253e-05 -5.9317473e-23)
(1.0274809 9.941243e-05 1.0567821e-22)
(1.0269122 0.00021409465 1.3119227e-23)
(0.83982711 0.0019234369 5.2349425e-22)
(0.861842 0.0025672697 3.0860165e-21)
(0.88188364 0.0024308919 1.4014242e-20)
(0.90159429 0.0034617446 1.9726772e-20)
(0.92017924 0.0044200383 0)
(0.93844958 0.0049794322 0)
(0.95621222 0.0049379654 0)
(0.97308479 0.0046241391 1.9898479e-21)
(0.98802761 0.0042532642 -2.1224424e-20)
(1.0002108 0.0039737769 -1.7148514e-20)
(1.0073241 0.0032076398 -1.6568875e-22)
(1.0094221 0.0018261518 1.3372631e-21)
(1.0107543 0.00041071452 -9.701645e-21)
(1.0136317 -0.0012734653 3.3169033e-21)
(1.017173 -0.0029541404 -2.0621931e-22)
(1.0206771 -0.0043551051 0)
(1.0233172 -0.0056036877 2.9691439e-22)
(1.0249054 -0.0069564852 -4.6354849e-22)
(1.0264118 -0.007927041 7.1599125e-23)
(1.0279774 -0.0084277323 2.4810518e-22)
(1.0294526 -0.0084416726 -9.8787666e-22)
(1.0307305 -0.0080130012 3.1034494e-22)
(1.0316957 -0.0072182404 -1.0378494e-21)
(1.032298 -0.0061578812 -1.3955778e-21)
(1.0324972 -0.0049549283 5.7801088e-22)
(1.0323221 -0.0037142857 7.6429116e-23)
(1.0318027 -0.0025480667 -6.1843534e-23)
(1.0310417 -0.0015323438 1.3205519e-23)
(1.0300959 -0.00071471901 -3.2763338e-22)
(1.0291319 -0.00016483379 -2.271069e-22)
(1.0281677 0.00020882793 8.4977259e-23)
(1.027456 0.00020229194 -4.7778706e-22)
(1.0268469 0.00024012261 2.9062275e-22)
(0.82363687 0.0010709812 3.5771065e-22)
(0.84537429 0.0015346597 3.1337175e-22)
(0.86521484 0.0017130486 2.3742912e-20)
(0.88562235 0.0027441873 3.932587e-20)
(0.90515289 0.0038233732 -8.5451794e-21)
(0.92339301 0.0043182499 -9.2786779e-22)
(0.94154815 0.0042401431 -3.4674664e-20)
(0.95935918 0.0038415153 1.6600976e-20)
(0.97608768 0.0034903746 2.4276177e-21)
(0.9906105 0.0032831624 4.2935618e-20)
(1.0017893 0.0031532683 -1.4594115e-20)
(1.0072332 0.0022510837 -1.5864148e-20)
(1.0085614 0.00062098871 1.3792608e-22)
(1.0100595 -0.0011043366 3.8523759e-21)
(1.0134744 -0.0030021139 2.3175256e-21)
(1.017484 -0.004750529 1.1823633e-22)
(1.0213861 -0.0060098156 3.974382e-23)
(1.0238134 -0.0073455907 4.1056556e-22)
(1.025534 -0.0085633044 -1.8443047e-22)
(1.0272819 -0.0093026187 -8.9713845e-23)
(1.0289928 -0.0095196171 6.3177081e-22)
(1.0305474 -0.0092413935 -1.923562e-21)
(1.0318123 -0.0085284124 -1.2446091e-22)
(1.0327153 -0.0074814539 8.1618004e-22)
(1.0331956 -0.0062152584 -1.9207422e-21)
(1.033254 -0.0048549896 -6.6597372e-22)
(1.0329168 -0.0035127081 -5.9994138e-22)
(1.0322445 -0.0022897987 -1.7476214e-22)
(1.0313402 -0.0012588366 -3.301077e-22)
(1.0302731 -0.00045886845 5.2819746e-24)
(1.0292115 5.5417144e-05 -4.5349144e-23)
(1.028173 0.00037144726 -2.4982533e-23)
(1.0274111 0.00030901447 2.5853659e-22)
(1.0267656 0.00026548544 -6.5981767e-22)
(0.80787528 0.00026121748 -6.4447241e-22)
(0.82894639 0.00071328707 -4.7726452e-22)
(0.84847668 0.00074245679 -2.7491309e-20)
(0.86886199 0.0020640516 -1.963444e-20)
(0.88910987 0.003102254 3.3264131e-20)
(0.90842526 0.003749074 4.172245e-20)
(0.92657444 0.0035144492 4.8939068e-21)
(0.94482826 0.0030486144 0)
(0.96269599 0.0026423761 1.8814173e-20)
(0.9791151 0.0024231128 5.9744966e-20)
(0.99302618 0.0025079289 2.2568362e-21)
(1.0029303 0.002450557 7.6832884e-21)
(1.0066678 0.0012463564 0)
(1.0074526 -0.00085194173 -4.7562032e-22)
(1.0094568 -0.0029255951 -6.5374002e-21)
(1.0135703 -0.0050037806 -2.4404931e-22)
(1.0182304 -0.0066059962 8.7964427e-22)
(1.0221743 -0.0078009572 0)
(1.024468 -0.0091489867 3.7036047e-22)
(1.0264087 -0.010152218 8.5511495e-22)
(1.028351 -0.010599735 -1.54502e-21)
(1.0301802 -0.010506432 6.3104434e-22)
(1.0317539 -0.0099148749 0)
(1.0329786 -0.0089152536 -1.8175379e-21)
(1.0337706 -0.0076245344 8.3605281e-22)
(1.0341107 -0.0061636992 -5.6504583e-23)
(1.0339983 -0.0046678614 -8.0499893e-22)
(1.033493 -0.0032392744 6.9105714e-22)
(1.0326559 -0.0019815035 2.676365e-23)
(1.0316087 -0.00094971691 -7.9565342e-22)
(1.0304213 -0.00018043932 6.4702586e-22)
(1.0292653 0.0002888012 1.8830048e-22)
(1.028156 0.0005405198 0)
(1.0273469 0.00041878237 -1.0790266e-23)
(1.026669 0.00028972257 -2.3132529e-22)
(0.79251289 -0.00054260144 -4.3427804e-22)
(0.81294424 0.00013480823 1.6147072e-21)
(0.83186699 -0.00023024916 -2.574352e-20)
(0.85198598 0.0013761966 -6.8491009e-21)
(0.87222176 0.0024337622 8.8974542e-21)
(0.8923228 0.0030260087 5.6669016e-21)
(0.91167182 0.0029076824 3.6878807e-20)
(0.92992239 0.0022323719 1.9063928e-22)
(0.94833856 0.0017806651 0)
(0.96609315 0.0015552881 -2.2665668e-20)
(0.98200746 0.0016392873 1.9135818e-20)
(0.99504208 0.0019960937 -1.2770646e-21)
(1.0033166 0.0016633638 8.0043182e-21)
(1.0055731 -0.00010631498 -8.1826105e-21)
(1.0062801 -0.002685195 -3.7901554e-21)
(1.0091192 -0.0050839364 -4.1665302e-21)
(1.0140677 -0.0071683404 5.340969e-21)
(1.0193877 -0.0085150381 4.5146898e-22)
(1.0230301 -0.0097257676 8.7679634e-22)
(1.0253518 -0.010964492 -2.2233467e-21)
(1.0275182 -0.011671221 1.9186231e-21)
(1.0296234 -0.011793692 -1.8547909e-21)
(1.0315084 -0.011359948 0)
(1.0330686 -0.010448441 -4.8996094e-22)
(1.0341987 -0.0091661413 1.9795689e-22)
(1.0348561 -0.0076415841 9.9524619e-22)
(1.0350209 -0.0060074801 2.1212056e-22)
(1.0347275 -0.0043928142 1.1710586e-22)
(1.0340379 -0.0029025537 5.0837808e-22)
(1.0330359 -0.0016252439 0)
(1.0318442 -0.00060975397 7.0224432e-22)
(1.0305397 0.00011707285 7.2429619e-22)
(1.0292932 0.00053278209 2.6275846e-22)
(1.0281176 0.00071441332 -2.6692996e-22)
(1.0272639 0.00053070218 7.0165694e-24)
(1.0265601 0.0003148744 8.863666e-22)
(0.77777257 -0.0012328314 5.7396655e-22)
(0.79756207 -0.00049190483 -1.7062977e-22)
(0.81565078 -0.00081834798 7.7700227e-21)
(0.83529016 0.00041434147 2.9119282e-22)
(0.85503948 0.0018577629 -3.9260417e-20)
(0.87530354 0.0023981167 -4.1973022e-20)
(0.89551589 0.0021645162 -1.4857705e-22)
(0.91508268 0.0015475338 2.857546e-20)
(0.93351669 0.00089013156 1.7441188e-22)
(0.95195402 0.00064504043 2.2130183e-20)
(0.96938396 0.00080861963 -3.5083129e-23)
(0.98450882 0.0012574244 -1.0350701e-20)
(0.99632057 0.0015350073 -1.2055424e-21)
(1.0028621 0.00051050404 -8.4262548e-21)
(1.0041462 -0.0019342991 2.8533778e-20)
(1.0052402 -0.004971787 4.1878946e-22)
(1.009198 -0.0075155943 -3.4051519e-21)
(1.0151564 -0.0093823818 -1.7088454e-21)
(1.0207432 -0.010490522 -5.3632916e-23)
(1.0240311 -0.011739558 -3.8203771e-22)
(1.0264894 -0.012722826 8.8662092e-22)
(1.028867 -0.013090474 -2.4062479e-21)
(1.0310681 -0.012849412 2.0730036e-21)
(1.0329713 -0.01206315 0)
(1.0344584 -0.010830374 1.1823964e-21)
(1.0354647 -0.0092736154 2.0790631e-21)
(1.035947 -0.007535415 -9.1957642e-22)
(1.0359214 -0.0057456123 1.7863187e-21)
(1.0354265 -0.0040385721 3.3951653e-23)
(1.0345499 -0.0025038523 -5.8372542e-22)
(1.0333782 -0.0012285521 -7.355334e-22)
(1.0320453 -0.00024290505 -1.4640668e-23)
(1.0306278 0.00043018603 -4.9137076e-23)
(1.0292958 0.00078472962 3.8066038e-22)
(1.0280586 0.00089163551 -1.5292334e-22)
(1.0271634 0.00064409608 -3.7767902e-23)
(1.0264377 0.00034410556 3.583499e-22)
(0.76458148 -0.0019185619 -1.8092072e-22)
(0.78303606 -0.0011261178 -1.3729802e-21)
(0.800069 -0.0013497087 1.0051512e-20)
(0.81885906 -7.5209387e-05 5.5393912e-21)
(0.83805441 0.0010559812 -3.1856811e-22)
(0.85777261 0.0018662859 2.7231921e-22)
(0.87837297 0.0015329875 2.3141443e-20)
(0.89887283 0.0007746544 -1.0877848e-20)
(0.91875154 0.00012535962 0)
(0.93724659 -0.00027898608 -5.0253675e-21)
(0.9555363 -8.8476443e-05 0)
(0.9723018 0.00051393946 0)
(0.98640335 0.00099645144 -1.0972675e-20)
(0.99681432 0.00073879102 1.3274261e-21)
(1.0017305 -0.0011763793 5.9796923e-21)
(1.0026262 -0.0043259274 8.0338798e-21)
(1.0045678 -0.0076301999 -9.6549377e-21)
(1.0098574 -0.010129457 -3.3338025e-21)
(1.0168349 -0.0115608 -1.1777846e-21)
(1.0221385 -0.012579068 1.4499596e-22)
(1.0252426 -0.013742134 -1.5291399e-21)
(1.0279023 -0.014385907 1.1815387e-21)
(1.0304235 -0.014367694 3.0717538e-22)
(1.0326768 -0.01374474 -7.1069019e-22)
(1.0345338 -0.012599358 -5.10031e-23)
(1.0359129 -0.011051195 4.6484861e-22)
(1.0367493 -0.0092383376 -1.7266787e-22)
(1.0370359 -0.007304467 -1.1185716e-21)
(1.0367945 -0.0053864124 -9.5435912e-23)
(1.0360918 -0.0036063992 -1.7735589e-21)
(1.0350204 -0.0020525946 -3.9958318e-22)
(1.033682 -0.00079441056 -1.5468385e-22)
(1.0322108 0.00014614372 -8.2728105e-22)
(1.0306858 0.00075560733 1.4327956e-22)
(1.0292736 0.0010424469 -8.1323805e-22)
(1.0279803 0.0010709173 -1.6719477e-22)
(1.027047 0.00075772457 -3.1226417e-22)
(1.0263037 0.00037358372 0)
(0.75464222 -0.0025878111 -1.0259691e-21)
(0.77009224 -0.0018132536 -1.6161934e-22)
(0.78530945 -0.0017834982 2.5491464e-21)