/*--------------------------------*- C++ -*----------------------------------*\
| =========                 |                                                 |
| \\      /  F ield         | OpenFOAM: The Open Source CFD Toolbox           |
|  \\    /   O peration     | Version:  5.0                                   |
|   \\  /    A nd           | Web:      www.OpenFOAM.org                      |
|    \\/     M anipulation  |                                                 |
\*---------------------------------------------------------------------------*/
FoamFile
{
    version     2.0;
    format      ascii;
    class       volSymmTensorField;
    location    "280";
    object      UPrime2Mean;
}
// * * * * * * * * * * * * * * * * * * * * * * * * * * * * * * * * * * * * * //

dimensions      [0 2 -2 0 0 0 0];

internalField   nonuniform List<symmTensor> 
9200
(
(0.00052082231 1.9751753e-05 -6.1406603e-26 1.6570466e-06 -4.6321929e-27 3.9036093e-47)
(0.00053346465 6.4622941e-05 1.8247847e-23 1.8747378e-05 2.2752975e-24 7.5643621e-43)
(0.000415715 1.6861947e-05 0 1.6017998e-06 0 0)
(0.00055297183 0.00010386329 -9.9676428e-24 4.8517344e-05 -1.9753041e-24 2.1780295e-43)
(0.0004250669 5.5346974e-05 1.4157079e-23 1.8441904e-05 2.1033318e-24 5.6365017e-43)
(0.00036723303 1.5557423e-05 0 1.5261624e-06 0 0)
(0.0005850608 0.00014636576 -9.9475025e-25 9.7654438e-05 -2.6012273e-25 2.0134642e-45)
(0.00044050635 8.8060216e-05 7.4048535e-26 4.7425347e-05 -1.0288027e-25 2.0077273e-45)
(0.00037606904 5.0557879e-05 0 1.7564767e-05 0 0)
(0.00031197333 1.335856e-05 0 1.4257265e-06 0 0)
(0.00062697296 0.0001873991 2.2677623e-23 0.00016355184 7.9207496e-24 1.0010419e-42)
(0.00046596328 0.00012202301 1.4547727e-23 9.5056317e-05 5.6035544e-24 6.2548171e-43)
(0.00038931624 8.0016931e-05 7.5015342e-24 4.4954088e-05 2.1827082e-24 1.80498e-43)
(0.00031930895 4.3497069e-05 3.9658304e-25 1.6609788e-05 8.1745673e-26 6.395366e-46)
(0.0002698683 1.1783672e-05 2.5417035e-27 1.3411204e-06 4.5057202e-28 3.3599637e-49)
(0.00068244986 0.00023043387 2.2042573e-23 0.00025517094 8.7032715e-24 8.4719076e-43)
(0.000499983 0.00015285429 -3.9670407e-25 0.00015790809 3.4879763e-25 6.1791509e-45)
(0.00041126658 0.00011008722 2.5590789e-23 8.9645366e-05 1.0537338e-23 2.0434363e-42)
(0.00033145498 6.8474071e-05 8.9019592e-24 4.227658e-05 3.2606257e-24 3.5064296e-43)
(0.00027717625 3.8110394e-05 1.6893634e-25 1.5613683e-05 1.229178e-25 2.4987132e-45)
(0.00023316835 1.0185953e-05 -1.3027201e-23 1.2523167e-06 -1.0047552e-24 1.1036197e-42)
(0.00075167562 0.00027270432 2.8795531e-23 0.00037593471 1.6150626e-23 1.5360836e-42)
(0.0005461181 0.00018276168 2.1447637e-23 0.00024401248 9.5403868e-24 9.8491319e-43)
(0.00044068304 0.00013643707 -1.5681388e-23 0.00014778737 -7.8261621e-24 7.1112773e-43)
(0.00035213266 9.3391393e-05 -9.5088752e-25 8.3934389e-05 -5.4345053e-25 4.6098699e-45)
(0.00028872485 5.969033e-05 7.13374e-24 3.9473007e-05 2.5863562e-24 2.5017666e-43)
(0.00023998014 3.2871642e-05 6.2372318e-24 1.4672914e-05 1.7014312e-24 2.582153e-43)
(0.00020316883 8.8352735e-06 8.9730941e-25 1.1728763e-06 9.2786733e-26 8.2229867e-45)
(0.00083830044 0.00031313092 2.1937715e-23 0.00053629731 2.0153476e-23 1.4232681e-42)
(0.00060718803 0.00020903153 1.9082422e-23 0.00035574523 1.2441452e-23 8.1833692e-43)
(0.00048088444 0.00016074313 1.9186837e-23 0.00022624162 1.2779416e-23 1.1000504e-42)
(0.00038054329 0.00011446868 6.1220422e-25 0.00013746507 1.4501505e-24 2.9740062e-44)
(0.00030831718 8.0901951e-05 -1.8034765e-23 7.7997037e-05 -9.8084462e-24 1.6499582e-42)
(0.00025105372 5.1385636e-05 -6.854486e-24 3.6942893e-05 -3.1072493e-24 3.2414208e-43)
(0.00020989803 2.8413813e-05 -6.758991e-24 1.3783645e-05 -1.8234351e-24 3.75998e-43)
(0.00017774667 7.5956593e-06 9.4714019e-24 1.1023718e-06 9.1043493e-25 1.0057328e-42)
(0.00094601473 0.00034892959 -4.1691958e-23 0.00074645212 -3.1115603e-23 2.7142658e-42)
(0.00068931796 0.00023080453 2.0309456e-23 0.00050253218 7.113788e-24 6.8954544e-43)
(0.00053455409 0.00018023863 5.9508397e-25 0.00032595166 3.0491963e-24 4.8435414e-44)
(0.00042044769 0.0001331726 7.8771013e-24 0.00020906128 5.1067319e-24 2.0581903e-43)
(0.00033536021 9.8414472e-05 5.0725603e-25 0.00012689758 2.7318163e-24 1.2572303e-43)
(0.00027007755 6.9448314e-05 -2.3829522e-23 7.2828485e-05 -1.3837562e-23 3.5303691e-42)
(0.00022071841 4.4415432e-05 3.4080019e-24 3.4544757e-05 3.3035615e-25 2.1544696e-43)
(0.00018424093 2.4350142e-05 -1.0091747e-23 1.3035977e-05 -3.1412164e-24 1.1217525e-42)
(0.00015716287 6.5086788e-06 -1.7466547e-23 1.0392943e-06 -1.9295539e-24 4.695819e-42)
(0.0010779017 0.0003737345 3.537049e-23 0.0010176097 3.7889483e-23 2.3687464e-42)
(0.00080009074 0.00024505512 -1.1027968e-23 0.0006930841 1.1640892e-23 7.1532409e-43)
(0.0006072291 0.00019409602 -6.797708e-25 0.00045398036 -1.8472022e-24 9.5923563e-45)
(0.00047491502 0.00014736243 2.7497262e-25 0.00029927853 -8.8855111e-24 4.8572744e-43)
(0.0003735742 0.00011353032 -2.4699218e-24 0.00019173788 -2.5563076e-24 4.0028457e-44)
(0.00029666548 8.4312522e-05 -8.3829832e-26 0.00011792649 3.7507296e-24 2.9309252e-43)
(0.00023921412 5.9988223e-05 7.2903046e-24 6.7960468e-05 4.7595351e-24 4.2869249e-43)
(0.00019473505 3.812415e-05 1.0875428e-23 3.2568232e-05 5.6273427e-24 1.2820533e-42)
(0.00016348641 2.0779144e-05 5.0776664e-24 1.2369997e-05 2.0492734e-24 4.0498964e-43)
(0.00013995153 5.5025629e-06 1.0897416e-24 9.8508312e-07 1.5587616e-25 2.7898706e-44)
(0.0012368591 0.0003815885 -1.7910015e-23 0.0013630702 -1.764233e-23 4.5306513e-43)
(0.0009485874 0.00024643671 -3.5120422e-24 0.00093937577 2.4375928e-23 9.1016203e-43)
(0.00070644603 0.00019999989 1.7482984e-23 0.00061658635 6.5440123e-24 4.9933762e-43)
(0.00055010222 0.00015666145 -1.2559964e-23 0.00041463339 -1.3490149e-23 5.8112651e-43)
(0.00042608288 0.00012447968 1.4550373e-23 0.00027252114 1.8906528e-24 8.3369275e-43)
(0.00033445367 9.7168893e-05 -2.586902e-23 0.00017740314 -1.6674454e-23 3.1237837e-42)
(0.00026502592 7.2891237e-05 -2.2397551e-25 0.00010962748 1.0003173e-24 2.675562e-44)
(0.00021264286 5.1538146e-05 1.8092381e-23 6.4062368e-05 1.1417999e-23 3.2147615e-42)
(0.00017363925 3.2642612e-05 -7.6223939e-24 3.0818732e-05 -4.1952852e-24 8.3814721e-43)
(0.00014606355 1.7447507e-05 1.3324721e-23 1.1830955e-05 6.0099251e-24 3.8872612e-42)
(0.00012633164 4.6023914e-06 -1.7950104e-24 9.3530742e-07 -2.6746322e-25 1.0744291e-43)
(0.001431349 0.00039625433 6.1602712e-24 0.0018141447 -3.1967717e-24 8.3185077e-44)
(0.0011409445 0.00022781745 1.8991245e-23 0.0012575398 -5.2237915e-23 3.4935733e-42)
(0.00084210433 0.0001951234 -1.4021484e-23 0.00082512091 -2.4247209e-23 8.5730389e-43)
(0.00065429665 0.00015946616 0 0.00056104516 0 0)
(0.00049874554 0.00013115827 1.6555945e-26 0.00037510775 8.5838729e-25 2.6713485e-45)
(0.00038650014 0.00010678243 2.2920793e-24 0.00025102423 -7.2175049e-24 4.5021198e-43)
(0.0003015539 8.4219352e-05 -4.7957341e-24 0.00016444165 -3.3161474e-24 1.331835e-43)
(0.0002376394 6.288255e-05 -9.5826037e-24 0.00010312785 -6.9502642e-24 8.0392951e-43)
(0.00019087008 4.4219624e-05 5.0519492e-25 6.0639637e-05 -1.6869776e-24 1.9175069e-43)
(0.00015581414 2.7524306e-05 -8.1417513e-24 2.9418663e-05 -5.4239021e-24 1.3761751e-42)
(0.00013224623 1.4430781e-05 -4.5371925e-24 1.134469e-05 -2.4060447e-24 6.7587019e-43)
(0.00011536034 3.7569432e-06 7.7908274e-25 8.9065961e-07 1.6019533e-25 3.4513333e-44)
(0.0016306736 0.00042068712 3.7316262e-24 0.0023837853 1.2830868e-24 1.2360329e-44)
(0.001385904 0.00019385044 -3.1776861e-23 0.001675653 2.0306588e-23 1.4030274e-42)
(0.0010216954 0.00017223246 0 0.0010927289 0 0)
(0.00079906196 0.00015419364 0 0.00074893356 0 0)
(0.00059912843 0.00013251643 -9.1890219e-24 0.00050487198 -4.7398482e-25 1.9432045e-43)
(0.00045839289 0.00011342015 1.3280457e-23 0.0003442533 -9.3547152e-24 1.3978037e-42)
(0.00035159104 9.3073944e-05 -1.3936e-23 0.00023198677 -2.8822917e-24 1.0111569e-42)
(0.0002729893 7.3148793e-05 1.1238504e-23 0.00015442929 1.0095108e-23 1.0057056e-42)
(0.00021478463 5.4261152e-05 7.0402601e-25 9.7498028e-05 8.9965193e-25 8.9818701e-45)
(0.00017229998 3.7332375e-05 -6.4265071e-27 5.7965182e-05 1.6715975e-26 2.285516e-47)
(0.00014157561 2.2888887e-05 8.3264349e-24 2.8168269e-05 6.3129289e-24 2.1404678e-42)
(0.00012108753 1.1545305e-05 -7.2406539e-24 1.0932009e-05 -4.5330566e-24 2.8635662e-42)
(0.00010707712 2.9951842e-06 1.0224938e-23 8.4755192e-07 2.6001931e-24 1.0596198e-41)
(0.0016888844 0.00033563603 -6.1324228e-23 0.0029888908 -9.7164493e-24 3.614563e-42)
(0.0016872759 0.00017140076 8.0023177e-24 0.0022339566 -2.3068382e-24 5.4709932e-44)
(0.0012475266 0.00012722463 -4.4606375e-23 0.001439449 7.5388503e-24 2.118462e-42)
(0.00099448644 0.00013564309 2.9894547e-23 0.00099197333 -6.5214934e-24 1.2698372e-42)
(0.00073832718 0.0001280743 -1.7570044e-23 0.00067193273 3.4252511e-24 6.2110127e-43)
(0.00055721936 0.00011646392 5.9276648e-24 0.00046223702 -4.846427e-24 2.0162652e-43)
(0.00042042036 9.9784696e-05 3.9396572e-24 0.00031740414 3.963782e-24 7.4928064e-44)
(0.00032117404 8.1789937e-05 -2.5818586e-25 0.00021745662 2.8815349e-25 1.5916457e-45)
(0.0002483651 6.3584809e-05 8.2452043e-24 0.00014591549 1.1758532e-23 1.0490265e-42)
(0.00019505025 4.6082264e-05 5.9612802e-24 9.3197402e-05 8.927856e-24 9.1418141e-43)
(0.0001572724 3.1052344e-05 2.2917329e-24 5.5598528e-05 2.4185505e-24 1.4774807e-43)
(0.00013000033 1.8419241e-05 4.7829136e-24 2.711992e-05 5.0419516e-24 1.1914967e-42)
(0.00011265437 8.8957183e-06 2.3778491e-24 1.0532045e-05 2.2189178e-24 5.7726501e-43)
(0.00010091405 2.2843298e-06 -1.8949599e-24 8.0601323e-07 -7.169051e-25 8.4433973e-43)
(0.0015521424 6.0093222e-05 5.4920281e-23 0.0035475579 -1.7660368e-22 1.4264183e-41)
(0.0019592206 0.00013317486 3.3915533e-22 0.0029459578 -8.7407788e-23 8.0310231e-41)
(0.0015298579 7.8442863e-05 7.1261909e-24 0.0018941634 -2.5070037e-23 4.2048424e-43)
(0.0012424693 9.5403843e-05 -5.7125787e-24 0.0013088707 3.6066615e-24 4.6301958e-44)
(0.00092905588 0.00011519898 2.7557651e-24 0.00089006794 -2.3257203e-24 1.9334389e-44)
(0.00069353133 0.00011581257 -1.1993226e-23 0.00061464104 8.502999e-24 4.9095813e-43)
(0.00051443944 0.00010406215 4.4506557e-24 0.00042550522 4.6630822e-24 7.9569059e-44)
(0.0003868639 8.9199129e-05 -4.454177e-24 0.00029708329 -5.1258883e-24 1.2358806e-43)
(0.00029378505 7.1875531e-05 1.5918355e-24 0.00020529241 -1.4604084e-24 5.7106692e-44)
(0.00022687293 5.4446332e-05 -4.8361202e-25 0.00013950782 -1.2857171e-24 1.2588882e-44)
(0.00017875825 3.8545974e-05 -1.4961008e-25 8.9448635e-05 -1.8200606e-25 5.3971153e-46)
(0.00014493783 2.489354e-05 9.9539619e-26 5.3656443e-05 -7.998828e-25 3.6401187e-44)
(0.00012118652 1.429459e-05 -5.0951956e-24 2.6113864e-05 -6.793325e-24 2.4252776e-42)
(0.00010639297 6.3626315e-06 1.7090133e-24 1.0152946e-05 2.2403273e-24 6.7890897e-43)
(9.6752897e-05 1.6508447e-06 -8.0498005e-25 7.6405875e-07 -5.4861677e-25 5.3999701e-43)
(0.0013747066 -0.00033541827 7.2239206e-23 0.0040244117 6.1381881e-23 1.3065975e-41)
(0.0020032918 -2.847983e-05 -2.2641909e-22 0.0037100327 -2.1057683e-23 3.4236873e-41)
(0.0018557137 5.8395907e-05 1.1260314e-22 0.0025116889 -2.439186e-23 8.6795075e-42)
(0.0015405317 3.939425e-05 -7.9683945e-23 0.0017260382 3.9469148e-24 4.9906831e-42)
(0.0011757768 8.4575067e-05 4.6228737e-23 0.0011777614 -2.8835739e-24 2.2129332e-42)
(0.00088059695 0.00011019062 -3.9093269e-23 0.00081528857 -1.6008757e-23 2.2280669e-42)
(0.00064323036 0.0001058829 3.6359511e-23 0.00056545752 -2.5401237e-24 2.8317382e-42)
(0.00047590752 9.5236474e-05 -1.4025787e-24 0.00039775934 8.7874734e-25 1.1173634e-44)
(0.00035545176 7.9574124e-05 -3.610568e-24 0.00028017299 -3.1101136e-24 7.4629701e-44)
(0.00026962324 6.2354462e-05 4.1493055e-24 0.00019622031 -3.3064109e-24 4.0745014e-43)
(0.00020860211 4.5842531e-05 -1.8425634e-23 0.00013401449 -2.4110217e-23 6.5886818e-42)
(0.00016521334 3.0995604e-05 5.0812524e-24 8.6451319e-05 5.1818886e-24 8.9461041e-43)
(0.00013542804 1.913937e-05 1.810292e-24 5.179657e-05 3.0762262e-24 2.6414259e-43)
(0.00011461812 1.03066e-05 3.6765786e-25 2.5171028e-05 9.9542814e-25 4.2458047e-44)
(0.00010219084 4.0549711e-06 -5.5048534e-26 9.7563474e-06 9.0493654e-26 5.9686712e-45)
(9.4216848e-05 1.0776886e-06 1.25424e-25 7.2162561e-07 6.0554691e-25 6.9461783e-43)
(0.0013143372 -0.00075909082 0 0.0044097751 0 0)
(0.0019227181 -0.00031848597 -3.2147342e-22 0.0044676966 5.1646765e-23 7.712322e-41)
(0.0020147597 -1.164319e-05 -3.6708122e-24 0.0032542884 7.9052384e-23 2.2564439e-42)
(0.0018817211 8.7809783e-06 0 0.0022977959 0 0)
(0.001469615 2.9446924e-05 0 0.0015608756 0 0)
(0.0011271067 9.1619795e-05 0 0.0010834847 0 0)
(0.00082022931 0.00010510425 -4.903477e-24 0.00075065928 3.409725e-24 5.946607e-44)
(0.00059698675 9.9865127e-05 1.3638789e-23 0.00052803746 1.1983847e-23 5.6431487e-43)
(0.00043863055 8.6654027e-05 -1.6407191e-23 0.00037465627 8.8613165e-24 1.6158357e-42)
(0.00032715374 7.0178597e-05 8.6112381e-24 0.00026762745 9.7572087e-24 6.0016577e-43)
(0.00024836804 5.301574e-05 -1.288571e-24 0.00018857365 9.6048305e-25 4.5238081e-44)
(0.00019319715 3.6992614e-05 3.1052405e-24 0.00012972647 5.4406718e-24 3.0981804e-43)
(0.00015456716 2.3816819e-05 -3.8647548e-25 8.3612362e-05 -2.0266071e-25 9.8417907e-45)
(0.00012830142 1.3469359e-05 -1.3443981e-24 5.007123e-05 -3.6029931e-24 3.4830578e-43)
(0.00011018873 6.6554087e-06 -6.6345792e-26 2.418867e-05 -6.6073704e-25 1.9129821e-44)
(9.9691254e-05 1.9094818e-06 -3.8507814e-26 9.3454808e-06 -1.1148906e-24 1.7696178e-43)
(9.3118114e-05 5.8230531e-07 0 6.7810746e-07 0 0)
(0.0015271141 -0.0011222343 5.0970904e-23 0.0047325405 -9.6575886e-23 2.1773296e-41)
(0.0018102551 -0.00069224751 4.1139184e-22 0.0051819227 3.8573759e-23 1.7159323e-40)
(0.0019920423 -0.00020994593 -6.0411813e-22 0.0040318183 5.4038496e-23 2.4468814e-40)
(0.0021185151 -1.9791503e-05 -2.7811294e-22 0.0030453534 6.1639148e-23 4.5224473e-41)
(0.0018105775 -1.6090955e-05 -1.8251497e-22 0.0020884655 1.8142192e-23 2.1529001e-41)
(0.0014223791 4.3371983e-05 0 0.0014429411 0 0)
(0.0010584465 9.6537762e-05 -7.4431155e-23 0.0010008054 1.7927808e-23 6.6502506e-42)
(0.0007628753 0.00010314197 1.4650149e-23 0.0007003959 -7.9553258e-24 5.0406362e-43)
(0.00055110723 9.3029705e-05 4.2034544e-23 0.00049666 7.4501414e-24 4.4294975e-42)
(0.00040423453 7.7966579e-05 -1.8464376e-23 0.0003574079 8.7822383e-24 2.2955025e-42)
(0.00030162181 6.0470973e-05 -4.2951342e-24 0.00025713306 -6.0373025e-24 2.1387585e-43)
(0.00023021087 4.3158204e-05 -1.3548646e-24 0.00018271254 1.0333858e-24 6.1934501e-44)
(0.00018078053 2.837659e-05 6.2700059e-24 0.00012571615 1.0729029e-23 1.7086035e-42)
(0.00014649319 1.6578125e-05 -4.8286195e-24 8.102695e-05 -1.515927e-23 3.7367349e-42)
(0.00012345549 8.214941e-06 -1.2849452e-25 4.8256139e-05 -2.8891423e-24 1.8329868e-43)
(0.0001075854 3.2202384e-06 -3.189571e-25 2.3175953e-05 -1.2246302e-23 8.8723871e-42)
(9.8695134e-05 8.0455272e-09 9.5956604e-25 8.9040213e-06 -2.9865491e-24 1.2843269e-42)
(9.3155268e-05 1.5857252e-07 1.6344711e-24 6.3367826e-07 -7.3096795e-25 1.1889972e-42)
(0.0021526346 -0.0013321647 3.5523224e-26 0.0049978077 1.0689833e-24 1.455018e-43)
(0.0018079878 -0.0011106135 1.9780607e-22 0.0058207299 -6.9982477e-23 5.3679994e-41)
(0.0018971532 -0.00049476708 6.4618581e-23 0.0048302673 6.914841e-23 5.3306882e-42)
(0.0021581565 -0.00016168769 -3.2606164e-22 0.0038653818 -2.8649035e-24 6.2763041e-41)
(0.0020937667 -3.5048563e-05 3.3637274e-23 0.002813829 -3.7389912e-24 6.4237256e-43)
(0.0017581761 -2.0723658e-05 -2.0328986e-23 0.0019352049 -6.017036e-23 2.5561121e-42)
(0.0013520937 6.032665e-05 1.470038e-22 0.0013387266 -8.2219877e-23 2.4413607e-41)
(0.00098974123 0.00010251463 1.3452822e-22 0.00093423898 -2.8984339e-23 2.3098431e-41)
(0.00070466615 9.8837003e-05 2.8353835e-23 0.00065769407 -6.9901422e-24 1.6627778e-42)
(0.00050798258 8.5708425e-05 -9.8265753e-24 0.00047281519 -1.6273857e-23 7.205651e-43)
(0.00037262983 6.8323626e-05 3.7136874e-24 0.00034300829 -1.6210968e-24 1.1004979e-43)
(0.00027937002 4.9831124e-05 -9.8799747e-24 0.00024920414 -1.4436206e-23 1.4268917e-42)
(0.00021513145 3.3207532e-05 4.9488504e-24 0.00017733403 4.1963717e-24 6.0560783e-43)
(0.00017121421 1.9453295e-05 -2.1125626e-25 0.000122138 9.85183e-25 1.6120701e-44)
(0.00014089341 9.7555442e-06 -1.7169816e-25 7.8296519e-05 1.3920617e-24 3.5099907e-44)
(0.00012064922 3.1780624e-06 7.5411656e-26 4.6377498e-05 2.7871937e-24 2.3238487e-43)
(0.00010658352 1.6581121e-07 8.2885736e-25 2.2086327e-05 -4.0888298e-24 1.0432358e-42)
(9.8907698e-05 -1.670468e-06 -3.6252473e-26 8.4351517e-06 9.5964001e-26 3.9849557e-45)
(9.4130856e-05 -1.8630118e-07 2.2604226e-24 5.8859593e-07 -6.5852955e-25 1.0847771e-42)
(0.0032225271 -0.0014078476 -1.0612963e-23 0.0052615978 1.8005656e-23 5.6467563e-42)
(0.002151922 -0.0014409213 -1.7146962e-22 0.0064131648 4.6748349e-23 5.9424869e-41)
(0.0018475115 -0.00084525805 9.3703937e-22 0.0055993194 5.536457e-23 1.023339e-39)
(0.0021019393 -0.00039183813 1.7078075e-22 0.0047337188 -6.6988028e-23 1.9659079e-41)
(0.0021996843 -0.00012998221 -9.3215302e-23 0.0036656389 -6.7535138e-23 6.6435716e-42)
(0.0020700532 -5.6336491e-05 -9.4122104e-24 0.0026325608 -4.3649311e-23 9.312416e-43)
(0.0016830488 -1.4894645e-05 -3.6288214e-23 0.001798483 6.0168099e-24 9.0111116e-43)
(0.0012804733 8.0695558e-05 -5.4211758e-23 0.0012533645 -3.1199717e-23 3.3124024e-42)
(0.00091636016 0.00010327973 1.8274216e-23 0.00087594519 -3.6525068e-24 4.6818518e-43)
(0.00064910542 9.3398115e-05 6.6208879e-23 0.00062423979 3.1632469e-24 9.0658927e-42)
(0.0004678619 7.6611493e-05 -2.1951655e-23 0.00045282783 -2.5284713e-23 2.5753203e-42)
(0.0003444879 5.7193289e-05 -4.6318203e-25 0.00033216195 4.8372314e-24 9.2732711e-44)
(0.00026046299 3.8616863e-05 2.4879145e-24 0.00024206603 7.3992254e-24 2.6390671e-43)
(0.00020328789 2.2606104e-05 -7.7422286e-26 0.0001726526 -5.4540389e-25 1.8337728e-45)
(0.00016439626 1.0864251e-05 -4.5054311e-25 0.00011834937 8.06057e-25 2.7783804e-44)
(0.000137626 3.0743236e-06 5.9202291e-25 7.5472654e-05 1.216883e-23 2.8462469e-42)
(0.00011960726 -1.3411498e-06 7.2717532e-26 4.4326168e-05 -2.1816345e-24 2.5400858e-43)
(0.00010692198 -2.5591139e-06 -2.9674879e-24 2.0929061e-05 6.7262246e-24 2.8755358e-42)
(0.00010012107 -3.0832652e-06 -1.0654512e-24 7.9376886e-06 1.0717315e-24 1.8756881e-43)
(9.5797051e-05 -4.551363e-07 -3.0908685e-24 5.4313394e-07 6.5726846e-25 1.1974408e-42)
(0.004475343 -0.0014233261 1.280853e-24 0.0055059318 5.1758033e-23 9.228214e-43)
(0.0030153928 -0.00163133 -2.9300387e-22 0.0070208047 1.6844838e-22 1.3280558e-40)
(0.0020701449 -0.0011793474 -1.198939e-22 0.0063312452 3.1494401e-22 2.6536371e-41)
(0.0020252778 -0.00070241243 -2.6879621e-22 0.0056206315 -9.8474203e-24 6.3179539e-41)
(0.0021933924 -0.00031901646 5.8224197e-23 0.0045921169 -1.3888826e-22 6.6027674e-42)
(0.0022323023 -0.00013193293 1.8696128e-22 0.0035050679 1.4188211e-23 1.9274918e-41)
(0.0020197378 -8.1330437e-05 -3.9588361e-22 0.0024563274 4.0354395e-23 8.9482283e-41)
(0.0016133248 6.2408225e-06 -4.8045487e-22 0.0016836174 7.3052587e-23 1.6343151e-40)
(0.0011981809 9.4643524e-05 2.4534255e-23 0.0011767048 5.6620447e-23 3.5968718e-42)
(0.00084411985 0.00010097954 0 0.00082830167 0 0)
(0.00059691681 8.5279319e-05 1.9162455e-23 0.00059598556 2.1463265e-23 1.4364469e-42)
(0.00043147225 6.5354749e-05 -1.4687092e-23 0.00043761626 4.7910679e-24 1.2621749e-42)
(0.00032014285 4.4867967e-05 -1.3744035e-23 0.0003225785 -1.5570102e-23 2.0966155e-42)
(0.00024524616 2.6314942e-05 8.0073715e-24 0.00023601171 7.2741816e-24 1.487321e-42)
(0.00019454928 1.2131897e-05 -1.0100347e-24 0.00016771849 -6.9982645e-24 3.5242442e-43)
(0.00016031259 2.2563408e-06 7.7161393e-25 0.00011443888 1.231461e-23 1.8841606e-42)
(0.00013636607 -3.0035851e-06 -5.4692239e-25 7.2347384e-05 1.1481699e-24 4.9966519e-44)
(0.00012014874 -5.4483032e-06 9.4075352e-25 4.2123964e-05 -3.2425709e-24 4.0105246e-43)
(0.00010836221 -4.8572297e-06 -2.5600029e-24 1.969811e-05 3.9458994e-24 1.1419846e-42)
(0.00010207745 -4.2341744e-06 -3.049867e-25 7.4175091e-06 2.1249969e-25 6.8600756e-45)
(9.7964672e-05 -6.4747524e-07 -3.4964174e-24 4.9792817e-07 5.8514804e-25 1.0829482e-42)
(0.0057576003 -0.0014405085 1.8249724e-22 0.0057219968 1.3332984e-22 2.5623539e-41)
(0.0042324007 -0.0017786372 -3.6528081e-22 0.0076669485 1.4026797e-22 8.9979915e-41)
(0.0028066727 -0.0014345804 -3.2463277e-22 0.0070726414 -4.7843584e-23 1.7202131e-40)
(0.0021326741 -0.0010127843 3.8570192e-22 0.0065023028 1.9491964e-22 2.0874024e-40)
(0.0021462646 -0.00059419614 3.7715533e-22 0.0055793435 -1.5624914e-23 1.0760277e-40)
(0.002279581 -0.00029715182 -2.7915788e-23 0.0044817803 -9.645363e-23 3.1278136e-42)
(0.0022381404 -0.0001560119 0 0.0033291774 0 0)
(0.0019718801 -9.3875246e-05 -9.2594223e-24 0.0022948481 -1.2855175e-22 8.8025802e-42)
(0.0015339171 3.4856589e-05 1.0988132e-22 0.0015822278 -5.1548309e-23 1.1063035e-41)
(0.0011115153 0.00010243501 1.3902719e-22 0.0011104731 3.5588176e-23 1.9982303e-41)
(0.0007749294 9.4358414e-05 -2.3472828e-24 0.00078744834 1.8087159e-23 5.4307522e-43)
(0.00054899962 7.4285934e-05 -1.2440415e-23 0.00057399528 1.1334601e-24 5.0415013e-43)
(0.00039947478 5.2137148e-05 2.2549734e-24 0.00042438975 -7.6769273e-25 3.8193787e-44)
(0.00030000855 3.0865183e-05 2.748282e-24 0.00031464244 7.7271809e-24 2.5604046e-43)
(0.00023362768 1.3766889e-05 -3.6810717e-24 0.0002297196 -7.847383e-24 6.7838281e-43)
(0.00018907131 1.3764786e-06 1.3733953e-24 0.00016266495 6.8629914e-24 5.9111634e-43)
(0.00015858564 -5.7125321e-06 1.3754664e-25 0.00011004949 -1.6199442e-24 3.2148869e-44)
(0.00013703253 -8.6429659e-06 -2.0789072e-24 6.8959056e-05 7.9726033e-24 1.2824231e-42)
(0.00012194512 -8.9364091e-06 -8.0370289e-25 3.9751196e-05 1.2609745e-24 4.7644549e-44)
(0.00011064512 -6.7423079e-06 -1.6252313e-25 1.8408467e-05 1.5194575e-25 1.6205547e-45)
(0.00010457833 -5.1108387e-06 -2.1081577e-24 6.8812695e-06 1.2901033e-24 3.490924e-43)
(0.00010044148 -7.6703817e-07 0 4.5359824e-07 0 0)
(0.0070045316 -0.0014662922 1.1762587e-22 0.0059697746 1.4376808e-22 1.1511538e-41)
(0.0054047407 -0.002014088 2.8285016e-22 0.0083217194 -6.2802299e-23 3.4833095e-41)
(0.00403328 -0.0016130315 1.3421422e-23 0.0078959966 -6.7400247e-23 7.1131027e-43)
(0.0027097711 -0.0012505008 4.0489331e-22 0.0074105087 -3.8491517e-23 2.0589936e-40)
(0.0022263958 -0.00090278947 2.6983247e-22 0.0065990667 -1.7868099e-22 6.7361824e-41)
(0.002278023 -0.0005522511 -1.9179398e-22 0.0055508501 -3.1069135e-23 2.5828855e-41)
(0.002338006 -0.00030741356 7.6045978e-24 0.0043474515 2.7797403e-22 2.1400384e-41)
(0.002242819 -0.00019160112 -4.7102776e-22 0.0031463657 -3.9348365e-23 1.1964674e-40)
(0.0019027535 -8.9203122e-05 -8.4338372e-23 0.0021439226 -3.7008418e-23 5.089656e-42)
(0.0014484329 6.5440243e-05 -2.0435434e-23 0.0014959522 3.8751765e-24 3.4205846e-43)
(0.001023286 0.00010172791 2.9489288e-24 0.0010510333 -1.094706e-24 1.2736252e-44)
(0.0007106311 8.3936163e-05 4.2511006e-23 0.00075479172 -8.7454647e-24 4.0948871e-42)
(0.00050632837 6.0460373e-05 -2.0004496e-24 0.00055509009 -2.8425557e-24 2.5701049e-44)
(0.0003723769 3.6520833e-05 -9.1204266e-24 0.00041360224 1.8622154e-23 2.0779033e-42)
(0.00028417869 1.6105337e-05 3.905269e-24 0.00030658902 1.9528058e-23 1.5395341e-42)
(0.00022592216 5.7620207e-07 2.087898e-24 0.00022336808 1.5589066e-23 1.5794272e-42)
(0.0001864321 -8.7951154e-06 5.2830402e-25 0.00015692392 -1.658048e-24 2.5650674e-44)
(0.00015925043 -1.3265757e-05 3.5689041e-24 0.0001052429 -1.7171564e-23 3.9371546e-42)
(0.00013917139 -1.3482877e-05 1.4107324e-25 6.5257903e-05 -5.087868e-25 1.0948594e-44)
(0.00012477878 -1.1847722e-05 -2.2370825e-24 3.7238052e-05 3.3562882e-24 4.2674147e-43)
(0.00011355207 -8.1777697e-06 0 1.7076079e-05 0 0)
(0.00010741584 -5.7201073e-06 5.345722e-24 6.3374236e-06 -2.7152664e-24 1.7389144e-42)
(0.00010306798 -8.1787659e-07 1.0404499e-25 4.1086099e-07 -9.9196399e-27 3.3935579e-46)
(0.0080519377 -0.0014906978 -6.3752573e-22 0.0062382236 -2.1497255e-22 1.4504117e-40)
(0.0065266298 -0.0023573977 9.8162799e-22 0.0090134537 1.9750484e-22 3.6853135e-40)
(0.0051972784 -0.0018489074 -6.5659207e-22 0.0087878939 -1.7452573e-22 2.1044608e-40)
(0.0038690085 -0.0014102798 -1.6360724e-22 0.0084233312 -2.3898544e-22 3.7229472e-41)
(0.0027190386 -0.001154534 3.829332e-22 0.0076727489 1.9797946e-22 1.9400807e-40)
(0.0023571884 -0.0008643907 0 0.0066912494 0 0)
(0.0024014112 -0.00054562423 -5.0917435e-24 0.0054839167 8.6712687e-23 1.6181397e-42)
(0.0023996864 -0.00034148727 -1.630163e-22 0.0041939293 -1.6240744e-22 2.3830383e-41)
(0.0022355242 -0.00022638833 -3.2756196e-22 0.0029516339 1.3064954e-23 5.6712387e-41)
(0.0018299551 -5.8565774e-05 -3.2803214e-22 0.0020129138 9.650438e-23 7.1463793e-41)
(0.0013535361 8.6218092e-05 7.4875777e-23 0.0014171076 4.1261871e-23 5.5889129e-42)
(0.00093773221 9.4044408e-05 5.0004716e-23 0.0010013987 8.4171461e-24 3.3037425e-42)
(0.00065284217 6.9782719e-05 -3.396576e-23 0.00072688235 -1.1801662e-23 2.7974614e-42)
(0.00046944142 4.3435445e-05 1.4220289e-23 0.00053974337 2.0868163e-23 1.5949451e-42)
(0.00035049818 1.9470648e-05 -1.3497506e-23 0.00040302154 -2.6785129e-23 3.5760206e-42)
(0.00027304858 2.1948635e-07 -4.7776697e-24 0.00029865508 -3.7723363e-23 6.2253956e-42)
(0.00022170825 -1.220526e-05 3.1469274e-24 0.00021611245 3.3535893e-24 8.7031684e-43)
(0.00018679119 -1.8647561e-05 1.2759054e-24 0.00015058734 -8.0474973e-24 6.1215715e-43)
(0.00016172272 -1.9847219e-05 -6.0676998e-24 9.9912206e-05 1.9196229e-23 5.7592733e-42)
(0.00014267171 -1.7613205e-05 1.7687179e-24 6.1288329e-05 -3.8918074e-24 5.8360701e-43)
(0.00012836212 -1.408331e-05 5.6804713e-24 3.4615121e-05 -6.8571146e-24 2.0413451e-42)
(0.00011685267 -9.1748971e-06 -5.4052506e-24 1.5722254e-05 4.1064605e-24 1.7342018e-42)
(0.00011041925 -6.0695226e-06 3.6819804e-24 5.7951187e-06 -1.6254642e-24 7.6875256e-43)
(0.00010570483 -8.0449896e-07 9.2971435e-26 3.7019728e-07 -7.3080443e-27 2.2116317e-46)
(0.0089385908 -0.0015310514 -1.9066589e-22 0.0065117804 -2.8696543e-22 3.0904497e-41)
(0.0076660664 -0.0026378963 1.0335946e-21 0.0097327387 7.1600668e-23 3.2415112e-40)
(0.0062172404 -0.0021469252 1.802057e-22 0.009732195 -3.9716293e-22 2.581188e-41)
(0.00509397 -0.001599035 1.4922877e-21 0.0095618936 3.098666e-22 1.0266658e-39)
(0.0038267554 -0.0013285764 -2.4158084e-22 0.0088851939 -2.9857803e-22 7.086416e-41)
(0.0027878144 -0.0011334139 4.7622136e-22 0.0079114156 2.4576225e-22 2.5633704e-40)
(0.0025170782 -0.00085767763 -1.3483119e-23 0.0067331931 1.0621008e-22 1.9553627e-42)
(0.002532835 -0.00057099299 6.483907e-22 0.0053897845 1.2041728e-22 2.5521465e-40)
(0.0024639406 -0.0003867683 -6.9586703e-23 0.0040087389 -1.4961324e-22 1.0099088e-41)
(0.0022247257 -0.00023952248 -1.6428163e-22 0.0027590928 -1.762575e-23 1.4637102e-41)
(0.0017467487 -1.3592541e-05 4.04366e-23 0.0019026256 7.6161961e-23 4.6268707e-42)
(0.0012522493 9.4082732e-05 -1.4668722e-22 0.0013465204 3.140741e-24 2.0426412e-41)
(0.00085856811 8.0126391e-05 2.1887772e-23 0.0009587827 2.1877592e-23 1.1527488e-42)
(0.00060215921 5.1532182e-05 3.143581e-24 0.00070408527 -6.310656e-25 3.4400974e-44)
(0.00043893221 2.4089176e-05 -3.2254006e-24 0.00052523182 -2.7147382e-23 1.6307183e-42)
(0.00033425868 6.715113e-07 -1.8290374e-24 0.00039290931 -3.1848011e-24 8.20172e-44)
(0.00026627256 -1.558329e-05 8.6300528e-25 0.00028964737 8.622264e-25 3.5898016e-44)
(0.00022126315 -2.4847264e-05 1.6290845e-24 0.00020807538 -1.5254486e-23 1.6146131e-42)
(0.00018945155 -2.7402104e-05 0 0.00014344579 0 0)
(0.00016601423 -2.5592169e-05 1.0169218e-24 9.4117422e-05 -1.9531017e-24 4.9418493e-44)
(0.00014708366 -2.0818958e-05 3.2023916e-25 5.7101631e-05 -4.3091197e-25 4.121588e-45)
(0.00013245027 -1.5665662e-05 -6.3047434e-25 3.1924751e-05 5.9824488e-25 1.4892687e-44)
(0.00012035603 -9.7387768e-06 -5.5199356e-26 1.4370508e-05 -1.4711121e-26 4.7029895e-45)
(0.00011343557 -6.1754374e-06 -5.968072e-24 5.2632612e-06 2.2451657e-24 1.579699e-42)
(0.00010823927 -7.3211235e-07 -2.8698234e-24 3.3255344e-07 2.4679426e-25 3.9080382e-43)
(0.0097301512 -0.0015910866 5.7877437e-22 0.006778036 2.6014711e-22 1.1442164e-40)
(0.0087193522 -0.0028978239 -6.5731004e-22 0.01046915 1.7402805e-23 1.1723455e-40)
(0.0071985308 -0.0024629888 -3.2636938e-22 0.010749223 2.569269e-23 3.2814728e-41)
(0.0061184667 -0.0018963095 -2.1343915e-22 0.010778963 -4.1498933e-23 1.6974271e-41)
(0.0051534527 -0.0015246745 -1.2078388e-21 0.010279803 -3.3945945e-22 6.981438e-40)
(0.0038397384 -0.0013189573 -1.16504e-22 0.0093011082 2.3670417e-22 1.2353226e-41)
(0.0029259912 -0.0011431132 -2.3536751e-23 0.0080940291 1.3904029e-22 2.7727347e-42)
(0.0027057973 -0.00088377903 -3.8170054e-23 0.006737837 -1.7619399e-23 1.1199239e-42)
(0.002663617 -0.00061873948 -4.9743213e-22 0.0052540754 -8.6085652e-23 1.4174985e-40)
(0.0025351259 -0.00043077738 -3.214013e-23 0.0037967426 1.6107694e-22 8.1774869e-42)
(0.0021916196 -0.00021918194 -1.7656573e-22 0.0025804612 -5.1624376e-23 1.8424378e-41)
(0.001650365 3.1839331e-05 2.9455155e-23 0.0018126505 -3.9803357e-24 6.2335136e-43)
(0.0011504523 8.8103298e-05 6.3423903e-23 0.0012820056 -1.6675015e-24 4.4350689e-42)
(0.00078791962 6.0722953e-05 -3.1426683e-24 0.00092367105 -1.1448385e-23 1.7811407e-43)
(0.00055936362 3.0004676e-05 1.0150619e-23 0.00068324274 -2.5265973e-24 4.6144869e-43)
(0.000415228 2.2146794e-06 5.8465287e-25 0.00051181707 3.8533713e-23 3.3655063e-42)
(0.00032347038 -1.8549221e-05 -1.0334423e-23 0.00038166499 4.3544716e-23 6.5448747e-42)
(0.00026421515 -3.154406e-05 -1.3128446e-24 0.00027971049 2.5873972e-23 3.5098471e-42)
(0.00022381793 -3.6341524e-05 -7.1315154e-24 0.00019888429 3.1233875e-23 7.017822e-42)
(0.00019453366 -3.5219873e-05 -2.2439777e-25 0.00013558038 3.5313654e-25 1.3769036e-45)
(0.00017146034 -3.0120661e-05 1.258491e-23 8.7930849e-05 -2.0311761e-23 6.4791999e-42)
(0.00015221954 -2.3152118e-05 2.2283323e-24 5.2759216e-05 -2.8830231e-24 3.2745188e-43)