/*--------------------------------*- C++ -*----------------------------------*\
| =========                 |                                                 |
| \\      /  F ield         | OpenFOAM: The Open Source CFD Toolbox           |
|  \\    /   O peration     | Version:  5.0                                   |
|   \\  /    A nd           | Web:      www.OpenFOAM.org                      |
|    \\/     M anipulation  |                                                 |
\*---------------------------------------------------------------------------*/
FoamFile
{
    version     2.0;
    format      ascii;
    class       volScalarField;
    location    "150";
    object      p;
}
// * * * * * * * * * * * * * * * * * * * * * * * * * * * * * * * * * * * * * //

dimensions      [0 2 -2 0 0 0 0];

internalField   nonuniform List<scalar> 
9200
(
-0.0007973771
-0.00079266957
-0.0017866548
-0.00078695906
-0.0017857545
-0.0030507403
-0.00078290943
-0.0017716552
-0.0030452208
-0.0041685869
-0.00077355978
-0.0017574439
-0.0030245608
-0.0041645359
-0.005320453
-0.00076340705
-0.0017313259
-0.0030026822
-0.0041398631
-0.0053178941
-0.0064143947
-0.00074909925
-0.0017014035
-0.002963261
-0.004113751
-0.0052917326
-0.006417045
-0.0074860449
-0.00073244139
-0.0016619576
-0.0029163549
-0.004065253
-0.0052654014
-0.006393098
-0.0074960999
-0.0085139294
-0.00071262872
-0.0016159901
-0.0028544948
-0.0040063472
-0.0052124621
-0.006372083
-0.0074780369
-0.0085347102
-0.0095054083
-0.00069031129
-0.001562224
-0.0027812835
-0.0039276734
-0.0051466266
-0.0063211363
-0.0074677364
-0.0085270002
-0.009539973
-0.010452151
-0.00066569126
-0.0015017203
-0.0026951909
-0.0038332962
-0.0050562916
-0.0062557931
-0.0074249583
-0.0085340108
-0.0095464274
-0.010503293
-0.011352174
-0.00063937057
-0.0014347607
-0.0025976914
-0.0037212763
-0.0049458135
-0.0061618468
-0.0073670213
-0.008507222
-0.0095767435
-0.010528069
-0.011423292
-0.01220159
-0.00061204226
-0.0013620632
-0.0024894644
-0.0035933715
-0.0048127289
-0.0060438574
-0.0072768995
-0.0084657431
-0.0095733436
-0.010588416
-0.011471935
-0.012295604
-0.012997014
-0.00058457818
-0.001284186
-0.00237189
-0.0034504541
-0.0046590365
-0.0058985401
-0.007159381
-0.0083890549
-0.0095571099
-0.010616779
-0.011569301
-0.012372168
-0.013116728
-0.013735011
-0.00055774567
-0.0012016819
-0.002246325
-0.003294272
-0.0044857979
-0.0057279293
-0.0070099136
-0.0082814926
-0.0095035524
-0.010634927
-0.011637353
-0.012512616
-0.013225669
-0.013882932
-0.014412475
-0.00053261137
-0.0011149973
-0.0021142662
-0.003126542
-0.004295226
-0.0055330475
-0.0068302959
-0.0081373567
-0.0094163107
-0.010614343
-0.01169968
-0.012628545
-0.01341652
-0.014028279
-0.014590818
-0.015026667
-0.00050877655
-0.0010253518
-0.0019771121
-0.0029491431
-0.0040896136
-0.005316349
-0.0066213529
-0.0079581414
-0.0092880518
-0.010558172
-0.011723107
-0.012744744
-0.013588626
-0.014275089
-0.014776293
-0.01523728
-0.015575339
-0.00048428981
-0.0009338165
-0.0018366768
-0.0027639141
-0.0038715335
-0.0050804358
-0.0063857122
-0.0077442795
-0.0091197274
-0.010456998
-0.011709666
-0.012822942
-0.013768387
-0.014510543
-0.015084766
-0.015466113
-0.015819668
-0.01605679
-0.00045612244
-0.00084200921
-0.0016939468
-0.0025731942
-0.0036435434
-0.0048282665
-0.0061263004
-0.0074983741
-0.0089111704
-0.010310892
-0.011647679
-0.012864067
-0.013912568
-0.014763376
-0.015391833
-0.015840994
-0.016094573
-0.016335848
-0.016469912
-0.00041920427
-0.00075307868
-0.0015494054
-0.002378942
-0.0034085078
-0.0045628431
-0.0058465502
-0.0072234858
-0.0086647875
-0.010118811
-0.011536084
-0.012853815
-0.014020563
-0.014984433
-0.01572654
-0.016225667
-0.01654
-0.016658938
-0.016784274
-0.016814202
-0.00036735503
-0.00067067457
-0.0014037512
-0.0021831762
-0.0031687241
-0.0042874877
-0.0055500243
-0.0069233381
-0.0083836586
-0.0098827272
-0.011372696
-0.012789685
-0.014075198
-0.015171491
-0.016035052
-0.016650518
-0.01700841
-0.017178118
-0.017157028
-0.017164004
-0.017089764
-0.00029434962
-0.00059893174
-0.0012570849
-0.0019886445
-0.0029261725
-0.0040051943
-0.0052405545
-0.0066018975
-0.0080717438
-0.0096055121
-0.011158846
-0.012668042
-0.014072273
-0.015304306
-0.016313326
-0.017056581
-0.017531211
-0.017734843
-0.017752281
-0.017587233
-0.017474715
-0.017297334
-0.00019517719
-0.00054190668
-0.001109338
-0.0017980151
-0.0026831035
-0.0037188287
-0.0049216476
-0.0062634372
-0.0077333948
-0.00929119
-0.010896978
-0.012489309
-0.014006407
-0.015376712
-0.0165378
-0.017437759
-0.018044096
-0.018361878
-0.01840134
-0.018259945
-0.017948558
-0.017716698
-0.017438326
-6.7183921e-05
-0.00050289075
-0.0009604718
-0.0016139451
-0.002441537
-0.0034316067
-0.0045965618
-0.0059120285
-0.0073733407
-0.0089443558
-0.010591033
-0.012255265
-0.013876822
-0.015381286
-0.016700095
-0.017767108
-0.018539296
-0.018989946
-0.019138202
-0.019004132
-0.018699251
-0.018240641
-0.0178909
-0.017514549
8.911405e-05
-0.00048380011
-0.00081066691
-0.0014388846
-0.0022035234
-0.0031466024
-0.0042687258
-0.0055515578
-0.006996211
-0.0085700919
-0.010245749
-0.01196952
-0.013684392
-0.015315746
-0.01679046
-0.018033848
-0.0189864
-0.019609376
-0.019888561
-0.019854488
-0.019540208
-0.019068969
-0.018463919
-0.017998936
-0.017527365
0.00026974918
-0.00048468558
-0.00066043414
-0.0012748968
-0.0019711834
-0.0028667835
-0.0039414536
-0.0051860778
-0.006606477
-0.0081735131
-0.0098665066
-0.011636783
-0.01343217
-0.015179749
-0.016804809
-0.018225648
-0.019372071
-0.020186378
-0.020641356
-0.020732945
-0.020506734
-0.020006763
-0.019368743
-0.018619668
-0.018042786
-0.017478202
0.0004685
-0.00050265232
-0.00051058137
-0.0011234866
-0.0017466472
-0.0025949603
-0.0036180543
-0.0048195954
-0.0062087036
-0.0077596623
-0.0094588933
-0.011262596
-0.01312461
-0.014975541
-0.016741273
-0.01833632
-0.019681176
-0.020704973
-0.021359509
-0.02162691
-0.021517623
-0.021090551
-0.020402129
-0.019598389
-0.01870928
-0.018024043
-0.017373427
0.00067942394
-0.00052849542
-0.00036278478
-0.00098557474
-0.001531795
-0.0023337402
-0.0033018294
-0.0044561106
-0.0058073991
-0.0073337022
-0.0090285439
-0.010852894
-0.012767276
-0.014707085
-0.016600974
-0.018362144
-0.019905141
-0.021147067
-0.02202437
-0.022496242
-0.022559105
-0.022236679
-0.021602934
-0.020724838
-0.019758002
-0.018733699
-0.017944647
-0.017217182
0.00089515537
-0.00054685503
-0.00022403321
-0.00086130127
-0.0013280576
-0.002085701
-0.0029959621
-0.0040996148
-0.0054070722
-0.0069008142
-0.0085812233
-0.010413812
-0.012366375
-0.014379746
-0.016387118
-0.018302802
-0.020038076
-0.021501451
-0.022614766
-0.02331967
-0.023588256
-0.023430387
-0.022885459
-0.022041021
-0.020974405
-0.019848455
-0.018694946
-0.0178099
-0.017011806
0.0011021428
-0.00056291658
-0.00010813367
-0.00074970598
-0.0011370137
-0.0018530064
-0.0027033333
-0.0037540058
-0.0050122759
-0.0064662339
-0.0081227304
-0.009951684
-0.011928509
-0.013999823
-0.016104658
-0.018160425
-0.020077883
-0.021759758
-0.023116651
-0.024072917
-0.024581311
-0.024626354
-0.024234376
-0.023459537
-0.022403106
-0.021151007
-0.019871855
-0.018596934
-0.01762349
-0.016761061
0.0012994627
-0.00059676824
9.1046708e-08
-0.00064798846
-0.00096217748
-0.0016370154
-0.0024265127
-0.0034229424
-0.0046275307
-0.0060352786
-0.0076589365
-0.0094729636
-0.011460558
-0.013574231
-0.015759799
-0.017939271
-0.020025281
-0.021917768
-0.023518906
-0.024738953
-0.025510937
-0.025798537
-0.025602373
-0.024964836
-0.023955615
-0.022688076
-0.021255645
-0.019830778
-0.018443032
-0.017389085
-0.016468329
0.0015093623
-0.00064331523
0.00011489804
-0.00054942615
-0.00080916932
-0.0014388111
-0.0021677326
-0.0031095396
-0.0042571535
-0.0056132598
-0.0071958376
-0.0089842667
-0.010969601
-0.013110302
-0.015359631
-0.017645192
-0.019883519
-0.02197443
-0.023814853
-0.025303668
-0.026357043
-0.026916692
-0.026961429
-0.026508141
-0.025616646
-0.024371053
-0.022895822
-0.021290056
-0.019728209
-0.018236939
-0.017110289
-0.016137178
0.0017223555
-0.00069334038
0.00022040011
-0.00046679466
-0.00066303239
-0.0012578368
-0.0019300536
-0.0028163015
-0.0039049687
-0.0052052897
-0.0067394989
-0.0084924096
-0.010462943
-0.012615705
-0.014911858
-0.017285226
-0.019657821
-0.021931631
-0.024001311
-0.025757623
-0.027102361
-0.027957676
-0.028278619
-0.028059829
-0.027336525
-0.026185336
-0.02470426
-0.023026921
-0.021256501
-0.019567482
-0.017982396
-0.016790785
-0.015771714
0.0019283988
-0.00074308855
0.00032272854
-0.00041254757
-0.00051409857
-0.0010808055
-0.0017163834
-0.0025462719
-0.0035742277
-0.0048159292
-0.0062958683
-0.0080043442
-0.0099481628
-0.012098454
-0.014424673
-0.016867275
-0.01935494
-0.021793629
-0.02407843
-0.026095144
-0.027734416
-0.028900959
-0.029527852
-0.029584628
-0.029084481
-0.028080989
-0.026667544
-0.024954453
-0.023082745
-0.02115777
-0.019352136
-0.017683178
-0.016434408
-0.015375461
0.0021201549
-0.00079384191
0.00042517101
-0.00035675131
-0.00038614534
-0.00090491775
-0.0015068529
-0.0023013533
-0.0032689222
-0.0044490519
-0.0058703924
-0.0075269524
-0.0094330684
-0.011566955
-0.013906747
-0.016399929
-0.018982783
-0.021566593
-0.024049146
-0.026314257
-0.028244708
-0.029730822
-0.03068532
-0.031053692
-0.030823313
-0.030026598
-0.028736115
-0.027060804
-0.025121762
-0.023065297
-0.020997054
-0.019085924
-0.017343156
-0.016044839
-0.014952247
0.0022912081
-0.00084418885
0.0005222995
-0.00029601024
-0.00026825114
-0.00077178234
-0.0012889757
-0.0020575665
-0.0029920424
-0.0041092503
-0.0054678256
-0.0070666157
-0.0089255126
-0.011029955
-0.013367257
-0.015892429
-0.018550186
-0.021258178
-0.023918711
-0.02641618
-0.028628753
-0.030435636
-0.031731922
-0.032440023
-0.03252172
-0.031983542
-0.030878469
-0.029297441
-0.027363699
-0.025207143
-0.022977188
-0.020777881
-0.018772737
-0.016966179
-0.015625866
-0.014505543
0.0024355677
-0.00089091859
0.00060928579
-0.00023974538
-0.00015316038
-0.00065541367
-0.001114806
-0.001806556
-0.0027163536
-0.0037998851
-0.0050937656
-0.0066289703
-0.0084329384
-0.01049636
-0.012815872
-0.015354688
-0.018066829
-0.020877255
-0.02369424
-0.026404873
-0.028885645
-0.031008036
-0.032652652
-0.03372108
-0.03414969
-0.03391845
-0.033055137
-0.03163333
-0.029761658
-0.027575794
-0.025212346
-0.022821537
-0.020504059
-0.018416548
-0.016556105
-0.015181079
-0.014038748
0.0025481588
-0.00093127232
0.00068460362
-0.0001931149
-4.3187185e-05
-0.00053392558
-0.00096159246
-0.0016135463
-0.0024364337
-0.0034900398
-0.0047526177
-0.0062205694
-0.0079620692
-0.0099747402
-0.012262572
-0.014797274
-0.017543246
-0.02043378
-0.023384381
-0.026286558
-0.029017647
-0.031444585
-0.033436934
-0.034878306
-0.035681293
-0.035798593
-0.035231154
-0.034028786
-0.032285647
-0.030126557
-0.027697641
-0.025139824
-0.0226019
-0.020179595
-0.018021381
-0.016116699
-0.014713993
-0.013555067
0.0026251054
-0.00096310716
0.0007468674
-0.00015515451
5.3233696e-05
-0.00041787091
-0.00080897534
-0.0014402706
-0.0022168278
-0.0031780687
-0.0044097307
-0.0058468103
-0.0075206734
-0.0094729589
-0.011717149
-0.014231235
-0.016990812
-0.019938785
-0.022999147
-0.026069357
-0.029029708
-0.031745416
-0.034078398
-0.035897631
-0.037094333
-0.037594794
-0.037371466
-0.036447807
-0.034896415
-0.032831072
-0.030391119
-0.027730704
-0.024992658
-0.022322194
-0.01980864
-0.017591243
-0.015651647
-0.014227947
-0.013057498
0.0026641593
-0.00098513529
0.00079468588
-0.00012496267
0.00013471674
-0.00031815763
-0.00066136123
-0.0012616145
-0.0020088128
-0.0029362177
-0.0040655371
-0.0054692463
-0.0071154905
-0.0090000185
-0.011188735
-0.013667589
-0.0164216
-0.019404371
-0.022549871
-0.025763068
-0.028929067
-0.031913785
-0.034574617
-0.036769384
-0.03837103
-0.039281232
-0.039443912
-0.038853504
-0.037557537
-0.035651188
-0.033266597
-0.030555443
-0.027677297
-0.024774473
-0.021986612
-0.019395424
-0.017130085
-0.015164487
-0.013726104
-0.012548855
-0.00099614167
0.0026641595
0.00082637717
-0.00010223746
0.00020095773
-0.00023406178
-0.00053251357
-0.0010887547
-0.0017993864
-0.002699419
-0.0037953095
-0.0050907741
-0.0067041513
-0.008564116
-0.010687729
-0.013116773
-0.015847865
-0.018843572
-0.0220492
-0.025379092
-0.028724984
-0.031955648
-0.034926709
-0.037488153
-0.039498093
-0.040836289
-0.041419166
-0.041211101
-0.040230874
-0.0385507
-0.036287685
-0.033590528
-0.030620706
-0.027540488
-0.024489349
-0.02159955
-0.01894419
-0.016641766
-0.014658605
-0.013211436
-0.012031735
0.00084170609
-0.00099614161
0.002625106
-8.7655606e-05
0.00025143904
-0.00016540053
-0.00042374564
-0.00093914991
-0.0015976665
-0.0024586668
-0.0035205516
-0.0047927766
-0.0062911017
-0.0081191096
-0.010224134
-0.012590674
-0.015281438
-0.01826985
-0.021510985
-0.024930417
-0.028428628
-0.031879357
-0.035138915
-0.03805246
-0.040466726
-0.042242801
-0.043271739
-0.043487999
-0.042879515
-0.041490869
-0.039419112
-0.036801978
-0.03380248
-0.030589079
-0.027324013
-0.024141733
-0.02116553
-0.01845915
-0.016130008
-0.014137201
-0.012686712
-0.011508532
-8.0742061e-05
0.00084170634
-0.00098513507
0.0025481596
0.00028458367
-0.00011325091
-0.00033559531
-0.00081344017
-0.0014226219
-0.0022262199
-0.0032438766
-0.0044797668
-0.0059608771
-0.0076714664
-0.0097483421
-0.012101263
-0.014735807
-0.01769643
-0.020949794
-0.024431526
-0.028053042
-0.031695498
-0.035218261
-0.038464376
-0.041272408
-0.043488232
-0.04498043
-0.04565493
-0.045467947
-0.044433228
-0.042622211
-0.040156135
-0.037191655
-0.033903316
-0.030463644
-0.027032179
-0.023736339
-0.02068913
-0.017944428
-0.01559838
-0.013603288
-0.01215449
-0.010981437
0.00030049271
-8.0741871e-05
0.00082637778
-0.00096310686
0.0024355688
-7.9941921e-05
-0.0002688489
-0.00071165323
-0.0012756272
-0.00202519
-0.0029774239
-0.0041647374
-0.0056018783
-0.0073071688
-0.0092682117
-0.011595159
-0.014225122
-0.017138418
-0.020380215
-0.023897946
-0.027613078
-0.031416841
-0.03517435
-0.038729145
-0.041914566
-0.044564591
-0.046528669
-0.047686579
-0.047963313
-0.047339819
-0.045857621
-0.043615187
-0.04075686
-0.037455795
-0.033895073
-0.030248293
-0.026669746
-0.023278067
-0.020174915
-0.017404033
-0.015050266
-0.013059666
-0.011617127
-0.010452436
-6.5237223e-05
0.00030049294
-8.7654902e-05
0.00079468696
-0.00093127189
0.0022912095
-0.00022576902
-0.0006346368
-0.0011568158
-0.0018566687
-0.0027467796
-0.0038614453
-0.0052428742
-0.0068975693
-0.0088604743
-0.011081737
-0.013692249
-0.016612289
-0.019818999
-0.023345523
-0.027124984
-0.031058284
-0.035019278
-0.038854946
-0.042396188
-0.045468193
-0.04790461
-0.049562135
-0.050336236
-0.050174537
-0.04908552
-0.047139596
-0.044461893
-0.041218072
-0.037594926
-0.033780866
-0.029947603
-0.026241832
-0.022771917
-0.0196274
-0.016841816
-0.014488851
-0.012508925
-0.011076765
-0.0099233258
-0.00020596467
-6.5236857e-05
0.00028458455
-0.00010223641
0.0007468688
-0.00089091808
0.0021201565
-0.00058501621
-0.0010670701
-0.0017205232
-0.002553534
-0.0035990886
-0.0048980384
-0.0064912688
-0.0083869989
-0.010634753
-0.013148548
-0.01605725
-0.019285149
-0.022792577
-0.026605687
-0.030636489
-0.034767585
-0.038852753
-0.042723548
-0.046199279
-0.049101006
-0.051265566
-0.052561546
-0.052904099
-0.052267003
-0.05068832
-0.048267819
-0.045156317
-0.041538273
-0.037610943
-0.033564773
-0.029566725
-0.025753805
-0.022222931
-0.019050988
-0.016261433
-0.013917082
-0.011953445
-0.010535376
-0.0093957012
-0.00056231258
-0.00020596426
-7.9941058e-05
0.00025144033
-0.00012496113
0.00068460545
-0.0008441882
0.0019284006
-0.0010092921
-0.0016177717
-0.0023976494
-0.0033794268
-0.0045998283
-0.00610118
-0.007928319
-0.010098143
-0.012660653
-0.01548714
-0.018714353
-0.022260722
-0.026074958
-0.030169206
-0.034435953
-0.038736286
-0.042906002
-0.046761718
-0.050114861
-0.052785657
-0.054618781
-0.055498977
-0.055365187
-0.054220227
-0.05213319
-0.049232993
-0.045694372
-0.04171762
-0.037507007
-0.033251696
-0.029111256
-0.025211213
-0.021636113
-0.0184499
-0.015666296
-0.01333773
-0.011395464
-0.0099947096
-0.0088710295
-0.00098286638
-0.0005623123
-0.00022576815
-0.00011324935
0.00020095965
-0.00015515264
0.00060928789
-0.00079384118
0.0017223574
-0.0015516594
-0.0022801936
-0.0032023538
-0.0043503522
-0.0057635203
-0.0074894099
-0.0095803394
-0.012053264
-0.014957274
-0.018123137
-0.021682174
-0.025557108
-0.029677423
-0.03404259
-0.038521765
-0.04295592
-0.047162719
-0.050947131
-0.054115695
-0.0564924
-0.057934129
-0.058346309
-0.057695266
-0.056015261
-0.053407049
-0.050027917
-0.046073921
-0.041757854
-0.037287401
-0.032847245
-0.028587164
-0.024619676
-0.021016318
-0.017828113
-0.015059671
-0.01275346
-0.010836952
-0.00945622
-0.0083506414
-0.0015214312
-0.00098286615
-0.00058501509
-0.00026884724
-0.0001653985
0.00013471905
-0.00019311254
0.00052230198
-0.00074308767
0.0015093644
-0.0022046575
-0.0030690679
-0.0041494829
-0.0054812146
-0.0071088243
-0.0090863554
-0.01146961
-0.014272643
-0.017550279
-0.021076744
-0.024980991
-0.029188125
-0.033609384
-0.038227392
-0.042888492
-0.047412717
-0.051602318
-0.055253228
-0.058171522
-0.060189388
-0.061180703
-0.061075703
-0.05987137
-0.057634984
-0.054499107
-0.050647558
-0.046294708
-0.041662169
-0.036957421
-0.032357632
-0.028000638
-0.023984719
-0.020368168
-0.017189525
-0.014444802
-0.012166568
-0.010279321
-0.0089212606
-0.0078354703
-0.002170092
-0.0015214308
-0.001009291
-0.00063463514
-0.00033559319
-0.00023405909
5.3236614e-05
-0.0002397427
0.00042517372
-0.00069333939
0.0012994649
-0.0029833688
-0.0039984862
-0.0052541777
-0.0067905282
-0.0086579695
-0.010914476
-0.01361706
-0.016781264
-0.02046081
-0.024370118
-0.028626797
-0.033165901
-0.037875509
-0.042721349
-0.047525233
-0.052088296
-0.056199485
-0.059649836
-0.062249314
-0.063843368
-0.064327323
-0.0636602
-0.061872167
-0.059064517
-0.055400879
-0.051089062
-0.046358279
-0.041435111
-0.036523257
-0.031789505
-0.027357864
-0.023311675
-0.019696321
-0.016538129
-0.013824379
-0.011578314
-0.0097240406
-0.0083919565
-0.0073260408
-0.0029441086
-0.0021700916
-0.0015516584
-0.0010670685
-0.00071165073
-0.00042374274
-0.00031815452
-4.3183908e-05
-0.00029600708
0.00032273159
-0.00064331405
0.0011021451
-0.00390141
-0.0050837278
-0.0065347401
-0.0082997211
-0.010432977
-0.012995125
-0.016046784
-0.019600787
-0.023711764
-0.028021291
-0.032634243
-0.037498043
-0.0424767
-0.047516643
-0.052416196
-0.056959125
-0.060924734
-0.06410334
-0.06631398
-0.067420165
-0.067343195
-0.066074191
-0.063678363
-0.060291454
-0.056106288
-0.051351692
-0.046267898
-0.041082477
-0.035991798
-0.031149624
-0.026664912
-0.022606084
-0.019005698
-0.015877096
-0.013199476
-0.010990504
-0.0091750177
-0.0078698589
-0.006799612
-0.0038568653
-0.0029441084
-0.0022046566
-0.0016177698
-0.0011568133
-0.00081343713
-0.00053251023
-0.00041786714
-0.00015315654
-0.00035674781
0.0002204034
-0.00059676684
0.00089515782
-0.0049741419
-0.0063429188
-0.0080120271
-0.010030346
-0.012455375
-0.015351737
-0.018780794
-0.022754379
-0.027322438
-0.032047186
-0.037013563
-0.042188505
-0.047408315
-0.052600355
-0.057540115
-0.061996988
-0.065744507
-0.068577328
-0.070328947
-0.070885469
-0.070198477
-0.068293871
-0.065273187
-0.061305898
-0.056611664
-0.051436814
-0.046028475
-0.04061107
-0.03537022
-0.030444779
-0.025928302
-0.021873959
-0.018300033
-0.015207192
-0.01257238
-0.010410235
-0.0086347059
-0.0073226921
-0.0062497342
-0.0049237632
-0.0038568651
-0.0029833677
-0.0022801917
-0.0017205208
-0.0012756243
-0.00093914601
-0.00066135713
-0.00053392136
-0.00026824693
-0.00041254353
0.00011490173
-0.00056291482
0.00067942656
-0.006219579
-0.0077965029
-0.0097072381
-0.012003956
-0.014748137
-0.018006471
-0.021841916
-0.026262254
-0.031310885
-0.036460513
-0.041771568
-0.047235746
-0.052660416
-0.057953874
-0.062870613
-0.067168993
-0.070621767
-0.073033173
-0.074256772
-0.074205435
-0.072864837
-0.070297704
-0.066642479
-0.062100621
-0.056915797
-0.051347856
-0.045646285
-0.040028205
-0.034665915
-0.029682519
-0.025155289
-0.021119657
-0.017579608
-0.0145314
-0.011954163
-0.0098408764
-0.0080544473
-0.0067544595
-0.0056881793
-0.0061627721
-0.0049237627
-0.0039014089
-0.0030690663
-0.002397647
-0.0018566654
-0.001422618
-0.0010887503
-0.00080897079
-0.00065540881
-0.00038614055
-0.00046679014
9.5031149e-08
-0.00054685298
0.00046850275
-0.0076579
-0.0094654396
-0.011641873
-0.014243163
-0.017333448
-0.020981873
-0.025250821
-0.030143381
-0.035691149
-0.041270798
-0.046909602
-0.052632758
-0.058217292
-0.063553156
-0.068376074
-0.072438118
-0.075516425
-0.077430714
-0.078059794
-0.077347265
-0.075315936
-0.072066904
-0.067774841
-0.062671139
-0.057019954
-0.051089999
-0.045128377
-0.039341669
-0.033887476
-0.028871485
-0.024350898
-0.020342875
-0.016848178
-0.013866119
-0.011349206
-0.0092032484
-0.007461235
-0.0061707823
-0.005116783
-0.0075939492
-0.0061627719
-0.0049741411
-0.0039984847
-0.0032023513
-0.0025535306
-0.0020251861
-0.0015976622
-0.0012616091
-0.00096158712
-0.00077177702
-0.0005140933
-0.000549421
-0.00010812922
-0.00052849314
0.00026975208
-0.0093099141
-0.011371142
-0.013838249
-0.016770101
-0.020233658
-0.024298861
-0.029026736
-0.034413128
-0.040473957
-0.046482161
-0.052423357
-0.058366802
-0.064057608
-0.069368426
-0.07402015
-0.077763587
-0.080386136
-0.081729034
-0.081700784
-0.080279845
-0.077527967
-0.073585469
-0.06866189
-0.063015854
-0.056927562
-0.05066949
-0.044482593
-0.038561017
-0.033045012
-0.02801737
-0.023514107
-0.019548432
-0.016129157
-0.013216651
-0.010640094
-0.0085614483
-0.0068471042
-0.005576463
-0.0045352234
-0.0092380308
-0.007593949
-0.006219578
-0.0050837261
-0.0041494803
-0.0033794237
-0.0027467757
-0.0022262152
-0.0017993811
-0.0014402646
-0.0011148001
-0.00090491159
-0.00066302645
-0.00064798279
-0.00022402831
-0.00050264987
8.9117065e-05
-0.011196965
-0.013535708
-0.016318398
-0.019606896
-0.023469781
-0.0279768
-0.033185785
-0.039083878
-0.04566451
-0.052092834
-0.058302928
-0.064419483
-0.070153835
-0.075364688
-0.079762016
-0.083101647
-0.085187042
-0.085887419
-0.085144058
-0.082974216
-0.079480023
-0.074840541
-0.06929845
-0.063135695
-0.056643388
-0.050093743
-0.043719272
-0.037697865
-0.032144833
-0.027118235
-0.022651119
-0.018768
-0.015428551
-0.012414971
-0.0099388736
-0.0078921808
-0.0062219349
-0.004970139
-0.0039443943
-0.011116335
-0.0092380304
-0.0076578989
-0.0063429172
-0.0052541755
-0.0043503491
-0.0035990844
-0.002977419
-0.0024586613
-0.002008807
-0.0016135394
-0.0012889689
-0.0010807987
-0.00080916283
-0.00074969973
-0.00036277942
-0.00048468287
-6.7180839e-05
-0.013341002
-0.015981056
-0.019104228
-0.022774507
-0.027061248
-0.032032311
-0.037741373
-0.044162558
-0.051261691
-0.058095749
-0.064532847
-0.070765738
-0.076472903
-0.081501801
-0.085557107
-0.088406247
-0.089874836
-0.089865535
-0.088355776
-0.085404302
-0.081154339
-0.075822748
-0.0696822
-0.063033181
-0.056173798
-0.049373573
-0.042851479
-0.036758981
-0.031183757
-0.026181993
-0.021803257
-0.018008542
-0.014516175
-0.011634907
-0.0092006393
-0.0072118743
-0.0055833158
-0.0043535758
-0.00334462
-0.013250749
-0.011116335
-0.0093099132
-0.0077965013
-0.0065347375
-0.0054812113
-0.004599824
-0.0038614405
-0.003243871
-0.0026994126
-0.002216821
-0.0018065483
-0.0015068454
-0.0012578291
-0.00096217026
-0.00086129461
-0.00051057578
-0.00048379723
-0.00019517411
-0.015763862
-0.018728911
-0.022216584
-0.026292375
-0.031025043
-0.036479416
-0.042701835
-0.049649342
-0.057259296
-0.064478688
-0.071090319
-0.07737486
-0.08297604
-0.087735087
-0.091357903
-0.093629677
-0.094405136
-0.093624476
-0.091304454
-0.087547213
-0.082536875
-0.076525809
-0.069812578
-0.062712864
-0.055529641
-0.04852334
-0.041886158
-0.035739476
-0.03017178
-0.025261347
-0.020978698
-0.016963313
-0.01364169
-0.010805917
-0.0084526438
-0.0065173273
-0.0049338992
-0.0037270158
-0.0027365714
-0.015663067
-0.013250749
-0.011196964
-0.0094654378
-0.0080120244
-0.0067905249
-0.0057635162
-0.0048980335
-0.0041647314
-0.0035205449
-0.0029362105
-0.002436426
-0.0020575577
-0.001716375
-0.0014388028
-0.001137006
-0.00098556767
-0.00066042838
-0.00050288774
-0.00029434665
-0.018487139
-0.021800001
-0.025674851
-0.030177666
-0.035375608
-0.041327814
-0.04806954
-0.055542263
-0.063647787
-0.071221187
-0.07794701
-0.084210114
-0.089619091
-0.094016323
-0.09711449
-0.098723771
-0.098734602
-0.097127154
-0.093961976
-0.089383924
-0.083616819
-0.076945255
-0.069691465
-0.062185067
-0.054726287
-0.047549687
-0.040816023
-0.03465182
-0.029175093
-0.024365998
-0.019777807
-0.015974583
-0.012703174
-0.0099689554
-0.0076896183
-0.0058119415
-0.0042737094
-0.003091534
-0.0021208023
-0.018374831
-0.015663067
-0.013341001
-0.01137114
-0.0097072357
-0.0082997178
-0.0071088198
-0.0061011746
-0.005242868
-0.00447976
-0.003795302
-0.0031780602
-0.0027163447
-0.0023013437
-0.0019300445
-0.0016370065
-0.0013280493
-0.0011234793
-0.00081066114
-0.0005419037
-0.00036735223
-0.021531466
-0.025213625
-0.02949628
-0.034445084
-0.040123669
-0.046582293
-0.0538466
-0.061835575
-0.070408549
-0.078297814
-0.085068515
-0.091228359
-0.096353943
-0.1002942
-0.10277546
-0.10364082
-0.10282168
-0.10034013
-0.096304015
-0.090898687
-0.084385054
-0.077079397
-0.069327992
-0.061465759
-0.053769383
-0.046441967
-0.039656419
-0.033578237
-0.028205301
-0.022983539
-0.018654477
-0.014903485
-0.011759181
-0.009117265
-0.0069154793
-0.005095607
-0.0036041798
-0.0024479025
-0.0014979396
-0.021406641
-0.018374831
-0.015763861
-0.013535706
-0.011641871
-0.010030343
-0.0086579649
-0.0074894045
-0.0064912626
-0.0056018713
-0.0047927684
-0.0040655281
-0.0034900303
-0.0029920327
-0.0025462613
-0.0021677227
-0.0018529971
-0.0015317865
-0.0012748894
-0.00096046608
-0.0005989288
-0.00041920173
-0.024916076
-0.028987043
-0.033695681
-0.039105951
-0.045275613
-0.052246068
-0.060028662
-0.068513794
-0.07751909
-0.085677472
-0.092412506
-0.098382368
-0.10312892
-0.10651474
-0.10828914
-0.10833473
-0.10662675
-0.10323447
-0.098309632
-0.092077107
-0.084835447
-0.076935483
-0.068738235
-0.060558633
-0.052643591
-0.04521879
-0.038508722
-0.032532651
-0.026612998
-0.021702679
-0.01742648
-0.01383056
-0.010801102
-0.0082549021
-0.006130717
-0.0043700013
-0.0029262411
-0.0017971326
-0.00086851524
-0.024777693
-0.021406641
-0.018487138
-0.015981055
-0.013838247
-0.012003953
-0.010432973
-0.00908635
-0.0079283123
-0.0068975617
-0.0059608685
-0.005090765
-0.0044097209
-0.0037998745
-0.0032689113
-0.0028162902
-0.0024265024
-0.0020856913
-0.0017466385
-0.0014388773
-0.0011093325
-0.00067067179
-0.00045612018
-0.028658201
-0.033135084
-0.03828468
-0.044167635
-0.050835094
-0.058316169
-0.066603396
-0.075558063
-0.084952881
-0.093318963
-0.099932755
-0.10562146
-0.10988829
-0.11262285
-0.11360453
-0.11276102
-0.11011557
-0.10578452
-0.09995893
-0.092907809
-0.08497269
-0.076529187
-0.067922675
-0.059441869
-0.051371155
-0.044004481
-0.037389637
-0.030699246
-0.025149517
-0.020290224
-0.016201578
-0.012744678
-0.0098331683
-0.0073824308
-0.0053367784
-0.0036362247
-0.0022412147
-0.0011395781
-0.00023333421
-0.028505204
-0.024777693
-0.021531466
-0.01872891
-0.016318395
-0.01424316
-0.012455371
-0.010914471
-0.0095803326
-0.008386991
-0.0073071602
-0.0062910922
-0.0054692357
-0.0047526065
-0.0041092389
-0.0035742161
-0.0031095276
-0.0027033225
-0.0023337305
-0.0019711748
-0.0016139379
-0.0012570795
-0.00075307602
-0.00048428785
-0.032772654
-0.037669499
-0.043271205
-0.049634225
-0.056800411
-0.064783186
-0.073554391
-0.082952207
-0.09266955
-0.10117814
-0.1075806
-0.11288928
-0.11657402
-0.11856365
-0.11867238
-0.116878
-0.11325804
-0.1079647
-0.10123488
-0.09339244
-0.084811641
-0.07585628
-0.066850648
-0.058141701
-0.050103949
-0.04281905
-0.03528119
-0.029025846
-0.023522146
-0.018887393
-0.014965263
-0.011650262
-0.0088558272
-0.006501319
-0.0045353312
-0.0028958895
-0.0015489707
-0.00047642154
0.0004069116
-0.032603983
-0.028505204
-0.024916075
-0.021799999
-0.019104226
-0.016770098
-0.014748133
-0.01299512
-0.011469603
-0.010098136
-0.008860465
-0.0076714561
-0.0067041402
-0.0058467988
-0.0050937537
-0.0044490396
-0.0039049565
-0.0034229303
-0.0029959513
-0.0025949506
-0.0022035149
-0.0017980082
-0.0014037462
-0.00084200675
-0.00050877487
-0.037271225
-0.042598489
-0.048659627
-0.055504867
-0.063164228
-0.071632937
-0.080865897
-0.090657969
-0.10062629
-0.10921073
-0.11529994
-0.12012547
-0.12312805
-0.12428316
-0.12344632
-0.12064953
-0.11602174
-0.10975092
-0.10213578
-0.093545019
-0.084341745
-0.074874163
-0.065552775
-0.056843117
-0.048865854
-0.040399074
-0.033368784
-0.027149796
-0.021912956
-0.017475205
-0.013722219
-0.010547541
-0.0078706315
-0.0056136889
-0.0037278384
-0.0021479139
-0.00085177087
0.00019160726
0.0010515192
-0.037085838
-0.032603982
-0.0286582
-0.025213623
-0.022216581
-0.019606893
-0.017333443
-0.015351732
-0.013617054
-0.012053256
-0.010634744
-0.0092682013
-0.0081190983
-0.0071154785
-0.0062205567
-0.0054678127
-0.0048159165
-0.0042571411
-0.0037539936
-0.0033018186
-0.0028667741
-0.0024415288
-0.0019886379
-0.0015494006
-0.00093381414
-0.00053260994
-0.042162225
-0.047926568
-0.054449623
-0.061773498
-0.069914207
-0.078849096
-0.088505562
-0.098629302
-0.1087849
-0.11736311
-0.12302744
-0.12727003
-0.12949263
-0.12972969
-0.12788492
-0.12404373
-0.11837598
-0.11113689
-0.10267525
-0.093347154
-0.083504818
-0.073617976
-0.064254224
-0.055574412
-0.046095798
-0.038217081
-0.031206677
-0.025302989
-0.020296809
-0.016058681
-0.01247236
-0.0094380786
-0.006880126
-0.0047210757
-0.0029119836
-0.0013955568
-0.0001504613
0.00086339126
0.0016998059
-0.041959122
-0.037085838
-0.032772653
-0.028987041
-0.025674848
-0.022774503
-0.020233653
-0.018006466
-0.016046776
-0.014272634
-0.012660644
-0.011081727
-0.0097483302
-0.0085641033
-0.0075206602
-0.0066289571
-0.0058703793
-0.0052052767
-0.004627518
-0.0040996029
-0.0036180438
-0.0031465932
-0.0026830957
-0.00218317
-0.0016939424
-0.0010253496
-0.00055774443
-0.047450218
-0.053653688
-0.060635865
-0.068429087
-0.077034003
-0.086405666
-0.096431741
-0.10683612
-0.11709888
-0.12556827
-0.13070192
-0.13426256