/*--------------------------------*- C++ -*----------------------------------*\
| =========                 |                                                 |
| \\      /  F ield         | OpenFOAM: The Open Source CFD Toolbox           |
|  \\    /   O peration     | Version:  5.0                                   |
|   \\  /    A nd           | Web:      www.OpenFOAM.org                      |
|    \\/     M anipulation  |                                                 |
\*---------------------------------------------------------------------------*/
FoamFile
{
    version     2.0;
    format      ascii;
    class       surfaceScalarField;
    location    "150";
    object      phi;
}
// * * * * * * * * * * * * * * * * * * * * * * * * * * * * * * * * * * * * * //

dimensions      [0 3 -1 0 0 0 0];

internalField   nonuniform List<scalar> 
18180
(
0.0018141316
-1.3829002
0.0035029493
-1.2937001
0.0017604929
-1.3846607
0.0050713866
-1.2104061
0.0033915058
-1.2953311
0.0017020496
-1.3863627
0.0065299218
-1.1325834
0.0049122896
-1.2119269
0.0032835278
-1.2969126
0.0016511898
-1.3880139
0.0078812849
-1.0598876
0.0063278039
-1.1339989
0.004759308
-1.2134026
0.003186474
-1.2984479
0.0015992338
-1.3896131
0.0091313535
-0.99192356
0.007642772
-1.0612026
0.0061346108
-1.1353742
0.0046230336
-1.2148392
0.0030895963
-1.2999382
0.0015482746
-1.3911614
0.010282763
-0.92835574
0.0088611531
-0.99314194
0.0074153041
-1.0624833
0.0059664169
-1.1367176
0.0044875826
-1.2162372
0.0029943018
-1.3013843
0.0014952919
-1.3926567
0.011339807
-0.86887041
0.00998611
-0.9294807
0.0086045113
-0.99433115
0.0072222808
-1.0637392
0.005799616
-1.1380296
0.0043553204
-1.2175982
0.0028957801
-1.3027847
0.0014399737
-1.3940967
0.012306323
-0.81318735
0.011021068
-0.86990537
0.0097054854
-0.93058167
0.008393608
-0.99550248
0.0070313689
-1.0649709
0.0056388082
-1.1393131
0.0042186751
-1.2189211
0.0027928855
-1.3041377
0.001381411
-1.3954781
0.013186863
-0.76104745
0.01196956
-0.81413584
0.010721092
-0.87092098
0.0094831634
-0.93167123
0.0081855785
-0.99665669
0.0068503831
-1.0661825
0.0054726762
-1.1405671
0.0040762103
-1.2202044
0.0026834142
-1.3054397
0.0013189638
-1.3967971
0.01398637
-0.71221807
0.01283546
-0.76191335
0.011654546
-0.81506929
0.010493289
-0.8719311
0.0092645281
-0.93275018
0.0079927076
-0.99779901
0.0066633184
-1.0673731
0.005300146
-1.141791
0.0039242987
-1.2214453
0.0025664818
-1.3066872
0.0012522481
-1.3980493
0.014710571
-0.66648162
0.01362298
-0.71300558
0.012509309
-0.76276811
0.011426543
-0.81600255
0.010269939
-0.87293651
0.0090675489
-0.93382502
0.0077931033
-0.9989288
0.0064702207
-1.0685432
0.0051155664
-1.1429823
0.0037615405
-1.2226404
0.0024415384
-1.3078765
0.0011810894
-1.3992304
0.015366269
-0.62363679
0.01433686
-0.6671955
0.013289302
-0.71378558
0.012285694
-0.76362726
0.011203654
-0.81693626
0.010075933
-0.8739449
0.0088633092
-0.93489523
0.0075888405
-1.0000474
0.0062626433
-1.0696903
0.0049172251
-1.144138
0.0035867728
-1.2237856
0.0023077853
-1.3090032
0.0011056219
-1.400336
0.015961949
-0.5834908
0.014982736
-0.62428266
0.01399899
-0.66790519
0.01307393
-0.71457381
0.012067687
-0.7644913
0.011018889
-0.81787922
0.0098740756
-0.87495566
0.008656633
-0.93596302
0.0073678199
-1.0011526
0.0060388589
-1.0708119
0.0047029202
-1.1452541
0.0033989772
-1.2248768
0.002165449
-1.310063
0.0010260929
-1.4013621
0.016508342
-0.54585167
0.015568059
-0.58407613
0.014643703
-0.62492738
0.013794919
-0.66862618
0.012864499
-0.71537062
0.011897562
-0.76536997
0.010825573
-0.81883071
0.0096732968
-0.87597233
0.0084312406
-0.93702644
0.0071290876
-1.0022428
0.0057957037
-1.0719047
0.0044714349
-1.1463266
0.003198541
-1.2259099
0.0020149209
-1.3110518
0.00094294886
-1.4023051
0.017018884
-0.5105208
0.016103452
-0.54638707
0.015230277
-0.5846627
0.014453097
-0.62558556
0.013597047
-0.66935872
0.012713493
-0.71618656
0.011718014
-0.76626241
0.010638084
-0.8197955
0.0094519369
-0.87699302
0.0081876467
-0.938085
0.0068675422
-1.0033147
0.0055312598
-1.0729645
0.004223086
-1.1473511
0.0029855942
-1.2268806
0.0018570173
-1.3119659
0.0008567498
-1.4031618
0.017508213
-0.47728541
0.016603938
-0.51102129
0.015768027
-0.54692481
0.015054292
-0.5852639
0.014269061
-0.62625757
0.013468671
-0.6701139
0.012551981
-0.71702052
0.011550175
-0.7671745
0.010428243
-0.82077181
0.0092127927
-0.87801817
0.0079177823
-0.93913524
0.0065811306
-1.0043645
0.0052456926
-1.0739871
0.0039575213
-1.148323
0.0027612894
-1.2277848
0.001692747
-1.3128019
0.00076816532
-1.40393
0.017990005
-0.445917
0.017088811
-0.47777028
0.016269613
-0.51152288
0.015606793
-0.54747732
0.01488557
-0.5858804
0.014165783
-0.62695468
0.013328532
-0.67089045
0.01240906
-0.71787941
0.011358313
-0.76810457
0.01020199
-0.82176101
0.0089442228
-0.87904461
0.0076202158
-0.94017432
0.0062692836
-1.0053881
0.0049380911
-1.0749677
0.0036766394
-1.1492384
0.0025269227
-1.228619
0.0015233653
-1.3135571
0.00067793071
-1.4046079
0.018473632
-0.41618298
0.017580001
-0.44640819
0.016750977
-0.47825164
0.016122539
-0.51203862
0.015453828
-0.54804557
0.014808684
-0.58652331
0.014049464
-0.62767561
0.013214691
-0.67169608
0.012240552
-0.71876165
0.011152388
-0.76905497
0.009943492
-0.82276027
0.008645784
-0.88007018
0.007292803
-0.94119784
0.0059305539
-1.0063806
0.0046105646
-1.0759016
0.0033813294
-1.1500928
0.0022842629
-1.2293799
0.0013502591
-1.3142294
0.00058682104
-1.4051947
0.018960427
-0.38786595
0.018097536
-0.41670051
0.017230017
-0.44688723
0.016617556
-0.47874666
0.015984415
-0.51256921
0.01540331
-0.5486402
0.014717736
-0.58719158
0.013967725
-0.62842865
0.013073844
-0.67252938
0.012061267
-0.71967053
0.010911758
-0.77002324
0.0096537313
-0.82376822
0.0083132805
-0.88109066
0.0069340793
-0.94220137
0.0055672332
-1.0073373
0.0042637143
-1.076784
0.0030739905
-1.1508825
0.0020352428
-1.2300649
0.0011749134
-1.3148175
0.000495629
-1.4056904
0.019441453
-0.3607868
0.018653826
-0.38842224
0.017722851
-0.41719335
0.017111067
-0.44738074
0.016491813
-0.47925406
0.015958908
-0.51312481
0.015338289
-0.54926075
0.014669906
-0.58789376
0.013857786
-0.62921259
0.012926344
-0.67339445
0.011845225
-0.72060399
0.010639319
-0.77100882
0.0093260092
-0.82478095
0.0079454333
-0.88210201
0.0065456807
-0.94317981
0.0051792088
-1.0082527
0.0039008092
-1.0776108
0.0027568365
-1.1516041
0.0017819883
-1.230672
0.0009988581
-1.3153207
0.00040513358
-1.4060955
0.01989762
-0.33482455
0.019248541
-0.36138152
0.018239065
-0.38893846
0.017621884
-0.41770416
0.016993786
-0.44788271
0.016488943
-0.47978409
0.015919227
-0.51370574
0.015324831
-0.54991568
0.014593057
-0.58862903
0.013746015
-0.63003226
0.012740466
-0.67428969
0.011597691
-0.72156236
0.010325449
-0.77200826
0.0089594272
-0.82579494
0.0075427722
-0.8830991
0.0061272579
-0.94412786
0.0047703936
-1.0091223
0.0035236032
-1.0783776
0.0024326298
-1.1522548
0.0015266996
-1.2311998
0.00082360569
-1.3157392
0.00031608153
-1.4064116
0.020302234
-0.30992471
0.019866022
-0.33544203
0.018777468
-0.36191992
0.018163231
-0.3894798
0.017508301
-0.41821868
0.017010873
-0.44840464
0.016472807
-0.48033767
0.015939144
-0.51432006
0.015282119
-0.55060474
0.014519716
-0.58940273
0.013594741
-0.63088653
0.012524274
-0.67521628
0.011305779
-0.72254269
0.0099698529
-0.77301869
0.0085530498
-0.82680522
0.0071048161
-0.88407666
0.0056826249
-0.94504009
0.0043421319
-1.0099409
0.0031359278
-1.0790809
0.0021041602
-1.1528322
0.001271592
-1.2316478
0.00065062246
-1.3160737
0.00022917278
-1.4066407
0.020625291
-0.28609412
0.020476164
-0.31053486
0.019324025
-0.33598859
0.018737578
-0.36249427
0.018048754
-0.39002026
0.017543388
-0.41875119
0.017015469
-0.4489473
0.01652373
-0.48092226
0.015930359
-0.5149683
0.015248577
-0.5513336
0.014406309
-0.5902143
0.013415116
-0.63177738
0.012261354
-0.67617185
0.010970021
-0.72354286
0.0095698089
-0.77403545
0.0081062989
-0.8278067
0.0066348702
-0.8850289
0.0052130193
-0.94591098
0.0038990984
-1.010704
0.002740449
-1.0797172
0.0017743963
-1.153335
0.0010188483
-1.232016
0.0004813023
-1.3163259
0.00014508977
-1.4067858
0.020838402
-0.26338561
0.021038477
-0.28665644
0.019852855
-0.31106369
0.019333523
-0.33658454
0.018618848
-0.36306436
0.018101615
-0.39057848
0.017565501
-0.41930123
0.017094065
-0.44951764
0.016547359
-0.48153926
0.01593652
-0.51565624
0.015175051
-0.55210234
0.014267222
-0.5910664
0.013187075
-0.6327031
0.011953272
-0.6771551
0.010585645
-0.7245587
0.0091246868
-0.77505383
0.0076216599
-0.82879349
0.0061340608
-0.88594994
0.0047233353
-0.94673522
0.0034438812
-1.0114075
0.0023413081
-1.0802841
0.0014459864
-1.1537622
0.00077060132
-1.2323053
0.00031697849
-1.3164978
6.4564176e-05
-1.4068504
0.020919248
-0.24187572
0.021508171
-0.26385531
0.020329962
-0.28713355
0.01992599
-0.31165615
0.019209092
-0.33717478
0.018691541
-0.36365429
0.018138535
-0.39115152
0.01766832
-0.41987548
0.017147472
-0.45011775
0.016591626
-0.48219436
0.015903518
-0.51638471
0.01507913
-0.55291425
0.014078739
-0.59195807
0.012913377
-0.6336632
0.011593013
-0.67816247
0.010152024
-0.72558604
0.0086358752
-0.77606805
0.0071000764
-0.82975951
0.0056071702
-0.88683378
0.0042162867
-0.94750762
0.0029813743
-1.0120475
0.0019414478
-1.0807796
0.001121828
-1.1541134
0.00052898677
-1.2325173
0.00015899124
-1.3165922
-1.1415516e-05
-1.406839
0.020854174
-0.22164099
0.021842989
-0.24221054
0.020718315
-0.26424366
0.020479826
-0.28768738
0.019796298
-0.31224336
0.019305851
-0.33778909
0.018741916
-0.36425767
0.018263063
-0.39174626
0.017748336
-0.42047634
0.017226975
-0.4507531
0.016598328
-0.48288917
0.015851914
-0.51715749
0.014933589
-0.5537691
0.013844924
-0.59288961
0.01258466
-0.63465485
0.011180011
-0.67919046
0.0096692118
-0.72661937
0.0081040647
-0.77707204
0.0065459518
-0.83069829
0.0050569846
-0.88767448
0.0036971815
-0.94822343
0.0025148614
-1.0126209
0.0015446595
-1.0812024
0.00080477362
-1.1543892
0.00029559429
-1.2326539
8.8570553e-06
-1.3166125
-8.2115803e-05
-1.4067569
0.020636333
-0.20273962
0.022009758
-0.22180776
0.020983242
-0.24247546
0.02095513
-0.26471896
0.020346198
-0.28823728
0.019922866
-0.31286037
0.019370093
-0.33841726
0.018887466
-0.36488207
0.018366871
-0.39236479
0.017859579
-0.42110895
0.017271212
-0.45142598
0.016590602
-0.48362786
0.015751257
-0.51797516
0.014743834
-0.55466801
0.013554033
-0.59385899
0.01220047
-0.63567531
0.010712803
-0.68023405
0.0091375866
-0.72765289
0.0075330256
-0.77805911
0.0059620258
-0.83160333
0.0044890089
-0.8884663
0.0031696964
-0.94887827
0.0020489436
-1.0131252
0.0011540047
-1.0815516
0.00049698326
-1.1545906
7.2278095e-05
-1.2327173
-0.00013353905
-1.316561
-0.00015151541
-1.4066053
0.02026787
-0.18520911
0.021990802
-0.20272066
0.021097846
-0.22192236
0.021312887
-0.24283322
0.020819236
-0.265192
0.020509013
-0.28882343
0.020002943
-0.31349322
0.019538118
-0.33906792
0.019013462
-0.36552866
0.018506701
-0.39301192
0.017938341
-0.42177608
0.017305427
-0.45214081
0.016535189
-0.48441179
0.015608261
-0.51883959
0.014495784
-0.55560976
0.013205769
-0.59486429
0.011757697
-0.6367202
0.010191402
-0.68128786
0.0085600529
-0.72867992
0.0069253212
-0.7790224
0.0053537855
-0.83246811
0.0039072355
-0.88920384
0.0026390405
-0.94946836
0.0015871396
-1.0135584
0.00077266561
-1.0818273
0.00020052217
-1.1547188
-0.00014050169
-1.2327104
-0.00026846131
-1.3164441
-0.00021542874
-1.4063899
0.019761018
-0.16905847
0.021776238
-0.18499455
0.021048358
-0.20267118
0.021518578
-0.22212806
0.021176754
-0.24319074
0.021024034
-0.26570702
0.020607879
-0.28942836
0.020196596
-0.3141517
0.019686378
-0.33974083
0.019180022
-0.36620198
0.018617003
-0.39369058
0.018011547
-0.4224822
0.01729406
-0.45289968
0.016440016
-0.48524355
0.015406634
-0.51975044
0.014189337
-0.55659333
0.012795313
-0.5959019
0.011255952
-0.63778475
0.0096176473
-0.68234546
0.0079388644
-0.72969346
0.0062861923
-0.77995481
0.0047254133
-0.83328628
0.0033173351
-0.88988214
0.0021093121
-0.94999053
0.0011334788
-1.0139192
0.0004032326
-1.08203
-8.2871418e-05
-1.1547764
-0.00034163783
-1.2326372
-0.00039431969
-1.3162652
-0.00027449623
-1.4061154
0.017338963
-0.18088688
0.021361735
-0.16864396
0.020827834
-0.18477402
0.021542745
-0.20269534
0.021386526
-0.22233783
0.021427022
-0.24359373
0.02114444
-0.26624358
0.020830832
-0.2900626
0.020368752
-0.31483408
0.019879624
-0.34044043
0.019319845
-0.36690483
0.018726112
-0.39440514
0.018041862
-0.42323
0.017246111
-0.45370577
0.016286769
-0.48612368
0.01514648
-0.52070758
0.013817951
-0.55761597
0.01232184
-0.59696779
0.01069585
-0.63886295
0.0089933537
-0.68339995
0.0072787886
-0.73068606
0.0056198624
-0.78084926
0.0040828787
-0.83405183
0.0027239488
-0.89049677
0.0015852749
-0.95044233
0.00069119987
-1.0142071
4.8215536e-05
-1.0821611
-0.00035178609
-1.1547663
-0.00053011156
-1.2325014
-0.00051112556
-1.3160286
-0.00032854813
-1.4057869
0.015200239
-0.17605098
0.019091239
-0.17861639
0.020432486
-0.16824861
0.02137216
-0.18460344
0.021426565
-0.20273538
0.021681804
-0.22259261
0.021570784
-0.24402007
0.021399898
-0.26681265
0.021029423
-0.29072327
0.020590276
-0.31554473
0.020048522
-0.34116911
0.019462636
-0.36764135
0.018795389
-0.39515867
0.018039211
-0.4240231
0.01714149
-0.45456049
0.016075752
-0.48705296
0.014819577
-0.5217092
0.013380344
-0.55867447
0.011784631
-0.59805657
0.01007865
-0.63994825
0.0083226032
-0.68444376
0.006583923
-0.73165012
0.0049324079
-0.78169879
0.0034312719
-0.83475915
0.002132503
-0.891044
0.001070888
-0.95082202
0.00026360663
-1.0144225
-0.00029034559
-1.0822225
-0.00060484236
-1.1546916
-0.00070538256
-1.2323072
-0.00061838065
-1.3157387
-0.00037742841
-1.4054094
0.013255359
-0.17108416
0.017060243
-0.17401999
0.018245343
-0.17642924
0.021012453
-0.16788891
0.021283763
-0.18446063
0.021760606
-0.20281418
0.02184997
-0.2228718
0.02186049
-0.24448066
0.021627392
-0.26741062
0.021281664
-0.29141466
0.020789364
-0.31628557
0.020224318
-0.34193079
0.019568792
-0.36841475
0.018835565
-0.39595503
0.017982012
-0.42486362
0.016980688
-0.45546543
0.01579715
-0.48803053
0.014424174
-0.52275303
0.012874396
-0.55976424
0.01118428
-0.5991622
0.0094075565
-0.6410332
0.0076091913
-0.68546903
0.0058602446
-0.73257796
0.0042292374
-0.78249675
0.0027765819
-0.83540323
0.0015476698
-0.89152078
0.00057023142
-0.95112864
-0.00014661143
-1.0145663
-0.00061061332
-1.0822168
-0.00084112103
-1.1545558
-0.0008669158
-1.2320586
-0.00071597184
-1.3154002
-0.00042139586
-1.404988
0.011418706
-0.16614901
0.015155175
-0.16917909
0.016289075
-0.17206372
0.018905586
-0.17432238
0.020952985
-0.16755813
0.021648189
-0.18434822
0.0219547
-0.20291891
0.022173276
-0.22318458
0.022118375
-0.24497165
0.021912553
-0.26804151
0.021512979
-0.29213827
0.020999043
-0.3170603
0.020366657
-0.34272866
0.019649797
-0.36922899
0.018823851
-0.39679686
0.017870929
-0.42575386
0.016752437
-0.45642072
0.015448755
-0.48905511
0.013956724
-0.52383536
0.012299954
-0.56087991
0.010522963
-0.60027761
0.0086858904
-0.6421099
0.0068587822
-0.68646757
0.0051133156
-0.73346203
0.0035167648
-0.78323694
0.002124145
-0.8359797
0.00097430944
-0.89192486
8.674125e-05
-0.951362
-0.00053696689
-1.0146399
-0.00091118036
-1.0821467
-0.0010598774
-1.1543629
-0.0010145086
-1.2317601
-0.00080400241
-1.3150176
-0.0004604526
-1.4045276
0.0096188244
-0.161428
0.013277519
-0.16427136
0.014459639
-0.16734966
0.017005137
-0.17016327
0.018925456
-0.17229485
0.021344388
-0.16725433
0.021869044
-0.18426256
0.022307795
-0.20305343
0.022461564
-0.22352777
0.022437414
-0.24549651
0.022178065
-0.26870659
0.021758308
-0.29289754
0.021178374
-0.31787201
0.020487782
-0.34356664
0.019681912
-0.37008705
0.018761073
-0.39768701
0.017693417
-0.42669484
0.016454087
-0.45742605
0.015025598
-0.49012398
0.013416264
-0.52495167
0.011658036
-0.56201498
0.0098033586
-0.60139508
0.0079187954
-0.64316991
0.0060769056
-0.68743116
0.0043498083
-0.73429508
0.0028009026
-0.7839137
0.0014795733
-0.83648497
0.00041664927
-0.89225477
-0.0003763691
-0.95152259
-0.00090549909
-1.0146456
-0.0011909336
-1.0820156
-0.0012606898
-1.1541167
-0.0011481384
-1.231416
-0.00088256511
-1.3145955
-0.00049482748
-1.4040328
0.0078022843
-0.15711096
0.011348903
-0.15949939
0.012662788
-0.1624745
0.015201316
-0.16554584
0.017085958
-0.16832377
0.019383282
-0.17033374
0.02158804
-0.16697332
0.022245593
-0.18420036
0.022625
-0.20321687
0.022813475
-0.22390383
0.022738075
-0.24605651
0.022460642
-0.26940893
0.021976359
-0.29369552
0.021340377
-0.31872461
0.020563225
-0.34444795
0.019666119
-0.37099209
0.018633618
-0.39862721
0.017446418
-0.42768717
0.016079296
-0.45847975
0.014525873
-0.49123359
0.012802565
-0.5260962
0.010950536
-0.56316216
0.0090298958
-0.60250618
0.0071115692
-0.64420458
0.0052703008
-0.68835165
0.003576081
-0.73507026
0.0020879449
-0.78452207
0.00084789605
-0.83691621
-0.00012129354
-0.89250984
-0.00081645374
-0.95161164
-0.0012505756
-1.014586
-0.0014491404
-1.0818272
-0.001443395
-1.1538214
-0.0012679399
-1.2310306
-0.00095196351
-1.3141383
-0.00052469212
-1.4035081
0.0059362042
-0.15338422
0.0093154954
-0.15507755
0.010821889
-0.15765849
0.013395859
-0.16066905
0.01532658
-0.16378646
0.017587106
-0.1665276
0.019686015
-0.16843172
0.021981838
-0.16670957
0.022588691
-0.18416405
0.023006506
-0.2034099
0.023148582
-0.22431434
0.023058289
-0.24665416
0.022719037
-0.2701516
0.022180888
-0.29453603
0.021460073
-0.31962146
0.020594125
-0.34537596
0.019587967
-0.37194644
0.018438063
-0.39961885
0.017122294
-0.42873017
0.015625404
-0.45957928
0.013948046
-0.49237907
0.012116615
-0.52726228
0.010180994
-0.56431326
0.0082074415
-0.60360205
0.0062708127
-0.64520509
0.0044456077
-0.68922118
0.0027990019
-0.73578131
0.0013836969
-0.78505787
0.0002339776
-0.83727149
-0.0006360865
-0.89269021
-0.0012312509
-0.95163096
-0.0015710239
-1.0144641
-0.0016853808
-1.0815852
-0.0016080535
-1.1534813
-0.0013742293
-1.2306083
-0.0010125133
-1.3136505
-0.00055027214
-1.4029578
0.0040080938
-0.15041733
0.0071512206
-0.15121994
0.0088838498
-0.15313952
0.011509871
-0.1557725
0.013549209
-0.15889168
0.015847396
-0.16204675
0.017933798
-0.16477538
0.020131077
-0.16658095
0.022345148
-0.16646603
0.022994483
-0.18415203
0.02337348
-0.2036348
0.023504929
-0.22476098
0.023357514
-0.24729264
0.022967556
-0.27093827
0.022346673
-0.29542263
0.021538749
-0.32056608
0.020565439
-0.34635343
0.019443713
-0.37295209
0.01816558
-0.40066214
0.016717556
-0.42982232
0.015089553
-0.46072078
0.013292106
-0.49355456
0.011360915
-0.5284422
0.0093536568
-0.56545947
0.0073422481
-0.60467348
0.0054032571
-0.64616274
0.0036101224
-0.6900323
0.0020250798
-0.7364227
0.00069386969
-0.78551776
-0.0003578947
-0.83754968
-0.0011247312
-0.89279673
-0.0016190071
-0.95158298
-0.0018660502
-1.0142834
-0.0018995435
-1.0812937
-0.0017549474
-1.1531006
-0.0014674252
-1.2301534
-0.0010646192
-1.3131362
-0.000571809
-1.402386
0.0020232931
-0.14835074
0.004857296
-0.14812341
0.0068216607
-0.14915775
0.0094894341
-0.15111908
0.011674325
-0.15389762
0.014063966
-0.15710825
0.016220593
-0.16033354
0.018411403
-0.16305571
0.020546479
-0.16478228
0.022769008
-0.16624055
0.023388901
-0.18416745
0.023762347
-0.20389222
0.023843629
-0.22524709
0.023650192
-0.24797528
0.023181087
-0.27177269
0.022475088
-0.29635897
0.021561054
-0.3215617
0.020473154
-0.34738287
0.019223457
-0.37400997
0.017811891
-0.40175647
0.016228037
-0.43096081
0.014470677
-0.46189935
0.012559397
-0.49475305
0.010538917
-0.52962746
0.0084742191
-0.56659145
0.0064409308
-0.60571116
0.0045164493
-0.64706906
0.0027709434
-0.69077816
0.0012608313
-0.73698966
2.3647465e-05
-0.7858993
-0.00092387031
-0.83775054
-0.0015847654
-0.89283097
-0.001978423
-0.95147061
-0.0021352442
-1.0140477
-0.002091789
-1.0809569
-0.0018845282
-1.1526835
-0.001548061
-1.22967
-0.001108724
-1.3125993
-0.00058955158
-1.4017964
-0.14728503
2.4673236e-08
0.0024591003
-0.14595254
0.0046352216
-0.14593697
0.0073100693
-0.14697839
0.0096477616
-0.14909252
0.01215643
-0.15199008
0.014444931
-0.15533259
0.016710941
-0.15863308
0.018863957
-0.16137319
0.021015103
-0.16302838
0.023184583
-0.16603623
0.023804844
-0.18420995
0.024137075
-0.20418566
0.0241786
-0.2257755
0.02391178
-0.24870597
0.023360951
-0.27265855
0.022550845
-0.29734876
0.021522755
-0.3226113
0.020306422
-0.34846584
0.018922192
-0.37512027
0.017371563
-0.4029
0.015651586
-0.43214171
0.013768873
-0.46310883
0.011752426
-0.49596655
0.009655568
-0.53080881
0.007548971
-0.56769948
0.0055110887
-0.6067058
0.0036179247
-0.64791605
0.0019353088
-0.69145264
0.00051233404
-0.73747835
-0.0006222016
-0.78620097
-0.0014606898
-0.83787461
-0.0020142429
-0.89279515
-0.0023086548
-0.9512972
-0.0023785387
-1.0137609
-0.0022625179
-1.0805789
-0.0019974012
-1.1522342
-0.0016167425
-1.2291619
-0.0011453017
-1.3120435
-0.00060376216
-1.4011927
-0.14482595
2.3219266e-08
-0.14728503
-0.002023244
0.0023478534
-0.14366518
0.004977201
-0.1436041
0.0074461448
-0.14477677
0.010072335
-0.14700842
0.012523561
-0.15006871
0.01492678
-0.15354842
0.017182661
-0.15695178
0.019359266
-0.15971735
0.021476291
-0.16132009
0.023621129
-0.16585252
0.024210165
-0.18428304
0.024510223
-0.20451728
0.02448642
-0.22635014
0.024143291
-0.24948831
0.023492405
-0.27360011
0.022569515
-0.29839552
0.021412187
-0.32371706
0.020059578
-0.34960322
0.018533283
-0.37628199
0.016841373
-0.40408979
0.014987011
-0.43335985
0.012985588
-0.46434199
0.010875216
-0.4971862
0.0087166215
-0.53197646
0.0065853497
-0.56877375
0.00456051
-0.60764838
0.0027155174
-0.64869625
0.0011101381
-0.69205044
-0.00021469637
-0.73788585
-0.0012395163
-0.78642214
-0.0019656174
-0.83792324
-0.0024117487
-0.89269206
-0.0026092791
-0.95106646
-0.0025961788
-1.0134273
-0.0024123371
-1.080164
-0.002094288
-1.1517566
-0.0016741363
-1.2286331
-0.0011748498
-1.3114724
-0.00061470245
-1.400578
-0.14247812
1.9852267e-08
-0.14482595
-0.0024590542
-0.14835074
-0.0040080453
0.002523085
-0.14121106
0.0050770017
-0.14123496
0.0077900009
-0.14249444
0.010402343
-0.1448872
0.012975496
-0.14811743
0.015395712
-0.15176147
0.017685886
-0.1552784
0.019849738
-0.1580908
0.021954412
-0.15965337
0.024049937
-0.16569229
0.024615371
-0.18438818
0.02486014
-0.204891
0.024767391
-0.22697424
0.024331106
-0.25032701
0.023570805
-0.2746014
0.022518804
-0.29950214
0.021223131
-0.32488061
0.01972486
-0.3507948
0.018052459
-0.37749307
0.016218819
-0.4053216
0.014234611
-0.43460888
0.012123774
-0.46559055
0.0099327925
-0.49840237
0.0077291394
-0.53312025
0.0055911935
-0.56980443
0.0035974639
-0.60853033
0.0018168953
-0.64940301
0.00030208226
-0.69256722
-0.00091511764
-0.73821025
-0.00182468
-0.78656308
-0.002436528
-0.83789846
-0.0027763598
-0.89252498
-0.0028802644
-0.95078237
-0.0027886821
-1.0130509
-0.0025420214
-1.0797162
-0.0021760046
-1.1512547
-0.0017209483
-1.228087
-0.0011978742
-1.3108892
-0.00062263511
-1.3999553
-0.13995505
1.7265525e-08
-0.14247812
-0.0023478138
-0.14595254
-0.0048572504
-0.15041733
-0.0059361565
0.0025759208
-0.13870998
0.0053200812
-0.13876504
0.0080600475
-0.14015214
0.010800978
-0.14271268
0.013417081
-0.1461388
0.015887631
-0.14996322
0.018187326
-0.15361599
0.02035251
-0.15648889
0.022425372
-0.15802881
0.024479638
-0.16555656
0.025001307
-0.18452935
0.025185808
-0.20530942
0.025009657
-0.22765279
0.024470285
-0.25122649
0.023583474
-0.27566607
0.022392061
-0.30067107
0.020946784
-0.32610254
0.019296989
-0.35203933
0.017475915
-0.37875017
0.015503008
-0.40658999
0.013396162
-0.43588126
0.011187556
-0.46684531
0.0089316314
-0.49960486
0.0067007929
-0.53422985
0.0045750146
-0.57078198
0.0026302312
-0.60934366
0.00092958258
-0.65003051
-0.00048271588
-0.69299962
-0.0015843633
-0.73845057
-0.002374709
-0.7866249
-0.0028718522
-0.83780297
-0.0031076318
-0.89229761
-0.0031219275
-0.95044913
-0.0029567965
-1.0126362
-0.002652485
-1.0792397
-0.0022434336
-1.1507323
-0.0017579087
-1.227527
-0.001214884
-1.310297
-0.0006278178
-1.3993275
-0.13737914
1.4513865e-08
-0.13995505
-0.0025230508
-0.14366517
-0.0046351826
-0.1481234
-0.007151176
-0.15338421
-0.0078022376
0.0027026794
-0.13609258
0.0055108075
-0.1362158
0.0083828913
-0.13773405
0.011191208
-0.14048681
0.013876151
-0.14412732
0.016378919
-0.14815481
0.018696731
-0.15196021
0.020849359
-0.15491288
0.022895474
-0.15644464
0.024894137
-0.16544939
0.025364778
-0.18470832
0.025477726
-0.20577749
0.02520784
-0.22839035
0.024548087
-0.2521911
0.023523486
-0.27679749
0.022179574
-0.30190386
0.020576926
-0.32738247
0.018770878
-0.35333429
0.01680154
-0.3800487
0.014694456
-0.40788829
0.012474744
-0.43716845
0.010182632
-0.46809631
0.0078790192
-0.50078309
0.0056401291
-0.53529496
0.0035455402
-0.57169729
0.001667104
-0.61008118
6.0701786e-05
-0.65057393
-0.0012386544
-0.69334533
-0.0022184805
-0.73860679
-0.0028872525
-0.7866095
-0.0032705834
-0.83764002
-0.0034055508
-0.89201399
-0.00333489
-0.95007103
-0.0031014656
-1.0121872
-0.0027447448
-1.0787384
-0.0022975031
-1.1501927
-0.0017857575
-1.2269561
-0.0012263823
-1.3096984
-0.00063050161
-1.398697
-0.13467648
1.1776185e-08
-0.13737914
-0.0025758922
-0.14121105
-0.004977167
-0.14593696
-0.0068216223
-0.15121993
-0.009315452
-0.15711095
-0.009618779
0.0028006772
-0.13338245
0.0057381465
-0.13357105
0.0086989935
-0.13524184
0.011594566
-0.13820523
0.014334797
-0.1420832
0.016875391
-0.14633347
0.019201247
-0.1503121
0.021343865
-0.15336127
0.023353013
-0.15490352
0.025287343
-0.16537195
0.025699027
-0.18492962
0.025729958
-0.20629961
0.025349472
-0.22919173
0.024557465
-0.25322508
0.023380424
-0.27799834
0.021874295
-0.30320123
0.020107222
-0.32871882
0.018143182
-0.35467594
0.016028537
-0.38138278
0.013795095
-0.40920864
0.011475115
-0.43846093
0.0091156967
-0.46933299
0.0067833189
-0.50192628
0.0045561244
-0.53630555
0.0025116851
-0.57254187
0.00071611319
-0.6107366
-0.00078309331
-0.65102949
-0.001960772
-0.69360304
-0.0028141988
-0.73867985
-0.0033605857
-0.7865195
-0.0036322327
-0.83741333
-0.0036704917
-0.89167839
-0.0035200371
-0.94965246
-0.0032237846
-1.0117081
-0.0028198949
-1.078216
-0.0023391664
-1.1496393
-0.0018052334
-1.2263772
-0.0012328618
-1.3090961
-0.00063092821
-1.3980661
-0.13187581
9.3826803e-09
-0.13467647
-0.0027026558
-0.13870997
-0.0050769731
-0.14360409
-0.0073100362
-0.14915774
-0.0088838124
-0.15507754
-0.011348862
-0.161428
-0.011418662
0.0029180805
-0.13056238
0.0059607755
-0.13083283
0.0090247323
-0.13267201
0.011997655
-0.13586808
0.014796799
-0.1400046
0.017367293
-0.14449952
0.019701993
-0.14867023
0.021826627
-0.15183488
0.02378988
-0.15340605
0.025654957
-0.16532788
0.025997618
-0.18519728
0.025930611
-0.20688075
0.025427517
-0.23006179
0.024487564
-0.25433222
0.02314658
-0.27927063
0.021468725
-0.30456273
0.019533099
-0.33010873
0.017411744
-0.35605914
0.015157605
-0.38274529
0.012808611
-0.41054213
0.010403194
-0.43974843
0.0079947129
-0.47054439
0.0056535435
-0.5030237
0.0034581423
-0.537252
0.0014822732
-0.57330803
-0.00021506596
-0.61130462
-0.001595769
-0.65139449
-0.0026447519
-0.69377249
-0.0033689346
-0.7386715
-0.0037935915
-0.78635814
-0.0039567897
-0.83712704
-0.0039031734
-0.89129525
-0.0036784683
-0.94919778
-0.0033249684
-1.0112031
-0.0028790785
-1.0776761
-0.0023693859
-1.1490751
-0.0018170637
-1.225793
-0.0012347977
-1.3084922
-0.00062932786
-1.3974368
-0.12895773
7.3744998e-09
-0.13187581
-0.0028006582
-0.13609257
-0.005320058
-0.14123495
-0.007446117
-0.14697838
-0.0094894016
-0.1531395
-0.010821853
-0.15949938
-0.013277479
-0.166149
-0.013255316
0.0030330364
-0.12763464
0.0061897215
-0.12799782
0.0093501215
-0.13002447
0.012402596
-0.13347388
0.015254397
-0.13789171
0.017854885
-0.14265241
0.020191838
-0.14703544
0.022290066
-0.15033507
0.024202286
-0.15195338
0.025990479
-0.16532074
0.026249397
-0.18551607
0.026072714
-0.20752594
0.025430997
-0.23100522
0.024330255
-0.2555159
0.022813455
-0.28061536
0.020957108
-0.30598674
0.018851001
-0.33154799
0.016575954
-0.35747749
0.014191246
-0.38412793
0.011739989
-0.41187893
0.0092663423
-0.44102006
0.0068285116
-0.47171935
0.004499304
-0.50406486
0.0023556468
-0.53812538
0.00046592088
-0.57398902
-0.0011192995
-0.61178109
-0.0023719239
-0.65166732
-0.0032870255
-0.6938544
-0.0038807826
-0.73858431
-0.0041857211
-0.78612921
-0.0042446782
-0.83678553
-0.0041046045
-0.89086911
-0.0038114579
-0.94871129
-0.0034063164
-1.0106758
-0.0029234671
-1.077122
-0.0023891175
-1.148503
-0.0018219527
-1.2252059
-0.0012326446
-1.3078889
-0.00062592197
-1.3968108
-0.1259247
5.5855468e-09
-0.12895773
-0.0029180661
-0.13338244
-0.005510789
-0.13876503
-0.0077899779
-0.14477676
-0.0096477342
-0.15111907
-0.01150984
-0.15765848
-0.012662753
-0.16427135
-0.015155136
-0.17108415
-0.015200197
0.0031511513
-0.12459607
0.0064183981
-0.1250661
0.0096765452
-0.12729842
0.012803845
-0.13102333
0.015707597
-0.13574442
0.018332124
-0.14079269
0.020664069
-0.14540944
0.022731023
-0.14886381
0.024585388
-0.15054829
0.026283448
-0.1653548
0.026447452
-0.18589081
0.026145481
-0.20824043
0.025351609
-0.23202657
0.024076292
-0.25677873
0.022374246
-0.2820325
0.020334497
-0.30747024
0.018058934
-0.33303097
0.015637019
-0.35892326
0.013133376
-0.38552131
0.010595817
-0.4132084
0.008073002
-0.44226455
0.0056267378
-0.47284679
0.0033305234
-0.50503974
0.0012580715
-0.53891753
-0.00052918005
-0.57457914
-0.0019900845
-0.61216293
-0.003106878
-0.65184747
-0.0038847533
-0.69385042
-0.0043484976
-0.73842153
-0.0045369567
-0.78583693
-0.0044966994
-0.83639344
-0.0042760378
-0.89040453
-0.0039204134
-0.94819719
-0.0034691856
-1.0101301
-0.0029542365
-1.0765569
-0.0023992913
-1.1479257
-0.0018205779
-1.224618
-0.0012268437
-1.307288
-0.00062091484
-1.3961899
-0.12277356
3.7902535e-09
-0.1259247
-0.0030330256
-0.13056237
-0.0057381319
-0.13621579
-0.008060029
-0.14249442
-0.010072313
-0.1490925
-0.011674298
-0.15577249
-0.013395828
-0.16247449
-0.014459605
-0.16917909
-0.017060206
-0.17605098
-0.017338922
0.003269106
-0.12144678
0.0066475779
-0.12203713
0.0099999501
-0.12449453
0.013200681
-0.12851641
0.016151243
-0.13356354
0.018793541
-0.13892217
0.021115379
-0.1437938
0.023144841
-0.14742326
0.024930032
-0.14919488
0.026527079
-0.16543442
0.026581456
-0.18632678
0.026140657
-0.20902948