/*--------------------------------*- C++ -*----------------------------------*\
| =========                 |                                                 |
| \\      /  F ield         | OpenFOAM: The Open Source CFD Toolbox           |
|  \\    /   O peration     | Version:  5.0                                   |
|   \\  /    A nd           | Web:      www.OpenFOAM.org                      |
|    \\/     M anipulation  |                                                 |
\*---------------------------------------------------------------------------*/
FoamFile
{
    version     2.0;
    format      ascii;
    class       volScalarField;
    location    "150";
    object      pMean;
}
// * * * * * * * * * * * * * * * * * * * * * * * * * * * * * * * * * * * * * //

dimensions      [0 2 -2 0 0 0 0];

internalField   nonuniform List<scalar> 
9200
(
-0.00056399976
-0.00055679492
-0.0012645573
-0.00054964674
-0.0012547782
-0.0021592595
-0.00054028161
-0.0012364285
-0.0021411253
-0.0029589959
-0.00052737021
-0.001211156
-0.0021113233
-0.0029371336
-0.0037871615
-0.00051266127
-0.0011766917
-0.0020704862
-0.0028980449
-0.0037616639
-0.0045845666
-0.00049494247
-0.0011368075
-0.0020149926
-0.0028447999
-0.0037147096
-0.0045581893
-0.0053744291
-0.00047535662
-0.0010895
-0.001950037
-0.0027718293
-0.0036513894
-0.0045061796
-0.0053489168
-0.00614424
-0.00045369477
-0.00103695
-0.001873058
-0.0026858778
-0.0035634971
-0.0044369662
-0.0052944146
-0.0061221096
-0.006898096
-0.00043054203
-0.00097898587
-0.0017870231
-0.0025836222
-0.0034592607
-0.0043388655
-0.0052231231
-0.0060682804
-0.0068817011
-0.0076302003
-0.0004061637
-0.00091673931
-0.0016919868
-0.0024687421
-0.0033343832
-0.0042216343
-0.0051191115
-0.0059995572
-0.0068318748
-0.0076221476
-0.0083408655
-0.00038101242
-0.00085077229
-0.0015897137
-0.0023413712
-0.0031932251
-0.0040795857
-0.0049936494
-0.0058948875
-0.0067706923
-0.007579881
-0.0083438363
-0.0090251976
-0.00035550662
-0.00078187611
-0.0014813343
-0.0022037708
-0.0030359928
-0.003917522
-0.0048393695
-0.0057670085
-0.0066711232
-0.0075314985
-0.0083129537
-0.0090418298
-0.0096817017
-0.00033006905
-0.00071070685
-0.0013683169
-0.0020574685
-0.0028654291
-0.0037354103
-0.0046614329
-0.0056064306
-0.0065472688
-0.0074431207
-0.0082829023
-0.009026106
-0.0097146591
-0.010306045
-0.00030501247
-0.00063791785
-0.0012519907
-0.0019044229
-0.0026834711
-0.0035364096
-0.004459384
-0.0054184866
-0.0063871356
-0.0073301302
-0.0082123013
-0.0090200061
-0.0097180816
-0.010357831
-0.010895914
-0.00028043927
-0.00056418651
-0.0011336372
-0.0017464273
-0.0024926254
-0.003322785
-0.0042366188
-0.0052021475
-0.0061960186
-0.0071776696
-0.008117674
-0.0089739644
-0.0097417892
-0.010384178
-0.010968916
-0.01144773
-0.00025583178
-0.00049037494
-0.0010144293
-0.0015852531
-0.0022952319
-0.0030975308
-0.0039956201
-0.0049609137
-0.0059720232
-0.006990763
-0.0079808727
-0.0089054721
-0.0097272769
-0.010443281
-0.01102195
-0.011544116
-0.011958783
-0.00022991574
-0.00041750146
-0.00089541615
-0.0014225836
-0.0020936229
-0.0028634868
-0.0037397991
-0.0046973324
-0.0057185683
-0.0067663632
-0.0078064086
-0.0087927387
-0.0096930539
-0.010467297
-0.011122079
-0.011627239
-0.012080581
-0.012426428
-0.00020061959
-0.00034692392
-0.00077734179
-0.0012600774
-0.0018899756
-0.0026235262
-0.0034724573
-0.0044151276
-0.0054381106
-0.0065076041
-0.0075897839
-0.0086394997
-0.0096133384
-0.01047562
-0.011191645
-0.011773529
-0.01219712
-0.012575282
-0.012848524
-0.00016504888
-0.00028041861
-0.00066078271
-0.0010993195
-0.0016862938
-0.002380375
-0.0031969766
-0.0041179964
-0.0051345872
-0.0062166635
-0.0073336076
-0.0084395177
-0.009490817
-0.010438131
-0.011250816
-0.011895303
-0.012394473
-0.012728133
-0.013025776
-0.013223319
-0.0001198955
-0.00022004197
-0.00054617864
-0.00094186633
-0.0014843318
-0.0021365701
-0.002916585
-0.0038098098
-0.0048120275
-0.0058975509
-0.0070395724
-0.0081946247
-0.0093171972
-0.010356254
-0.01126502
-0.012013515
-0.012574949
-0.012980807
-0.013217405
-0.013429956
-0.013549529
-6.199767e-05
-0.00016798621
-0.00043370522
-0.00078937199
-0.0012856933
-0.00189437
-0.0026343119
-0.0034943151
-0.004474757
-0.0055545284
-0.0067116057
-0.0079057825
-0.0090932604
-0.010219352
-0.011234164
-0.012088876
-0.012760103
-0.013225772
-0.01352924
-0.013662316
-0.013786176
-0.013826352
1.1025984e-05
-0.0001262683
-0.0003234533
-0.00064350183
-0.0010918392
-0.0016558072
-0.0023528859
-0.0031750651
-0.0041270416
-0.0051923223
-0.0063540765
-0.0075766397
-0.0088189745
-0.010026872
-0.011144982
-0.012119608
-0.012905967
-0.013485301
-0.013844038
-0.01403638
-0.014060727
-0.014093258
-0.014053466
0.00010022498
-9.6433498e-05
-0.00021558096
-0.00050582071
-0.00090406007
-0.0014228117
-0.0020747719
-0.0028553166
-0.0037729986
-0.0048157039
-0.0059720321
-0.0072115126
-0.0084974821
-0.0097774965
-0.010995302
-0.01208958
-0.01300894
-0.01371068
-0.014184821
-0.014425484
-0.014499381
-0.014410914
-0.014350512
-0.014231022
0.00020494156
-7.9417691e-05
-0.00011041902
-0.00037770448
-0.00072353414
-0.0011972069
-0.0018022168
-0.0025380236
-0.0034164572
-0.0044293577
-0.0055707098
-0.0068156598
-0.0081328569
-0.0094735972
-0.010782218
-0.011994722
-0.013049818
-0.013896382
-0.014498205
-0.014853532
-0.014966571
-0.014915705
-0.014711633
-0.014557737
-0.014359589
0.00032278075
-7.560133e-05
-8.4562076e-06
-0.00026024065
-0.00055136246
-0.00098074533
-0.0015372562
-0.0022258798
-0.0030609398
-0.0040377136
-0.0051553657
-0.0063947181
-0.007730424
-0.0091187723
-0.010507045
-0.011830232
-0.013022379
-0.014020004
-0.014776783
-0.015262702
-0.015487032
-0.015463744
-0.015283337
-0.01496215
-0.0147152
-0.014440026
0.00044996184
-8.4333266e-05
8.9939633e-05
-0.00015416265
-0.00038861232
-0.00077507364
-0.0012817762
-0.0019213758
-0.0027096707
-0.0036448867
-0.0047310714
-0.0059544847
-0.0072961152
-0.0087182255
-0.010172641
-0.011596057
-0.01291962
-0.014072946
-0.014994876
-0.01564372
-0.015998871
-0.016080657
-0.015914028
-0.015600729
-0.015162243
-0.014823576
-0.014473592
0.00058209151
-0.00010272006
0.00018428426
-5.9836239e-05
-0.00023619865
-0.00058164428
-0.0010375613
-0.0016268798
-0.0023656094
-0.0032546795
-0.0043026121
-0.005500665
-0.0068362158
-0.0082780447
-0.0097838592
-0.011294006
-0.012739797
-0.014045727
-0.015141332
-0.015967646
-0.016491109
-0.016701008
-0.016630378
-0.016314788
-0.015866836
-0.0153121
-0.014883836
-0.014462152
0.00071441134
-0.00012494512
0.0002725009
2.2685418e-05
-9.4819218e-05
-0.00040178855
-0.00080627222
-0.0013446436
-0.0020315288
-0.0028706054
-0.0038744452
-0.0050387266
-0.0063570563
-0.0078049067
-0.0093467587
-0.010928314
-0.012483348
-0.01393458
-0.015203939
-0.016220665
-0.016931638
-0.017312254
-0.017363896
-0.017132334
-0.016663969
-0.016081093
-0.015412312
-0.014897393
-0.014407886
0.00083946073
-0.00014661555
0.00034980013
9.3533832e-05
3.4842723e-05
-0.00023657222
-0.00058935646
-0.0010767954
-0.0017100458
-0.0024959657
-0.0034507143
-0.0045738249
-0.0058648179
-0.0073057138
-0.0088682766
-0.010504777
-0.012153571
-0.013738221
-0.015176595
-0.016387629
-0.017303927
-0.017879304
-0.018100768
-0.017982388
-0.017583292
-0.016959989
-0.01624343
-0.01546393
-0.014866139
-0.014313054
0.00095896916
-0.00017134141
0.00041673693
0.00015368979
0.00015149564
-8.6645672e-05
-0.00038802633
-0.00082524724
-0.0014036103
-0.0021339314
-0.0030353204
-0.0041107968
-0.0053654096
-0.0067873426
-0.0083558042
-0.010030408
-0.011755726
-0.01345867
-0.01505594
-0.016459815
-0.017589759
-0.018382956
-0.018803188
-0.018850169
-0.018551893
-0.017980452
-0.01720185
-0.016354181
-0.015468396
-0.014792241
-0.014180035
0.0010886482
-0.00020169102
0.00047580547
0.00020890091
0.00025331484
4.7426789e-05
-0.0002032979
-0.00059159051
-0.0011145051
-0.0017875474
-0.0026319869
-0.0036542221
-0.0048644325
-0.0062564767
-0.0078168793
-0.0095129557
-0.01129667
-0.013100321
-0.014842343
-0.016431436
-0.017777544
-0.018801855
-0.019449401
-0.019695513
-0.019554413
-0.019068217
-0.018321668
-0.017389079
-0.016414187
-0.015427493
-0.014678008
-0.014011376
0.0012212893
-0.00023556581
0.00052668655
0.00025930009
0.00034566514
0.00016582998
-3.6626243e-05
-0.00037713056
-0.00084470762
-0.0014596261
-0.0022442751
-0.0032085057
-0.0043672188
-0.005719531
-0.0072589629
-0.008960535
-0.010784327
-0.012669591
-0.01453897
-0.016300823
-0.01785874
-0.019121359
-0.020014948
-0.020494328
-0.020548757
-0.020207754
-0.01952782
-0.018605369
-0.017521802
-0.016424778
-0.015343242
-0.014525849
-0.01380996
0.0013504954
-0.00027052567
0.00058065969
0.0002913421
0.00043308995
0.00027742968
0.00011083488
-0.00018334455
-0.0005958502
-0.0011525877
-0.0018755478
-0.0027779141
-0.0038789089
-0.005182667
-0.0066893184
-0.0083813477
-0.010227269
-0.012174345
-0.01415146
-0.016069518
-0.017829259
-0.01932989
-0.02048202
-0.021219168
-0.021508803
-0.021355542
-0.020805056
-0.019927769
-0.018830645
-0.017600651
-0.016387648
-0.015217948
-0.014338443
-0.013578441
0.0014716884
-0.00030650075
0.00063594388
0.00031961586
0.00050369299
0.0003849638
0.00024930727
-1.0939658e-05
-0.000369979
-0.00086849307
-0.0015287998
-0.0023664984
-0.0034044987
-0.0046518597
-0.0061149894
-0.0077835105
-0.0096343659
-0.011623427
-0.013687327
-0.015741998
-0.017688597
-0.019420567
-0.02083578
-0.021849045
-0.022404345
-0.022483816
-0.022108984
-0.021341771
-0.020265848
-0.018997197
-0.017626758
-0.016304856
-0.015054192
-0.014118636
-0.013319411
0.0015806728
-0.00034210146
0.00068810728
0.00035100956
0.00056954428
0.00046220425
0.0003829171
0.00015305032
-0.00016846908
-0.00060982257
-0.0012066135
-0.0019779034
-0.0029487984
-0.0041329586
-0.0055428519
-0.0071749918
-0.0090145581
-0.011026254
-0.013155456
-0.015325078
-0.01743965
-0.019390423
-0.021066223
-0.022365709
-0.023211294
-0.023559938
-0.023410664
-0.022802718
-0.021814101
-0.020540541
-0.019105334
-0.017601692
-0.016178729
-0.014854658
-0.013869131
-0.013035465
0.0016733831
-0.00037521877
0.00073463332
0.000380235
0.00063365418
0.00053047222
0.00048435643
0.0003110767
2.3742417e-05
-0.00037820489
-0.00091207098
-0.0016153108
-0.0025162253
-0.0036316546
-0.0049796761
-0.0065636378
-0.0083767478
-0.010392518
-0.01256563
-0.014827385
-0.017088137
-0.019240322
-0.021167507
-0.022755761
-0.023907937
-0.024556909
-0.024675454
-0.02428102
-0.023431102
-0.022219003
-0.020751052
-0.019155929
-0.01752741
-0.016011814
-0.014622101
-0.013592643
-0.012729176
0.0017462294
-0.00040398434
0.00077478298
0.0004044247
0.0006950932
0.00060094578
0.0005774885
0.00042693757
0.00020949496
-0.0001559422
-0.00064746441
-0.0012824828
-0.0021106977
-0.0031532421
-0.0044321124
-0.00595723
-0.0077297884
-0.0097320314
-0.011928175
-0.014258828
-0.016642063
-0.018974438
-0.021138005
-0.023010102
-0.02447728
-0.025449608
-0.025873747
-0.025740552
-0.025087187
-0.023989271
-0.022554262
-0.02089728
-0.019150373
-0.017406191
-0.015806817
-0.014359305
-0.013291847
-0.012403113
0.0017963355
-0.00042684843
0.00080786537
0.00042407104
0.00074941971
0.00066801925
0.00066884097
0.00053496636
0.00034696445
5.8925079e-05
-0.00039251762
-0.00098238795
-0.0017367676
-0.0027024835
-0.003906459
-0.0053634816
-0.0070825308
-0.0090546743
-0.011253741
-0.013630188
-0.016111165
-0.01859974
-0.020979866
-0.023124163
-0.024906649
-0.026217345
-0.026977186
-0.027149509
-0.026745346
-0.025822205
-0.024473248
-0.022818479
-0.020979791
-0.019090518
-0.01724059
-0.015566547
-0.014069057
-0.012969376
-0.012059735
0.0018218391
-0.00044277201
0.00083321395
0.00043965252
0.00079574678
0.00072568478
0.00075678533
0.0006433825
0.00047777626
0.00021562769
-0.00014506349
-0.00069196591
-0.0013983333
-0.0022848552
-0.0034084818
-0.0047898126
-0.0064438301
-0.0083704176
-0.010553207
-0.012952832
-0.015506435
-0.018125422
-0.020698559
-0.023097571
-0.0251881
-0.026843622
-0.027961396
-0.028476598
-0.028372089
-0.027680564
-0.02648001
-0.024879979
-0.023011074
-0.020999769
-0.018978623
-0.017033375
-0.015293889
-0.013754115
-0.012627781
-0.011701381
-0.00045088752
0.0018218391
0.00084999919
0.00045135908
0.00083358738
0.00077397507
0.00083411031
0.0007481603
0.00060692077
0.00036761334
3.5625669e-05
-0.00040929763
-0.0010695348
-0.0019053246
-0.0029447305
-0.0042430998
-0.0058223253
-0.0076893317
-0.0098376744
-0.012238567
-0.014839774
-0.01756238
-0.0203023
-0.022933782
-0.025318244
-0.027316746
-0.028805907
-0.029693893
-0.029933606
-0.02952978
-0.028537768
-0.02705552
-0.025207372
-0.023132258
-0.020958962
-0.018817293
-0.016787482
-0.014991761
-0.013417182
-0.012269504
-0.011330238
0.00085807714
-0.00045088758
0.0017963356
0.00045885053
0.00086242394
0.00081313304
0.00089982122
0.00083951009
0.00073172555
0.00051851822
0.00021446699
-0.00020364676
-0.00074817861
-0.0015351128
-0.0025214351
-0.0037310982
-0.0052261492
-0.0070213664
-0.0091184681
-0.011499601
-0.014123791
-0.016922799
-0.019801508
-0.022639548
-0.025297989
-0.027629833
-0.029494974
-0.030776919
-0.031398694
-0.031334064
-0.030611555
-0.029309497
-0.027544726
-0.02545429
-0.023182987
-0.020859629
-0.018609426
-0.016505966
-0.014663075
-0.013060872
-0.011896853
-0.010948359
0.00046233476
0.00085807711
-0.00044277205
0.0017462294
0.00088123604
0.00084293276
0.00095345722
0.0009166319
0.0008409763
0.00066501933
0.00039096813
4.2899714e-06
-0.00051346564
-0.0011719109
-0.0021069113
-0.0032615165
-0.0046644362
-0.0063760471
-0.0084069274
-0.010748529
-0.013371719
-0.016219897
-0.019208335
-0.022224365
-0.025132089
-0.027780703
-0.030017785
-0.031705675
-0.032738974
-0.033059342
-0.032664245
-0.031607271
-0.029989414
-0.027944724
-0.025620539
-0.023164911
-0.020704473
-0.018358151
-0.016191946
-0.014310696
-0.01268768
-0.011512002
-0.010557687
0.00089001558
0.00046233468
0.000849999
-0.00042684861
0.0016733832
0.00086233171
0.00099442805
0.00097945362
0.00093363227
0.0007933136
0.00056222174
0.00020912894
-0.00027058158
-0.00090519814
-0.0016984236
-0.0027997227
-0.0041466349
-0.0057640074
-0.0077140663
-0.0099981238
-0.012597387
-0.015467802
-0.018536351
-0.021699961
-0.024828607
-0.027771545
-0.03036855
-0.032465063
-0.033930103
-0.03467358
-0.034659438
-0.033911115
-0.032507884
-0.030572399
-0.028253742
-0.025706824
-0.023080313
-0.020496579
-0.018066767
-0.015848556
-0.013937389
-0.012299962
-0.011117008
-0.010160043
0.00087143006
0.00089001549
0.00045885038
0.00083321369
-0.00040398451
0.0015806728
0.0010213148
0.0010272089
0.0010091995
0.00090187022
0.00071226838
0.00040803292
-3.2630824e-05
-0.00062232655
-0.0013953305
-0.0023426177
-0.0036351632
-0.0051966663
-0.0070521602
-0.0092609652
-0.011815007
-0.014681485
-0.017800366
-0.021079923
-0.024398388
-0.027608429
-0.030546305
-0.033045191
-0.034952432
-0.036148147
-0.036561838
-0.036182964
-0.03506261
-0.03330561
-0.031054623
-0.028471125
-0.025714697
-0.02293204
-0.020239342
-0.01773868
-0.01547887
-0.013545789
-0.011899951
-0.010713814
-0.0097570937
0.0010340629
0.00087143001
0.00088123587
0.00045135876
0.00080786494
-0.00037521908
0.0014716885
0.0010580758
0.0010667364
0.0009902458
0.00083931403
0.00058246882
0.00019808082
-0.0003468918
-0.0010654293
-0.0019998051
-0.0031263917
-0.0046335444
-0.0064348686
-0.0085510903
-0.011038783
-0.013876556
-0.017016344
-0.020379465
-0.023854627
-0.027300789
-0.030554534
-0.033441372
-0.035791547
-0.037458702
-0.03833874
-0.038384809
-0.037614633
-0.036107878
-0.033994067
-0.031433587
-0.028597299
-0.025646492
-0.022723436
-0.019936393
-0.0173773
-0.015085845
-0.0131384
-0.011489785
-0.010304241
-0.0093503605
0.0010720997
0.0010340628
0.00086233145
0.00086242357
0.00043965212
0.00077478248
-0.00034210177
0.0013504954
0.0011042514
0.0010575003
0.00094278983
0.00073011445
0.00040054368
-8.0258398e-05
-0.00074659765
-0.0016162939
-0.0027393054
-0.0040704445
-0.0058189207
-0.0078846385
-0.010284577
-0.013068843
-0.016201178
-0.019615313
-0.023212586
-0.02686095
-0.030400674
-0.033653876
-0.036438492
-0.038585982
-0.039961116
-0.040480248
-0.040123922
-0.038940205
-0.037037499
-0.03456837
-0.031708111
-0.028633718
-0.025505269
-0.022458253
-0.019591459
-0.016985935
-0.014672317
-0.012717687
-0.011071522
-0.009889952
-0.0089413282
0.001121788
0.0010720996
0.0010213146
0.00084293239
0.00083358692
0.00042407046
0.00073463264
-0.00030650121
0.0012212893
0.0011013344
0.0010215229
0.00085028675
0.0005718656
0.00015396937
-0.00043882751
-0.0012478092
-0.0022936572
-0.0036345125
-0.0051994162
-0.0072156389
-0.0095712489
-0.012276071
-0.01537227
-0.018805466
-0.022489438
-0.026303786
-0.030095633
-0.033687522
-0.036889704
-0.039516274
-0.041404644
-0.042435731
-0.042550915
-0.041761355
-0.040146798
-0.037843656
-0.035025186
-0.031878312
-0.028582828
-0.025294715
-0.022140466
-0.019208202
-0.01656781
-0.014241177
-0.012286092
-0.010646983
-0.0094723735
-0.0085312595
0.0011218129
0.0011217879
0.0010580756
0.00099442767
0.00081313245
0.00079574611
0.00040442401
0.00068810652
-0.00027052615
0.0010886481
0.0010729125
0.00094168281
0.00071124592
0.0003521224
-0.00016827107
-0.00089314173
-0.0018681788
-0.00311756
-0.0047097387
-0.0065384685
-0.0088502781
-0.01152002
-0.014549182
-0.017968766
-0.021704023
-0.025646523
-0.029653389
-0.033551192
-0.037146723
-0.04024158
-0.042650458
-0.044221824
-0.044857892
-0.044529314
-0.043280442
-0.041223145
-0.038520259
-0.035362747
-0.031945588
-0.028447978
-0.025018916
-0.02177405
-0.018790263
-0.01612635
-0.013795384
-0.01184562
-0.010217476
-0.0090527796
-0.0081205571
0.0010970556
0.0011218129
0.0011042512
0.0010272085
0.00095345661
0.00077397435
0.00074941892
0.00038023412
0.00063594294
-0.00023556645
0.00095896903
0.001001371
0.00081718613
0.00051324106
6.058332e-05
-0.00058114114
-0.0014599958
-0.0026271875
-0.0041111542
-0.0059901682
-0.0081152007
-0.010749741
-0.013756784
-0.017126515
-0.020876409
-0.024908478
-0.029090739
-0.033257388
-0.037215751
-0.040759497
-0.043685575
-0.045814229
-0.047010419
-0.047202716
-0.046394817
-0.044666026
-0.042159806
-0.039063038
-0.035580882
-0.031912556
-0.028233132
-0.024682053
-0.021363051
-0.018341688
-0.015665166
-0.013337135
-0.011397284
-0.0097844275
-0.008632945
-0.0077100744
0.0010294951
0.0010970556
0.0011013342
0.001066736
0.00097945309
0.0008998205
0.00072568383
0.00069509218
0.00035100855
0.00058065867
-0.00020169167
0.00083946047
0.0008864339
0.00063561478
0.00024656781
-0.00031725194
-0.0011006757
-0.00215831
-0.0035469249
-0.0052988048
-0.0075033548
-0.0099578337
-0.012941802
-0.016306754
-0.020029441
-0.02411064
-0.028427019
-0.032821921
-0.037107177
-0.041072856
-0.044502995
-0.047194507
-0.048978641
-0.049742435
-0.049445627
-0.048128062
-0.045904772
-0.042949343
-0.039469636
-0.035680973
-0.031782729
-0.027942486
-0.024288521
-0.020912212
-0.017866871
-0.01518665
-0.01286703
-0.01094301
-0.0093515803
-0.0082149113
-0.0072858057
0.00091920348
0.001029495
0.0010729122
0.0010574999
0.001009199
0.00091663114
0.00083410935
0.00066801816
0.00063365302
0.00031961465
0.00052668537
-0.00017134222
0.00071441107
0.00071565493
0.00038770465
-0.00010295453
-0.00079679085
-0.0017452509
-0.0030092471
-0.0046510288
-0.0067071944
-0.009277847
-0.012095877
-0.015453967
-0.019194336
-0.023277101
-0.027683726
-0.032263588
-0.036835186
-0.041189247
-0.045101464
-0.048350455
-0.050738311
-0.052113107
-0.052389555
-0.051562906
-0.04971137
-0.046985435
-0.043586516
-0.03973961
-0.035665617
-0.031560024
-0.027580646
-0.023843781
-0.020426821
-0.017368389
-0.014690788
-0.012387725
-0.010490066
-0.0089219548
-0.0077737646
-0.0068433204
0.00075366851
0.0009192033
0.0010013708
0.0010215225
0.0009902452
0.00093363148
0.0008395092
0.00075678426
0.00060094446
0.0005695429
0.00029134077
0.00047580421
-0.00014661636
0.00058209112
0.0004800795
5.9507686e-05
-0.00055021664
-0.0013959009
-0.0025352067
-0.0040357189
-0.0059652753
-0.0083642852
-0.011343595
-0.01455898
-0.018313371
-0.022442146
-0.026885781
-0.031603861
-0.036417388
-0.041120531
-0.045485068
-0.049275995
-0.052271485
-0.054284479
-0.055185981
-0.054923764
-0.053532235
-0.051129124
-0.047899173
-0.044068377
-0.039874052
-0.035538029
-0.031249012
-0.027153763
-0.023354104
-0.019909595
-0.0168454
-0.014181287
-0.011911053
-0.010042213
-0.0084538633
-0.0073153222
-0.0063896304
0.00052412714
0.00075366842
0.00088643358
0.00094168228
0.00094278918
0.0009018695
0.0008409754
0.00074815919
0.00066883966
0.00053047077
0.0005036915
0.0002592986
0.00041673553
-0.00012494605
0.00044996148
0.00016589814
-0.00036347384
-0.0011126483
-0.0021342412
-0.0034927577
-0.0052626522
-0.0075169033
-0.010299471
-0.013730978
-0.017376759
-0.021545813
-0.026070312
-0.030867939
-0.035874579
-0.040882397
-0.045662585
-0.049971014
-0.05356654
-0.056232418
-0.057798621
-0.058165226
-0.057317987
-0.055333179
-0.052368204
-0.048639759
-0.044393848
-0.039874907
-0.035302385
-0.03085642
-0.026669144
-0.022822277
-0.019358648
-0.01630294
-0.013676164
-0.011441589
-0.0095275326
-0.0079735546
-0.0068434257
-0.0059269023
0.00021680879
0.00052412692
0.00071565441
0.00081718543
0.00085028608
0.00083931328
0.00079331264
0.00073172439
0.00064338126
0.0005774871
0.00046220261
0.00043308828
0.00020889935
0.00034979872
-0.00010272095
0.00032278035
-0.00024111997
-0.00089833923
-0.0018093703
-0.0030334162
-0.0046420718
-0.0067165324
-0.0093346149
-0.012542881
-0.016470555
-0.020577881
-0.025174974
-0.030095424
-0.035231531
-0.04049421
-0.045646977
-0.050440413
-0.05461846
-0.057939171
-0.060196835
-0.061245148
-0.061019116
-0.059546709
-0.056947769
-0.05341835
-0.049203191
-0.044562902
-0.039745434
-0.034965757
-0.030390576
-0.026129513
-0.022245084
-0.018780726
-0.015766827
-0.013180579
-0.010868663
-0.0090059013
-0.0074762171
-0.006361744
-0.0054544636
-0.00018236186
0.00021680851
0.00048007901
0.00063561405
0.00071124507
0.0007301135
0.00071226736
0.00066501824
0.00060691949
0.00053496492
0.00048435486
0.00038496211
0.0003456634
0.00015368815
0.00027249944
-8.4334205e-05
0.00020494124
-0.00075786818
-0.00156381
-0.0026614602
-0.0041168735
-0.0060089013
-0.0084253341
-0.01144799
-0.015125151
-0.019592122
-0.024189398
-0.029221316
-0.034529785
-0.039979454
-0.045455342
-0.05069354
-0.055427506
-0.059393998
-0.062356366
-0.064126279
-0.064588027
-0.06371699
-0.061586688
-0.05836102
-0.054271799
-0.049586705
-0.044577181
-0.03949268
-0.034537391
-0.029853934
-0.025529941
-0.021631386
-0.018211137
-0.015242724
-0.01253221
-0.010296345
-0.0084631393
-0.0069689662
-0.0058691781
-0.004973179
-0.00069020124
-0.00018236204
0.00016589759
0.00038770371
0.00051323989
0.00057186435
0.00058246771
0.00056222061
0.00051851689
0.00047777475
0.00042693604
0.00038291547
0.00027742789
0.00025331302
9.3532197e-05
0.00018428287
-7.5602187e-05
0.0001002247
-0.0014028168
-0.0023805185
-0.0036917792
-0.0054095901
-0.007620503
-0.010418039
-0.013887247
-0.01807655
-0.023124125
-0.028235449
-0.03370124
-0.039380912
-0.045108874
-0.05074433
-0.055998416
-0.060591866
-0.064259784
-0.06677752
-0.067980971
-0.067791622
-0.066230124
-0.063417666
-0.059560635
-0.054922174
-0.049789486
-0.044443172
-0.039126619
-0.034019154
-0.029239335
-0.024881837
-0.021027882
-0.017656117
-0.01450409
-0.01189282
-0.0096969035
-0.0079105273
-0.0064499338
-0.0053670286
-0.0044831928
-0.0013250674
-0.00069020138
-0.00024112068
5.9506573e-05
0.00024656656
0.000352121
0.00040054226
0.00040803149
0.00039096671
0.00036761191
0.00034696286
0.00031107502
0.00024930551
0.00016582817
0.00015149387
2.2683792e-05
8.9938249e-05
-7.9418522e-05
1.10258e-05
-0.0021962865
-0.0033708456
-0.0049246879
-0.0069382237
-0.0095052737
-0.01272434
-0.016682564
-0.021426105
-0.027092073
-0.032736382
-0.038626694
-0.044650724
-0.050610554
-0.056341003
-0.061531858
-0.065896201
-0.069173998
-0.071159736
-0.071720688
-0.070821729
-0.068532629
-0.065022145
-0.060535708
-0.055365306
-0.04981672
-0.044171221
-0.038648034
-0.033400948
-0.028561158
-0.024245554
-0.020441499
-0.01680894
-0.013784393
-0.0112187
-0.0090885047
-0.0073458366
-0.0059209732
-0.0048554695
-0.0039850579
-0.0021070867
-0.0013250677
-0.00075786897
-0.00036347494
-0.00010295594
6.0581592e-05
0.00015396749
0.00019807898
0.00020912734
0.00021446546
0.00021562606
0.00020949321
0.00015304861
0.00011083315
4.7424958e-05
3.4840951e-05
-5.983777e-05
-8.4574736e-06
-9.6434246e-05
-6.1997765e-05
-0.0031603181
-0.0045588041
-0.0063862902
-0.008730629
-0.011692305
-0.015374145
-0.019863004
-0.025200567
-0.031517809
-0.037708618
-0.044004249
-0.050334717
-0.056468372
-0.062218614
-0.067258152
-0.071298357
-0.07409171
-0.075458774
-0.075305972
-0.073646706
-0.070601328
-0.066383883
-0.061277678
-0.055604216
-0.049678619
-0.043760401
-0.03804293
-0.032700522
-0.027896097
-0.023628859
-0.019466958
-0.015991992
-0.013020084
-0.010537261
-0.0084678701
-0.0067713352
-0.0053821078
-0.0043352945
-0.0034791873
-0.0030581114
-0.0021070871
-0.0014028174
-0.00089834033
-0.00055021831
-0.00031725396
-0.00016827312
-8.0260516e-05
-3.2632857e-05
4.2880566e-06
3.5623891e-05
5.8923406e-05
2.3740663e-05
-1.0941402e-05
-3.6627996e-05
-8.6647431e-05
-9.4820879e-05
-0.00015416412
-0.00011042024
-0.00012626899
-0.00011989553
-0.0043187174
-0.0059700717
-0.0081039073
-0.010815279
-0.014211121
-0.018396681
-0.023456303
-0.029424275
-0.036419893
-0.043163604
-0.049834127
-0.056421233
-0.06265921
-0.068343875
-0.073135835
-0.076752038
-0.07896563
-0.07963041
-0.07869953
-0.07623747
-0.072414006
-0.067488902
-0.061786477
-0.055648284
-0.049371693
-0.043191525
-0.037332813
-0.032014137
-0.027252904
-0.022505607
-0.018535305
-0.015118381
-0.012250542
-0.009844103
-0.0078375054
-0.0061869312
-0.0048343565
-0.003807118
-0.0029660926
-0.0042019013
-0.0030581116
-0.002196287
-0.0015638112
-0.0011126501
-0.00079679293
-0.00058114348
-0.00043883006
-0.00034689442
-0.00027058405
-0.0002036488
-0.00014506531
-0.00015594403
-0.00016847093
-0.00018334622
-0.00020329959
-0.00023657396
-0.00023620027
-0.00026024199
-0.00021558204
-0.00016798685
-0.00016504883
-0.0056968319
-0.0076314929
-0.010105448
-0.013221204
-0.017090904
-0.021820149
-0.027488814
-0.034118806
-0.041812532
-0.049106753
-0.056109147
-0.062891269
-0.06915301
-0.074676946
-0.079118182
-0.082207642
-0.083747206
-0.08363212
-0.081866423
-0.078565442
-0.073950393
-0.068332996
-0.062069914
-0.05549035
-0.048869855
-0.042490088
-0.036637304
-0.031351746
-0.025957783
-0.021439622
-0.017532192
-0.014242534
-0.011470252
-0.0091417345
-0.0071975084
-0.0055937785
-0.0042784809
-0.0032717552
-0.0024461883
-0.0055636386
-0.0042019014
-0.0031603188
-0.0023805198
-0.0018093719
-0.001395903
-0.0011006784
-0.0008931447
-0.00074660053
-0.00062232941
-0.00051346826
-0.00040929993
-0.00039251968
-0.00037820672
-0.00036998079
-0.00037713224
-0.00038802805
-0.00040179023
-0.00038861385
-0.00037770576
-0.00032345433
-0.00022004253
-0.00020061953
-0.0073211443
-0.0095704048
-0.012419407
-0.015977311
-0.020360036
-0.025671471
-0.031983991
-0.039301928
-0.04770457
-0.055536032
-0.06281435
-0.0697188
-0.075912443
-0.081171786
-0.085154092
-0.087613381
-0.088388795
-0.087423507
-0.084771676
-0.080603423
-0.075201179
-0.068921631
-0.062115793
-0.055095255
-0.04820264
-0.041803644
-0.035967864
-0.029859266
-0.024736362
-0.02028389
-0.016530913
-0.013357273
-0.01068159
-0.0084303775
-0.0065489776
-0.0049927956
-0.0037155227
-0.0027293756
-0.001920172
-0.007169599
-0.0055636388
-0.0043187181
-0.0033708466
-0.0026614617
-0.0021342434
-0.0017452537
-0.001459999
-0.0012478125
-0.0010654327
-0.00090520149
-0.0007481816
-0.00069196832
-0.0006474665
-0.00060982456
-0.00059585209
-0.00059159216
-0.00058935814
-0.00058164599
-0.000551364
-0.00050582191
-0.00043370615
-0.00028041915
-0.0002299156
-0.0092187612
-0.011814861
-0.015074344
-0.019111872
-0.024045657
-0.029975096
-0.036961298
-0.044988436
-0.054097528
-0.062441156
-0.069928003
-0.076869973
-0.082893012
-0.087776993
-0.091189327
-0.09291752
-0.092845
-0.090963431
-0.087380824
-0.082336273
-0.076168716
-0.069236178
-0.061877151
-0.05449641
-0.047551027
-0.041145593
-0.034250598
-0.028459519
-0.023402382
-0.019135405
-0.01552176
-0.012464897
-0.0098846851
-0.0077109963
-0.0058931151
-0.0043852489
-0.0031450852
-0.0021808988
-0.0013885912
-0.009046782
-0.0071695992
-0.0056968323
-0.0045588049
-0.0036917807
-0.0030334183
-0.0025352092
-0.0021583132
-0.0018681825
-0.0016162979
-0.0013953342
-0.0011719144
-0.001069538
-0.00098239065
-0.00091207333
-0.00086849514
-0.00084470954
-0.000825249
-0.00080627403
-0.00077507538
-0.00072353565
-0.00064350302
-0.00054617953
-0.00034692436
-0.00025583166
-0.011417393
-0.014393121
-0.01809823
-0.022652007
-0.028172873
-0.03475188
-0.042438018
-0.051183663
-0.06098378
-0.069806164
-0.077420156
-0.084302872
-0.090043848
-0.094436974
-0.097168645
-0.098069997
-0.097069335
-0.094209975
-0.089672473
-0.083762766
-0.076826508
-0.069214517
-0.061390804
-0.053914707
-0.046930955
-0.039174493
-0.032648122
-0.026918721
-0.022082634
-0.017980911
-0.014507141
-0.011565303
-0.0090804907
-0.0069851377
-0.0052313076
-0.0037697061
-0.0025690604
-0.0016268458
-0.00085198173
-0.011222753
-0.0090467819
-0.0073211445
-0.0059700725
-0.0049246893
-0.0041168753
-0.00349276
-0.0030092503
-0.0026271914
-0.0022936613
-0.0019998094
-0.0016984277
-0.0015351168
-0.0013983368
-0.0012824857
-0.001206616
-0.0011525901
-0.0011145073
-0.0010767973
-0.0010375632
-0.00098074721
-0.00090406168
-0.00078937318
-0.00066078354
-0.00041750189
-0.0002804391
-0.013944882
-0.017332828
-0.021517992
-0.02662301
-0.032763669
-0.040020726
-0.048422873
-0.057884779
-0.068351855
-0.077606877
-0.085251809
-0.09196819
-0.097309027
-0.10109366
-0.1030382
-0.10302024
-0.10101297
-0.097135244
-0.091641911
-0.084847223
-0.077093535
-0.0688959
-0.060925384
-0.053369429
-0.044676039
-0.037343846
-0.030868966
-0.025401019
-0.020759039
-0.016823051
-0.013486579
-0.010659385
-0.0082708771
-0.0062541578
-0.0045608063
-0.0031489067
-0.0019880536
-0.0010680817
-0.0003108574
-0.01372519
-0.011222753
-0.0092187615
-0.0076314936
-0.0063862912
-0.0054095916
-0.0046420741
-0.0040357219
-0.0035469284
-0.0031175641
-0.0027393101
-0.0023426225
-0.0021069158
-0.0019053288