/*--------------------------------*- C++ -*----------------------------------*\
| =========                 |                                                 |
| \\      /  F ield         | OpenFOAM: The Open Source CFD Toolbox           |
|  \\    /   O peration     | Version:  5.0                                   |
|   \\  /    A nd           | Web:      www.OpenFOAM.org                      |
|    \\/     M anipulation  |                                                 |
\*---------------------------------------------------------------------------*/
FoamFile
{
    version     2.0;
    format      ascii;
    class       volScalarField;
    location    "150";
    object      pPrime2Mean;
}
// * * * * * * * * * * * * * * * * * * * * * * * * * * * * * * * * * * * * * //

dimensions      [0 4 -4 0 0 0 0];

internalField   nonuniform List<scalar> 
9200
(
2.2007632e-08
2.1962014e-08
1.1972379e-07
2.1709539e-08
1.2032546e-07
3.4578978e-07
2.1712109e-08
1.1896819e-07
3.4690009e-07
6.5003615e-07
2.1365235e-08
1.1845052e-07
3.4409497e-07
6.532168e-07
1.058122e-06
2.1063543e-08
1.1631784e-07
3.430845e-07
6.4970812e-07
1.0649537e-06
1.538555e-06
2.0575039e-08
1.1411674e-07
3.3819616e-07
6.4960668e-07
1.0624727e-06
1.5521391e-06
2.0932511e-06
2.0057071e-08
1.1086818e-07
3.326878e-07
6.4303091e-07
1.0662059e-06
1.5539116e-06
2.1170448e-06
2.7033344e-06
1.9497562e-08
1.0712766e-07
3.2441982e-07
6.3512855e-07
1.0604624e-06
1.5666448e-06
2.1273593e-06
2.7421992e-06
3.3614438e-06
1.8987069e-08
1.0278938e-07
3.1456514e-07
6.2215002e-07
1.0525854e-06
1.567195e-06
2.1558456e-06
2.7673539e-06
3.4201429e-06
4.0514304e-06
1.8605464e-08
9.8116656e-08
3.029925e-07
6.0582822e-07
1.0365628e-06
1.5653641e-06
2.1700643e-06
2.8212917e-06
3.4666913e-06
4.1354601e-06
4.7609588e-06
1.8460501e-08
9.3287228e-08
2.9040118e-07
5.8584145e-07
1.0146432e-06
1.5521173e-06
2.1825151e-06
2.8602196e-06
3.5566378e-06
4.2113386e-06
4.8763493e-06
5.4741695e-06
1.8668749e-08
8.8529164e-08
2.7737315e-07
5.6329348e-07
9.8610712e-07
1.5300572e-06
2.1802745e-06
2.899398e-06
3.6330364e-06
4.3499373e-06
4.9902352e-06
5.6262996e-06
6.1771306e-06
1.9343664e-08
8.4060664e-08
2.6462598e-07
5.3912769e-07
9.5251289e-07
1.4976202e-06
2.1659214e-06
2.9208906e-06
3.7141484e-06
4.479108e-06
5.1905875e-06
5.7864993e-06
6.3715397e-06
6.8549487e-06
2.0574328e-08
8.0101106e-08
2.5285417e-07
5.1454e-07
9.1525859e-07
1.4564561e-06
2.1364343e-06
2.9268376e-06
3.7758559e-06
4.6201575e-06
5.3895372e-06
6.062296e-06
6.5870872e-06
7.0959717e-06
7.4934018e-06
2.2424784e-08
7.6892053e-08
2.4269991e-07
4.9072181e-07
8.7621844e-07
1.4081154e-06
2.0932768e-06
2.9121174e-06
3.8192663e-06
4.7422649e-06
5.6118984e-06
6.3494335e-06
6.9527004e-06
7.3741936e-06
7.7851346e-06
8.0804803e-06
2.4837589e-08
7.4775736e-08
2.3463734e-07
4.6883603e-07
8.3730967e-07
1.354986e-06
2.0379138e-06
2.8775252e-06
3.8362898e-06
4.8450751e-06
5.8189537e-06
6.6760838e-06
7.346415e-06
7.8417881e-06
8.1334277e-06
8.4252246e-06
8.6054012e-06
2.7653967e-08
7.4093272e-08
2.2899875e-07
4.4993778e-07
8.0037457e-07
1.2996817e-06
1.9731599e-06
2.8239392e-06
3.8263594e-06
4.9164103e-06
6.0083005e-06
6.9954067e-06
7.8019158e-06
8.3602355e-06
8.7150826e-06
8.8487585e-06
9.0039802e-06
9.0599576e-06
3.0632295e-08
7.526404e-08
2.2577911e-07
4.3499123e-07
7.6705967e-07
1.2448587e-06
1.9023066e-06
2.7542571e-06
3.7890613e-06
4.9534479e-06
6.1627741e-06
7.3027849e-06
8.2638572e-06
8.9693508e-06
9.3755627e-06
9.5528363e-06
9.5062433e-06
9.5118916e-06
9.4377634e-06
3.3358883e-08
7.8785868e-08
2.2469432e-07
4.2461657e-07
7.3880159e-07
1.193002e-06
1.8289096e-06
2.6722321e-06
3.7268001e-06
4.9535436e-06
6.2763189e-06
7.5750667e-06
8.7252092e-06
9.6054019e-06
1.0161999e-05
1.0369288e-05
1.033979e-05
1.0093711e-05
9.9410748e-06
9.734945e-06
3.5264365e-08
8.495495e-08
2.2536837e-07
4.1931761e-07
7.1652147e-07
1.1464077e-06
1.7564522e-06
2.5822216e-06
3.6433873e-06
4.9177646e-06
6.3429039e-06
7.8019425e-06
9.1561442e-06
1.0259404e-05
1.1004066e-05
1.1354918e-05
1.1324533e-05
1.1059397e-05
1.0601299e-05
1.0286241e-05
9.9499458e-06
3.5709152e-08
9.3688174e-08
2.2736845e-07
4.1942232e-07
7.007231e-07
1.1068137e-06
1.6881776e-06
2.4887489e-06
3.5437943e-06
4.8492832e-06
6.3611762e-06
7.9726735e-06
9.5411608e-06
1.0894586e-05
1.1891524e-05
1.243351e-05
1.2527609e-05
1.2219171e-05
1.1698402e-05
1.1021549e-05
1.0544566e-05
1.0083361e-05
3.4193311e-08
1.0436165e-07
2.3032552e-07
4.2480891e-07
6.9165212e-07
1.0755478e-06
1.6267238e-06
2.396229e-06
3.4335689e-06
4.7531735e-06
6.332636e-06
8.0821695e-06
9.8634332e-06
1.1489558e-05
1.2780785e-05
1.3595007e-05
1.3870289e-05
1.3653535e-05
1.3036761e-05
1.2245278e-05
1.1349392e-05
1.0715635e-05
1.0137945e-05
3.064599e-08
1.1583424e-07
2.3407467e-07
4.3503868e-07
6.8909523e-07
1.0535439e-06
1.574134e-06
2.3085167e-06
3.3184074e-06
4.635667e-06
6.2616782e-06
8.1289383e-06
1.0112561e-05
1.2020162e-05
1.3644311e-05
1.4790059e-05
1.5344818e-05
1.5283389e-05
1.4711057e-05
1.3760015e-05
1.2691663e-05
1.1582448e-05
1.0801248e-05
1.0118271e-05
2.5679324e-08
1.268024e-07
2.3874181e-07
4.4940752e-07
6.9250856e-07
1.0411811e-06
1.5318823e-06
2.2289442e-06
3.2036158e-06
4.5036165e-06
6.1546902e-06
8.1154385e-06
1.0282404e-05
1.2469074e-05
1.4449616e-05
1.5985349e-05
1.6897692e-05
1.7105789e-05
1.6645026e-05
1.5676073e-05
1.437651e-05
1.3032167e-05
1.1721045e-05
1.0805304e-05
1.0029934e-05
2.0642892e-08
1.3654558e-07
2.4471442e-07
4.6697684e-07
7.0111736e-07
1.0382856e-06
1.500766e-06
2.1602845e-06
3.0939675e-06
4.3638393e-06
6.019402e-06
8.047183e-06
1.0371888e-05
1.2823573e-05
1.5170912e-05
1.7139641e-05
1.8491001e-05
1.9065836e-05
1.8844236e-05
1.7923796e-05
1.6529712e-05
1.4875284e-05
1.326456e-05
1.1768015e-05
1.0733478e-05
9.8788433e-06
1.7411684e-08
1.4503099e-07
2.5192704e-07
4.8652321e-07
7.14092e-07
1.0439895e-06
1.4809695e-06
2.1044722e-06
2.9935876e-06
4.2228595e-06
5.8640957e-06
7.9320108e-06
1.0384206e-05
1.307703e-05
1.5786864e-05
1.821751e-05
2.0075081e-05
2.1123186e-05
2.1255816e-05
2.0520573e-05
1.9092395e-05
1.7253723e-05
1.5249514e-05
1.3389422e-05
1.1728429e-05
1.0592412e-05
9.67246e-06
1.8062738e-08
1.5209097e-07
2.5963135e-07
5.0665649e-07
7.3042978e-07
1.0567718e-06
1.4720865e-06
2.0626079e-06
2.9056776e-06
4.0866962e-06
5.6971362e-06
7.7791825e-06
1.0326159e-05
1.3228324e-05
1.6282935e-05
1.9187064e-05
2.1604309e-05
2.3221151e-05
2.3840216e-05
2.3419978e-05
2.209788e-05
2.0123834e-05
1.7835294e-05
1.5495483e-05
1.340972e-05
1.1608573e-05
1.0389205e-05
9.4204006e-06
2.4348877e-08
1.5772001e-07
2.6730382e-07
5.2601259e-07
7.4888382e-07
1.0749909e-06
1.4731789e-06
2.0349208e-06
2.8325027e-06
3.9605356e-06
5.5266309e-06
7.5987167e-06
1.0207171e-05
1.3281403e-05
1.665123e-05
2.0023361e-05
2.3034712e-05
2.5304303e-05
2.6536301e-05
2.6587501e-05
2.5510996e-05
2.3538152e-05
2.099637e-05
1.8264618e-05
1.5613288e-05
1.3330207e-05
1.1415522e-05
1.0132288e-05
9.1312683e-06
3.6778305e-08
1.6439901e-07
2.7403473e-07
5.4325115e-07
7.6818218e-07
1.0970123e-06
1.4828112e-06
2.0206211e-06
2.7753794e-06
3.8485777e-06
5.3599872e-06
7.4008928e-06
1.0038418e-05
1.3244328e-05
1.6890473e-05
2.0708841e-05
2.4328558e-05
2.7315837e-05
2.9280525e-05
2.9961569e-05
2.9307501e-05
2.7478085e-05
2.4808112e-05
2.1691774e-05
1.8537133e-05
1.5606037e-05
1.3157856e-05
1.1157715e-05
9.8309618e-06
8.8135249e-06
5.5486268e-08
1.7219251e-07
2.7733613e-07
5.5727694e-07
7.870579e-07
1.1210687e-06
1.4990115e-06
2.017952e-06
2.7346184e-06
3.7537712e-06
5.2036179e-06
7.1957556e-06
9.8321424e-06
1.3128302e-05
1.7005236e-05
2.1233967e-05
2.5455546e-05
2.9203322e-05
3.2003659e-05
3.3473707e-05
3.34307e-05
3.1935553e-05
2.9273673e-05
2.5877791e-05
2.2197915e-05
1.8652256e-05
1.5480208e-05
1.2901917e-05
1.0844772e-05
9.4942235e-06
8.4758623e-06
8.2921927e-08
1.7560726e-07
2.7879979e-07
5.7096275e-07
8.0425679e-07
1.145003e-06
1.5191968e-06
2.0245954e-06
2.7093088e-06
3.6776135e-06
5.0627102e-06
6.9926587e-06
9.6010459e-06
1.2946793e-05
1.7004987e-05
2.1596861e-05
2.639437e-05
3.092076e-05
3.4637612e-05
3.7044258e-05
3.7812093e-05
3.6865374e-05
3.4407509e-05
3.0852505e-05
2.6724006e-05
2.2507928e-05
1.861411e-05
1.5244943e-05
1.2573178e-05
1.0486623e-05
9.1312935e-06
8.1255089e-06
1.1876838e-07
1.7539612e-07
2.8190847e-07
5.9119017e-07
8.1950866e-07
1.1668076e-06
1.5409085e-06
2.0382205e-06
2.69738e-06
3.6201105e-06
4.940975e-06
6.7997855e-06
9.3576732e-06
1.2714839e-05
1.6903101e-05
2.1802574e-05
2.7133041e-05
3.2431306e-05
3.7118319e-05
4.0589952e-05
4.2365528e-05
4.2205649e-05
4.0183484e-05
3.6659168e-05
3.2176054e-05
2.7329903e-05
2.2621133e-05
1.843062e-05
1.491163e-05
1.2183135e-05
1.0093689e-05
8.7510761e-06
7.7677376e-06
1.6134076e-07
1.7449702e-07
2.8981407e-07
5.995677e-07
8.3541697e-07
1.189983e-06
1.562185e-06
2.0561617e-06
2.6958566e-06
3.5797416e-06
4.8403e-06
6.6236543e-06
9.1137584e-06
1.2448325e-05
1.6716043e-05
2.1862129e-05
2.7668647e-05
3.3708558e-05
3.938978e-05
4.4027427e-05
4.6994975e-05
4.7869792e-05
4.6554522e-05
4.3298872e-05
3.8632001e-05
3.3212849e-05
2.7686533e-05
2.2542304e-05
1.8113191e-05
1.4493104e-05
1.1743705e-05
9.6759173e-06
8.3611783e-06
7.407851e-06
2.0809806e-07
1.7330258e-07
3.0216921e-07
5.9471572e-07
8.4441654e-07
1.2173747e-06
1.5841379e-06
2.0753599e-06
2.7015222e-06
3.5539123e-06
4.7604788e-06
6.4687255e-06
8.879562e-06
1.2163089e-05
1.6462578e-05
2.1791657e-05
2.8006645e-05
3.4737145e-05
4.1406594e-05
4.7278607e-05
5.1598332e-05
5.3753839e-05
5.3441868e-05
5.0748791e-05
4.612827e-05
4.0274249e-05
3.3940863e-05
2.7792399e-05
2.2281428e-05
1.7675864e-05
1.4003163e-05
1.1266518e-05
9.2421927e-06
7.9675996e-06
7.0511428e-06
2.5571862e-07
1.7208395e-07
3.1670219e-07
5.9323696e-07
8.4998131e-07
1.2300478e-06
1.608201e-06
2.0963251e-06
2.7110271e-06
3.5396381e-06
4.6994391e-06
6.3369496e-06
8.6631625e-06
1.1873934e-05
1.6162699e-05
2.161161e-05
2.8160086e-05
3.551257e-05
4.3135723e-05
5.0274671e-05
5.6073936e-05
5.9739924e-05
6.0741149e-05
5.8948289e-05
5.467645e-05
4.8593484e-05
4.1544744e-05
3.4347787e-05
2.7653555e-05
2.1852835e-05
1.7134628e-05
1.3455901e-05
1.0762601e-05
8.8004513e-06
7.5761474e-06
6.7022919e-06
3.003136e-07
1.7111663e-07
3.3152359e-07
5.931725e-07
8.5967319e-07
1.2323132e-06
1.6177553e-06
2.1193951e-06
2.7227713e-06
3.5330524e-06
4.654353e-06
6.2277259e-06
8.4697342e-06
1.1593603e-05
1.5836339e-05
2.1345626e-05
2.8148897e-05
3.6040793e-05
4.4557284e-05
5.2959314e-05
6.0325982e-05
6.570346e-05
6.8324672e-05
6.7802844e-05
6.4245883e-05
5.8226692e-05
5.0626824e-05
4.2414011e-05
3.4431629e-05
2.7282756e-05
2.1274391e-05
1.650665e-05
1.2865241e-05
1.0242211e-05
8.3578592e-06
7.1918733e-06
6.3653192e-06
3.3793059e-07
1.7050126e-07
3.4565847e-07
5.9258389e-07
8.7338261e-07
1.2397858e-06
1.619462e-06
2.1266724e-06
2.7383191e-06
3.5292904e-06
4.6213397e-06
6.1394354e-06
8.3011738e-06
1.1331712e-05
1.5501945e-05
2.1018926e-05
2.7998859e-05
3.6337732e-05
4.5664798e-05
5.529091e-05
6.4269541e-05
7.151981e-05
7.604859e-05
7.7184254e-05
7.4764711e-05
6.9185959e-05
6.1297188e-05
5.2173646e-05
4.2866086e-05
3.4200258e-05
2.6698654e-05
2.0566544e-05
1.5809558e-05
1.2244577e-05
9.714703e-06
7.9206357e-06
6.8191529e-06
6.0432892e-06
3.6507744e-07
1.7019581e-07
3.5822306e-07
5.9166675e-07
8.8752607e-07
1.2500014e-06
1.6272825e-06
2.126317e-06
2.7327315e-06
3.5307315e-06
4.5904178e-06
6.0688122e-06
8.1577559e-06
1.1093934e-05
1.5174866e-05
2.0656401e-05
2.7739809e-05
3.6428556e-05
4.6465216e-05
5.7243858e-05
6.7834449e-05
7.7071104e-05
8.3760292e-05
8.6936792e-05
8.6117028e-05
8.1436902e-05
7.3623437e-05
6.37985e-05
5.3195744e-05
4.2898559e-05
3.3670652e-05
2.5924619e-05
1.9751343e-05
1.5060895e-05
1.160642e-05
9.1885075e-06
7.4941799e-06
6.4615342e-06
5.7385696e-06
3.7929069e-07
1.7008204e-07
3.6839217e-07
5.9076714e-07
9.0082212e-07
1.2588638e-06
1.641453e-06
2.1308923e-06
2.7167168e-06
3.5092265e-06
4.5659601e-06
5.9984757e-06
8.0377698e-06
1.0883911e-05
1.4866019e-05
2.0280302e-05
2.7403265e-05
3.6345949e-05
4.6978676e-05
5.8809531e-05
7.0968258e-05
8.2252119e-05
9.1306747e-05
9.6884376e-05
9.8146713e-05
9.4891828e-05
8.7624564e-05
7.7423438e-05
6.5659636e-05
5.3672651e-05
4.2522492e-05
3.2867741e-05
2.4987502e-05
1.8851568e-05
1.427753e-05
1.0962198e-05
8.6709172e-06
7.0829625e-06
6.1218265e-06
5.4528564e-06
1.700539e-07
3.7929074e-07
3.7530355e-07
5.9005692e-07
9.1246826e-07
1.2661575e-06
1.6565551e-06
2.1433037e-06
2.7098716e-06
3.4756407e-06
4.511259e-06
5.9360159e-06
7.9134325e-06
1.0702849e-05
1.4584229e-05
1.9908349e-05
2.701936e-05
3.6127353e-05
4.7237264e-05
5.9996804e-05
7.3638541e-05
8.6975292e-05
9.8542486e-05
0.00010683993
0.00011066339
0.00010941018
0.00010325961
9.313672e-05
8.0469579e-05
6.6831338e-05
5.3602573e-05
4.1761221e-05
3.1822764e-05
2.3916351e-05
1.7889838e-05
1.347524e-05
1.0321994e-05
8.1680737e-06
6.6905887e-06
5.8021241e-06
5.1874594e-06
3.7863574e-07
1.7005382e-07
3.6507746e-07
5.8940164e-07
9.217452e-07
1.272108e-06
1.670937e-06
2.1569393e-06
2.714933e-06
3.4515406e-06
4.4393944e-06
5.8374543e-06
7.7963127e-06
1.0508944e-05
1.4335466e-05
1.9556406e-05
2.6614104e-05
3.5811111e-05
4.72821e-05
6.0831678e-05
7.5834662e-05
9.1174888e-05
0.00010533692
0.00011661512
0.00012345156
0.00012480154
0.00012042334
0.0001109639
9.7797614e-05
8.2670051e-05
6.7288827e-05
5.3001768e-05
4.0648804e-05
3.0571686e-05
2.27411e-05
1.688789e-05
1.2668257e-05
9.6944679e-06
7.6849456e-06
6.3197931e-06
5.5040456e-06
4.943373e-06
5.8896347e-07
3.7863574e-07
1.7008187e-07
3.379307e-07
9.2766792e-07
1.2768328e-06
1.6836629e-06
2.1697979e-06
2.7238446e-06
3.4431799e-06
4.3833413e-06
5.7142829e-06
7.6287178e-06
1.0320593e-05
1.405938e-05
1.9237522e-05
2.6212419e-05
3.5432434e-05
4.715874e-05
6.1354754e-05
7.7568585e-05
9.4810558e-05
0.00011158091
0.00012603005
0.00013628149
0.00014083331
0.00013894506
0.00013085812
0.00011775559
0.00010145644
8.3963159e-05
6.7032435e-05
5.1903249e-05
3.9227773e-05
2.9153226e-05
2.1491428e-05
1.586582e-05
1.1869035e-05
9.0867667e-06
7.2254863e-06
5.9726873e-06
5.2287837e-06
4.7213612e-06
9.3015166e-07
5.8896332e-07
3.7530351e-07
1.7019548e-07
3.0031368e-07
1.2798122e-06
1.6941366e-06
2.181614e-06
2.7343512e-06
3.4428728e-06
4.3493517e-06
5.6114108e-06
7.42197e-06
1.0058792e-05
1.3782536e-05
1.8867206e-05
2.5837613e-05
3.5027193e-05
4.6911955e-05
6.1616108e-05
7.8873526e-05
9.7869796e-05
0.00011719258
0.00013492253
0.00014892093
0.00015724146
0.00015859286
0.000152693
0.00014037952
0.00012340647
0.00010399666
8.4320295e-05
6.608716e-05
5.0354265e-05
3.754677e-05
2.7607201e-05
2.0195532e-05
1.4841573e-05
1.1088056e-05
8.5047056e-06
6.7927529e-06
5.6508069e-06
4.9771938e-06
4.5218372e-06
1.281226e-06
9.3015142e-07
5.8940125e-07
3.6839212e-07
1.7050086e-07
2.5571877e-07
1.7011498e-06
2.1913644e-06
2.7450782e-06
3.4468783e-06
4.3296053e-06
5.5377636e-06
7.2456091e-06
9.7336677e-06
1.3387475e-05
1.8485689e-05
2.5374606e-05
3.463221e-05
4.6589932e-05
6.1668934e-05
7.9798764e-05
0.00010036842
0.00012212207
0.00014315665
0.00016114697
0.00017374329
0.00017908243
0.00017626176
0.00016561591
0.00014866351
0.00012772383
0.00010534282
8.3747196e-05
6.4500365e-05
4.8413317e-05
3.5657874e-05
2.5972589e-05
1.8879194e-05
1.3830578e-05
1.0334012e-05
7.9529087e-06
6.3891004e-06
5.3552359e-06
4.7497425e-06
4.3448867e-06
1.7045039e-06
1.2812257e-06
9.2766736e-07
5.9005622e-07
3.5822295e-07
1.7111608e-07
2.0809819e-07
2.1970756e-06
2.7544721e-06
3.4528564e-06
4.3190832e-06
5.4877424e-06
7.1091111e-06
9.4533356e-06
1.2888381e-05
1.7926746e-05
2.4882387e-05
3.4094294e-05
4.6246465e-05
6.1573697e-05
8.040233e-05
0.00010234633
0.00012635434
0.00015063029
0.00017275773
0.00019005153
0.00020008952
0.00020128189
0.00019331365
0.00017727727
0.00015541711
0.00013056209
0.00010546475
8.2282705e-05
6.2338363e-05
4.6146484e-05
3.3613988e-05
2.4286e-05
1.7565039e-05
1.2845873e-05
9.6140237e-06
7.4350103e-06
6.016129e-06
5.0865916e-06
4.5466174e-06
4.1903002e-06
2.1985712e-06
1.7045035e-06
1.2798111e-06
9.2174417e-07
5.9076619e-07
3.4565831e-07
1.7208334e-07
1.6134094e-07
2.7605636e-06
3.4591813e-06
4.3147389e-06
5.4545435e-06
7.0102385e-06
9.2262647e-06
1.2457479e-05
1.7198731e-05
2.4114364e-05
3.3500025e-05
4.5681716e-05
6.1404097e-05
8.0755527e-05
0.00010385972
0.0001299072
0.00015728091
0.00018358292
0.0002058888
0.00022126498
0.00022740507
0.0002232224
0.00020918766
0.00018725945
0.00016039688
0.00013183234
0.00010437869
7.9995489e-05
5.968174e-05
4.36237e-05
3.1466177e-05
2.2580307e-05
1.6272587e-05
1.1898402e-05
8.9338296e-06
6.9535415e-06
5.6748293e-06
4.8452197e-06
4.3677229e-06
4.0578547e-06
2.7630892e-06
2.1985704e-06
1.7011482e-06
1.276831e-06
9.1246687e-07
5.9166548e-07
3.3152333e-07
1.7330184e-07
1.1876854e-07
3.463464e-06
4.3140705e-06
5.433472e-06
6.9395769e-06
9.0559202e-06
1.2099557e-05
1.6558869e-05
2.307457e-05
3.2474486e-05
4.5020291e-05
6.0903024e-05
8.0954111e-05
0.00010498601
0.00013282407
0.00016308692
0.00019349324
0.00022100148
0.00024225131
0.00025423135
0.00025499714
0.00024421436
0.00022331928
0.00019518986
0.00016342529
0.0001315071
0.00010214515
7.6978605e-05
5.662008e-05
4.0914764e-05
2.9261669e-05
2.0884552e-05
1.5018611e-05
1.0997221e-05
8.297549e-06
6.5100845e-06
5.365832e-06
4.6311916e-06
4.2128451e-06
3.9473937e-06
3.4651366e-06
2.7630881e-06
2.1970734e-06
1.694134e-06
1.2721054e-06
9.0082021e-07
5.9258237e-07
3.1670185e-07
1.7449622e-07
8.2922133e-08
4.3142216e-06
5.4213051e-06
6.8907108e-06
8.9300734e-06
1.1825297e-05
1.6017219e-05
2.2147874e-05
3.1023575e-05
4.3685298e-05
6.0248701e-05
8.0670596e-05
0.00010584295
0.00013517956
0.00016806284
0.00020240569
0.00023517267
0.00026269925
0.00028132605
0.00028820884
0.00028205327
0.00026352989
0.00023517458
0.00020076636
0.00016440218
0.00012962136
9.8863392e-05
7.3342598e-05
5.3246321e-05
3.8086174e-05
2.7042958e-05
1.9224145e-05
1.3817302e-05
1.0149045e-05
7.7078799e-06
6.1058555e-06
5.0896501e-06
4.4442399e-06
4.0817387e-06
3.8587314e-06
4.3142656e-06
3.4651352e-06
2.7605606e-06
2.1913607e-06
1.6836591e-06
1.2661542e-06
8.8752376e-07
5.9317066e-07
3.0216871e-07
1.7539523e-07
5.5486431e-08
5.4146733e-06
6.8591376e-06
8.8399766e-06
1.1618753e-05
1.5596455e-05
2.135315e-05
2.9716004e-05
4.1700826e-05
5.8556351e-05
8.0156897e-05
0.0001060164
0.00013711013
0.00017226596
0.00021028367
0.00024823225
0.00028228408
0.00030823784
0.0003223592
0.00032228037
0.00030767511
0.00028044408
0.00024428617
0.00020377809
0.00016331054
0.00012626795
9.4663082e-05
6.9207522e-05
4.9652013e-05
3.5199395e-05
2.4848317e-05
1.7621135e-05
1.2679572e-05
9.3584917e-06
7.167109e-06
5.7420441e-06
4.845916e-06
4.2838031e-06
3.9742919e-06
3.7910323e-06
5.4120279e-06
4.3142637e-06
3.4634597e-06
2.7544668e-06
2.1816088e-06
1.6709321e-06
1.2588596e-06
8.7337972e-07
5.9323485e-07
2.8981344e-07
1.7560634e-07
3.6778476e-08
6.8407765e-06
8.7794603e-06
1.1468113e-05
1.5275913e-05
2.0729696e-05
2.858339e-05
3.9893524e-05
5.5897902e-05
7.8070258e-05
0.00010586045
0.00013809511
0.00017584364
0.00021714575
0.00026006362
0.00030072028
0.00033451721
0.00035689771
0.00036436053
0.00035538268
0.00033092396
0.00029428205
0.00025028621
0.0002041195
0.00016021565
0.00012158871
8.9693866e-05
6.4695993e-05
4.5924349e-05
3.2310977e-05
2.2711507e-05
1.6093006e-05
1.1613264e-05
8.6296813e-06
6.677516e-06
5.4182264e-06
4.6333581e-06
4.1500082e-06
3.8898527e-06
3.7359224e-06
6.8331826e-06
5.4120253e-06
4.3142158e-06
3.4591741e-06
2.7450708e-06
2.1697909e-06
1.6565489e-06
1.2499964e-06
8.596698e-07
5.9471327e-07
2.8190765e-07
1.7219152e-07
2.4348969e-08
8.7436522e-06
1.1364807e-05
1.5039219e-05
2.0250808e-05
2.7687576e-05
3.8316222e-05
5.3451409e-05
7.4581341e-05
0.00010336733
0.00013862626
0.0001781425
0.00022313593
0.00027061702
0.00031777671
0.00035973486
0.00039123986
0.00040766031
0.00040612252
0.00038635244
0.0003508781
0.00030446635
0.00025293267
0.00020179572
0.00015525661
0.00011576144
8.41153e-05
5.9928766e-05
4.2145539e-05
2.9471966e-05
2.066026e-05
1.4652908e-05
1.0625493e-05
7.9666571e-06
6.2385122e-06
5.1321959e-06
4.4527162e-06
4.0425704e-06
3.8182348e-06
3.6926148e-06
8.7288362e-06
6.8331793e-06
5.4146658e-06
4.3140608e-06
3.4528462e-06
2.7343412e-06
2.1569306e-06
1.6414456e-06
1.2397798e-06
8.4997727e-07
5.9956497e-07
2.7879883e-07
1.6439801e-07
1.8062769e-08
1.1303027e-05
1.487486e-05
1.9894127e-05
2.6994809e-05
3.7060589e-05
5.130271e-05
7.1332151e-05
9.8885969e-05
0.00013575413
0.00017983458
0.00022743446
0.00028001045
0.00033329614
0.00038350634
0.00042478728
0.00045146094
0.00045921205
0.00044626092
0.00041398986
0.00036669539
0.00031055953
0.0002521248
0.00019691756
0.00014863184
0.00010898675
7.8090011e-05
5.5023076e-05
3.8391655e-05
2.6725746e-05
1.8716151e-05
1.3312754e-05
9.7231111e-06
7.3686607e-06
5.8464456e-06
4.8855508e-06
4.3048109e-06
3.9470121e-06
3.7604753e-06
3.6657027e-06
1.1277263e-05
8.728832e-06
6.8407666e-06
5.4212922e-06
4.314725e-06
3.4468649e-06
2.7238322e-06
2.1432931e-06
1.6272735e-06
1.2323063e-06
8.4441193e-07
5.9118709e-07
2.77335e-07
1.5771898e-07
1.7411621e-08
1.4775969e-05
1.9644521e-05
2.6475503e-05
3.6084032e-05
4.9582398e-05
6.846272e-05
9.4652526e-05
0.00013012774
0.00017667161
0.00023094631
0.00028721441
0.00034733819
0.00040551838
0.00045696194
0.00049497733
0.00051381476
0.00050997213
0.00048328054
0.00043713495
0.00037767499
0.00031229498
0.00024790543
0.0001896868
0.00014058231
0.00010147756
7.1780895e-05
5.0090305e-05
3.4729294e-05
2.41072e-05
1.6898796e-05
1.2083788e-05
8.9054867e-06
6.8298663e-06
5.504707e-06
4.6804625e-06
4.1654853e-06
3.8702232e-06
3.7190873e-06
3.6567473e-06
1.4734586e-05
1.1277258e-05
8.7436397e-06
6.8591209e-06
5.4334537e-06
4.319065e-06
3.4428558e-06
2.7149178e-06
2.1308797e-06
1.6194516e-06
1.2300399e-06
8.3541167e-07
5.7095931e-07
2.7403337e-07
1.5208998e-07
2.0642727e-08
1.9493672e-05
2.6110098e-05
3.5348144e-05
4.8237381e-05
6.6153697e-05
9.08943e-05
0.00012471517
0.00016978163
0.00022766553
0.00029343392
0.00035860844
0.00042572836
0.00048723809
0.00053740019
0.00056895415
0.00057656999
0.00055815258
0.00051566394
0.000454751
0.00038330981
0.00030959099
0.00024044916
0.00018037661
0.00013137751
9.3454173e-05
6.5347838e-05
4.5231175e-05
3.1214003e-05
2.1647932e-05
1.5226113e-05
1.0966092e-05
8.1639931e-06
6.3564201e-06
5.217112e-06
4.479796e-06
4.0535654e-06
3.8094826e-06
3.6964513e-06
3.6669072e-06
1.9430304e-05
1.473458e-05
1.1303012e-05
8.7794391e-06
6.8906869e-06
5.4545193e-06
4.3295823e-06
3.4431592e-06
2.7098535e-06
2.1263021e-06
1.6177431e-06
1.2173657e-06
8.1950268e-07
5.5727307e-07
2.6730213e-07
1.4503002e-07
2.5679079e-08
2.5888523e-05
3.4828184e-05
4.7219092e-05
6.4339772e-05
8.7856025e-05
0.00011988487
0.0001629967
0.00021945853
0.00029032054
0.00036869425
0.00044250718
0.00051541466
0.00057792966
0.00062356084
0.00064489991
0.00063767576
0.00060185043
0.00054197394
0.00046600522
0.00038331909
0.00030254684
0.00023004142
0.00016931359
0.0001213069
8.5139692e-05
5.8940654e-05
4.053269e-05
2.7895981e-05
1.9376091e-05
1.3699973e-05
9.9475661e-06
7.5077677e-06
5.954303e-06
4.9272439e-06
4.320584e-06
3.9581354e-06
3.7686591e-06
3.693511e-06
3.6971921e-06
2.579519e-05
1.9430297e-05
1.477595e-05
1.1364782e-05
8.8399463e-06
6.9395452e-06
5.4877119e-06
4.3493236e-06
3.4515156e-06
2.7166953e-06
2.1266551e-06
1.6081872e-06
1.1899727e-06
8.0424997e-07
5.4324684e-07
2.596293e-07
1.3654464e-07
3.0645666e-08
3.4511811e-05
4.6497583e-05
6.2960475e-05
8.5459625e-05
0.00011596337
0.00015690678
0.00021112995
0.00028085181
0.00036617289
0.00045792444
0.00053944088
0.000616139
0.000676499
0.00071362013
0.0007205534
0.00069484709
0.0006391668
0.00056095617
0.00047032493
0.00037765749
0.00029142402
0.00021705719
0.00015686519
0.00011067402
7.6752524e-05
5.2693415e-05
3.6073061e-05
2.4818784e-05
1.7296944e-05
1.2304241e-05
9.0406514e-06
6.9465063e-06
5.5413475e-06
4.700523e-06
4.1770368e-06
3.8859673e-06
3.7485356e-06
3.7118176e-06
3.7487659e-06
3.437807e-05
2.5795182e-05
1.949365e-05
1.4874828e-05
1.1468076e-05
8.9300331e-06
7.0101984e-06
5.537726e-06
4.3833073e-06
3.4756112e-06
2.7327065e-06
2.1193752e-06
1.5841222e-06
1.1667959e-06
7.8705016e-07
5.2600773e-07
2.5192455e-07
1.2680144e-07
3.4192945e-08
4.6057319e-05
6.1981416e-05
8.3629255e-05
0.00011285784
0.00015194259
0.00020360504
0.00027086091
0.00035565535
0.00045658509
0.00056199046
0.00064944704
0.00072704196
0.00078120412
0.0008051832
0.00079328225
0.00074568885
0.00066833853
0.00057163248
0.00046742751
0.00036650483
0.00027662292
0.00020194385
0.00014343263
9.9788428e-05
6.8496151e-05
4.672654e-05
3.191887e-05
2.1994e-05
1.5390165e-05
1.1055276e-05
8.2607985e-06
6.3637974e-06
5.2237695e-06
4.4875016e-06
4.0627346e-06
3.8375576e-06
3.7511564e-06
3.7527546e-06
3.8228763e-06
4.5871092e-05
3.4378061e-05
2.5888498e-05
1.9644484e-05
1.5039174e-05
1.1618703e-05
9.055869e-06
7.1090616e-06
5.6113654e-06
4.4393541e-06
3.509192e-06
2.7382904e-06
2.0963024e-06
1.5621673e-06
1.1449898e-06
7.6817332e-07
5.0665098e-07
2.4471148e-07
1.1583321e-07
3.570877e-08
6.1382746e-05
8.2325806e-05
0.00011047445
0.00014799244
0.00019744686
0.00026176215
0.00034397501
0.00044546301
0.00056261623
0.00068128268
0.00077194531
0.00084655093
0.00088960865
0.00089533454
0.0008602035
0.00078785311
0.00068787578
0.0005733646
0.00045732618
0.000350244
0.0002586611
0.00018521335
0.00012944443
8.8952712e-05
6.0553564e-05
4.1139654e-05
2.8092493e-05
1.9397455e-05
1.3677367e-05
9.9768671e-06
7.4471082e-06
5.9233723e-06
4.9152389e-06
4.3124838e-06
3.9770275e-06
3.8154802e-06
3.7781238e-06
3.817874e-06
3.9208566e-06
6.1130284e-05
4.5871082e-05
3.4511782e-05
2.6110055e-05
1.9894074e-05
1.5275853e-05
1.1825234e-05
9.2262013e-06
7.2455492e-06
5.7142289e-06
4.5112118e-06
3.5306918e-06
2.7227388e-06
2.0753341e-06
1.5408884e-06
1.1210538e-06
7.4887372e-07
4.865169e-07
2.3873835e-07
1.0436052e-07
3.5263974e-08
8.1526904e-05
0.00010876982
0.00014494521
0.00019251984
0.00025428618
0.00033323946
0.00043222628
0.00055165272
0.00068488731
0.00081558371
0.00090559595
0.00097228786
0.00099860461
0.00098074478
0.00091834709
0.00081921122
0.00069665643
0.00056588728
0.00044031726
0.0003294352
0.00023816492
0.00016744231
0.00011533911
7.8441511e-05
5.3071595e-05
3.5972998e-05
2.4568522e-05
1.7058026e-05
1.2194433e-05
8.8503003e-06
6.8424555e-06
5.4841434e-06
4.6573525e-06
4.1740553e-06
3.9227667e-06
3.8214067e-06
3.8313235e-06
3.9086703e-06
4.0439526e-06
8.1191151e-05
6.1130272e-05
4.6057286e-05
3.4828135e-05
2.6475441e-05
2.0250736e-05
1.5596377e-05
1.2099479e-05
9.4532588e-06
7.4218987e-06
5.8373909e-06
4.5659057e-06
3.5292451e-06
2.7109902e-06
2.0561325e-06
1.5191741e-06
1.0969954e-06
7.3041825e-07
4.6696964e-07
2.3407066e-07
9.3686885e-08
3.3358528e-08
0.00010772326
0.00014275572
0.00018869672
0.00024826729
0.00032438048
0.00041991403
0.00053723127
0.00067526108
0.00082346771
0.00096390133
0.0010481541
0.0011010609
0.0011045003
0.0010578247
0.00096485034
0.00083800164
0.00069398105
0.00054931297
0.00041695183
0.00030480632
0.00021588369
0.00014925243
0.0001015213
6.8469242e-05
4.6119549e-05
3.1206684e-05
2.1386833e-05
1.5029021e-05
1.0646508e-05
8.0275047e-06
6.2270755e-06
5.113983e-06
4.4474074e-06
4.0754155e-06
3.9021519e-06
3.8574322e-06
3.9124477e-06
4.0264189e-06
4.1931305e-06
0.00010728521
8.1191137e-05
6.1382711e-05
4.6497528e-05
3.5348072e-05
2.6994724e-05
2.0729604e-05
1.6017123e-05
1.2457383e-05
9.7335757e-06
7.6286338e-06
5.9359428e-06
4.5903559e-06
3.533001e-06
2.7014806e-06
2.0381875e-06
1.4989859e-06
1.0749719e-06
7.140789e-07
4.4939929e-07
2.3032092e-07
8.4953469e-08
3.0631944e-08
0.00014141035
0.00018593736
0.00024356538
0.00031719348
0.00040970146
0.00052357978
0.00066033779
0.00081686357
0.00097771464
0.0011242602
0.0011964246
0.001228942
0.0012031421
0.0011229352
0.0009971595
0.00084293321
0.00067962104
0.00052410392
0.00038802286
0.00027729179
0.00019267609
0.00013122831
8.8300419e-05
5.9150034e-05
3.9695885e-05
2.6897891e-05
1.8623913e-05
1.2916914e-05
9.5356564e-06
7.1770118e-06
5.7072444e-06
4.8077843e-06
4.2887867e-06
4.0188541e-06
3.9171592e-06
3.9252844e-06
4.0228476e-06
4.1719196e-06
4.3688907e-06
0.00014085064
0.0001072852
8.1526868e-05
6.1981355e-05
4.721901e-05
3.6083936e-05
2.7687468e-05
2.1353034e-05
1.6558751e-05
1.2888266e-05
1.0058683e-05
7.7962159e-06
5.9983923e-06
4.6212695e-06
3.5395803e-06
2.6958097e-06
2.0245582e-06
1.4827824e-06
1.0567505e-06
7.0110253e-07
4.3502936e-07
2.2736328e-07
7.8784153e-08
2.7653664e-08
0.00018423714
0.00024015442
0.00031153242
0.00040133657
0.00051218203
0.00064582739
0.00080248968
0.00097656324
0.0011459964
0.0012936057
0.0013463601
0.0013513315
0.0012901177
0.0011726281
0.0010131976
0.00083327206
0.00065382773
0.00049104502
0.00035463768
0.00024804236
0.00016937212
0.00011380769
7.5858672e-05
5.0523341e-05
3.3885045e-05
2.3152206e-05
1.5758627e-05
1.142891e-05
8.3739646e-06
6.4598527e-06
5.2732084e-06
4.5691554e-06
4.1837308e-06
4.0063977e-06
3.9695849e-06
4.026281e-06
4.1632847e-06
4.3456604e-06
4.5709612e-06
0.00018353543
0.00014085063
0.00010772322
8.2325739e-05
6.2960387e-05
4.8237273e-05
3.7060464e-05
2.8583253e-05
2.2147733e-05
1.719859e-05
1.3387339e-05
1.0320468e-05
7.913322e-06
6.068718e-06
4.6542741e-06
3.5538473e-06
2.6973273e-06
2.0179102e-06
1.4731466e-06
1.0439656e-06
6.9249192e-07
4.2479842e-07
2.253626e-07
7.526211e-08
2.4837282e-08
0.00023804381
0.0003073991
0.00039467817
0.00050273146
0.00063360788
0.00078791395
0.00096419928
0.0011533336
0.0013255224
0.0014679833
0.001493044
0.001463126
0.00136102
0.0012038658
0.0010114999
0.00080887508
0.00061727855
0.00045135696
0.00031828459
0.00021821258
0.00014657956
9.7272422e-05
6.4314747e-05
4.2718265e-05
2.8827083e-05
1.9283999e-05
1.3780149e-05
9.8582983e-06
7.3988881e-06
5.8584624e-06
4.9292101e-06
4.4000579e-06
4.1344039e-06
4.0397645e-06
4.0605226e-06
4.1610741e-06
4.3343114e-06
4.5474322e-06
4.7983167e-06
0.00023718103
0.00018353542
0.00014141031
0.00010876975
8.3629161e-05
6.4339651e-05
4.9582255e-05
3.8316065e-05
2.9715838e-05
2.3074399e-05
1.7926579e-05
1.3782379e-05
1.0508801e-05
8.0376454e-06
6.1393295e-06
4.6993506e-06
3.579669e-06
2.7092499e-06