/*--------------------------------*- C++ -*----------------------------------*\
| =========                 |                                                 |
| \\      /  F ield         | OpenFOAM: The Open Source CFD Toolbox           |
|  \\    /   O peration     | Version:  5.0                                   |
|   \\  /    A nd           | Web:      www.OpenFOAM.org                      |
|    \\/     M anipulation  |                                                 |
\*---------------------------------------------------------------------------*/
FoamFile
{
    version     2.0;
    format      ascii;
    class       volVectorField;
    location    "150";
    object      U;
}
// * * * * * * * * * * * * * * * * * * * * * * * * * * * * * * * * * * * * * //

dimensions      [0 1 -1 0 0 0 0];

internalField   nonuniform List<vector> 
9200
(
(1.0313906 -0.00075089622 -1.0699114e-23)
(1.0318356 -0.0022422233 -1.192289e-20)
(1.0335115 -0.00075106332 0)
(1.0324106 -0.0035874528 6.1267557e-21)
(1.0339397 -0.0022564192 -9.04576e-21)
(1.034475 -0.00074958704 0)
(1.0330866 -0.0048709916 6.1221454e-22)
(1.0345044 -0.0036002336 -4.4391101e-22)
(1.0348973 -0.0022667657 0)
(1.0358778 -0.0007485357 0)
(1.0338848 -0.0060406608 -1.1674461e-20)
(1.0351697 -0.0048956462 -6.639615e-21)
(1.0354593 -0.0036142243 -5.0525341e-21)
(1.0362907 -0.002284344 -3.1081856e-22)
(1.0370214 -0.00074598144 1.2449218e-25)
(1.0347553 -0.0071367622 -1.0782512e-20)
(1.0359513 -0.0060719658 8.441265e-22)
(1.0361192 -0.0049214056 -1.6256769e-20)
(1.036852 -0.0036362197 -6.1204765e-21)
(1.0374291 -0.0022993424 7.6062759e-23)
(1.0382292 -0.00074180765 1.2695396e-20)
(1.0356746 -0.0081416303 -1.0064556e-20)
(1.036801 -0.0071804412 -1.1119808e-20)
(1.0368945 -0.0061065518 9.8153594e-21)
(1.0375105 -0.0049618334 5.7730586e-22)
(1.0379914 -0.0036556596 -6.2416475e-21)
(1.0386343 -0.0023138688 -6.0478476e-21)
(1.039351 -0.00073517519 -9.2361904e-22)
(1.0366086 -0.0090690797 -4.3668842e-21)
(1.0376919 -0.0081967625 -7.7037677e-21)
(1.0377349 -0.0072281945 -1.0638577e-20)
(1.0382835 -0.0061626113 2.776165e-22)
(1.0386503 -0.0049993518 1.4760788e-20)
(1.0392035 -0.0036735738 6.4081317e-21)
(1.0397553 -0.0023234448 7.7768044e-21)
(1.0404543 -0.00072551378 -1.1787738e-20)
(1.0375346 -0.0099172814 1.2143009e-20)
(1.0385913 -0.0091379088 -8.960743e-21)
(1.0386136 -0.0082580089 3.5809913e-22)
(1.0391184 -0.00730688 -5.3922049e-21)
(1.0394236 -0.0062162232 5.5627692e-22)
(1.0398713 -0.0050372483 2.2679017e-20)
(1.0403323 -0.0036839388 -4.4987144e-21)
(1.040863 -0.002326872 1.2962715e-20)
(1.0415063 -0.00071231873 2.4699385e-20)
(1.0384316 -0.010692006 -9.120271e-21)
(1.0394755 -0.010000119 4.4970606e-21)
(1.0394972 -0.0092147408 2.35735e-22)
(1.0399877 -0.0083608464 -1.198977e-21)
(1.040256 -0.007383797 1.8476767e-21)
(1.0406545 -0.0062730216 7.8065859e-22)
(1.0410103 -0.0050658719 -7.9054049e-21)
(1.0414551 -0.0036844062 -1.3704688e-20)
(1.0419212 -0.0023215757 -7.4062078e-21)
(1.0425162 -0.00069509375 -1.8452122e-21)
(1.0392835 -0.011396289 4.1938576e-21)
(1.0403247 -0.010789579 -1.6319083e-22)
(1.0403626 -0.010093452 -7.2165345e-21)
(1.0408575 -0.0093455239 7.294502e-21)
(1.0411197 -0.0084631667 -1.0535552e-20)
(1.0414953 -0.0074687076 2.3092841e-20)
(1.041805 -0.0063196083 1.9821816e-22)
(1.0421542 -0.0050828542 -2.2265148e-20)
(1.0425289 -0.0036710632 1.0862657e-20)
(1.0429409 -0.0023059181 -2.2462877e-20)
(1.0434772 -0.00067347665 3.3390425e-21)
(1.0400758 -0.01203486 -1.7014855e-22)
(1.0411235 -0.011508538 1.4117177e-21)
(1.0411896 -0.010900507 6.0601808e-21)
(1.0417046 -0.010254251 0)
(1.04198 -0.0094773062 -1.263872e-22)
(1.0423649 -0.0085797873 -5.3645253e-22)
(1.0426559 -0.0075431122 4.6931755e-21)
(1.042973 -0.0063540748 1.1206443e-20)
(1.04325 -0.0050819846 1.5913496e-22)
(1.0435724 -0.0036412373 1.3393168e-20)
(1.0439147 -0.0022781705 8.8851934e-21)
(1.0443869 -0.00064710606 -1.9099087e-21)
(1.0407924 -0.012612735 -1.6162677e-22)
(1.0418595 -0.012161319 9.0511773e-22)
(1.0419634 -0.011637792 0)
(1.0425091 -0.011093428 0)
(1.0428136 -0.010417806 3.7638619e-21)
(1.0432275 -0.0096313782 -5.0572481e-21)
(1.0435334 -0.0086862012 1.0299275e-20)
(1.0438484 -0.0076066405 -1.250478e-20)
(1.0440941 -0.0063676198 -1.0597938e-21)
(1.0443277 -0.0050594855 -6.2061293e-24)
(1.0445719 -0.0035922386 -1.5493876e-20)
(1.0448407 -0.0022364439 1.618332e-20)
(1.0452419 -0.00061580699 -2.9834409e-20)
(1.0414059 -0.013136068 5.7867027e-22)
(1.0425198 -0.012752137 -1.9087991e-22)
(1.0426721 -0.012309595 3.3672244e-21)
(1.0432565 -0.011864158 -3.7477935e-21)
(1.0436007 -0.011290952 4.0074734e-21)
(1.0440594 -0.010613053 -1.0815437e-21)
(1.0444007 -0.0097760053 -3.278309e-21)
(1.044749 -0.0087845237 6.2224388e-23)
(1.0449958 -0.0076469464 -1.1870861e-20)
(1.0452113 -0.0063557994 -1.0845345e-20)
(1.0453632 -0.0050112569 -4.2369587e-21)
(1.0455283 -0.0035212933 -1.1530004e-20)
(1.045715 -0.0021797181 -7.5765718e-21)
(1.046039 -0.00057946862 7.8863402e-21)
(1.0418619 -0.013613221 5.8676772e-21)
(1.0430837 -0.013286436 -3.9265761e-21)
(1.0433041 -0.012920025 1.5470858e-21)
(1.0439358 -0.012570253 6.5465622e-23)
(1.044327 -0.012097021 -1.7257212e-23)
(1.0448406 -0.01153089 1.0578171e-21)
(1.0452335 -0.010799987 -3.1469416e-21)
(1.0456355 -0.0099170337 4.1747218e-21)
(1.0459217 -0.0088582787 -2.8897918e-22)
(1.0461543 -0.007659771 1.1243835e-21)
(1.046287 -0.0063131535 2.5873859e-22)
(1.0463653 -0.0049335733 1.059186e-21)
(1.0464365 -0.0034267381 1.4913175e-20)
(1.0465342 -0.0021069963 -7.0675653e-21)
(1.0467752 -0.00053809393 5.6491183e-21)
(1.0420547 -0.014052602 -2.3426652e-21)
(1.0435078 -0.01377219 4.1678193e-21)
(1.0438413 -0.013474369 -1.5926788e-21)
(1.0445373 -0.013215182 3.4327127e-21)
(1.0449824 -0.012839321 -3.7972966e-21)
(1.0455569 -0.012384115 9.6865684e-21)
(1.0460111 -0.01176384 -8.8092629e-21)
(1.0464834 -0.010989568 2.0720398e-22)
(1.0468323 -0.010033036 3.1023087e-21)
(1.0471212 -0.0089042779 -4.3326898e-22)
(1.0472752 -0.0076375527 2.8704197e-20)
(1.0473444 -0.00623446 -7.7756734e-21)
(1.0473235 -0.0048238695 -4.9272671e-21)
(1.0472934 -0.0033067582 -2.2450407e-21)
(1.0472951 -0.0020177169 -6.5774362e-22)
(1.0474482 -0.00049177282 -5.9536413e-21)
(1.0418033 -0.014468904 0)
(1.0437024 -0.014218953 3.037466e-21)
(1.0442454 -0.013979996 -2.6994549e-21)
(1.0450463 -0.013803579 0)
(1.0455582 -0.013520749 0)
(1.0461986 -0.013175263 0)
(1.0467198 -0.012665619 6.182379e-24)
(1.0472717 -0.012007355 -7.2635134e-21)
(1.0477009 -0.011154285 2.3151377e-21)
(1.04807 -0.010122748 -8.7263464e-21)
(1.0482886 -0.0089118445 -1.3974346e-23)
(1.0483915 -0.007574042 -6.0818547e-21)
(1.048359 -0.0061167619 2.9180678e-22)
(1.0482367 -0.0046793452 5.4990103e-21)
(1.0480952 -0.00316058 1.5957477e-21)
(1.047995 -0.0019116021 3.139656e-21)
(1.0480558 -0.0004406851 0)
(1.0408272 -0.014872545 2.5162674e-22)
(1.0435034 -0.01464384 -6.4691315e-21)
(1.0444352 -0.014445401 6.1512757e-21)
(1.0454309 -0.014342032 1.8418306e-21)
(1.0460424 -0.014145412 3.5358789e-21)
(1.0467579 -0.013906322 0)
(1.0473499 -0.013506999 3.8520139e-21)
(1.0479863 -0.01296704 -4.1891572e-22)
(1.0485055 -0.012226752 -1.321345e-20)
(1.0489733 -0.011295865 2.3330142e-21)
(1.0492834 -0.010171602 5.0940016e-21)
(1.049465 -0.0088746281 -2.5955657e-22)
(1.0494699 -0.0074650986 -1.1846259e-20)
(1.0493409 -0.0059554536 1.8801984e-20)
(1.0490998 -0.004498661 4.9424123e-21)
(1.0488387 -0.0029876404 2.2445906e-20)
(1.0486313 -0.0017887157 8.2693308e-21)
(1.0485965 -0.00038508895 6.3462914e-21)
(1.0387563 -0.015275224 1.65861e-22)
(1.042643 -0.015063587 -2.5439265e-21)
(1.0442572 -0.014885424 -2.0167553e-21)
(1.0456206 -0.014838724 3.9434033e-21)
(1.0464085 -0.014719193 -3.6831236e-22)
(1.0472251 -0.014580476 4.8925239e-21)
(1.0478946 -0.01428908 2.520697e-21)
(1.0486175 -0.013869226 -7.736608e-21)
(1.0492314 -0.013245582 -2.8900716e-21)
(1.0498081 -0.012427826 8.3948603e-21)
(1.05023 -0.011395278 -3.6545331e-22)
(1.0505194 -0.010173856 1.2163355e-20)
(1.0506114 -0.0087864968 -4.5537045e-21)
(1.0505285 -0.0073045169 -1.0688942e-21)
(1.0502762 -0.0057492855 -2.0558216e-21)
(1.0499093 -0.004280426 -3.7447741e-21)
(1.049521 -0.0027880203 7.0022094e-21)
(1.0492022 -0.0016494197 7.4093007e-23)
(1.0490694 -0.00032531213 5.0630316e-21)
(1.0351636 -0.015682307 1.5477821e-21)
(1.0407498 -0.015498369 3.244836e-21)
(1.0434548 -0.015314342 -1.5108118e-20)
(1.0454751 -0.015308155 -9.4272702e-22)
(1.0465945 -0.015249669 2.8277057e-21)
(1.0475785 -0.015202514 2.0611319e-21)
(1.0483463 -0.015014256 5.8392658e-22)
(1.0491591 -0.014713821 7.2087327e-21)
(1.049869 -0.014210258 -1.1467359e-21)
(1.0505589 -0.01351214 -1.2167806e-20)
(1.0511037 -0.012586462 1.5086131e-20)
(1.0515231 -0.011447956 -2.3737033e-21)
(1.0517349 -0.010120694 -5.5403682e-21)
(1.05175 -0.0086403159 4.7345825e-22)
(1.0515447 -0.0070908341 -1.0871712e-21)
(1.051165 -0.0054956551 -1.3156221e-20)
(1.0506614 -0.0040245844 1.6858708e-21)
(1.0501394 -0.0025622143 -1.1368641e-20)
(1.0497062 -0.0014943636 -2.6753627e-21)
(1.0494742 -0.0002617392 -4.6568759e-21)
(1.029627 -0.016091189 -3.2996805e-22)
(1.0373741 -0.015963454 4.0441246e-21)
(1.0416622 -0.015749281 -1.4840249e-21)
(1.0447514 -0.015766021 3.853712e-21)
(1.0464724 -0.015750011 1.6826532e-21)
(1.0477644 -0.015779133 -2.7444219e-21)
(1.0486874 -0.015686465 5.1945927e-21)
(1.0496051 -0.015502072 8.7181168e-21)
(1.0504125 -0.015119442 -9.7953153e-21)
(1.0512158 -0.014547034 0)
(1.0518883 -0.01373698 -9.9371475e-21)
(1.05245 -0.012699946 1.1135038e-21)
(1.0528063 -0.011441971 1.1531062e-20)
(1.0529555 -0.010004503 -6.0722549e-21)
(1.0528546 -0.0084333525 5.9342075e-21)
(1.0525264 -0.0068192292 -1.1326029e-20)
(1.0520009 -0.005194234 -2.341749e-21)
(1.0513527 -0.0037313629 3.2727e-21)
(1.050692 -0.0023112067 -5.5489534e-21)
(1.0501426 -0.001324445 -8.006518e-22)
(1.0498109 -0.00019479946 -3.5442889e-21)
(1.0218017 -0.016490047 -5.596664e-21)
(1.0320474 -0.016465116 3.0339922e-21)
(1.038425 -0.016202965 7.5107993e-21)
(1.0430895 -0.016231716 -8.8066911e-21)
(1.0458121 -0.016235409 -4.915153e-21)
(1.0476676 -0.016322316 2.0652873e-21)
(1.0488721 -0.016311707 0)
(1.0499413 -0.016236647 7.2466573e-21)
(1.0508571 -0.015973273 1.3499015e-21)
(1.051773 -0.015529676 -1.4624409e-20)
(1.0525731 -0.014843739 -4.0797365e-21)
(1.0532824 -0.013919938 1.6127837e-21)
(1.0537975 -0.012752804 -7.5552563e-23)
(1.0541082 -0.011369559 -4.8577461e-21)
(1.0541522 -0.009820656 5.5480564e-21)
(1.0539351 -0.0081595131 -5.0381101e-21)
(1.0534585 -0.0064903509 1.4458022e-21)
(1.0527806 -0.0048446635 -7.8508218e-21)
(1.0519804 -0.0034018668 -2.6408187e-21)
(1.0511774 -0.0020363777 -5.1967434e-22)
(1.0505112 -0.0011407901 -2.2393868e-21)
(1.0500805 -0.00012495808 0)
(1.011485 -0.016858965 -3.2700257e-21)
(1.0243608 -0.016996814 -1.2731921e-21)
(1.0332564 -0.016680152 2.985308e-22)
(1.0400262 -0.016721541 -7.7574075e-21)
(1.0442619 -0.01672453 -2.6912603e-21)
(1.0470724 -0.016847352 2.9757731e-21)
(1.0487966 -0.016900901 -5.5148234e-21)
(1.0501293 -0.016922364 8.149252e-21)
(1.0511918 -0.016773256 4.0795151e-21)
(1.0522265 -0.016458831 3.2312279e-22)
(1.0531522 -0.015902373 -7.5327121e-24)
(1.0540088 -0.015103384 -2.5117734e-21)
(1.0546892 -0.014041633 1.3001795e-21)
(1.055178 -0.012737515 -7.3544441e-21)
(1.0553979 -0.011223788 -1.1796876e-20)
(1.0553365 -0.0095620063 -1.0566458e-20)
(1.0549737 -0.0078186001 1.6554258e-21)
(1.054343 -0.006101361 1.4237637e-20)
(1.0534999 -0.004447961 1.7038822e-22)
(1.0525422 -0.0030376114 -3.5086113e-21)
(1.0515947 -0.0017394543 0)
(1.0508122 -0.00094471172 3.9214478e-21)
(1.0502843 -5.2717208e-05 2.1436217e-22)
(0.99865397 -0.017173067 1.7054278e-20)
(1.0140399 -0.017538316 -2.9618214e-21)
(1.0257156 -0.017174325 8.6730522e-21)
(1.0350477 -0.017244082 4.3559628e-21)
(1.0413557 -0.017233935 -9.6328301e-21)
(1.0456377 -0.017373531 0)
(1.0482597 -0.017468885 -1.1505901e-21)
(1.0500768 -0.017568734 5.648324e-21)
(1.0513846 -0.017523146 4.4428204e-21)
(1.0525681 -0.017334545 3.3970433e-22)
(1.0536224 -0.016910219 -7.9790496e-21)
(1.0546228 -0.016244281 -5.1600054e-21)
(1.0554687 -0.01530248 6.9337682e-21)
(1.0561438 -0.014095204 -9.5724133e-21)
(1.0565588 -0.01264449 1.418348e-20)
(1.056688 -0.010996593 2.2043156e-20)
(1.0564887 -0.0092269437 -8.0517269e-22)
(1.0559729 -0.0074066917 5.7271033e-21)
(1.0551697 -0.0056546319 -1.3863305e-20)
(1.0541554 -0.0040056583 1.3578523e-21)
(1.0530364 -0.0026406892 6.0056252e-21)
(1.0519437 -0.0014224371 -3.3747828e-21)
(1.0510467 -0.00073768038 1.0087586e-21)
(1.0504241 2.1365711e-05 1.6771248e-22)
(0.98347027 -0.017406561 4.3801673e-21)
(1.0009972 -0.018057919 -7.3676617e-22)
(1.0154884 -0.017667054 -6.9380868e-23)
(1.0276701 -0.01779578 -1.8743547e-20)
(1.03656 -0.01777323 6.7092699e-21)
(1.042896 -0.01791937 -1.1406239e-20)
(1.0469315 -0.018034708 -9.8844514e-22)
(1.0495978 -0.018189915 -1.0322426e-20)
(1.051354 -0.018231205 4.6472206e-21)
(1.0527715 -0.018159163 3.2918227e-21)
(1.0539775 -0.017865856 -7.153979e-21)
(1.0551215 -0.017338307 5.6288204e-21)
(1.056129 -0.016527618 -6.1143973e-21)
(1.0569912 -0.015435216 -1.3551688e-22)
(1.0576119 -0.014068145 1.0801918e-20)
(1.0579544 -0.012464895 1.6068098e-21)
(1.0579573 -0.010684534 -3.2882248e-22)
(1.0576112 -0.0088103852 9.3554154e-21)
(1.0569204 -0.0069256012 0)
(1.0559378 -0.0051497323 1.7573414e-21)
(1.054744 -0.0035205963 4.4385254e-22)
(1.0534618 -0.0022136641 -6.8944788e-22)
(1.0522249 -0.0010875645 -7.2872054e-22)
(1.0512163 -0.0005213 -1.5687293e-21)
(1.0505019 9.6600316e-05 2.1033245e-22)
(0.96625178 -0.017536501 -1.5517607e-20)
(0.98534862 -0.018516723 -5.3216002e-22)
(1.002446 -0.018130332 2.6002118e-21)
(1.0175267 -0.018359306 2.0768995e-21)
(1.0293546 -0.018340348 1.8671234e-20)
(1.0382954 -0.018497016 1.9509198e-22)
(1.0443457 -0.01861758 -9.4401944e-22)
(1.0483756 -0.018804879 7.6862424e-22)
(1.0509285 -0.018910754 7.8032093e-21)
(1.0527658 -0.018939379 -4.263611e-21)
(1.0541964 -0.018770208 5.3626987e-21)
(1.0555004 -0.018382358 -3.3674949e-22)
(1.0566671 -0.017711078 -2.4938067e-21)
(1.0577124 -0.016748055 2.7591999e-21)
(1.058541 -0.015486003 -1.3300443e-22)
(1.0591099 -0.013951042 -1.5247513e-20)
(1.0593418 -0.012193115 -2.1353754e-20)
(1.0592086 -0.010281299 -1.366999e-20)
(1.0586901 -0.0083130807 -1.8381381e-20)
(1.0578147 -0.0063741238 -3.8746332e-22)
(1.0566405 -0.0045904697 1.5282412e-20)
(1.0552639 -0.00299516 8.591841e-22)
(1.053818 -0.0017597433 -2.7175504e-21)
(1.0524393 -0.00073733173 1.3424269e-21)
(1.0513227 -0.00029739059 -1.7474445e-22)
(1.0505202 0.00017151892 3.9437756e-23)
(0.94742306 -0.017547143 6.9042242e-22)
(0.96739393 -0.01887424 -8.1885798e-22)
(0.98666868 -0.01853137 -1.092454e-20)
(1.0044374 -0.018905529 1.1294584e-20)
(1.0193256 -0.018919281 -1.6329841e-20)
(1.0312786 -0.019106777 9.7665251e-21)
(1.0399347 -0.0192311 4.4099116e-21)
(1.045948 -0.019433989 9.693353e-21)
(1.0498055 -0.019580393 -1.1084011e-20)
(1.0523944 -0.019687333 -4.6778546e-21)
(1.0542176 -0.019628414 1.6114508e-21)
(1.0557427 -0.019375697 -1.3157644e-20)
(1.0570797 -0.01884799 1.292433e-20)
(1.0583037 -0.018025945 -2.0362941e-21)
(1.059337 -0.016886837 3.2508756e-21)
(1.0601365 -0.015445063 -2.2887052e-22)
(1.0606138 -0.013735849 -6.088645e-21)
(1.0607246 -0.011821557 6.0980357e-21)
(1.0604262 -0.0097861486 -6.9037941e-21)
(1.0597231 -0.0077328326 -5.5951477e-22)
(1.0586472 -0.0057557465 0)
(1.0572758 -0.0039786667 5.1904171e-21)
(1.0557132 -0.002433177 1.7309572e-21)
(1.0541046 -0.0012832126 0)
(1.0525884 -0.00037503697 -1.2829446e-21)
(1.051368 -6.8903193e-05 -5.875731e-22)
(1.0504877 0.0002416629 -1.4191366e-21)
(0.92746136 -0.017433169 5.2886831e-21)
(0.94756451 -0.019098943 -1.4528833e-22)
(0.96843519 -0.018838524 -9.1276976e-21)
(0.98844124 -0.019397913 1.1420851e-21)
(1.0062437 -0.019481488 -2.8646298e-21)
(1.0213805 -0.019734208 -1.0921759e-20)
(1.0331071 -0.019877343 -5.5676117e-22)
(1.0417345 -0.020092942 -7.9333356e-21)
(1.0475287 -0.020261072 9.4520478e-23)
(1.05137 -0.020421059 9.220071e-21)
(1.0538989 -0.020451285 -4.980045e-21)
(1.0557961 -0.020321655 6.0836959e-22)
(1.0573539 -0.01993588 -3.6714318e-21)
(1.0587626 -0.019262158 3.4696115e-21)
(1.0599953 -0.018261084 -1.6981822e-21)
(1.0610232 -0.01693406 4.2295885e-21)
(1.061753 -0.015301742 2.8513168e-21)
(1.0621279 -0.013413681 3.0288936e-20)
(1.0620855 -0.011347616 1.0351674e-20)
(1.0616072 -0.0091956847 9.8971789e-21)
(1.0606996 -0.0070724101 8.8555739e-21)
(1.0594147 -0.0050719292 -2.6473042e-21)
(1.0578397 -0.0033190461 -6.0130639e-22)
(1.056091 -0.0018385137 0)
(1.0543229 -0.00078647075 0)
(1.0526736 -4.4295453e-06 1.7959089e-22)
(1.0513555 0.00016311675 2.1755355e-21)
(1.0503992 0.00032199537 3.5903613e-21)
(0.90686647 -0.017190659 0)
(0.92634324 -0.019179271 -4.4654045e-22)
(0.9481883 -0.019019654 7.8011606e-21)
(0.96978822 -0.019798298 4.0725963e-21)
(0.99010557 -0.01998976 1.1676236e-20)
(1.0083144 -0.020350234 6.2338306e-22)
(1.0233497 -0.020543108 -7.0957565e-21)
(1.0351104 -0.020786231 -1.254573e-20)
(1.0435078 -0.020969993 1.4822239e-20)
(1.0492447 -0.021162039 -4.3046288e-21)
(1.0529687 -0.02125608 6.0268221e-22)
(1.0555326 -0.021229413 4.3299933e-21)
(1.0574452 -0.020976178 -1.2416339e-20)
(1.0590794 -0.020452275 6.3360045e-21)
(1.0605139 -0.019600086 4.1111698e-21)
(1.0617645 -0.018406668 -9.4920328e-22)
(1.0627464 -0.016876381 4.0882571e-21)
(1.0633958 -0.015045903 -3.9320174e-21)
(1.0636339 -0.012979761 1.6212734e-20)
(1.0634213 -0.010766485 6.7918473e-22)
(1.0627394 -0.0085115352 7.5543203e-21)
(1.0616155 -0.0063326509 4.7479439e-21)
(1.0601114 -0.0043274937 -8.0585087e-22)
(1.0583304 -0.0026152564 -1.0084957e-20)
(1.0563967 -0.0012154919 -3.992722e-21)
(1.0544736 -0.00027322304 1.3318375e-21)
(1.0526977 0.0003752931 -1.5808074e-21)
(1.051288 0.00040188362 2.2266887e-21)
(1.0502619 0.00039978673 -7.0136767e-21)
(0.88609747 -0.01682154 -1.6212663e-20)
(0.90428476 -0.019081272 0)
(0.92649309 -0.01903784 0)
(0.94889784 -0.020071551 0)
(0.97113578 -0.020405261 -3.0347733e-21)
(0.99203021 -0.020916591 1.0405256e-20)
(1.0103236 -0.021200178 -1.0858068e-21)
(1.0255118 -0.021502454 -1.5669975e-21)
(1.0370877 -0.021713581 1.9393524e-20)
(1.0454205 -0.021929124 -1.8452196e-20)
(1.0509895 -0.022064477 1.0975841e-20)
(1.0546972 -0.022115172 -3.8167951e-21)
(1.057239 -0.021976272 2.3291335e-21)
(1.059217 -0.021595628 -8.7557719e-21)
(1.0608852 -0.020897396 5.5300489e-21)
(1.0623579 -0.019852244 5.1829161e-21)
(1.0635869 -0.018446694 -9.463238e-23)
(1.0645128 -0.01670249 -1.0753177e-20)
(1.0650458 -0.014670359 -3.3759079e-21)
(1.0651283 -0.012427699 -8.5868401e-21)
(1.0647182 -0.010078242 -8.9649726e-21)
(1.0638172 -0.0077336198 2.9940208e-21)
(1.0624629 -0.0055180935 9.6309736e-21)
(1.0607341 -0.003526173 -4.1357577e-21)
(1.0587459 -0.0018726652 -1.739723e-21)
(1.0566308 -0.00056835991 -6.9962458e-22)
(1.0545585 0.00025304643 -8.8727747e-22)
(1.0526633 0.00076073494 2.2447194e-21)
(1.0511698 0.00064123067 -1.0226401e-20)
(1.0500788 0.00047624912 -4.9856338e-21)
(0.86384017 -0.016285626 -1.2232991e-21)
(0.88197085 -0.018801043 -1.0942603e-21)
(0.90386655 -0.018935039 0)
(0.92629745 -0.020187296 0)
(0.94975055 -0.020690805 0)
(0.9727194 -0.021391107 0)
(0.99392867 -0.021809034 0)
(1.0125411 -0.022213547 3.4299398e-22)
(1.0276561 -0.022482005 -9.3471607e-21)
(1.0392137 -0.022730963 2.0617873e-20)
(1.0473588 -0.022896649 -1.002935e-21)
(1.0528644 -0.023000555 1.225472e-20)
(1.0564975 -0.022951068 -1.6582089e-20)
(1.0590737 -0.022697596 3.0014546e-21)
(1.0610787 -0.02215018 -1.8758065e-22)
(1.0627978 -0.021262212 6.0514641e-21)
(1.0642713 -0.020000083 -1.116628e-20)
(1.06547 -0.018368784 -5.1285511e-22)
(1.0663032 -0.016402647 1.4341403e-20)
(1.0666996 -0.014167006 6.4848006e-21)
(1.0665959 -0.011755649 1.1925501e-21)
(1.0659693 -0.0092815716 9.8488677e-21)
(1.0648309 -0.0068657745 5.0858843e-22)
(1.0632371 -0.0046323047 -3.6420675e-21)
(1.0612793 -0.0026738285 4.4971739e-21)
(1.0590855 -0.001096023 6.3931792e-21)
(1.056794 9.8431657e-05 1.5289714e-21)
(1.0545802 0.0007893734 3.9266503e-22)
(1.0525739 0.0011493102 2.3534696e-22)
(1.0510035 0.00088142818 8.6328406e-21)
(1.0498527 0.00055157582 3.3886012e-21)
(0.83965276 -0.015500773 1.8282516e-20)
(0.85800496 -0.018326803 -6.0299606e-22)
(0.88074609 -0.018664272 5.9963355e-21)
(0.90257482 -0.020133698 6.0816578e-21)
(0.92649735 -0.020807862 0)
(0.95078125 -0.021732591 0)
(0.97432073 -0.022325499 -4.3321408e-22)
(0.99604339 -0.022878632 1.1340256e-20)
(1.0147574 -0.023247707 -1.8472062e-20)
(1.0299624 -0.023559585 2.1621624e-20)
(1.0413665 -0.023763252 2.4716286e-21)
(1.0494297 -0.023906955 -1.1741998e-20)
(1.0548086 -0.023921853 -1.8263459e-22)
(1.0584288 -0.023771472 -7.856607e-22)
(1.0610047 -0.023361601 -5.4218488e-21)
(1.0630591 -0.022631427 1.3153141e-21)
(1.0647951 -0.021525821 3.2383107e-21)
(1.0662631 -0.020030287 -5.5877053e-22)
(1.067395 -0.018160594 3.4087272e-21)
(1.0681145 -0.015966946 3.011843e-20)
(1.068341 -0.013531751 7.5631923e-21)
(1.0680288 -0.010960753 -7.8232174e-21)
(1.067163 -0.0083791721 1.2430616e-20)
(1.0657741 -0.0059110919 9.7570816e-21)
(1.0639327 -0.0036813305 2.3719121e-21)
(1.0617448 -0.0017758107 3.9602719e-21)
(1.0593489 -0.00029107025 1.9220688e-21)
(1.0568882 0.00078038401 -1.2573791e-21)
(1.0545413 0.0013317025 1.612341e-21)
(1.0524326 0.0015387364 -1.0086155e-21)
(1.0507929 0.0011202716 5.3742335e-21)
(1.049589 0.00062485517 3.9006545e-22)
(0.81527335 -0.014472629 -6.183718e-21)
(0.83191979 -0.017588763 1.8050073e-21)
(0.85603207 -0.018178923 -8.4256965e-21)
(0.87833815 -0.019880099 -5.9505819e-21)
(0.90196917 -0.02077618 0)
(0.92676077 -0.021904175 0)
(0.95188445 -0.022705266 0)
(0.97613443 -0.023450783 -1.9389802e-21)
(0.9981806 -0.02396879 1.466007e-20)
(1.01715 -0.024387997 1.606552e-20)
(1.0323038 -0.024658117 2.6135949e-21)
(1.043659 -0.024847092 -2.4496261e-21)
(1.0515686 -0.024910985 2.3485019e-20)
(1.0568856 -0.024837902 -1.7704678e-20)
(1.0604596 -0.02454308 5.2408575e-21)
(1.0630637 -0.023960642 0)
(1.0651379 -0.023016374 1.7805107e-21)
(1.0668879 -0.021674123 8.8665694e-22)
(1.0683152 -0.01992795 1.2768929e-20)
(1.0693591 -0.017810379 -8.7890213e-22)
(1.0699297 -0.015388804 -1.4687012e-20)
(1.0699611 -0.012759911 -4.3620022e-21)
(1.0694136 -0.010044145 -1.2049544e-20)
(1.0682913 -0.0073732944 -1.2229736e-20)
(1.0666394 -0.0048754235 1.4170098e-21)
(1.0645459 -0.0026708715 2.3459219e-21)
(1.062129 -0.00083868658 -1.3804454e-21)
(1.0595369 0.00053681675 -1.210818e-22)
(1.0569154 0.0014728929 2.7712388e-21)
(1.054445 0.0018768803 3.4687054e-22)
(1.0522432 0.0019263802 1.0936299e-21)
(1.0505416 0.0013562564 -1.653514e-20)
(1.0492901 0.00069642573 6.446824e-21)
(0.79144706 -0.013200313 -5.6306399e-21)
(0.80543433 -0.016564464 3.5513519e-22)
(0.82915311 -0.01743725 -1.4913455e-20)
(0.85236728 -0.019409395 -8.7280661e-21)
(0.87673223 -0.020560288 4.0316246e-21)
(0.90127963 -0.021902609 9.7520605e-24)
(0.92717208 -0.022903575 1.7887002e-20)
(0.95317858 -0.023881731 -9.5672195e-21)
(0.97799826 -0.024595986 -1.7669797e-22)
(1.0005049 -0.02517315 -3.499227e-20)
(1.0195923 -0.025554915 1.5510219e-20)
(1.034796 -0.025816751 1.9078246e-20)
(1.0460225 -0.025933118 -1.7692985e-21)
(1.0538436 -0.025919987 -6.2561378e-21)
(1.0590633 -0.025714327 -7.8335262e-21)
(1.0626247 -0.025259113 -4.8404436e-21)
(1.0652318 -0.024469934 8.1323666e-22)
(1.0673278 -0.023290317 1.5209532e-20)
(1.0690593 -0.021689766 -4.6361827e-22)
(1.0704256 -0.019679505 -2.7530897e-21)
(1.0713454 -0.01730891 -3.3556128e-21)
(1.0717395 -0.01466147 -2.0366023e-20)
(1.0715452 -0.011850649 2.7707446e-21)
(1.0707406 -0.0090068411 -1.8054801e-21)
(1.0693445 -0.0062691742 -1.5421358e-20)
(1.0674211 -0.0037645241 -4.2522676e-21)
(1.0650733 -0.001608126 -2.8159862e-21)
(1.0624313 0.00013120293 -3.2477214e-21)
(1.0596507 0.0013818085 -2.1710229e-22)
(1.0568783 0.0021714995 -6.9156788e-22)
(1.0542946 0.0024214852 1.5503751e-21)
(1.0520092 0.0023102326 -1.2791343e-22)
(1.0502531 0.00158865 7.0939853e-21)
(1.0489604 0.00076581994 -1.2709901e-20)
(0.76896918 -0.011684024 5.9486563e-21)
(0.77934569 -0.0152318 -5.0469526e-22)
(0.80166486 -0.016412107 1.7267334e-20)
(0.82405074 -0.018666568 5.0335819e-21)
(0.84973128 -0.020089634 -1.3690771e-20)
(0.8749959 -0.021713522 -1.750831e-20)
(0.90082487 -0.022932699 -2.3655283e-21)
(0.92772968 -0.024122144 0)
(0.95455202 -0.025077644 -1.0285961e-20)
(0.98005198 -0.025863066 -3.8746387e-20)
(1.002898 -0.026409569 2.2858533e-21)
(1.0221991 -0.02679035 -7.196848e-21)
(1.037368 -0.026986002 0)
(1.0485288 -0.027034254 -3.2990377e-21)
(1.056221 -0.026898921 1.4933268e-20)
(1.0613797 -0.026545282 7.0435878e-21)
(1.0649065 -0.025893362 -7.7424354e-21)
(1.0675243 -0.024874375 0)
(1.0696136 -0.023433638 -6.861803e-21)
(1.0713086 -0.021557433 -8.8200982e-21)
(1.0725778 -0.019273 -2.0681135e-20)
(1.0733442 -0.016647172 -4.9184376e-21)
(1.0735278 -0.013781781 0)
(1.0730818 -0.010803352 -1.4797077e-20)
(1.0719979 -0.007853011 1.5325847e-21)
(1.070315 -0.0050722559 3.249222e-23)
(1.0681138 -0.0025859241 -6.3016185e-21)
(1.0655128 -0.00050022433 2.83564e-21)
(1.0626519 0.0011269778 4.2702516e-22)
(1.0596922 0.0022383724 3.3035919e-21)
(1.0567799 0.0028718445 -6.5524269e-21)
(1.0540937 0.0029624656 -3.2305394e-21)
(1.0517343 0.0026883861 0)
(1.0499314 0.0018161629 -2.7373889e-22)
(1.0486033 0.0008330139 -3.9957208e-21)
(0.74865151 -0.0099340305 4.3216859e-21)
(0.75455131 -0.013582769 9.1919432e-22)
(0.77444096 -0.015081885 1.5978747e-20)
(0.79497701 -0.017614304 1.6735712e-21)
(0.82034769 -0.019337302 -3.8879522e-21)
(0.84683275 -0.021231487 -9.9584915e-22)
(0.87350923 -0.022774507 -1.5471313e-20)
(0.90045338 -0.024186087 5.0428409e-22)
(0.92839514 -0.025359241 0)
(0.95610614 -0.026402123 1.2501661e-20)
(0.98219472 -0.027167522 -1.3355855e-20)
(1.0054674 -0.027722697 3.0867059e-21)
(1.0248997 -0.028044895 -7.4755647e-21)
(1.0400943 -0.028180492 1.0021366e-20)
(1.0511431 -0.028115134 7.4166438e-22)
(1.0587422 -0.02784291 1.5929292e-20)
(1.0638184 -0.027303516 -1.2747214e-20)
(1.0673233 -0.026430522 2.8169814e-21)
(1.0699279 -0.025152308 1.547774e-20)
(1.0719962 -0.023429393 -9.3399191e-21)
(1.07362 -0.021262457 1.5564394e-20)
(1.0747621 -0.018697035 -1.6046865e-22)
(1.0753386 -0.01581939 0)
(1.0752819 -0.012747114 -4.0021765e-21)
(1.0745571 -0.0096206605 3.5573298e-22)
(1.0731758 -0.0065873709 6.0850472e-21)
(1.0711951 -0.0037900405 4.4985595e-21)
(1.0687136 -0.0013473235 2.3318537e-21)
(1.0658631 0.00064495067 1.2214115e-21)
(1.0627917 0.0021419909 0)
(1.059664 0.003100963 -1.9403236e-21)
(1.0566236 0.0035698852 -7.012727e-21)
(1.0538461 0.003497078 1.5763947e-20)
(1.0514224 0.0030591492 -5.4655203e-21)
(1.0495798 0.0020381769 4.1029596e-22)
(1.0482221 0.00089783939 1.4200772e-20)
(0.73127747 -0.0079724328 -4.0532892e-21)
(0.73199169 -0.011623126 -1.678592e-22)
(0.74845588 -0.013442376 -4.8538469e-21)
(0.76604258 -0.016227015 2.0195677e-23)
(0.78995031 -0.018273972 1.621868e-20)
(0.81608809 -0.02047832 1.3374012e-20)
(0.8442117 -0.022284249 -1.7732873e-22)
(0.87207599 -0.024044276 -1.2435197e-20)
(0.90021107 -0.02546063 5.284247e-22)
(0.92921822 -0.026730223 -1.0848274e-20)
(0.95776718 -0.027769314 -4.6155911e-22)
(0.98451969 -0.028556334 6.5822354e-21)
(1.0081478 -0.029063541 -9.5231193e-22)
(1.0277692 -0.029334879 1.1552754e-20)
(1.0429395 -0.029364827 -3.5132006e-20)
(1.0539094 -0.029171871 6.6599995e-21)
(1.0613913 -0.028724056 1.8991249e-21)
(1.0664002 -0.027973717 7.2314394e-21)
(1.0698634 -0.02684718 -4.6491627e-21)
(1.0724456 -0.025285338 -1.4228227e-21)
(1.0744611 -0.023260281 1.169045e-20)
(1.0759843 -0.020790994 -1.1389184e-20)
(1.0769612 -0.017943007 6.4185828e-21)
(1.0773147 -0.014820595 0)
(1.076986 -0.011558139 1.7305112e-20)
(1.0759592 -0.0083061071 1.4783544e-20)
(1.0742644 -0.0052169676 -3.0045971e-21)
(1.0719788 -0.0024304989 8.3528687e-21)
(1.0692173 -5.7421253e-05 5.6312656e-22)
(1.0661239 0.0018196205 -1.1299539e-21)
(1.0628524 0.0031694518 3.4095756e-21)
(1.059569 0.0039643819 -7.8763353e-21)
(1.0564131 0.0042618505 -2.6191592e-22)
(1.0535555 0.0040227978 1.6249573e-20)
(1.051077 0.0034211571 -1.1888134e-21)
(1.049202 0.0022539278 -5.0662249e-22)
(1.0478203 0.00096019551 5.2150533e-21)
(0.71755207 -0.0058323906 4.3846456e-22)
(0.71259227 -0.0093772011 -1.0916688e-21)
(0.7247293 -0.011498889 -6.2105251e-21)
(0.73829135 -0.014498022 -9.7731658e-22)
(0.75951688 -0.016854799 1.1459484e-23)
(0.7841776 -0.019379404 1.9220708e-22)
(0.81224946 -0.021510239 -8.2496186e-21)
(0.84158231 -0.023540293 4.7241323e-21)
(0.87075141 -0.025335284 0)
(0.90009298 -0.026871258 2.2710223e-21)
(0.93016021 -0.028148921 0)
(0.95960677 -0.029227502 0)
(0.98697172 -0.029981526 6.9322408e-21)
(1.011011 -0.030450013 -6.9300864e-22)
(1.0307733 -0.030625205 -5.872969e-21)
(1.0459498 -0.030536128 -7.8947649e-21)
(1.0568124 -0.030176314 1.9440186e-20)
(1.064192 -0.029527205 -8.0424492e-21)
(1.0691154 -0.028531011 2.2937199e-21)
(1.0725324 -0.027123701 1.4870684e-21)
(1.0750644 -0.025253683 -1.5629524e-20)
(1.0770002 -0.022910035 -4.4848499e-21)
(1.0783845 -0.020131485 4.5600016e-21)
(1.0791606 -0.017003323 1.0145732e-20)
(1.0792552 -0.013649069 2.024783e-21)
(1.0786261 -0.010216734 2.1795746e-21)
(1.0772755 -0.0068658139 -4.5235263e-21)
(1.0752551 -0.0037496633 -5.5370665e-21)
(1.0726608 -0.0010028884 -7.178752e-22)
(1.069623 0.0012749597 -4.8726257e-21)
(1.0662957 0.0030157793 -4.9890129e-21)
(1.0628364 0.004202901 -2.5805319e-21)
(1.0594107 0.004823702 1.5354543e-22)
(1.0561521 0.0049443276 1.2001804e-20)
(1.0532258 0.0045374784 -3.1507513e-20)
(1.050702 0.0037731839 -5.1863272e-21)
(1.0488014 0.0024628771 -5.0402872e-21)
(1.0474009 0.0010200188 0)
(0.70805467 -0.0035565208 3.5490991e-21)
(0.69719759 -0.0068870564 -1.4984988e-22)
(0.70426889 -0.0092749547 -1.6190231e-21)
(0.71283973 -0.012428826 -8.2531695e-22)
(0.73018612 -0.015076062 -7.6706159e-21)
(0.75209708 -0.017898176 -5.7535396e-21)
(0.77886875 -0.02038474 -6.6635026e-22)
(0.80827674 -0.022748601 2.4163868e-20)
(0.83907466 -0.024835144 -6.1779484e-22)