/*--------------------------------*- C++ -*----------------------------------*\
| =========                 |                                                 |
| \\      /  F ield         | OpenFOAM: The Open Source CFD Toolbox           |
|  \\    /   O peration     | Version:  5.0                                   |
|   \\  /    A nd           | Web:      www.OpenFOAM.org                      |
|    \\/     M anipulation  |                                                 |
\*---------------------------------------------------------------------------*/
FoamFile
{
    version     2.0;
    format      ascii;
    class       volVectorField;
    location    "150";
    object      UMean;
}
// * * * * * * * * * * * * * * * * * * * * * * * * * * * * * * * * * * * * * //

dimensions      [0 1 -1 0 0 0 0];

internalField   nonuniform List<vector> 
9200
(
(1.0212888 -0.00055031977 -1.6521439e-23)
(1.0216356 -0.0016142126 -8.4423389e-21)
(1.0228193 -0.00055744491 0)
(1.02192 -0.0025907806 4.3161804e-21)
(1.0231505 -0.0016371925 -6.4484064e-21)
(1.0235286 -0.0005622276 0)
(1.0221697 -0.0035029351 4.3299527e-22)
(1.0234201 -0.0026229706 -3.9237773e-22)
(1.0238544 -0.0016569757 0)
(1.0245622 -0.00057038344 0)
(1.0224262 -0.0043336623 -8.0697658e-21)
(1.0236494 -0.0035503817 -4.35311e-21)
(1.0241177 -0.0026537272 -3.5769078e-21)
(1.024879 -0.0016902165 -2.235602e-22)
(1.0254167 -0.00057761638 1.2536595e-24)
(1.0226722 -0.0051026903 -7.4221774e-21)
(1.0238825 -0.0043931293 6.9490244e-22)
(1.0243375 -0.0035962081 -1.1377643e-20)
(1.0251356 -0.0027036553 -4.1794526e-21)
(1.0257276 -0.0017232823 1.484017e-22)
(1.0263364 -0.0005854673 9.3859412e-21)
(1.0228958 -0.005802681 -6.6362138e-21)
(1.0241013 -0.0051770404 -7.7573148e-21)
(1.0245604 -0.0044516949 6.8889748e-21)
(1.025346 -0.0036706053 3.7245146e-22)
(1.0259795 -0.002753951 -4.5215446e-21)
(1.0266427 -0.0017618769 -4.3382865e-21)
(1.027198 -0.00059205378 -6.1050321e-22)
(1.0230747 -0.0064427951 -2.5624971e-21)
(1.0242929 -0.0058907727 -5.0981503e-21)
(1.0247667 -0.0052505958 -7.2434827e-21)
(1.0255588 -0.0045479011 4.1505168e-22)
(1.026183 -0.0037460072 1.0316062e-20)
(1.0268939 -0.0028125396 4.4648102e-21)
(1.0275009 -0.0017991705 5.9616345e-21)
(1.0280709 -0.00059761963 -9.0091785e-21)
(1.0231916 -0.007023549 7.7979194e-21)
(1.0244362 -0.0065454963 -6.2194516e-21)
(1.0249438 -0.0059788621 4.366303e-22)
(1.0257521 -0.0053723891 -3.7725549e-21)
(1.0263886 -0.0046460284 9.089728e-22)
(1.0270961 -0.0038348237 1.6155193e-20)
(1.0277523 -0.0028690319 -4.1939617e-21)
(1.0283734 -0.0018366258 1.0030733e-20)
(1.0289098 -0.00060105237 1.9075333e-20)
(1.0232286 -0.0075500917 -5.6660389e-21)
(1.0245142 -0.0071405068 3.4362288e-21)
(1.0250706 -0.0066488791 1.0193915e-22)
(1.0259137 -0.006126218 -1.5198826e-21)
(1.0265721 -0.005497073 1.1932888e-21)
(1.0273007 -0.0047631422 1.4596581e-21)
(1.0279546 -0.003921466 -5.6398073e-21)
(1.0286301 -0.0029257645 -1.0144941e-20)
(1.0292132 -0.0018698266 -5.3931393e-21)
(1.0297425 -0.00060222336 -1.3328764e-21)
(1.0231696 -0.008025871 2.6141786e-21)
(1.0245101 -0.0076813367 3.1726648e-22)
(1.0251305 -0.0072591267 -5.0339304e-21)
(1.0260223 -0.006823355 4.7951442e-21)
(1.0267217 -0.0062776077 -8.1247101e-21)
(1.0274814 -0.0056477687 1.6835014e-20)
(1.0281597 -0.0048782783 4.5557219e-22)
(1.0288397 -0.004010382 -1.6921819e-20)
(1.0294766 -0.0029757354 8.4293028e-21)
(1.0300501 -0.0018987121 -1.7203501e-20)
(1.0305461 -0.00060042791 2.7700077e-21)
(1.0229981 -0.0084553835 -1.6299867e-22)
(1.0244089 -0.0081710924 2.205014e-22)
(1.0251072 -0.0078153019 3.7775022e-21)
(1.0260616 -0.0074610518 0)
(1.0268158 -0.0070029678 -3.9409455e-23)
(1.027626 -0.0064629538 -1.2793769e-21)
(1.028339 -0.0057970063 3.4585901e-21)
(1.0290537 -0.0049985713 8.4390385e-21)
(1.0296959 -0.0040909473 -1.0686874e-21)
(1.0303256 -0.003018927 1.0406555e-20)
(1.0308595 -0.0019202484 7.0689083e-21)
(1.0313315 -0.00059539248 -1.4746203e-21)
(1.0226956 -0.0088430579 -1.1076305e-22)
(1.0241958 -0.0086142342 8.533989e-22)
(1.0249864 -0.0083202917 0)
(1.0260162 -0.0080450715 0)
(1.0268387 -0.0076691611 2.8014119e-21)
(1.0277122 -0.0072254883 -4.8670001e-21)
(1.0284801 -0.0066476351 8.329041e-21)
(1.0292407 -0.0059557972 -9.0112639e-21)
(1.0299213 -0.0051095585 -6.8916909e-22)
(1.0305621 -0.004163854 1.0150249e-23)
(1.0311494 -0.0030505304 -1.2722641e-20)
(1.0316541 -0.0019335765 1.4086723e-20)
(1.0320866 -0.00058671353 -2.5191892e-20)
(1.0222372 -0.0091937717 5.4769819e-22)
(1.0238542 -0.0090150568 -1.5377258e-22)
(1.0247538 -0.0087785585 2.475169e-21)
(1.0258722 -0.008577794 -2.8584784e-21)
(1.0267752 -0.0082819126 3.1103823e-21)
(1.0277245 -0.0079297712 -1.1925055e-21)
(1.0285605 -0.0074483789 -2.2259186e-21)
(1.0293875 -0.0068474951 1.1862537e-22)
(1.0301192 -0.0061050123 -7.7982897e-21)
(1.0308076 -0.0052130862 -7.0094197e-21)
(1.0314066 -0.0042218339 -3.3124055e-21)
(1.0319632 -0.0030692631 -9.0066997e-21)
(1.0324205 -0.0019367457 -6.0420229e-21)
(1.0328138 -0.00057414788 6.7856393e-21)
(1.0215852 -0.009512817 3.106481e-21)
(1.0233625 -0.009378463 -3.4495513e-21)
(1.024394 -0.0091943415 8.1251325e-22)
(1.0256164 -0.0090634466 1.2036467e-22)
(1.0266124 -0.0088430536 -9.3259646e-23)
(1.027648 -0.0085814161 1.3125051e-21)
(1.0285647 -0.0081921938 -2.088024e-21)
(1.0294705 -0.0076933147 2.8110626e-21)
(1.0302753 -0.0070381877 -7.2397753e-22)
(1.0310255 -0.0062483997 6.2514286e-22)
(1.0316763 -0.0052993417 1.990594e-22)
(1.0322487 -0.0042633769 6.8340204e-23)
(1.0327518 -0.0030720291 1.2430801e-20)
(1.0331619 -0.0019287117 -6.2346091e-21)
(1.0335068 -0.00055750103 5.121062e-21)
(1.0206802 -0.0098058372 -1.6644669e-21)
(1.0226882 -0.0097100875 2.8767703e-21)
(1.023887 -0.0095724 -1.4265026e-21)
(1.0252346 -0.0095059372 2.6141504e-21)
(1.0263377 -0.0093565875 -2.9260317e-21)
(1.0274703 -0.0091814633 6.6726825e-21)
(1.028478 -0.0088844048 -7.2554423e-21)
(1.0294741 -0.0084842993 2.964546e-22)
(1.0303651 -0.007930126 2.2464428e-21)
(1.0312001 -0.0072260138 -1.8987107e-21)
(1.0319195 -0.0063730927 2.1679085e-20)
(1.0325512 -0.0053667952 -7.4278589e-21)
(1.0330698 -0.0042838168 -4.1083867e-21)
(1.0335199 -0.0030571591 -1.537095e-21)
(1.0338713 -0.0019083061 -8.8682052e-23)
(1.034164 -0.00053665921 -5.4979288e-21)
(1.0194309 -0.010079296 0)
(1.0217777 -0.010016714 2.4691806e-21)
(1.0232026 -0.0099180142 -1.4269731e-21)
(1.0247088 -0.0099098146 0)
(1.025938 -0.0098261892 0)
(1.0271797 -0.0097334426 0)
(1.0282885 -0.0095252138 2.2738766e-22)
(1.0293837 -0.0092253318 -4.8616838e-21)
(1.0303727 -0.0087700661 3.7648475e-21)
(1.0313056 -0.0081683478 -6.2038721e-21)
(1.0321186 -0.0073947437 5.9277219e-22)
(1.0328289 -0.0064779635 -4.5180931e-21)
(1.0334102 -0.005409197 5.451164e-22)
(1.0338773 -0.0042808184 4.5314834e-21)
(1.034259 -0.0030227895 9.7075564e-22)
(1.0345475 -0.0018747493 2.8702488e-21)
(1.0347818 -0.00051158111 0)
(1.0177096 -0.010338616 -4.304792e-22)
(1.0205461 -0.01030688 -4.4749542e-21)
(1.0222912 -0.010237286 5.2988779e-21)
(1.0240119 -0.010280229 2.2313848e-21)
(1.0253972 -0.010256153 3.260886e-21)
(1.0267641 -0.010240472 0)
(1.0279851 -0.010117623 4.1279602e-21)
(1.0291876 -0.0099155275 -1.0420691e-21)
(1.0302832 -0.0095623934 -1.0944377e-20)
(1.0313254 -0.009062581 4.5956366e-21)
(1.0322462 -0.0083880991 3.5972897e-21)
(1.0330619 -0.0075440677 6.0736073e-22)
(1.0337291 -0.0065548178 -1.0136713e-20)
(1.0342641 -0.005423511 1.4823486e-20)
(1.0346605 -0.0042515041 2.9519804e-21)
(1.0349686 -0.0029676093 2.0451793e-20)
(1.0351863 -0.0018274706 7.4341065e-21)
(1.0353581 -0.00048228568 6.3031881e-21)
(1.0153566 -0.010588152 1.5948861e-22)
(1.0188683 -0.010589642 -1.937533e-21)
(1.0210721 -0.010537591 -1.2774602e-21)
(1.0230987 -0.010623256 3.3259823e-21)
(1.0246905 -0.010651342 -3.7894749e-22)
(1.0262089 -0.010706414 2.7750316e-21)
(1.0275567 -0.010664192 -1.2706268e-21)
(1.0288753 -0.010557152 -8.7272617e-21)
(1.0300852 -0.010305071 -3.4027265e-21)
(1.0312442 -0.0099124556 5.2528127e-21)
(1.032285 -0.0093383386 -9.9811666e-22)
(1.0332214 -0.008590312 9.0686131e-21)
(1.0340037 -0.0076636267 -5.0386272e-21)
(1.0346333 -0.0066000915 -2.947751e-22)
(1.0350992 -0.0054059087 -8.5005191e-22)
(1.0354202 -0.0041938032 -3.3515575e-21)
(1.0356437 -0.0028906836 6.6154129e-21)
(1.0357854 -0.0017661014 -1.9469614e-22)
(1.0358903 -0.0004488779 5.4648807e-21)
(1.0121979 -0.010829088 1.4333815e-21)
(1.0165806 -0.010874036 2.2892233e-21)
(1.0194243 -0.01082651 -1.1667324e-20)
(1.0218941 -0.010946506 -1.1451716e-21)
(1.0237766 -0.011017577 1.8802892e-21)
(1.0254921 -0.011135746 1.1272802e-21)
(1.0269899 -0.01116836 7.2613182e-22)
(1.0284367 -0.011151993 4.8982163e-21)
(1.0297685 -0.010999532 -1.380056e-21)
(1.0310505 -0.010714578 -1.1495137e-20)
(1.0322189 -0.010248521 1.0405364e-20)
(1.0332884 -0.0095997781 -9.5873226e-22)
(1.0342032 -0.0087622443 -3.6276151e-21)
(1.0349593 -0.007749597 2.8648658e-22)
(1.035526 -0.0066086762 -5.6206237e-23)
(1.0359185 -0.0053533573 -1.1734716e-20)
(1.03615 -0.0041061368 2.7281479e-21)
(1.036282 -0.0027913906 -1.0576487e-20)
(1.0363422 -0.0016905669 -2.5350924e-21)
(1.0363768 -0.0004115222 -5.2874579e-21)
(1.0080728 -0.011058477 -1.0340209e-22)
(1.0134941 -0.011166316 2.9918101e-21)
(1.0171854 -0.011111647 -2.777096e-22)
(1.020282 -0.011258653 3.0943088e-21)
(1.0225854 -0.011362117 5.830445e-22)
(1.0245765 -0.011533981 -2.4302622e-21)
(1.0262652 -0.011634185 5.9227106e-21)
(1.0278598 -0.011702876 1.1305404e-20)
(1.0293239 -0.011646715 -5.5895236e-21)
(1.0307347 -0.011469343 0)
(1.0320362 -0.011113807 -6.6758083e-21)
(1.033246 -0.010574742 3.2055933e-21)
(1.0343071 -0.0098317584 9.651194e-21)
(1.0352091 -0.0089000835 -7.1669246e-21)
(1.0359119 -0.0077953 4.2135738e-21)
(1.0364118 -0.0065765514 -9.5864281e-21)
(1.0367133 -0.0052636719 -6.9016012e-22)
(1.0368477 -0.0039873196 3.7019884e-21)
(1.0368801 -0.0026695596 -5.9512156e-21)
(1.0368545 -0.0016010292 -5.6866375e-22)
(1.0368162 -0.0003704416 -4.47763e-21)
(1.0028647 -0.011268907 -4.0136007e-21)
(1.0094218 -0.011467826 2.2325747e-21)
(1.0141626 -0.011398131 5.5925599e-21)
(1.0181004 -0.011568497 -6.4612469e-21)
(1.0210053 -0.01169316 -4.2720998e-21)
(1.0233972 -0.011908215 1.1773883e-21)
(1.0253485 -0.012066778 0)
(1.0271272 -0.012213313 3.8179412e-21)
(1.0287404 -0.012248745 -1.2234145e-21)
(1.0302879 -0.012176645 -1.1959983e-20)
(1.0317273 -0.011933465 -1.7898604e-21)
(1.0330823 -0.01150876 2.3027757e-21)
(1.0342975 -0.01087367 -5.2849568e-22)
(1.0353605 -0.010030683 -3.3903518e-21)
(1.0362217 -0.008995349 5.3563877e-21)
(1.0368674 -0.0077959271 -5.0229622e-21)
(1.0372801 -0.0065006973 1.2119851e-21)
(1.0374823 -0.0051348016 -7.2341029e-21)
(1.037509 -0.0038368597 -1.4775038e-21)
(1.0374356 -0.0025253439 -2.8980687e-22)
(1.0373206 -0.0014978885 -2.719639e-21)
(1.0372075 -0.00032590808 0)
(0.9965261 -0.011449289 -2.1189143e-21)
(1.0042129 -0.011773315 -9.7619914e-22)
(1.0101588 -0.011686826 1.0109679e-22)
(1.0151499 -0.011883125 -6.1391326e-21)
(1.0188768 -0.01201955 -2.7772922e-21)
(1.0218484 -0.012266919 2.4868308e-21)
(1.0241802 -0.01247287 -2.8233292e-21)
(1.0262088 -0.012687995 7.6720293e-21)
(1.0280027 -0.012808501 3.066835e-21)
(1.0297007 -0.01283771 5.9876971e-22)
(1.0312842 -0.012706203 -1.2952237e-22)
(1.0327876 -0.012399804 -4.6845544e-21)
(1.0341615 -0.011879889 9.0937181e-22)
(1.0353939 -0.0111421 -1.1743819e-21)
(1.0364308 -0.010186207 -7.9881815e-21)
(1.0372479 -0.0090425543 -8.4065416e-21)
(1.0378142 -0.0077471712 6.7062695e-22)
(1.0381309 -0.0063779222 1.2770306e-20)
(1.0382198 -0.0049658507 4.6672921e-22)
(1.038131 -0.0036546432 -3.6352536e-21)
(1.0379463 -0.0023593017 0)
(1.0377392 -0.0013817474 5.38617e-21)
(1.0375503 -0.00027823562 1.4177818e-22)
(0.98909094 -0.011586488 1.1752238e-20)
(0.99778297 -0.012070768 -2.0183197e-21)
(1.0050066 -0.011972769 6.0361345e-21)
(1.0112173 -0.012205364 2.9426997e-21)
(1.0159974 -0.012348521 -7.2932069e-21)
(1.0197738 -0.012619324 0)
(1.0226599 -0.012860745 -5.6266813e-22)
(1.02505 -0.013133293 3.917447e-21)
(1.0270838 -0.013330099 5.0947538e-21)
(1.0289595 -0.013454634 4.743304e-21)
(1.030698 -0.013432214 -5.8878543e-21)
(1.0323541 -0.013245202 -5.0979013e-21)
(1.0338892 -0.012846999 6.6624798e-21)
(1.0352956 -0.012224528 -7.1476578e-21)
(1.036518 -0.011367858 1.1516659e-20)
(1.0375261 -0.010292262 1.5867342e-20)
(1.0382755 -0.0090358526 -3.8575409e-21)
(1.0387526 -0.0076448703 5.0036353e-21)
(1.0389562 -0.0062068401 -1.431458e-20)
(1.0389227 -0.0047561351 3.3251424e-21)
(1.0387107 -0.0034411615 7.1369971e-21)
(1.0384104 -0.0021723077 -5.2767705e-21)
(1.0381096 -0.0012533962 2.6697002e-21)
(1.0378446 -0.00022777214 1.139892e-22)
(0.98067146 -0.011667249 2.5510225e-21)
(0.99013266 -0.012342652 -7.3045527e-22)
(0.99860105 -0.012244981 -5.4328717e-22)
(1.0061106 -0.012531823 -1.3755592e-20)
(1.0121434 -0.012683546 4.7403973e-21)
(1.0169682 -0.01297379 -8.8208876e-21)
(1.0206352 -0.013239917 -4.5955081e-22)
(1.0235567 -0.013557433 -9.1372037e-21)
(1.0259342 -0.013819412 2.8889432e-21)
(1.0280405 -0.014030873 3.31399e-21)
(1.0299571 -0.014112654 -4.2595133e-21)
(1.0317739 -0.014043917 7.5469873e-21)
(1.0334728 -0.013770808 -4.323187e-21)
(1.035055 -0.01327305 -4.4338589e-22)
(1.0364681 -0.01252881 6.1340452e-21)
(1.0376788 -0.011544389 1.6025592e-21)
(1.0386341 -0.010341327 -8.2105147e-22)
(1.0393053 -0.0089700547 7.9662151e-21)
(1.0396738 -0.0074865565 0)
(1.0397535 -0.0059857381 1.3916971e-21)
(1.0395866 -0.0045060223 3.832686e-22)
(1.0392455 -0.0031973243 -6.6104856e-22)
(1.0388264 -0.0019655464 -2.4755593e-22)
(1.0384314 -0.0011137824 -3.7044951e-21)
(1.0380908 -0.00017490154 -1.1420372e-21)
(0.97143951 -0.011680429 -1.008149e-20)
(0.98135112 -0.012567945 -1.4149149e-22)
(0.99092231 -0.012487836 1.8336062e-21)
(0.99969586 -0.012852086 1.5042876e-21)
(1.0071041 -0.01302206 1.3875595e-20)
(1.0131964 -0.013335071 6.1533689e-22)
(1.0179003 -0.013619274 -4.1485519e-22)
(1.0215814 -0.013970167 6.2769581e-22)
(1.0244657 -0.014284354 7.2075553e-21)
(1.0268992 -0.014571721 -1.9812915e-21)
(1.0290405 -0.014750152 4.7769429e-21)
(1.0310368 -0.014795986 -7.7025733e-22)
(1.0329053 -0.014648896 -3.7824612e-21)
(1.0346643 -0.014281797 1.5718831e-21)
(1.0362698 -0.01366261 -1.5304856e-21)
(1.0376892 -0.012785815 -8.4797515e-21)
(1.0388645 -0.011662458 -9.3582518e-21)
(1.0397559 -0.010327152 -1.134895e-20)
(1.0403276 -0.0088413149 -1.6118261e-20)
(1.0405748 -0.007269593 -1.733757e-22)
(1.0405168 -0.005714713 1.4672959e-20)
(1.0402085 -0.00421622 2.2398175e-21)
(1.0397333 -0.0029245322 -4.8166701e-21)
(1.0391936 -0.0017404565 3.6198171e-21)
(1.0387046 -0.00096398706 -2.0446302e-21)
(1.0382896 -0.00012008488 1.1690604e-22)
(0.96160003 -0.011618934 4.331284e-22)
(0.97160359 -0.012725587 -6.1085598e-22)
(0.98204053 -0.012683914 -7.0745805e-21)
(0.99192541 -0.013149655 7.6466046e-21)
(1.0007211 -0.013354551 -1.1282594e-20)
(1.008227 -0.013702072 7.6539903e-21)
(1.0142114 -0.014004638 4.6303825e-21)
(1.0189184 -0.01438111 7.225524e-21)
(1.0225363 -0.014734738 -1.0301471e-20)
(1.025454 -0.015084737 -4.4931938e-21)
(1.0279082 -0.015349262 6.5767676e-22)
(1.0301248 -0.01550305 -1.213541e-20)
(1.0321777 -0.015479999 1.1554288e-20)
(1.034117 -0.015246781 -3.6706164e-21)
(1.0359149 -0.01476162 2.0912242e-21)
(1.0375448 -0.014008532 9.6714091e-22)
(1.0389478 -0.012984645 -6.2237294e-21)
(1.0400766 -0.011714743 6.7613948e-21)
(1.0408817 -0.010244297 -6.6840521e-21)
(1.0413394 -0.0086458745 4.1950291e-22)
(1.0414485 -0.0069932178 0)
(1.0412425 -0.0053937573 5.4782417e-21)
(1.0407852 -0.0038882251 1.0510439e-21)
(1.0401724 -0.0026246234 0)
(1.0395116 -0.0014987185 -4.0434844e-21)
(1.0389298 -0.00080523935 -4.1095533e-22)
(1.0384426 -6.4096255e-05 1.1496501e-22)
(0.95136428 -0.011480728 3.2832134e-21)
(0.96110309 -0.012797953 -8.8345375e-23)
(0.97210633 -0.012815968 -5.8418964e-21)
(0.98284911 -0.013404293 6.4400683e-22)
(0.99291959 -0.013665214 -2.2363227e-21)
(1.001874 -0.014066225 -8.3710467e-21)
(1.0093199 -0.014395985 -4.5189763e-22)
(1.0153161 -0.014797145 -6.5084488e-21)
(1.019942 -0.015180741 7.1712654e-22)
(1.023569 -0.015579694 7.7834586e-21)
(1.0264852 -0.015916986 -6.8383282e-21)
(1.0290025 -0.01616879 -1.9515126e-21)
(1.0312745 -0.016264582 -4.9068637e-21)
(1.0334051 -0.016165244 2.2137955e-21)
(1.0353969 -0.015820144 -4.0004247e-21)
(1.0372368 -0.01520305 2.8453384e-21)
(1.0388701 -0.014298384 -3.6784923e-21)
(1.0402462 -0.013116943 2.3645291e-20)
(1.0413054 -0.011694068 7.8234772e-21)
(1.0420082 -0.010087714 3.6771387e-21)
(1.0423326 -0.0083817766 8.2949189e-21)
(1.0422906 -0.0066566876 -1.4014853e-21)
(1.0419258 -0.0050243427 -5.2786033e-22)
(1.041314 -0.0035238882 0)
(1.0405617 -0.0022998005 0)
(1.0397803 -0.0012422951 3.4449585e-22)
(1.0391078 -0.00063897091 -7.3879016e-22)
(1.0385512 -6.934128e-06 5.679317e-22)
(0.94093151 -0.011268126 0)
(0.95007649 -0.012774991 -5.737417e-22)
(0.96133204 -0.012868199 5.1393152e-21)
(0.97260654 -0.013595234 2.7908924e-21)
(0.98372502 -0.013933904 8.2020412e-21)
(0.99403351 -0.014411581 8.1021111e-22)
(1.0030146 -0.014785719 -5.3833084e-21)
(1.0105079 -0.015219564 -1.0296504e-20)
(1.0164251 -0.015630271 1.1588079e-20)
(1.0210426 -0.016067258 -2.7848211e-21)
(1.0246419 -0.016462889 6.351192e-22)
(1.0276009 -0.016799528 2.6869843e-21)
(1.0301645 -0.017005259 -1.4499086e-20)
(1.0325155 -0.01703628 3.9168074e-21)
(1.0347089 -0.016833749 2.9127421e-21)
(1.0367586 -0.016361831 -3.7091668e-21)
(1.0386216 -0.015592332 2.9837032e-21)
(1.040249 -0.014522862 -5.1316755e-21)
(1.0415752 -0.013173745 1.5466667e-20)
(1.0425478 -0.011593964 -2.7869681e-21)
(1.0431266 -0.0098539561 6.8664826e-21)
(1.043302 -0.0080472618 4.4354574e-21)
(1.043095 -0.0062609002 -4.5314249e-22)
(1.0425635 -0.0046080473 -1.2159412e-20)
(1.0417927 -0.0031257207 -3.7050992e-21)
(1.0409005 -0.0019524535 9.1427269e-22)
(1.0400004 -0.00097309172 1.7305541e-21)
(1.03924 -0.00046620895 1.8590654e-22)
(1.0386172 5.137776e-05 -2.29953e-21)
(0.93046656 -0.010981042 -9.777271e-21)
(0.93874393 -0.012649518 0)
(0.94996464 -0.012825668 0)
(0.9614045 -0.013703428 0)
(0.9732601 -0.014139356 -2.0549533e-21)
(0.98470588 -0.01471729 7.2955336e-21)
(0.99516231 -0.01515851 -4.9134251e-22)
(1.0042562 -0.015641734 -5.8023179e-22)
(1.0117037 -0.016085835 1.5608183e-20)
(1.0176125 -0.016556327 -1.5966484e-20)
(1.0221807 -0.016997956 7.854394e-21)
(1.025798 -0.017404466 -2.8845779e-21)
(1.028785 -0.017707472 4.1952884e-21)
(1.0314209 -0.017861253 -5.2363621e-21)
(1.0338396 -0.017799954 8.8759336e-21)
(1.0361038 -0.017478595 3.7342579e-21)
(1.0381953 -0.016857031 -3.7323502e-21)
(1.0400738 -0.015919341 -8.0622236e-21)
(1.0416731 -0.014671247 1.0093986e-21)
(1.042932 -0.013147077 -4.9172981e-21)
(1.0437946 -0.011409242 -7.9232956e-21)
(1.0442312 -0.0095399721 1.3581226e-21)
(1.0442403 -0.0076422998 9.877753e-21)
(1.0438572 -0.0058070133 -5.4873978e-21)
(1.0431518 -0.0041475436 -8.5234915e-22)
(1.0422198 -0.0026964654 -1.5052643e-21)
(1.0411884 -0.0015852721 2.2312284e-21)
(1.0401726 -0.00069301378 1.6308923e-21)
(1.0393279 -0.00028814145 -2.2993445e-21)
(1.0386426 0.00011039821 -2.1015802e-21)
(0.91926011 -0.010593406 -6.0001361e-22)
(0.92732148 -0.012412944 -7.6017938e-22)
(0.93824203 -0.012695426 0)
(0.94948597 -0.013712422 0)
(0.96172572 -0.01426142 0)
(0.97399679 -0.014960414 0)
(0.98573498 -0.015493104 0)
(0.99639716 -0.016048757 1.1699978e-22)
(1.0055153 -0.016541992 -6.7095185e-21)
(1.0129819 -0.017050619 1.7412414e-20)
(1.0188362 -0.017531971 -4.6773811e-22)
(1.0234006 -0.017994774 8.7164251e-21)
(1.0270213 -0.018379862 -1.5343179e-20)
(1.030065 -0.018644533 6.4851197e-21)
(1.0327654 -0.01871866 -6.2364771e-22)
(1.0352628 -0.018549088 5.9036765e-21)
(1.0375848 -0.018084214 -9.3404681e-21)
(1.0397126 -0.017294965 1.6265032e-21)
(1.0415861 -0.01617172 9.2129359e-21)
(1.0431401 -0.014734041 4.570658e-21)
(1.0443072 -0.013029843 1.026166e-21)
(1.0450395 -0.011135305 6.678566e-21)
(1.0453135 -0.0091444444 2.5268827e-22)
(1.0451419 -0.007167303 -3.7614611e-21)
(1.0445722 -0.0052974724 2.9862994e-21)
(1.043688 -0.0036457152 8.8378462e-21)
(1.0425941 -0.0022393107 2.1165863e-21)
(1.0414257 -0.0012009555 -9.1425289e-22)
(1.0402981 -0.00040409069 1.7446647e-22)
(1.0393736 -0.00010596476 2.8831163e-21)
(1.0386296 0.00016968135 1.5549863e-21)
(0.90711554 -0.010049756 1.1261795e-20)
(0.91506457 -0.012054883 -2.6643261e-22)
(0.92635038 -0.012469415 3.0171963e-21)
(0.9371 -0.013620134 3.5556234e-21)
(0.94937042 -0.014281141 0)
(0.96209864 -0.015118298 0)
(0.97481591 -0.015765428 -1.073622e-22)
(0.98687344 -0.01641886 8.4508289e-21)
(0.99766525 -0.016984318 -1.3866894e-20)
(1.006863 -0.017545764 1.6847325e-20)
(1.014298 -0.018069921 1.0945313e-21)
(1.0201415 -0.018581033 -1.1029758e-20)
(1.024686 -0.019033577 1.3289971e-21)
(1.0283404 -0.019394004 -1.0935991e-21)
(1.031436 -0.019592934 -7.1401804e-21)
(1.0342153 -0.01957153 8.3197281e-22)
(1.036782 -0.019267672 9.3552337e-21)
(1.0391593 -0.018639372 -6.802874e-22)
(1.0413051 -0.017661829 -3.8613134e-21)
(1.0431573 -0.016338501 2.4335732e-20)
(1.0446413 -0.014702144 1.2297343e-21)
(1.0456945 -0.012815678 -6.6161177e-21)
(1.0462732 -0.010769205 1.3275733e-20)
(1.0463666 -0.0086666941 7.3967803e-21)
(1.0460001 -0.0066241462 -1.7643136e-22)
(1.0452359 -0.0047351121 5.2302942e-21)
(1.0441699 -0.0031061679 2.5438214e-21)
(1.0429149 -0.001757576 3.1470744e-23)
(1.0416132 -0.00080217175 -3.92542e-22)
(1.0403787 -0.00010824348 -6.9527063e-22)
(1.0393789 7.9109811e-05 2.4702252e-21)
(1.0385804 0.00022888895 1.9743708e-22)
(0.8949009 -0.0093585476 -3.8279859e-21)
(0.9017501 -0.011532366 1.1471682e-21)
(0.91362832 -0.012118637 -4.2685546e-21)
(0.92448984 -0.013414296 -3.3861629e-21)
(0.9364548 -0.014201153 0)
(0.94926067 -0.015169551 0)
(0.96258642 -0.015950737 0)
(0.97574543 -0.016726666 -1.1777414e-21)
(0.98806428 -0.017390806 1.2296804e-20)
(0.99902941 -0.018027964 1.3096451e-20)
(1.0082549 -0.018608636 1.0942892e-21)
(1.0156983 -0.019169425 -2.1043446e-21)
(1.0215113 -0.019679843 2.244874e-20)
(1.0260664 -0.020120595 -1.4480722e-20)
(1.0297516 -0.020429669 3.008732e-21)
(1.0329166 -0.020547457 0)
(1.0357695 -0.020403723 3.1072106e-21)
(1.0384062 -0.019944238 -1.5994695e-21)
(1.0408233 -0.019129073 7.1198431e-21)
(1.0429726 -0.0179453 4.289295e-22)
(1.0447792 -0.016408576 -1.1272869e-20)
(1.0461701 -0.014567277 -1.1448835e-21)
(1.047084 -0.012499713 -1.0057063e-20)
(1.0474877 -0.010308814 -1.1530859e-20)
(1.0473826 -0.0081076389 2.9752928e-21)
(1.0468097 -0.0060153003 1.4563166e-21)
(1.0458446 -0.0041236892 -9.1548207e-22)
(1.0445956 -0.0025327087 2.0462886e-24)
(1.0431822 -0.0012547881 -2.7259042e-22)
(1.0417519 -0.00039175648 -9.2612637e-22)
(1.0404161 0.00019256242 8.3582094e-22)
(1.0393462 0.00026588798 -8.4734193e-21)
(1.0384977 0.00028780775 3.6902416e-21)
(0.88297363 -0.0085181821 -3.4635976e-21)
(0.8882386 -0.010832849 1.494374e-22)
(0.89978774 -0.011595667 -7.9920413e-21)
(0.91095656 -0.013054158 -4.9021058e-21)
(0.92321857 -0.014012764 2.1846772e-21)
(0.93575492 -0.015116358 1.7638383e-22)
(0.94929629 -0.016024522 1.2087528e-20)
(0.96318059 -0.01694564 -6.8273438e-21)
(0.97674646 -0.017734958 -7.5529758e-22)
(0.98935901 -0.018474954 -2.7245005e-20)
(1.0004483 -0.019134942 1.2127471e-20)
(1.009736 -0.019757936 1.6885759e-20)
(1.0171644 -0.020325999 -8.4099815e-22)
(1.0229761 -0.020836017 -8.1554277e-21)
(1.0275388 -0.021239337 -9.0822319e-21)
(1.031275 -0.021482523 -2.866839e-21)
(1.0345078 -0.021492128 1.4092962e-21)
(1.0374387 -0.021203778 1.0207314e-20)
(1.0401336 -0.020562889 -1.0176072e-21)
(1.0425784 -0.019539812 -1.7380025e-21)
(1.0447083 -0.018132348 5.6088485e-22)
(1.0464461 -0.016371675 -1.7161772e-20)
(1.0477167 -0.014322412 9.4037209e-22)
(1.0484667 -0.012078031 2.1036834e-21)
(1.0486737 -0.0097536868 -1.479616e-20)
(1.0483544 -0.0074690181 -4.6175965e-21)
(1.0475651 -0.005344374 -3.6959911e-21)
(1.0463953 -0.0034673397 -2.2193254e-21)
(1.0449641 -0.0019295483 -1.459647e-21)
(1.0433963 -0.00073451432 -2.8016825e-22)
(1.0418433 2.7529839e-05 4.5027028e-22)
(1.0404124 0.0004966462 -1.6156069e-22)
(1.039278 0.00045352019 3.9013224e-21)
(1.0383837 0.00034672567 -7.6717523e-21)
(0.87172167 -0.0075276374 3.7510336e-21)
(0.87492255 -0.0099414699 -2.2219421e-22)
(0.88562068 -0.010894279 9.2377572e-21)
(0.89619774 -0.012526504 2.5256677e-21)
(0.90903414 -0.013665107 -7.4411707e-21)
(0.92185632 -0.014946052 -1.0226464e-20)
(0.93522687 -0.015991837 -1.5158931e-21)
(0.94942617 -0.017048036 0)
(0.96386301 -0.017987941 -7.7314569e-21)
(0.97785761 -0.018859049 -3.0283598e-20)
(0.99072158 -0.01962637 5.507643e-23)
(1.0019638 -0.020334085 -6.2180854e-21)
(1.0112877 -0.02097126 0)
(1.0187274 -0.021548682 -9.5677315e-22)
(1.0245331 -0.022033923 1.6637047e-20)
(1.0291246 -0.022386493 4.0277935e-21)
(1.0329131 -0.022537029 -1.2236434e-20)
(1.0362222 -0.022415729 0)
(1.0392233 -0.021955207 -1.164486e-21)
(1.0419675 -0.021109166 -7.3676302e-22)
(1.0444192 -0.019856805 -1.569992e-20)
(1.0465072 -0.018210721 -1.3762272e-22)
(1.048148 -0.016218461 0)
(1.0492715 -0.013961548 -1.3674147e-20)
(1.0498324 -0.011548423 3.7732521e-21)
(1.0498227 -0.0091044184 -1.9232747e-22)
(1.0492749 -0.0067539222 -5.9921815e-21)
(1.0482618 -0.0046155725 3.941936e-21)
(1.0468855 -0.0027707874 2.9995754e-22)
(1.0452749 -0.0013010193 -1.6065e-21)
(1.0435582 -0.00020037817 -3.3189181e-22)
(1.0418891 0.0004529837 -6.2548202e-22)
(1.04037 0.000802178 0)
(1.0391766 0.00064092192 -1.5440551e-22)
(1.038241 0.00040454 -2.5362372e-21)
(0.86154643 -0.006392439 2.6753264e-21)
(0.86225232 -0.0088518082 7.7071697e-22)
(0.87156682 -0.0099997333 8.3328118e-21)
(0.88101693 -0.011800294 9.2775977e-22)
(0.89357158 -0.0131283 -1.9411869e-21)
(0.90690964 -0.014588151 -9.5592569e-22)
(0.92066333 -0.015835704 -9.4624933e-21)
(0.93477276 -0.01704109 9.3755827e-23)
(0.94965647 -0.018118867 0)
(0.96465755 -0.019149484 9.4903079e-21)
(0.9790499 -0.020054163 -1.0228483e-20)
(0.99218899 -0.020875224 1.6235978e-21)
(1.0035579 -0.021603848 -6.726569e-21)
(1.0129409 -0.022259007 9.6991994e-21)
(1.0203843 -0.022822795 4.1616607e-21)
(1.0262045 -0.023271404 1.444242e-20)
(1.0308278 -0.023547204 -2.3878469e-20)
(1.0346804 -0.023582445 -5.4435761e-21)
(1.0380623 -0.023301511 1.3206055e-20)
(1.0411285 -0.022642868 -1.4841497e-20)
(1.0439044 -0.021566768 1.4560552e-20)
(1.0463422 -0.020065908 -6.8383594e-21)
(1.04836 -0.018168712 0)
(1.0498755 -0.015940618 -3.598727e-21)
(1.0508233 -0.013480345 8.6908537e-22)
(1.0511708 -0.010909911 6.4017558e-21)
(1.0509257 -0.0083631551 2.8641149e-21)
(1.0501379 -0.005966288 1.5094824e-21)
(1.0488958 -0.0038339081 2.4129692e-21)
(1.0473136 -0.0020390195 0)
(1.0455279 -0.00065160902 1.7008622e-21)
(1.0436692 0.00034406417 -4.5739774e-22)
(1.0418915 0.00088201467 7.84825e-21)
(1.0402912 0.0011075152 -3.3317698e-21)
(1.0390447 0.00082705496 2.0089089e-22)
(1.0380721 0.0004612272 9.2195799e-21)
(0.85283931 -0.005125632 -2.5571546e-21)
(0.8507072 -0.0075665705 -7.7081047e-23)
(0.85812317 -0.0089064213 -2.5697847e-21)
(0.8658675 -0.010859193 -2.4219296e-23)
(0.87752336 -0.012392953 8.9132537e-21)
(0.89055603 -0.014047037 7.8857765e-21)
(0.90499378 -0.015481146 -5.7620572e-24)
(0.91953002 -0.016900016 -7.4583106e-21)
(0.93442344 -0.01813708 1.1378696e-22)
(0.94999444 -0.019311848 -7.9507767e-21)
(0.96554411 -0.020385427 -1.4721845e-22)
(0.98035393 -0.021351467 5.4487792e-21)
(0.99374504 -0.022200943 7.4228097e-23)
(1.0052603 -0.022955948 8.9620137e-21)
(1.0146926 -0.023607561 -3.5892175e-20)
(1.0221584 -0.024147428 2.7631865e-21)
(1.0279956 -0.02453448 6.9999901e-21)
(1.0326645 -0.024711417 1.1176004e-20)
(1.0365815 -0.024602076 -1.0417543e-20)
(1.0400354 -0.02413393 -3.2789937e-21)
(1.0431532 -0.023249225 8.6114355e-21)
(1.0459423 -0.021919828 -1.4105651e-20)
(1.0483391 -0.020153084 1.0302259e-20)
(1.0502576 -0.017995548 0)
(1.0516166 -0.015531367 1.1920505e-20)
(1.0523607 -0.012875827 1.3984073e-20)
(1.0524715 -0.010163235 -4.5945994e-21)
(1.0519746 -0.0075331545 1.0083811e-20)
(1.0509375 -0.0051111064 3.7718113e-22)
(1.0494639 -0.0030048598 -2.5535824e-21)
(1.0476784 -0.0012773175 -9.8858293e-22)
(1.0457239 1.4204575e-05 -3.6400492e-21)
(1.043731 0.00089533718 -2.8733641e-22)
(1.0418528 0.0013121508 8.5651224e-21)
(1.0401787 0.0014110518 -1.0441422e-21)
(1.0388848 0.0010110543 -3.4640565e-22)
(1.0378796 0.00051654428 3.4917611e-21)
(0.84595554 -0.0037474074 3.0882796e-22)
(0.84076415 -0.0061001291 -7.6623508e-22)
(0.84581862 -0.0076160897 -3.3399579e-21)
(0.85129035 -0.0096961151 -6.2635252e-22)
(0.86139252 -0.011426402 7.6131681e-23)
(0.87350607 -0.013284364 -1.1186539e-23)
(0.88783632 -0.014922272 -4.8788924e-21)
(0.90308538 -0.016540027 2.4880524e-21)
(0.91848772 -0.018012841 0)
(0.93417051 -0.019358081 1.6133156e-21)
(0.9504304 -0.020582023 0)
(0.96654555 -0.021727751 0)
(0.98175649 -0.022731495 5.9663621e-21)
(0.9954173 -0.023616485 -7.9260725e-22)
(1.0070686 -0.024377943 -5.6487168e-21)
(1.0165665 -0.025017324 -9.7559971e-21)
(1.0240556 -0.025509647 2.1027617e-20)
(1.0299239 -0.025813986 1.9991453e-21)
(1.0346413 -0.025862789 7.9481454e-21)
(1.0386261 -0.025580278 3.7097779e-21)
(1.042143 -0.02489455 -1.3737044e-20)
(1.0452974 -0.023756928 3.5871867e-21)
(1.0480748 -0.022152108 2.9714006e-21)
(1.0504015 -0.020105053 1.6386045e-21)
(1.052188 -0.017681778 6.8185982e-22)
(1.0533592 -0.01498535 2.5611425e-21)
(1.0538716 -0.012146856 -2.5862553e-21)
(1.0537243 -0.0093105049 -6.3075096e-21)
(1.0529615 -0.0066189948 -6.4831661e-22)
(1.0516687 -0.0041940867 -8.1958561e-21)
(1.0499636 -0.0021343866 -3.6176144e-21)
(1.0479797 -0.00049106005 -1.6963682e-21)
(1.045864 0.00069198525 -2.6220855e-21)
(1.0437456 0.0014501234 5.9818164e-21)
(1.0417754 0.0017410869 -1.701452e-20)
(1.040035 0.0017113837 -2.9011609e-21)
(1.0386994 0.0011921338 -3.2485928e-21)
(1.037666 0.00057040104 0)
(0.8411891 -0.0022841773 2.2536767e-21)
(0.8328625 -0.004478294 -7.29242e-23)
(0.83518292 -0.0061425223 -8.8208254e-22)
(0.83787642 -0.0083102605 -4.9755945e-22)
(0.84577833 -0.01022141 -4.3736076e-21)
(0.85627486 -0.012270878 -3.3472136e-21)