/*--------------------------------*- C++ -*----------------------------------*\
| =========                 |                                                 |
| \\      /  F ield         | OpenFOAM: The Open Source CFD Toolbox           |
|  \\    /   O peration     | Version:  5.0                                   |
|   \\  /    A nd           | Web:      www.OpenFOAM.org                      |
|    \\/     M anipulation  |                                                 |
\*---------------------------------------------------------------------------*/
FoamFile
{
    version     2.0;
    format      ascii;
    class       volSymmTensorField;
    location    "150";
    object      UPrime2Mean;
}
// * * * * * * * * * * * * * * * * * * * * * * * * * * * * * * * * * * * * * //

dimensions      [0 2 -2 0 0 0 0];

internalField   nonuniform List<symmTensor> 
9200
(
(3.8762764e-05 -5.0263057e-07 2.3090988e-27 1.7136212e-08 -1.1679697e-29 2.519709e-47)
(3.8834367e-05 -1.5998193e-06 -1.1239712e-23 1.5806868e-07 8.4459751e-25 5.0339758e-42)
(4.1870329e-05 -5.3840221e-07 0 1.7227909e-08 0 0)
(4.1366958e-05 -2.6124234e-06 5.9766864e-24 4.0135282e-07 -6.9390402e-25 1.3317053e-42)
(4.1977712e-05 -1.743486e-06 -9.5951267e-24 1.6170059e-07 6.4901874e-25 3.0698384e-42)
(4.3311728e-05 -5.500841e-07 0 1.7071679e-08 0 0)
(4.560746e-05 -3.7278425e-06 6.2634404e-25 7.4215354e-07 -9.431228e-26 1.3342047e-44)
(4.4607159e-05 -2.825634e-06 -4.1508151e-25 4.0813992e-07 3.9826119e-26 9.5851532e-45)
(4.3438959e-05 -1.8096205e-06 0 1.6286483e-07 0 0)
(4.5551238e-05 -5.666268e-07 0 1.6930923e-08 0 0)
(5.1379111e-05 -4.8441447e-06 -1.2697848e-23 1.1408437e-06 2.2633152e-24 4.9099085e-42)
(4.8963996e-05 -4.0331973e-06 -7.9267321e-24 7.5759563e-07 1.1050772e-24 1.8065985e-42)
(4.6121449e-05 -2.9252026e-06 -5.6654841e-24 4.103525e-07 5.8115537e-25 9.4858937e-43)
(4.5708927e-05 -1.9052391e-06 -3.5325622e-25 1.6496044e-07 2.2546967e-26 3.6001535e-45)
(4.7430425e-05 -5.7522514e-07 -1.5322071e-27 1.668394e-08 2.2234874e-29 5.102565e-49)
(5.8517558e-05 -6.031857e-06 -1.2483333e-23 1.5921372e-06 2.4817898e-24 4.2220828e-42)
(5.4830228e-05 -5.2228362e-06 9.6002691e-25 1.1656948e-06 -1.4198554e-25 3.1054793e-44)
(5.0528708e-05 -4.1822646e-06 -1.9166441e-23 7.6417377e-07 2.5835209e-24 9.9391029e-42)
(4.8479204e-05 -3.0679636e-06 -7.4124489e-24 4.1455004e-07 7.2981873e-25 1.4757699e-42)
(4.762091e-05 -1.9789658e-06 -2.7355592e-26 1.660814e-07 1.5337776e-27 3.6958735e-45)
(4.9467811e-05 -5.7886473e-07 1.5149884e-23 1.635184e-08 -2.7468941e-25 5.9132043e-42)
(6.7070095e-05 -7.2409411e-06 -1.2306607e-23 2.0701714e-06 2.6991996e-24 3.7914562e-42)
(6.2043712e-05 -6.4901183e-06 -1.4427551e-23 1.6310662e-06 2.589556e-24 4.7638826e-42)
(5.6441554e-05 -5.4147357e-06 1.2178432e-23 1.1775275e-06 -1.9344499e-24 3.6321332e-42)
(5.2983044e-05 -4.3996569e-06 7.5055043e-25 7.759407e-07 -9.8145919e-26 1.4225271e-44)
(5.0470519e-05 -3.1779465e-06 -7.5553343e-24 4.1664809e-07 7.1579824e-25 1.4533823e-42)
(4.9706895e-05 -2.0474571e-06 -7.4779782e-24 1.6675171e-07 4.4367389e-25 1.3916305e-42)
(5.1417968e-05 -5.7538349e-07 -1.2713286e-24 1.5926938e-08 2.0772303e-26 3.7415112e-44)
(7.7084368e-05 -8.4817097e-06 -5.4039259e-24 2.5649759e-06 1.3561995e-24 9.0786466e-43)
(7.0624058e-05 -7.7693056e-06 -1.0738688e-23 2.1253445e-06 2.1293986e-24 2.3805924e-42)
(6.3685926e-05 -6.7335195e-06 -1.4111435e-23 1.6517762e-06 2.5399774e-24 4.3802288e-42)
(5.8992947e-05 -5.7005291e-06 1.7305641e-25 1.1993699e-06 -1.4318777e-26 2.6088065e-44)
(5.5060998e-05 -4.5736339e-06 1.9116655e-23 7.8395537e-07 -2.3980058e-24 8.4627403e-42)
(5.2661752e-05 -3.2792391e-06 8.3464028e-24 4.1774126e-07 -7.5653323e-25 1.6244866e-42)
(5.17087e-05 -2.0987083e-06 9.4210515e-24 1.6649325e-07 -5.4408028e-25 2.1854977e-42)
(5.3343133e-05 -5.6299903e-07 -1.4682239e-23 1.5385653e-08 2.362765e-25 5.02719e-42)
(8.8673149e-05 -9.72879e-06 1.6585873e-23 3.0616941e-06 -4.0351739e-24 5.7085753e-42)
(8.061162e-05 -9.0777901e-06 -1.3280655e-23 2.6397662e-06 2.6779526e-24 3.1849979e-42)
(7.2275247e-05 -8.0651712e-06 4.5380444e-25 2.1573916e-06 -5.3005823e-26 2.7373801e-44)
(6.6321328e-05 -7.1034809e-06 -7.4791699e-24 1.6901212e-06 1.2941692e-24 1.1362708e-42)
(6.1159714e-05 -5.9356315e-06 2.3649932e-25 1.2159775e-06 -2.2778634e-26 1.2904118e-43)
(5.7378382e-05 -4.7427687e-06 3.0357951e-23 7.9099087e-07 -3.6742046e-24 2.0000868e-41)
(5.4769166e-05 -3.353185e-06 -4.4999988e-24 4.1668134e-07 4.2621385e-25 8.6691162e-43)
(5.3707982e-05 -2.129627e-06 1.6133015e-23 1.6500612e-07 -8.9801302e-25 6.0747578e-42)
(5.5212365e-05 -5.4158661e-07 3.1479474e-23 1.4753569e-08 -4.7188724e-25 2.2058004e-41)
(0.0001019775 -1.0973531e-05 -1.2922381e-23 3.5512654e-06 3.3168061e-24 3.3967745e-42)
(9.2102948e-05 -1.0384442e-05 7.2685995e-24 3.1582916e-06 -1.3758408e-24 9.2803231e-43)
(8.2239411e-05 -9.4313118e-06 3.5191387e-25 2.6864545e-06 -8.6575428e-26 4.8656338e-45)
(7.4971459e-05 -8.5247216e-06 -1.4401393e-24 2.2174392e-06 1.7588906e-25 3.138291e-43)
(6.8566198e-05 -7.4174831e-06 2.7475641e-24 1.7218842e-06 -4.6915184e-25 1.4671621e-43)
(6.3615853e-05 -6.1735821e-06 2.3840486e-26 1.2326255e-06 -1.0029853e-26 3.5189392e-43)
(5.9614663e-05 -4.8760522e-06 -1.1022969e-23 7.9413895e-07 1.28512e-24 2.4729323e-42)
(5.6904144e-05 -3.3952657e-06 -1.8439621e-23 4.1275226e-07 1.5470711e-24 7.1811763e-42)
(5.5652754e-05 -2.1362319e-06 -1.0173438e-23 1.62179e-07 5.2796451e-25 2.1591283e-42)
(5.6978752e-05 -5.0929162e-07 -2.6385644e-24 1.403487e-08 3.4376883e-26 1.3898548e-43)
(0.00011718382 -1.2202186e-05 6.2972216e-24 4.0258369e-06 -1.6418056e-24 7.158444e-43)
(0.00010523308 -1.1679896e-05 5.137046e-26 3.6714549e-06 2.0256694e-25 1.4948147e-43)
(9.3666379e-05 -1.0798774e-05 -1.1576786e-23 3.2223395e-06 2.4087114e-24 2.1022168e-42)
(8.4960732e-05 -9.9920136e-06 1.1546679e-23 2.7747576e-06 -2.3486791e-24 2.2168447e-42)
(7.7274735e-05 -8.9262318e-06 -1.5644137e-23 2.2700695e-06 2.810977e-24 4.583119e-42)
(7.11622e-05 -7.7494597e-06 3.4137233e-23 1.7564747e-06 -5.6082901e-24 2.1165271e-41)
(6.5995403e-05 -6.3689824e-06 -1.4500952e-25 1.243693e-06 9.0118067e-27 3.8016245e-44)
(6.1925295e-05 -4.9710248e-06 -3.0690684e-23 7.9230147e-07 3.4934627e-24 1.8877299e-41)
(5.8982943e-05 -3.3976041e-06 1.4455265e-23 4.056089e-07 -1.1774498e-24 4.366763e-42)
(5.7519315e-05 -2.1129333e-06 -3.0360671e-23 1.5780662e-07 1.5236753e-24 1.896386e-41)
(5.8655336e-05 -4.6630134e-07 4.1328319e-24 1.3270774e-08 -5.4879785e-26 3.8243761e-43)
(0.00013451398 -1.340777e-05 -3.6542799e-25 4.4807861e-06 6.5684663e-26 9.0291131e-45)
(0.00012018862 -1.2945645e-05 1.652833e-24 4.1702275e-06 -8.0855536e-25 5.2130932e-43)
(0.00010668232 -1.2159309e-05 1.0100574e-23 3.755388e-06 -2.3180387e-24 1.5710729e-42)
(9.6366497e-05 -1.1469275e-05 0 3.3447837e-06 0 0)
(8.7290403e-05 -1.0495164e-05 -2.268923e-25 2.8553699e-06 5.1208944e-26 2.064845e-45)
(8.0001489e-05 -9.3682171e-06 -5.3013335e-26 2.3306156e-06 -2.9023634e-26 3.8531933e-43)
(7.3689099e-05 -8.0338516e-06 7.1764773e-24 1.7838244e-06 -1.1511839e-24 8.8583524e-43)
(6.8509052e-05 -6.5239713e-06 1.6512365e-23 1.2480842e-06 -2.2512154e-24 4.9460556e-42)
(6.4182076e-05 -5.0113367e-06 2.4412294e-24 7.8411212e-07 -1.6682788e-25 4.839022e-43)
(6.1018076e-05 -3.3523432e-06 1.8453766e-23 3.9478352e-07 -1.4237156e-24 6.7338051e-42)
(5.9299567e-05 -2.0576859e-06 1.1857239e-23 1.5197619e-07 -5.7275865e-25 2.8791839e-42)
(6.018399e-05 -4.1152497e-07 -2.7053767e-24 1.2498055e-08 2.9318291e-26 1.4047659e-43)
(0.00015419402 -1.4587352e-05 -2.6840631e-25 4.914403e-06 7.1374021e-26 1.3502263e-45)
(0.00013720826 -1.4168962e-05 2.2468872e-24 4.6486781e-06 -2.8063374e-25 1.0471504e-43)
(0.00012146689 -1.3494709e-05 0 4.275922e-06 0 0)
(0.00010930533 -1.2949e-05 0 3.9176239e-06 0 0)
(9.8680076e-05 -1.2085496e-05 6.5446607e-24 3.4599086e-06 -1.3003166e-24 6.2304452e-43)
(9.0125917e-05 -1.1070414e-05 -7.7336551e-24 2.95201e-06 1.3818445e-24 1.8388453e-42)
(8.2669576e-05 -9.7595457e-06 1.5989429e-23 2.3826639e-06 -2.8185239e-24 4.5626984e-42)
(7.6424508e-05 -8.2822985e-06 -2.0263917e-23 1.8036579e-06 3.1491422e-24 6.5418117e-42)
(7.0975718e-05 -6.6107404e-06 -1.8191919e-24 1.2425763e-06 2.2889129e-25 5.4227411e-44)
(6.6448127e-05 -4.9889328e-06 -3.9645205e-26 7.6868113e-07 2.6029471e-27 7.6493887e-47)
(6.2965165e-05 -3.2541469e-06 -2.0586508e-23 3.80453e-07 1.5512845e-24 8.6496153e-42)
(6.094948e-05 -1.9658274e-06 1.9493632e-23 1.4475533e-07 -9.5334499e-25 8.8925998e-42)
(6.15733e-05 -3.4536963e-07 -3.8245021e-23 1.1776581e-08 4.058424e-25 3.0867059e-41)
(0.00017636081 -1.5744e-05 7.7062201e-25 5.3284633e-06 -2.5523102e-25 1.3040469e-43)
(0.00015656422 -1.5338328e-05 -4.7802684e-25 5.1034104e-06 7.2417294e-26 2.750692e-45)
(0.00013825554 -1.4794173e-05 6.915043e-24 4.7773066e-06 -1.373582e-24 5.7702006e-43)
(0.00012395077 -1.4411355e-05 -7.4617929e-24 4.4825936e-06 1.4685791e-24 7.2736551e-43)
(0.00011154994 -1.3690473e-05 7.5448552e-24 4.073581e-06 -1.4938655e-24 7.9874857e-43)
(0.00010158947 -1.2815049e-05 -1.7830266e-24 3.6027238e-06 3.0113096e-25 1.4926813e-43)
(9.2915345e-05 -1.1593437e-05 -5.9245038e-24 3.0393615e-06 1.1267493e-24 4.7937886e-43)
(8.5632669e-05 -1.0126685e-05 4.913739e-27 2.4280835e-06 -4.0829375e-27 2.1193464e-45)
(7.9127972e-05 -8.4504678e-06 -2.1385652e-23 1.8093455e-06 3.139544e-24 6.7788542e-42)
(7.3517023e-05 -6.6233613e-06 -1.9599931e-23 1.2260399e-06 2.3245937e-24 5.9460784e-42)
(6.8625422e-05 -4.8910682e-06 -6.3286352e-24 7.4570795e-07 6.3003946e-25 6.9969066e-43)
(6.4806412e-05 -3.0970182e-06 -1.6921466e-23 3.6288931e-07 1.1375723e-24 5.1607855e-42)
(6.2466226e-05 -1.8366675e-06 -1.0755249e-23 1.3648516e-07 4.4502581e-25 2.1748397e-42)
(6.2779868e-05 -2.6784693e-07 1.0089749e-23 1.1170155e-08 -9.4098908e-26 2.1488096e-42)
(0.0002008544 -1.6884589e-05 9.5384308e-24 5.7289868e-06 -3.0608269e-24 2.338318e-42)
(0.00017849456 -1.6446615e-05 -1.2265972e-23 5.5345391e-06 1.3966815e-24 1.8696686e-42)
(0.00015732601 -1.604971e-05 2.7546241e-24 5.2552139e-06 -7.6502858e-25 1.3809883e-43)
(0.00014053931 -1.5844157e-05 2.3545464e-25 5.0318299e-06 -7.2409629e-27 5.1318405e-45)
(0.00012606535 -1.5289355e-05 -7.954194e-26 4.6847495e-06 -1.2949075e-26 4.5765197e-45)
(0.00011448565 -1.4596461e-05 1.9770782e-24 4.2726115e-06 -2.9694078e-25 2.4014673e-43)
(0.00010446835 -1.3492127e-05 -6.092279e-24 3.7358192e-06 1.2304213e-24 4.6027058e-43)
(9.6097837e-05 -1.2113444e-05 7.960496e-24 3.1236714e-06 -1.4799398e-24 8.1403431e-43)
(8.8589241e-05 -1.0404084e-05 3.2743937e-25 2.4550573e-06 -1.2659118e-26 9.109774e-44)
(8.1982554e-05 -8.5377111e-06 2.3498912e-24 1.799998e-06 -3.1552301e-25 8.1369748e-44)
(7.5976911e-05 -6.539052e-06 4.1899144e-25 1.197019e-06 -5.0332983e-26 2.7456042e-45)
(7.0747466e-05 -4.7108663e-06 3.4568556e-24 7.1547438e-07 -2.1783323e-25 2.6254047e-43)
(6.6515641e-05 -2.8781068e-06 2.0687281e-23 3.4292257e-07 -1.355313e-24 8.1201634e-42)
(6.3810295e-05 -1.6682311e-06 -8.8206904e-24 1.2757304e-07 3.7356451e-25 1.710719e-42)
(6.3803227e-05 -1.7973504e-07 6.7560354e-24 1.0750494e-08 -5.9155519e-26 1.0704755e-42)
(0.00022685428 -1.8011201e-05 -8.4699045e-25 6.1246224e-06 1.2540247e-24 4.9429931e-43)
(0.0002030297 -1.7490615e-05 1.1357361e-23 5.9467566e-06 -1.9145391e-24 9.8394845e-43)
(0.00017894262 -1.7259823e-05 -4.5213958e-24 5.7087273e-06 6.3946172e-25 3.2293377e-43)
(0.00015936477 -1.7237742e-05 8.1416238e-24 5.5595018e-06 -1.5344948e-24 7.0759556e-43)
(0.00014245738 -1.6869668e-05 -8.4477662e-24 5.2843072e-06 1.6667802e-24 8.1615254e-43)
(0.00012896926 -1.6392676e-05 2.0298066e-23 4.9490585e-06 -4.3695463e-24 4.4495274e-42)
(0.00011740899 -1.5451145e-05 -1.7436378e-23 4.4622209e-06 3.4884251e-24 4.2141628e-42)
(0.00010784951 -1.4197966e-05 2.5295735e-25 3.8732644e-06 -4.7295783e-26 1.0658832e-44)
(9.9311569e-05 -1.2537105e-05 5.9711277e-24 3.1854025e-06 -1.0895364e-24 4.4134233e-43)
(9.1785242e-05 -1.0599891e-05 2.201605e-24 2.4638154e-06 -1.679287e-25 7.9542467e-43)
(8.4783294e-05 -8.5072935e-06 5.0661235e-23 1.7714094e-06 -7.0635912e-24 3.5722897e-41)
(7.844475e-05 -6.3504126e-06 -9.6070621e-24 1.1556961e-06 1.3115623e-24 2.3945655e-42)
(7.273697e-05 -4.4400116e-06 -7.2430699e-24 6.7913843e-07 6.5814239e-25 9.1529862e-43)
(6.8064095e-05 -2.594488e-06 -4.0772502e-24 3.2162642e-07 1.9816897e-25 2.587234e-43)
(6.4976016e-05 -1.461447e-06 -2.1274089e-24 1.1861857e-07 3.5934608e-26 8.9929784e-44)
(6.4619396e-05 -8.1906658e-08 -7.0604869e-24 1.058898e-08 5.2329487e-26 1.1972892e-42)
(0.00025237837 -1.912343e-05 0 6.5319385e-06 0 0)
(0.0002296566 -1.846998e-05 1.1912733e-23 6.3488199e-06 -1.1744924e-24 1.0997721e-42)
(0.00020319963 -1.8427734e-05 -5.2473521e-24 6.140894e-06 1.486309e-24 4.155966e-43)
(0.0001807303 -1.8586002e-05 0 6.0625131e-06 0 0)
(0.00016102189 -1.8421103e-05 0 5.8646961e-06 0 0)
(0.00014526365 -1.8190245e-05 0 5.6215644e-06 0 0)
(0.00013188063 -1.7447401e-05 -3.5099852e-26 5.2051701e-06 5.4533659e-26 2.5473341e-44)
(0.0001209531 -1.6377484e-05 -1.5739664e-23 4.6679455e-06 3.2833052e-24 2.6216758e-42)
(0.00011130803 -1.480381e-05 1.8738374e-24 3.9845604e-06 -4.3783096e-25 1.781549e-42)
(0.00010286474 -1.288619e-05 -1.777195e-23 3.2272915e-06 3.1405555e-24 3.6542219e-42)
(9.4970065e-05 -1.0659193e-05 -1.3235229e-24 2.4455069e-06 1.1416464e-25 1.1237623e-43)
(8.7657937e-05 -8.3520025e-06 -1.1343091e-23 1.7238786e-06 1.4784561e-24 1.6785714e-42)
(8.0781776e-05 -6.0416606e-06 -3.130207e-25 1.1032554e-06 -2.3705666e-26 2.5085985e-44)
(7.4595648e-05 -4.0746688e-06 8.4869546e-24 6.3849897e-07 -6.9446564e-25 1.1757165e-42)
(6.9433924e-05 -2.24682e-06 3.3123179e-24 3.0054634e-07 -1.242569e-25 1.6577267e-43)
(6.5936951e-05 -1.2172329e-06 3.8794632e-24 1.1027426e-07 -1.3921363e-25 3.3908969e-43)
(6.5224066e-05 2.4335719e-08 0 1.0757543e-08 0 0)
(0.0002738006 -2.0172665e-05 6.91365e-24 6.9641242e-06 -2.769323e-25 8.3203618e-43)
(0.00025679475 -1.9394978e-05 -2.3251071e-23 6.7580224e-06 3.0407445e-24 3.122729e-42)
(0.00022970982 -1.9557223e-05 2.0361104e-23 6.5583623e-06 -2.7016878e-24 4.7199151e-42)
(0.00020482861 -1.9887787e-05 8.0699787e-24 6.5413604e-06 -5.7135102e-25 1.3601354e-42)
(0.00018209002 -1.9940517e-05 1.0463713e-23 6.4213671e-06 -1.5800878e-24 1.4875598e-42)
(0.00016366689 -1.9977743e-05 0 6.2806899e-06 0 0)
(0.00014809912 -1.9467118e-05 9.1923538e-24 5.9529657e-06 -1.5707753e-24 2.0236199e-42)
(0.00013553796 -1.8627889e-05 -4.9507477e-25 5.4938951e-06 6.932527e-27 2.5939114e-43)
(0.00012462839 -1.7203694e-05 -2.7551174e-23 4.8450758e-06 5.6491649e-24 9.2709501e-42)
(0.00011521993 -1.5350989e-05 6.5134946e-26 4.0769316e-06 -2.6621295e-25 2.9091212e-42)
(0.00010646463 -1.3082933e-05 1.0896997e-23 3.2335404e-06 -1.8515208e-24 1.2966073e-42)
(9.8308678e-05 -1.057673e-05 -2.4292942e-24 2.4009074e-06 2.1317922e-25 2.0360966e-43)
(9.0432987e-05 -8.0459341e-06 -1.9487376e-23 1.6573324e-06 2.6225153e-24 5.7108313e-42)
(8.304293e-05 -5.6068638e-06 3.2920636e-23 1.042017e-06 -3.1899169e-24 1.5082449e-41)
(7.6275889e-05 -3.6126182e-06 1.0948175e-23 5.9629556e-07 -5.9603502e-25 1.6550427e-42)
(7.0598636e-05 -1.83645e-06 2.9233113e-23 2.8140089e-07 -1.5610944e-24 1.7776513e-41)
(6.668694e-05 -9.3845502e-07 1.0835802e-23 1.0330441e-07 -3.2138255e-25 2.4305308e-42)
(6.5608318e-05 1.3744261e-07 6.7879461e-24 1.1320244e-08 -3.9661343e-26 1.4083811e-42)
(0.00028582645 -2.1049737e-05 -8.4513435e-25 7.4379228e-06 -9.4835743e-26 1.1411047e-44)
(0.00028121022 -2.0261454e-05 -1.2706444e-23 7.1924475e-06 1.020093e-24 8.9353144e-43)
(0.00025710154 -2.065519e-05 -5.1992364e-24 6.9752438e-06 1.1268878e-24 2.0914246e-43)
(0.00023146116 -2.1146008e-05 1.393522e-23 7.0013001e-06 -1.8509349e-24 1.7269565e-42)
(0.00020592033 -2.1430614e-05 -1.3243787e-24 6.9531452e-06 1.5694942e-25 2.6238033e-44)
(0.00018453099 -2.1750599e-05 1.183986e-23 6.9193682e-06 -2.9274914e-24 1.3432412e-42)
(0.0001663606 -2.1498219e-05 4.8887855e-24 6.694434e-06 -2.3040905e-24 5.0994762e-42)
(0.00015180656 -2.0934131e-05 -1.7861395e-23 6.3382731e-06 3.2193577e-24 8.5802326e-42)
(0.00013938722 -1.9712058e-05 -5.5210303e-24 5.7532803e-06 1.0963997e-24 1.1281994e-42)
(0.00012888359 -1.799718e-05 2.0727715e-23 5.0077251e-06 -4.1575081e-24 4.0635034e-42)
(0.00011925044 -1.573442e-05 6.5779892e-25 4.1252765e-06 -2.3780623e-26 1.638737e-43)
(0.00011031656 -1.3126598e-05 2.6076856e-23 3.2057749e-06 -4.3105685e-24 7.2411145e-42)
(0.00010159756 -1.0313095e-05 -5.1586937e-24 2.3271638e-06 1.065979e-24 1.1765299e-42)
(9.3184488e-05 -7.579634e-06 -3.5273068e-24 1.5747472e-06 2.8560421e-25 1.7121369e-43)
(8.5120322e-05 -5.0398809e-06 -5.8972775e-24 9.7613906e-07 3.4966456e-25 4.6705398e-43)
(7.7759914e-05 -3.0547728e-06 -5.3754759e-24 5.5571502e-07 3.9209352e-25 5.1711167e-43)
(7.1545331e-05 -1.3676079e-06 8.7235568e-24 2.661664e-07 -4.3706772e-25 1.7246472e-42)
(6.7213468e-05 -6.2874752e-07 7.9315567e-25 9.8479214e-08 8.107523e-27 1.8059562e-44)
(6.5771689e-05 2.5569281e-07 4.464715e-24 1.2329126e-08 -3.4897486e-26 9.9381144e-43)
(0.0002823298 -2.1520214e-05 -6.751947e-24 7.9661049e-06 -8.5600444e-25 6.8840174e-43)
(0.0002977466 -2.1039164e-05 1.6363448e-23 7.6747793e-06 -1.4598815e-24 1.3078298e-42)
(0.00028240353 -2.170948e-05 -5.2461512e-23 7.4076038e-06 7.6153745e-24 2.0286167e-41)
(0.00025954263 -2.2371878e-05 -5.6870937e-24 7.4558415e-06 2.5901225e-25 4.3144854e-43)
(0.00023244667 -2.2896811e-05 8.0351329e-24 7.4631147e-06 -1.6491435e-24 4.4976208e-43)
(0.00020817612 -2.3510313e-05 5.1869565e-24 7.5335092e-06 -1.3249499e-24 2.516505e-43)
(0.00018702968 -2.3535595e-05 1.874286e-24 7.4201271e-06 -2.3801969e-25 8.8893389e-44)
(0.00017004784 -2.3282301e-05 1.9001119e-23 7.1878858e-06 -4.2715865e-24 2.8974359e-42)
(0.00015577355 -2.2313175e-05 -2.4871718e-24 6.6957321e-06 4.7190825e-25 2.054677e-43)
(0.00014395286 -2.0799877e-05 -2.6380564e-23 6.0070007e-06 5.6244683e-24 1.0085498e-41)
(0.00013334346 -1.86212e-05 3.7470284e-23 5.1190548e-06 -7.3838885e-24 1.2516241e-41)
(0.00012364988 -1.5960689e-05 -7.3543917e-24 4.132539e-06 1.1797672e-24 5.8214178e-43)
(0.00011418608 -1.296007e-05 -1.3675956e-23 3.1365131e-06 2.0290428e-24 1.8096055e-42)
(0.00010492958 -9.8552042e-06 1.2062551e-24 2.2277403e-06 -1.3990051e-25 1.5011084e-44)
(9.5773453e-05 -6.9407756e-06 -4.4487665e-24 1.480862e-06 2.7212707e-25 2.8774178e-43)
(8.7030971e-05 -4.3391095e-06 -2.0479499e-23 9.1021905e-07 1.8454487e-24 6.6605922e-42)
(7.9019239e-05 -2.4053047e-06 -1.0142252e-24 5.2061184e-07 -2.1073246e-25 4.0715575e-43)
(7.2258122e-05 -8.4579871e-07 -1.5000503e-23 2.5681943e-07 5.9354159e-25 4.6503359e-42)
(6.7513233e-05 -2.9286693e-07 -3.3304169e-24 9.6554505e-08 7.5934498e-26 2.5677126e-43)
(6.5716355e-05 3.7723713e-07 -3.632221e-24 1.3820813e-08 3.297877e-26 9.4960741e-43)
(0.00025836795 -2.1174828e-05 -3.945637e-25 8.5561846e-06 3.1432558e-25 2.3935539e-44)
(0.00029984418 -2.1602308e-05 2.5619484e-23 8.2263541e-06 -1.6576961e-24 3.2868817e-42)
(0.00030066481 -2.2670264e-05 -5.323482e-26 7.8752503e-06 1.3240619e-24 5.7045815e-43)
(0.00028644638 -2.3558796e-05 1.6266472e-23 7.9211203e-06 -1.9554939e-24 1.668004e-42)
(0.00026081118 -2.4347013e-05 2.9028061e-24 7.9619562e-06 -1.2796515e-24 3.244123e-43)
(0.00023466991 -2.5261818e-05 -9.8338648e-24 8.1233521e-06 1.4724746e-24 8.3336953e-43)
(0.00021047252 -2.558101e-05 1.8431229e-23 8.1233029e-06 -2.38723e-24 5.6453633e-42)
(0.00019063352 -2.566586e-05 2.6450123e-23 8.0305197e-06 -3.6612775e-24 1.958342e-41)
(0.00017406683 -2.4991915e-05 -2.7637307e-23 7.6576543e-06 6.4911859e-24 6.1612846e-42)
(0.00016059938 -2.374275e-05 0 7.0614836e-06 0 0)
(0.0001488228 -2.1719167e-05 -2.6702635e-23 6.2042078e-06 5.5595791e-24 5.7573654e-42)
(0.000138307 -1.9092986e-05 -2.6117427e-24 5.1840576e-06 1.1345955e-25 1.657898e-42)
(0.00012815391 -1.5951523e-05 2.4943761e-23 4.0846874e-06 -4.5331858e-24 6.5326175e-42)
(0.00011818809 -1.2567248e-05 -6.56923e-24 3.0291774e-06 1.6222372e-24 2.4869714e-42)
(0.00010814252 -9.1812026e-06 1.3863747e-23 2.1070986e-06 -1.5705439e-24 1.9205265e-42)
(9.8231867e-05 -6.1226967e-06 -2.0712043e-23 1.3821205e-06 2.0910638e-24 5.4212714e-42)
(8.8705807e-05 -3.5079906e-06 -7.9411602e-24 8.5062807e-07 2.370772e-25 8.3332202e-43)
(8.0034281e-05 -1.6707107e-06 2.7067147e-24 4.949239e-07 -3.1887851e-25 4.529137e-43)
(7.2729647e-05 -2.7861099e-07 -5.3383043e-24 2.5532714e-07 3.093194e-25 1.1803433e-42)
(6.7585617e-05 6.3788101e-08 -1.5042993e-24 9.8193105e-08 2.7637039e-27 3.4232676e-44)
(6.5448929e-05 5.0018274e-07 -1.8209558e-24 1.5814408e-08 3.7809718e-26 7.5602457e-43)
(0.00021307864 -1.9409449e-05 5.0914883e-24 9.2074569e-06 3.5242539e-24 2.3700784e-42)
(0.00028132868 -2.1643527e-05 2.0958296e-23 8.8660657e-06 -1.3214512e-24 2.3737411e-42)
(0.00030530957 -2.3391263e-05 2.8280467e-23 8.3973144e-06 -4.1292903e-24 4.7076171e-42)
(0.00030749137 -2.4673323e-05 -3.6245069e-23 8.4204419e-06 4.9971592e-24 6.9603048e-42)
(0.00028870122 -2.5774138e-05 -2.1535195e-23 8.4654899e-06 2.5345668e-24 3.1084911e-42)
(0.00026339057 -2.7012278e-05 5.9573781e-24 8.6968444e-06 -1.4549562e-24 2.5700679e-43)
(0.00023686461 -2.764138e-05 0 8.8015568e-06 0 0)
(0.00021396732 -2.8085426e-05 2.1168654e-23 8.8559616e-06 -5.3692566e-24 3.5790379e-42)
(0.00019463916 -2.7740465e-05 4.4832713e-24 8.624365e-06 -1.7210566e-24 2.08767e-42)
(0.00017908848 -2.6808901e-05 -4.0388413e-23 8.1552194e-06 8.9155171e-24 1.3612555e-41)
(0.00016584195 -2.5012412e-05 -1.3281426e-23 7.3686491e-06 2.8792217e-24 1.5354972e-42)
(0.00015434735 -2.2501521e-05 1.8935523e-24 6.353043e-06 -5.4184701e-25 4.582255e-43)
(0.00014348325 -1.9309991e-05 1.023726e-24 5.1800191e-06 -9.0168443e-26 6.2038909e-44)
(0.00013290334 -1.5688338e-05 -1.2802852e-23 3.984469e-06 2.0203015e-24 1.3698867e-42)
(0.00012213496 -1.1912561e-05 9.6114503e-24 2.8867352e-06 -1.6289067e-24 1.407008e-42)
(0.00011127159 -8.2784018e-06 -7.617397e-24 1.973181e-06 1.1386687e-24 1.0789645e-42)
(0.00010045567 -5.1272439e-06 2.7517822e-24 1.2872754e-06 -2.3805754e-25 9.047044e-44)
(9.0135823e-05 -2.5524419e-06 -1.214014e-23 8.0363317e-07 8.5984102e-25 2.3552373e-42)
(8.0788791e-05 -8.608156e-07 -6.628893e-24 4.8272937e-07 5.8104582e-26 5.6304349e-43)
(7.2954543e-05 3.2516556e-07 -1.2364669e-24 2.6342872e-07 -9.9212553e-27 2.1711021e-44)
(6.7434894e-05 4.3532296e-07 -1.4231376e-24 1.0393433e-07 8.5841584e-26 2.6073615e-43)
(6.4979128e-05 6.2265838e-07 0 1.8310279e-08 0 0)
(0.00015248219 -1.5477526e-05 8.3699472e-25 9.9075962e-06 2.284039e-24 6.8871549e-43)
(0.00023939338 -2.0591154e-05 -1.0103752e-23 9.6085556e-06 5.8894024e-25 6.7790159e-43)
(0.00028972898 -2.3554863e-05 1.6950153e-25 8.9904613e-06 -2.6518949e-25 1.1699956e-44)
(0.00031604967 -2.55943e-05 -3.8996301e-23 8.9770681e-06 4.1926872e-24 7.7285841e-42)
(0.00031172784 -2.7137109e-05 -1.5732633e-23 8.9957735e-06 1.1146325e-24 1.8021522e-42)
(0.00029235561 -2.8752519e-05 1.2590749e-23 9.2684763e-06 -1.7453863e-24 9.3556046e-43)
(0.00026578318 -2.9723688e-05 -1.6246198e-23 9.4599677e-06 4.3092977e-24 2.0955583e-42)
(0.00024032144 -3.0547457e-05 2.9292861e-23 9.6578888e-06 -4.9122125e-24 7.344052e-42)
(0.0002179196 -3.055866e-05 1.2982393e-23 9.5824119e-06 -2.8377948e-24 1.1039607e-42)
(0.00019978738 -2.9988707e-05 7.0766465e-25 9.271296e-06 -7.9568178e-26 5.955523e-44)
(0.00018464951 -2.8482854e-05 1.6371027e-25 8.5961696e-06 -4.24119e-26 5.2630722e-45)
(0.00017190324 -2.6171583e-05 -1.3246049e-24 7.629914e-06 5.5760175e-25 2.6616676e-42)
(0.00016021387 -2.3017669e-05 3.7618766e-24 6.4200023e-06 -7.419199e-25 1.0249992e-43)
(0.00014904218 -1.9252058e-05 -3.2223394e-23 5.1083897e-06 4.6177993e-24 1.0304399e-41)
(0.00013768625 -1.5118182e-05 -3.3128482e-23 3.831664e-06 4.7668791e-24 8.6591875e-42)
(0.00012606816 -1.0976168e-05 -2.4577647e-23 2.7178735e-06 3.1326078e-24 5.5599206e-42)
(0.00011419064 -7.1426421e-06 5.7784406e-24 1.8370955e-06 -3.5648823e-25 3.2698777e-43)
(0.00010244692 -3.9554431e-06 2.5053134e-23 1.2057784e-06 -2.0627529e-24 8.2246574e-42)
(9.1282638e-05 -1.4838787e-06 -6.8316988e-25 7.7633639e-07 -5.6024345e-26 2.3058833e-44)
(8.1271393e-05 1.2641903e-08 -4.0794103e-24 4.8777684e-07 2.323172e-25 4.6101981e-43)
(7.2933498e-05 9.5565912e-07 0 2.8255696e-07 0 0)
(6.7068998e-05 8.1557047e-07 1.1741862e-24 1.1415825e-07 -2.0185377e-25 1.2108846e-42)
(6.4320309e-05 7.4288085e-07 4.1128816e-25 2.1290035e-08 5.0275775e-27 2.66231e-45)
(9.0855337e-05 -8.6317035e-06 -9.7785897e-26 1.0629596e-05 -1.1175447e-23 1.2862589e-41)
(0.00017794659 -1.7591881e-05 -1.8297627e-23 1.0459565e-05 2.0550086e-24 3.4718842e-42)
(0.00025019121 -2.2602639e-05 3.0547197e-23 9.6662948e-06 -5.4463859e-24 5.5469638e-42)
(0.00030490116 -2.6031073e-05 1.7661092e-23 9.6130586e-06 -2.8914596e-24 1.5765652e-42)
(0.00032334018 -2.830809e-05 -4.2745292e-23 9.5773603e-06 5.8614961e-24 8.5774716e-42)
(0.00031750897 -3.0441236e-05 0 9.8623383e-06 0 0)
(0.00029554748 -3.1817037e-05 -3.4657207e-24 1.0111512e-05 9.6152087e-25 9.7269011e-44)
(0.00026946569 -3.3059276e-05 2.0058974e-23 1.0437633e-05 -4.2368841e-24 2.1588622e-42)
(0.00024425721 -3.3453419e-05 1.6236238e-23 1.0521806e-05 -2.448114e-24 3.4221895e-42)
(0.00022314249 -3.3280466e-05 -1.1008695e-24 1.0392804e-05 1.7616189e-24 7.9634706e-42)
(0.00020560223 -3.2119207e-05 -2.53696e-23 9.868337e-06 5.8310681e-24 4.0968677e-42)
(0.00019120346 -3.00845e-05 -1.3390022e-23 8.99953e-06 3.0611508e-24 2.0485495e-42)
(0.00017845647 -2.7062932e-05 1.6962071e-23 7.7991329e-06 -3.8446381e-24 3.1445871e-42)
(0.00016662471 -2.3247251e-05 -2.7656724e-23 6.4047604e-06 5.3249596e-24 5.4060999e-42)
(0.00015475119 -1.8845593e-05 3.6668253e-23 4.9636835e-06 -6.4117327e-24 1.0761251e-41)
(0.00014255281 -1.4212623e-05 6.1167003e-23 3.6346615e-06 -8.2476793e-24 2.865685e-41)
(0.00012983746 -9.7435926e-06 9.0994112e-24 2.5354925e-06 7.1995211e-26 2.4207744e-42)
(0.0001168957 -5.769836e-06 1.1443099e-23 1.7115341e-06 -1.0709823e-24 1.4276453e-42)
(0.0001041331 -2.6219007e-06 -1.8727537e-23 1.1483793e-06 1.9086622e-24 7.524296e-42)
(9.2132102e-05 -3.1613715e-07 -4.2062756e-24 7.7520159e-07 -4.6694041e-25 1.0219808e-42)
(8.1476593e-05 9.3580197e-07 4.549552e-24 5.1335513e-07 -4.9219665e-25 1.6893471e-42)
(7.2671458e-05 1.6024917e-06 6.5181473e-25 3.1372099e-07 3.9741622e-25 1.3860171e-42)
(6.649927e-05 1.1983432e-06 -2.5680043e-24 1.2906386e-07 -2.0714175e-25 7.4522001e-43)
(6.3487956e-05 8.591397e-07 3.1011049e-25 2.4714827e-08 4.4221351e-27 1.534271e-45)
(4.9716659e-05 1.6765988e-06 -3.4176201e-24 1.1330383e-05 -3.6150184e-24 1.3848853e-42)
(0.00010987221 -1.162104e-05 -1.1098653e-23 1.1407874e-05 7.1075359e-25 2.0995556e-42)
(0.00018937317 -1.9722875e-05 -4.8603784e-24 1.0426846e-05 -3.8157792e-25 3.0346542e-43)
(0.00026907683 -2.5432916e-05 -8.9679376e-23 1.0346739e-05 1.215693e-23 4.0990083e-41)
(0.00031593204 -2.8989812e-05 2.835411e-23 1.0233854e-05 -4.4941466e-24 3.6569771e-42)
(0.00033243508 -3.1942317e-05 -5.301062e-23 1.0505646e-05 7.5075738e-24 1.242964e-41)
(0.00032243888 -3.3869596e-05 -2.9859691e-24 1.0779239e-05 8.8378915e-25 7.6979732e-44)
(0.00030002136 -3.5608217e-05 -4.4406326e-23 1.1205625e-05 6.9309953e-24 1.1230066e-41)
(0.00027358479 -3.64324e-05 1.678807e-23 1.1439841e-05 -3.9331028e-24 1.4844544e-42)
(0.00024956799 -3.6690771e-05 1.1564865e-23 1.1505313e-05 -2.1861097e-24 1.1987638e-42)
(0.00022915407 -3.5918221e-05 -2.5557518e-23 1.1165345e-05 6.1541464e-24 3.7215922e-42)
(0.00021258956 -3.4227324e-05 1.2466916e-23 1.0442959e-05 -2.7773482e-24 5.5239176e-42)
(0.00019841728 -3.1427631e-05 -2.012347e-23 9.3048966e-06 4.4409253e-24 2.4450169e-42)
(0.00018573866 -2.7667569e-05 5.6119297e-25 7.8739718e-06 -3.6564921e-26 3.1407772e-44)
(0.00017333192 -2.3093442e-05 3.8675439e-23 6.2942879e-06 -6.4852686e-24 9.5757929e-42)
(0.00016067181 -1.805224e-05 3.2674743e-24 4.7526059e-06 -6.405606e-25 1.3518497e-43)
(0.00014732899 -1.294259e-05 1.1410521e-24 3.4069297e-06 5.854507e-26 7.0164329e-44)
(0.00013343238 -8.2032737e-06 2.1139813e-23 2.3553359e-06 -2.2399932e-24 4.1086043e-42)
(0.00011929212 -4.172354e-06 0 1.6117222e-06 0 0)
(0.00010550356 -1.1379422e-06 3.8190184e-24 1.1256502e-06 -1.2924639e-25 1.4996281e-43)
(9.2664965e-05 9.3235954e-07 8.0066059e-25 8.0632479e-07 -1.3984968e-26 8.191592e-45)
(8.1404261e-05 1.8937662e-06 -9.7816952e-25 5.6200708e-07 1.2610908e-26 1.7721005e-44)
(7.2177902e-05 2.2551595e-06 -2.0895973e-24 3.5745323e-07 -9.8809369e-26 7.1006508e-44)
(6.5740464e-05 1.5776301e-06 2.7418812e-24 1.4865396e-07 2.8153413e-25 1.2857112e-42)
(6.2498982e-05 9.6975044e-07 2.831735e-24 2.8521984e-08 7.7639846e-26 4.3519934e-43)
(5.443386e-05 1.561773e-05 1.9687103e-23 1.1955202e-05 1.1877327e-23 1.2479011e-41)
(5.6852446e-05 -1.724263e-06 5.0370663e-24 1.2414864e-05 1.852957e-25 6.4066705e-43)
(0.00011908652 -1.3944129e-05 7.4704875e-24 1.1259886e-05 -1.7790399e-24 5.8491557e-43)
(0.00020958328 -2.2950051e-05 9.2782444e-24 1.1188565e-05 -1.4640245e-24 5.2345796e-43)
(0.00028352664 -2.8626001e-05 8.4648324e-23 1.0985677e-05 -1.2503963e-23 3.3273887e-41)
(0.00032920375 -3.2953102e-05 4.3650964e-24 1.1227084e-05 2.3346304e-25 2.1486297e-43)
(0.00034024023 -3.5736584e-05 -2.7756542e-24 1.1493029e-05 9.0409569e-25 7.5762863e-44)
(0.00032863296 -3.8135586e-05 3.463716e-24 1.1984457e-05 -5.6386501e-25 5.4679754e-44)
(0.00030479742 -3.9482809e-05 3.3703514e-23 1.2343999e-05 -5.5257844e-24 6.5829156e-42)
(0.00027914573 -4.0228033e-05 -1.6119994e-23 1.2601124e-05 4.2626561e-24 1.6059499e-42)
(0.00025576764 -3.9886091e-05 1.9076278e-23 1.2468632e-05 -4.1284051e-24 2.3698502e-42)
(0.00023651571 -3.8594937e-05 -3.3902342e-25 1.1938172e-05 1.8457782e-26 9.5676329e-44)
(0.00022041846 -3.6098048e-05 -4.1211478e-24 1.091941e-05 1.06935e-24 1.4050643e-42)
(0.00020656574 -3.2497162e-05 1.0571791e-23 9.5081607e-06 -2.2002964e-24 6.2714606e-43)
(0.00019349378 -2.7863738e-05 4.2043673e-24 7.8315471e-06 -4.128871e-25 5.4234862e-43)
(0.0001804118 -2.2507033e-05 -5.7856917e-23 6.0919782e-06 8.8772275e-24 2.0285335e-41)
(0.00016660877 -1.6824095e-05 -8.8405481e-23 4.4873456e-06 9.9620048e-24 5.2357859e-41)