# Field minima and maxima
# Time         	field          	min            	location(min)  	max            	location(max)  
1.06058433e+02	p              	-6.25030776e-01	(3.44418942e+00 5.85804487e-01 7.71131706e-19)	5.62747301e-01	(-1.03340804e+00 -4.06193375e-02 -1.52065714e-17)
1.06058433e+02	U              	(2.55429966e-01 -5.26856015e-01 -3.69785856e-19)	(4.13525402e+00 3.51948704e-01 -2.21585871e-17)	(1.29749421e+00 2.03380066e-01 2.80563548e-19)	(4.81739219e-01 1.70757903e+00 0.00000000e+00)
1.06121339e+02	p              	-6.25141361e-01	(3.44418942e+00 5.85804487e-01 7.71131706e-19)	5.62951382e-01	(-1.03340804e+00 -4.06193375e-02 -1.52065714e-17)
1.06121339e+02	U              	(2.63630180e-01 -5.18411969e-01 -3.66628433e-19)	(4.13525402e+00 3.51948704e-01 -2.21585871e-17)	(1.29708955e+00 3.40161728e-01 2.35742700e-19)	(-5.55685462e-02 1.41263523e+00 1.56671443e-17)
1.06184275e+02	p              	-6.25011326e-01	(3.44418942e+00 5.85804487e-01 7.71131706e-19)	5.63086521e-01	(-1.03340804e+00 -4.06193375e-02 -1.52065714e-17)
1.06184275e+02	U              	(3.90175654e-01 -5.54941575e-01 -5.42299545e-19)	(-9.64179915e-01 -5.39939829e-01 1.23452373e-17)	(1.27998516e+00 2.65391475e-01 3.11369101e-19)	(1.66357433e-01 1.40459629e+00 -7.82047486e-18)
1.06247242e+02	p              	-6.25068124e-01	(3.44418942e+00 5.85804487e-01 7.71131706e-19)	5.63433866e-01	(-1.03340804e+00 -4.06193375e-02 -1.52065714e-17)
1.06247242e+02	U              	(3.90555756e-01 -5.55558475e-01 -5.43376150e-19)	(-9.64179915e-01 -5.39939829e-01 1.23452373e-17)	(1.24370880e+00 3.42614736e-01 2.47467735e-19)	(-1.86683358e-01 1.57596711e+00 2.82577808e-17)
1.06310241e+02	p              	-6.22357457e-01	(3.44418942e+00 5.85804487e-01 7.71131706e-19)	5.63658711e-01	(-1.03340804e+00 -4.06193375e-02 -1.52065714e-17)
1.06310241e+02	U              	(3.90946987e-01 -5.56195669e-01 -5.44439257e-19)	(-9.64179915e-01 -5.39939829e-01 1.23452373e-17)	(1.24300986e+00 3.42813953e-01 2.46902212e-19)	(-1.86683358e-01 1.57596711e+00 2.82577808e-17)
1.06373274e+02	p              	-6.22517643e-01	(3.65557233e+00 5.85363161e-01 -6.19139483e-17)	5.64120764e-01	(-1.03340804e+00 -4.06193375e-02 -1.52065714e-17)
1.06373274e+02	U              	(3.91347567e-01 -5.56850174e-01 -5.45492879e-19)	(-9.64179915e-01 -5.39939829e-01 1.23452373e-17)	(1.24228971e+00 3.43007886e-01 2.46333053e-19)	(-1.86683358e-01 1.57596711e+00 2.82577808e-17)
1.06436342e+02	p              	-6.21793915e-01	(3.65557233e+00 5.85363161e-01 -6.19139483e-17)	5.64360629e-01	(-1.03340804e+00 -4.06193375e-02 -1.52065714e-17)
1.06436342e+02	U              	(3.91759441e-01 -5.57525289e-01 -5.46641005e-19)	(-9.64179915e-01 -5.39939829e-01 1.23452373e-17)	(1.24154578e+00 3.43195017e-01 2.45773900e-19)	(-1.86683358e-01 1.57596711e+00 2.82577808e-17)
1.06499447e+02	p              	-6.21958312e-01	(3.65557233e+00 5.85363161e-01 -6.19139483e-17)	5.64889436e-01	(-1.03340804e+00 -4.06193375e-02 -1.52065714e-17)
1.06499447e+02	U              	(3.92180592e-01 -5.58217178e-01 -5.47732376e-19)	(-9.64179915e-01 -5.39939829e-01 1.23452373e-17)	(1.24078181e+00 3.43375861e-01 2.45215710e-19)	(-1.86683358e-01 1.57596711e+00 2.82577808e-17)
1.06562591e+02	p              	-6.21109622e-01	(3.65557233e+00 5.85363161e-01 -6.19139483e-17)	5.65016212e-01	(-1.03340804e+00 -4.06193375e-02 -1.52065714e-17)
1.06562591e+02	U              	(3.92612905e-01 -5.58929465e-01 -5.48928034e-19)	(-9.64179915e-01 -5.39939829e-01 1.23452373e-17)	(1.16175441e+00 4.69226358e-01 9.29808225e-20)	(7.32304056e+00 -1.45357621e+00 -3.23986436e-17)
1.06625774e+02	p              	-6.20346626e-01	(3.65557233e+00 5.85363161e-01 -6.19139483e-17)	5.65392144e-01	(-1.03340804e+00 -4.06193375e-02 -1.52065714e-17)
1.06625774e+02	U              	(3.93053962e-01 -5.59657983e-01 -5.50059077e-19)	(-9.64179915e-01 -5.39939829e-01 1.23452373e-17)	(1.16988947e+00 4.63799555e-01 1.00383707e-19)	(7.32304056e+00 -1.45357621e+00 -3.23986436e-17)
1.06688999e+02	p              	-6.19128117e-01	(3.65557233e+00 5.85363161e-01 -6.19139483e-17)	5.65831716e-01	(-1.03340804e+00 -4.06193375e-02 -1.52065714e-17)
1.06688999e+02	U              	(3.93503219e-01 -5.60401688e-01 -5.51223940e-19)	(-9.64179915e-01 -5.39939829e-01 1.23452373e-17)	(1.27015110e+00 2.67741035e-01 3.04946901e-19)	(1.66357433e-01 1.40459629e+00 -7.82047486e-18)
1.06752266e+02	p              	-6.17312946e-01	(3.65557233e+00 5.85363161e-01 -6.19139483e-17)	5.66229567e-01	(-1.03340804e+00 -4.06193375e-02 -1.52065714e-17)
1.06752266e+02	U              	(3.93959864e-01 -5.61159159e-01 -5.52389588e-19)	(-9.64179915e-01 -5.39939829e-01 1.23452373e-17)	(1.26881641e+00 2.67992895e-01 3.04176052e-19)	(1.66357433e-01 1.40459629e+00 -7.82047486e-18)
1.06815577e+02	p              	-6.15418444e-01	(3.65557233e+00 5.85363161e-01 -6.19139483e-17)	5.66521804e-01	(-1.03340804e+00 -4.06193375e-02 -1.52065714e-17)
1.06815577e+02	U              	(3.94424930e-01 -5.61932322e-01 -5.53612708e-19)	(-9.64179915e-01 -5.39939829e-01 1.23452373e-17)	(1.26746380e+00 2.68233152e-01 3.03456609e-19)	(1.66357433e-01 1.40459629e+00 -7.82047486e-18)
1.06878932e+02	p              	-6.12271054e-01	(3.65557233e+00 5.85363161e-01 -6.19139483e-17)	5.66827257e-01	(-1.03340804e+00 4.06193375e-02 1.52084025e-17)
1.06878932e+02	U              	(3.94896712e-01 -5.62718076e-01 -5.54793541e-19)	(-9.64179915e-01 -5.39939829e-01 1.23452373e-17)	(1.28521074e+00 3.42475595e-01 2.29649999e-19)	(-5.55685462e-02 1.41263523e+00 1.56671443e-17)
1.06942334e+02	p              	-6.09135750e-01	(3.87482782e+00 5.84905364e-01 0.00000000e+00)	5.67347934e-01	(-1.03340804e+00 4.06193375e-02 1.52084025e-17)
1.06942334e+02	U              	(3.95373264e-01 -5.63513553e-01 -5.55963995e-19)	(-9.64179915e-01 -5.39939829e-01 1.23452373e-17)	(1.28410350e+00 3.42613149e-01 2.29128910e-19)	(-5.55685462e-02 1.41263523e+00 1.56671443e-17)
1.07005783e+02	p              	-6.07980971e-01	(3.87482782e+00 5.84905364e-01 0.00000000e+00)	5.68082020e-01	(-1.03340804e+00 4.06193375e-02 1.52084025e-17)
1.07005783e+02	U              	(3.95855451e-01 -5.64320156e-01 -5.57184398e-19)	(-9.64179915e-01 -5.39939829e-01 1.23452373e-17)	(1.28548606e+00 2.11676820e-01 2.70473125e-19)	(4.81739219e-01 1.70757903e+00 0.00000000e+00)
1.07069280e+02	p              	-6.06510226e-01	(3.87482782e+00 5.84905364e-01 0.00000000e+00)	5.68470605e-01	(-1.03340804e+00 4.06193375e-02 1.52084025e-17)
1.07069280e+02	U              	(3.96343105e-01 -5.65137599e-01 -5.58405027e-19)	(-9.64179915e-01 -5.39939829e-01 1.23452373e-17)	(1.28452620e+00 2.12156112e-01 2.70040688e-19)	(4.81739219e-01 1.70757903e+00 0.00000000e+00)
1.07132826e+02	p              	-6.05670489e-01	(3.87482782e+00 5.84905364e-01 0.00000000e+00)	5.69115129e-01	(-1.03340804e+00 4.06193375e-02 1.52084025e-17)
1.07132826e+02	U              	(3.96833155e-01 -5.65960436e-01 -5.59555762e-19)	(-9.64179915e-01 -5.39939829e-01 1.23452373e-17)	(1.21073349e+00 3.87468873e-01 1.53929233e-19)	(7.32304056e+00 -1.45357621e+00 -3.23986436e-17)
1.07196422e+02	p              	-6.01828445e-01	(3.87482782e+00 5.84905364e-01 0.00000000e+00)	5.69493683e-01	(-1.03340804e+00 4.06193375e-02 1.52084025e-17)
1.07196422e+02	U              	(3.97328676e-01 -5.66793840e-01 -5.60831010e-19)	(-9.64179915e-01 -5.39939829e-01 1.23452373e-17)	(1.21188003e+00 3.73433320e-01 1.60783764e-19)	(7.32304056e+00 -1.45357621e+00 -3.23986436e-17)
1.07260068e+02	p              	-5.99511718e-01	(3.87482782e+00 5.84905364e-01 0.00000000e+00)	5.70127439e-01	(-1.03340804e+00 4.06193375e-02 1.52084025e-17)
1.07260068e+02	U              	(3.97827988e-01 -5.67635059e-01 -5.62036974e-19)	(-9.64179915e-01 -5.39939829e-01 1.23452373e-17)	(1.21198310e+00 3.58319810e-01 1.67602373e-19)	(7.32304056e+00 -1.45357621e+00 -3.23986436e-17)
1.07323754e+02	p              	-5.97001424e-01	(3.87482782e+00 5.84905364e-01 0.00000000e+00)	5.70647922e-01	(-1.03340804e+00 4.06193375e-02 1.52084025e-17)
1.07323754e+02	U              	(3.98330668e-01 -5.68483651e-01 -5.63212576e-19)	(-9.64179915e-01 -5.39939829e-01 1.23452373e-17)	(1.18955137e+00 4.40972836e-01 7.80237601e-20)	(7.69325119e+00 -1.45235763e+00 0.00000000e+00)
1.07387381e+02	p              	-5.93796170e-01	(3.87482782e+00 5.84905364e-01 0.00000000e+00)	5.71487503e-01	(-1.03340804e+00 4.06193375e-02 1.52084025e-17)
1.07387381e+02	U              	(3.98832511e-01 -5.69331538e-01 -5.63843097e-19)	(-9.64179915e-01 -5.39939829e-01 1.23452373e-17)	(1.19522252e+00 4.31827299e-01 8.21015838e-20)	(7.69325119e+00 -1.45235763e+00 0.00000000e+00)
1.07450949e+02	p              	-5.88183625e-01	(3.87482782e+00 5.84905364e-01 0.00000000e+00)	5.72057603e-01	(-1.03340804e+00 4.06193375e-02 1.52084025e-17)
1.07450949e+02	U              	(3.99336052e-01 -5.70183521e-01 -5.64496265e-19)	(-9.64179915e-01 -5.39939829e-01 1.23452373e-17)	(1.24387289e+00 4.29151092e-01 1.07519720e-19)	(-2.60174967e-01 1.30751857e+00 -1.01600534e-17)
1.07514458e+02	p              	-5.83661833e-01	(3.87482782e+00 5.84905364e-01 0.00000000e+00)	5.72639877e-01	(-1.03340804e+00 4.06193375e-02 1.52084025e-17)
1.07514458e+02	U              	(3.99839523e-01 -5.71036609e-01 -5.65067596e-19)	(-9.64179915e-01 -5.39939829e-01 1.23452373e-17)	(1.24278843e+00 4.29003218e-01 1.07221167e-19)	(-2.60174967e-01 1.30751857e+00 -1.01600534e-17)
1.07577907e+02	p              	-5.82081801e-01	(4.10224906e+00 5.84430542e-01 -1.15791191e-17)	5.73399988e-01	(-1.03340804e+00 4.06193375e-02 1.52084025e-17)
1.07577907e+02	U              	(4.00341257e-01 -5.71887880e-01 -5.65608900e-19)	(-9.64179915e-01 -5.39939829e-01 1.23452373e-17)	(1.24171381e+00 4.28847360e-01 1.06924381e-19)	(-2.60174967e-01 1.30751857e+00 -1.01600534e-17)
1.07641296e+02	p              	-5.78927671e-01	(4.10224906e+00 5.84430542e-01 -1.15791191e-17)	5.73951671e-01	(-1.03340804e+00 4.06193375e-02 1.52084025e-17)
1.07641296e+02	U              	(4.00841843e-01 -5.72738606e-01 -5.66175297e-19)	(-9.64179915e-01 -5.39939829e-01 1.23452373e-17)	(1.24065165e+00 4.28685909e-01 1.06637260e-19)	(-2.60174967e-01 1.30751857e+00 -1.01600534e-17)
1.07704625e+02	p              	-5.75388242e-01	(4.10224906e+00 5.84430542e-01 -1.15791191e-17)	5.74572331e-01	(-1.03340804e+00 4.06193375e-02 1.52084025e-17)
1.07704625e+02	U              	(4.01341352e-01 -5.73589044e-01 -5.66730553e-19)	(-9.64179915e-01 -5.39939829e-01 1.23452373e-17)	(1.23960521e+00 4.28518582e-01 1.06355146e-19)	(-2.60174967e-01 1.30751857e+00 -1.01600534e-17)
1.07767894e+02	p              	-5.73003754e-01	(4.10224906e+00 5.84430542e-01 -1.15791191e-17)	5.75185733e-01	(-1.03340804e+00 4.06193375e-02 1.52084025e-17)
1.07767894e+02	U              	(4.01836660e-01 -5.74433272e-01 -5.67191189e-19)	(-9.64179915e-01 -5.39939829e-01 1.23452373e-17)	(1.23858058e+00 4.28346026e-01 1.06066235e-19)	(-2.60174967e-01 1.30751857e+00 -1.01600534e-17)
1.07831103e+02	p              	-5.71164255e-01	(-1.21582612e-01 -1.02709282e+00 0.00000000e+00)	5.75891965e-01	(-1.03340804e+00 4.06193375e-02 1.52084025e-17)
1.07831103e+02	U              	(4.02327070e-01 -5.75270134e-01 -5.67662957e-19)	(-9.64179915e-01 -5.39939829e-01 1.23452373e-17)	(1.22216301e+00 3.44996496e-01 2.33931890e-19)	(-1.86683358e-01 1.57596711e+00 2.82577808e-17)
1.07894255e+02	p              	-5.72698742e-01	(-1.21582612e-01 -1.02709282e+00 0.00000000e+00)	5.76524332e-01	(-1.03340804e+00 4.06193375e-02 1.52084025e-17)
1.07894255e+02	U              	(4.02815113e-01 -5.76104206e-01 -5.68201440e-19)	(-9.64179915e-01 -5.39939829e-01 1.23452373e-17)	(1.22128358e+00 3.44947306e-01 2.33459802e-19)	(-1.86683358e-01 1.57596711e+00 2.82577808e-17)
1.07957348e+02	p              	-5.73925731e-01	(-1.21582612e-01 -1.02709282e+00 0.00000000e+00)	5.77165733e-01	(-1.03340804e+00 4.06193375e-02 1.52084025e-17)
1.07957348e+02	U              	(4.03298731e-01 -5.76931760e-01 -5.68647893e-19)	(-9.64179915e-01 -5.39939829e-01 1.23452373e-17)	(1.22041547e+00 3.44885604e-01 2.32993996e-19)	(-1.86683358e-01 1.57596711e+00 2.82577808e-17)
1.08020383e+02	p              	-5.75095836e-01	(-1.21582612e-01 -1.02709282e+00 0.00000000e+00)	5.77770645e-01	(-1.03340804e+00 4.06193375e-02 1.52084025e-17)
1.08020383e+02	U              	(4.03776469e-01 -5.77750192e-01 -5.69070609e-19)	(-9.64179915e-01 -5.39939829e-01 1.23452373e-17)	(1.28338199e+00 2.37826044e-01 2.33021288e-19)	(7.67489380e+00 -2.21697715e+00 0.00000000e+00)
1.08083362e+02	p              	-5.76089562e-01	(-1.21582612e-01 -1.02709282e+00 0.00000000e+00)	5.78410212e-01	(-1.03340804e+00 4.06193375e-02 1.52084025e-17)
1.08083362e+02	U              	(4.04246881e-01 -5.78557009e-01 -5.69456940e-19)	(-9.64179915e-01 -5.39939829e-01 1.23452373e-17)	(1.29018632e+00 2.29288100e-01 2.40314069e-19)	(7.67489380e+00 -2.21697715e+00 0.00000000e+00)
1.08146285e+02	p              	-5.77263636e-01	(-1.21582612e-01 -1.02709282e+00 0.00000000e+00)	5.78996985e-01	(-1.03340804e+00 4.06193375e-02 1.52084025e-17)
1.08146285e+02	U              	(2.44430415e-01 -5.67000864e-01 -2.23986617e-19)	(5.65610484e+00 -5.81186256e-01 0.00000000e+00)	(1.29659993e+00 2.20224757e-01 2.50590856e-19)	(7.67489380e+00 -2.21697715e+00 0.00000000e+00)
1.08209152e+02	p              	-5.78426250e-01	(-1.21582612e-01 -1.02709282e+00 0.00000000e+00)	5.79431196e-01	(-1.03340804e+00 4.06193375e-02 1.52084025e-17)
1.08209152e+02	U              	(2.47697758e-01 -5.57844512e-01 -2.27607431e-19)	(5.65610484e+00 -5.81186256e-01 0.00000000e+00)	(1.26250985e+00 3.42610053e-01 2.20329588e-19)	(-5.55685462e-02 1.41263523e+00 1.56671443e-17)
1.08271965e+02	p              	-5.79141357e-01	(-1.21582612e-01 -1.02709282e+00 0.00000000e+00)	5.80042341e-01	(-1.03340804e+00 4.06193375e-02 1.52084025e-17)
1.08271965e+02	U              	(2.50146792e-01 -5.48515497e-01 -2.32155968e-19)	(5.65610484e+00 -5.81186256e-01 0.00000000e+00)	(1.26161748e+00 3.42474430e-01 2.19932605e-19)	(-5.55685462e-02 1.41263523e+00 1.56671443e-17)
1.08334724e+02	p              	-5.79923468e-01	(-1.21582612e-01 -1.02709282e+00 0.00000000e+00)	5.80690347e-01	(-1.03340804e+00 4.06193375e-02 1.52084025e-17)
1.08334724e+02	U              	(4.06057769e-01 -5.81669329e-01 -5.70907618e-19)	(-9.64179915e-01 -5.39939829e-01 1.23452373e-17)	(1.26075497e+00 3.42321572e-01 2.19599359e-19)	(-5.55685462e-02 1.41263523e+00 1.56671443e-17)
1.08397431e+02	p              	-5.80839916e-01	(-1.21582612e-01 -1.02709282e+00 0.00000000e+00)	5.81098968e-01	(-1.03340804e+00 4.06193375e-02 1.52084025e-17)
1.08397431e+02	U              	(2.52757964e-01 -5.29184007e-01 -2.39931142e-19)	(5.65610484e+00 -5.81186256e-01 0.00000000e+00)	(1.25992582e+00 3.42149578e-01 2.19295492e-19)	(-5.55685462e-02 1.41263523e+00 1.56671443e-17)
1.08460086e+02	p              	-5.81411781e-01	(-1.21582612e-01 -1.02709282e+00 0.00000000e+00)	5.81703636e-01	(-1.03340804e+00 4.06193375e-02 1.52084025e-17)
1.08460086e+02	U              	(2.52956121e-01 -5.18972797e-01 -2.44273272e-19)	(5.65610484e+00 -5.81186256e-01 0.00000000e+00)	(1.25913073e+00 3.41959662e-01 2.19016590e-19)	(-5.55685462e-02 1.41263523e+00 1.56671443e-17)
1.08522690e+02	p              	-5.81764624e-01	(-1.21582612e-01 -1.02709282e+00 0.00000000e+00)	5.82291038e-01	(-1.03340804e+00 4.06193375e-02 1.52084025e-17)
1.08522690e+02	U              	(2.52492255e-01 -5.08240244e-01 -2.50551987e-19)	(5.65610484e+00 -5.81186256e-01 0.00000000e+00)	(1.25837188e+00 3.41754144e-01 2.18751057e-19)	(-5.55685462e-02 1.41263523e+00 1.56671443e-17)
1.08585246e+02	p              	-5.82524894e-01	(-1.21582612e-01 -1.02709282e+00 0.00000000e+00)	5.82642039e-01	(-1.03340804e+00 4.06193375e-02 1.52084025e-17)
1.08585246e+02	U              	(2.75248768e-01 -5.16055599e-01 -1.64951958e-19)	(5.90232390e+00 -8.08395458e-01 8.54755248e-18)	(1.29463494e+00 2.68125165e-01 9.40256898e-20)	(8.14460883e+00 -2.03158525e+00 0.00000000e+00)
1.08647753e+02	p              	-5.82877592e-01	(-1.21582612e-01 -1.02709282e+00 0.00000000e+00)	5.83157519e-01	(-1.03340804e+00 4.06193375e-02 1.52084025e-17)
1.08647753e+02	U              	(3.05478279e-01 -5.28850466e-01 -1.69572039e-19)	(6.14432554e+00 -1.03066097e+00 0.00000000e+00)	(1.25696495e+00 3.41296027e-01 2.18374096e-19)	(-5.55685462e-02 1.41263523e+00 1.56671443e-17)
1.08710215e+02	p              	-5.82917291e-01	(-1.21582612e-01 -1.02709282e+00 0.00000000e+00)	5.83865007e-01	(-1.03340804e+00 4.06193375e-02 1.52084025e-17)
1.08710215e+02	U              	(3.07493356e-01 -5.18778587e-01 -1.70859856e-19)	(6.14432554e+00 -1.03066097e+00 0.00000000e+00)	(1.25632167e+00 3.41044902e-01 2.18224252e-19)	(-5.55685462e-02 1.41263523e+00 1.56671443e-17)
1.08772631e+02	p              	-5.82990211e-01	(-1.21582612e-01 -1.02709282e+00 0.00000000e+00)	5.84323307e-01	(-1.03340804e+00 4.06193375e-02 1.52084025e-17)
1.08772631e+02	U              	(4.08841855e-01 -5.86488520e-01 -5.72441074e-19)	(-9.64179915e-01 -5.39939829e-01 1.23452373e-17)	(1.25572173e+00 3.40780525e-01 2.18094171e-19)	(-5.55685462e-02 1.41263523e+00 1.56671443e-17)
1.08835005e+02	p              	-5.83334590e-01	(-2.01798763e-01 -1.01443080e+00 0.00000000e+00)	5.84693642e-01	(-1.03340804e+00 4.06193375e-02 1.52084025e-17)
1.08835005e+02	U              	(4.09189663e-01 -5.87094918e-01 -5.72611021e-19)	(-9.64179915e-01 -5.39939829e-01 1.23452373e-17)	(1.21036783e+00 3.42570696e-01 2.29844099e-19)	(-1.86683358e-01 1.57596711e+00 2.82577808e-17)
1.08897336e+02	p              	-5.83496796e-01	(-2.01798763e-01 -1.01443080e+00 0.00000000e+00)	5.85084642e-01	(-1.03340804e+00 4.06193375e-02 1.52084025e-17)
1.08897336e+02	U              	(4.09524202e-01 -5.87679411e-01 -5.72715578e-19)	(-9.64179915e-01 -5.39939829e-01 1.23452373e-17)	(1.20986238e+00 3.42301900e-01 2.29882865e-19)	(-1.86683358e-01 1.57596711e+00 2.82577808e-17)
1.08959626e+02	p              	-5.83538088e-01	(-2.01798763e-01 -1.01443080e+00 0.00000000e+00)	5.85451619e-01	(-1.03340804e+00 4.06193375e-02 1.52084025e-17)
1.08959626e+02	U              	(5.64439526e-01 -5.96558851e-01 -1.02134170e-19)	(2.50752483e+01 -1.18348163e+00 0.00000000e+00)	(1.20939218e+00 3.42020294e-01 2.29959501e-19)	(-1.86683358e-01 1.57596711e+00 2.82577808e-17)
1.09021876e+02	p              	-5.83553303e-01	(-2.01798763e-01 -1.01443080e+00 0.00000000e+00)	5.85848540e-01	(-1.03340804e+00 4.06193375e-02 1.52084025e-17)
1.09021876e+02	U              	(4.10150437e-01 -5.88777357e-01 -5.72854630e-19)	(-9.64179915e-01 -5.39939829e-01 1.23452373e-17)	(1.20895611e+00 3.41726297e-01 2.30059653e-19)	(-1.86683358e-01 1.57596711e+00 2.82577808e-17)
1.09084089e+02	p              	-5.83453330e-01	(-2.01798763e-01 -1.01443080e+00 0.00000000e+00)	5.86182589e-01	(-1.03340804e+00 4.06193375e-02 1.52084025e-17)
1.09084089e+02	U              	(4.10441824e-01 -5.89290400e-01 -5.72878276e-19)	(-9.64179915e-01 -5.39939829e-01 1.23452373e-17)	(1.20855666e+00 3.41419705e-01 2.30215879e-19)	(-1.86683358e-01 1.57596711e+00 2.82577808e-17)
1.09146264e+02	p              	-5.83695887e-01	(2.56986263e+00 -7.25099359e-01 1.14619717e-17)	5.86601470e-01	(-1.03340804e+00 4.06193375e-02 1.52084025e-17)
1.09146264e+02	U              	(4.10716288e-01 -5.89774889e-01 -5.72830781e-19)	(-9.64179915e-01 -5.39939829e-01 1.23452373e-17)	(1.20819716e+00 3.41101375e-01 2.30405984e-19)	(-1.86683358e-01 1.57596711e+00 2.82577808e-17)
1.09208405e+02	p              	-5.88997305e-01	(2.56986263e+00 -7.25099359e-01 1.14619717e-17)	5.86788584e-01	(-1.03340804e+00 4.06193375e-02 1.52084025e-17)
1.09208405e+02	U              	(4.10973924e-01 -5.90230678e-01 -5.72786030e-19)	(-9.64179915e-01 -5.39939829e-01 1.23452373e-17)	(1.20787886e+00 3.40771625e-01 2.30637308e-19)	(-1.86683358e-01 1.57596711e+00 2.82577808e-17)
1.09270512e+02	p              	-5.92040563e-01	(2.56986263e+00 -7.25099359e-01 1.14619717e-17)	5.87291649e-01	(-1.03340804e+00 4.06193375e-02 1.52084025e-17)
1.09270512e+02	U              	(4.11215330e-01 -5.90659389e-01 -5.72739507e-19)	(-9.64179915e-01 -5.39939829e-01 1.23452373e-17)	(1.30787262e+00 2.08742253e-01 1.47994034e-19)	(8.50121715e+00 -2.21697715e+00 -2.97625682e-17)
1.09332588e+02	p              	-5.95474322e-01	(2.56986263e+00 -7.25099359e-01 1.14619717e-17)	5.87609918e-01	(-1.03340804e+00 4.06193375e-02 1.52084025e-17)
1.09332588e+02	U              	(4.11440350e-01 -5.91061025e-01 -5.72660860e-19)	(-9.64179915e-01 -5.39939829e-01 1.23452373e-17)	(1.25241179e+00 3.37792946e-01 2.18616652e-19)	(-5.55685462e-02 1.41263523e+00 1.56671443e-17)
1.09394633e+02	p              	-5.99444430e-01	(2.56986263e+00 -7.25099359e-01 1.14619717e-17)	5.87707337e-01	(-1.03340804e+00 4.06193375e-02 1.52084025e-17)
1.09394633e+02	U              	(4.11647561e-01 -5.91432480e-01 -5.72519656e-19)	(-9.64179915e-01 -5.39939829e-01 1.23452373e-17)	(1.26583398e+00 3.11386574e-01 5.80288947e-20)	(8.99922301e+00 -2.03095071e+00 0.00000000e+00)
1.09456649e+02	p              	-6.01880748e-01	(2.56986263e+00 -7.25099359e-01 1.14619717e-17)	5.88088841e-01	(-1.03340804e+00 4.06193375e-02 1.52084025e-17)
1.09456649e+02	U              	(4.11836263e-01 -5.91772899e-01 -5.72357275e-19)	(-9.64179915e-01 -5.39939829e-01 1.23452373e-17)	(1.27325226e+00 3.02782843e-01 6.01072757e-20)	(8.99922301e+00 -2.03095071e+00 0.00000000e+00)
1.09518639e+02	p              	-6.06459028e-01	(2.69643629e+00 -7.60821952e-01 3.10083782e-17)	5.88108289e-01	(-1.03340804e+00 4.06193375e-02 1.52084025e-17)
1.09518639e+02	U              	(4.12008051e-01 -5.92084643e-01 -5.72217415e-19)	(-9.64179915e-01 -5.39939829e-01 1.23452373e-17)	(1.18234079e+00 4.24490067e-01 5.78293661e-20)	(9.31720427e+00 -1.44701227e+00 7.70334642e-19)
1.09580604e+02	p              	-6.09585345e-01	(2.69643629e+00 -7.60821952e-01 3.10083782e-17)	5.88468912e-01	(-1.03340804e+00 4.06193375e-02 1.52084025e-17)
1.09580604e+02	U              	(4.12160875e-01 -5.92364240e-01 -5.71984370e-19)	(-9.64179915e-01 -5.39939829e-01 1.23452373e-17)	(1.22211357e+00 4.20585792e-01 1.02497540e-19)	(-2.60174967e-01 1.30751857e+00 -1.01600534e-17)
1.09642546e+02	p              	-6.12997831e-01	(2.69643629e+00 -7.60821952e-01 3.10083782e-17)	5.88773672e-01	(-1.03340804e+00 4.06193375e-02 1.52084025e-17)
1.09642546e+02	U              	(4.12295215e-01 -5.92612465e-01 -5.71764754e-19)	(-9.64179915e-01 -5.39939829e-01 1.23452373e-17)	(1.22222199e+00 4.20276371e-01 1.02567237e-19)	(-2.60174967e-01 1.30751857e+00 -1.01600534e-17)
1.09704467e+02	p              	-6.16133336e-01	(2.69643629e+00 -7.60821952e-01 3.10083782e-17)	5.88817097e-01	(-1.03340804e+00 4.06193375e-02 1.52084025e-17)
1.09704467e+02	U              	(4.12410402e-01 -5.92827940e-01 -5.71495136e-19)	(-9.64179915e-01 -5.39939829e-01 1.23452373e-17)	(1.22238566e+00 4.19969212e-01 1.02645253e-19)	(-2.60174967e-01 1.30751857e+00 -1.01600534e-17)
1.09766368e+02	p              	-6.18612913e-01	(2.69643629e+00 -7.60821952e-01 3.10083782e-17)	5.89001418e-01	(-1.03340804e+00 4.06193375e-02 1.52084025e-17)
1.09766368e+02	U              	(4.12507277e-01 -5.93012544e-01 -5.71238390e-19)	(-9.64179915e-01 -5.39939829e-01 1.23452373e-17)	(1.22259855e+00 4.19662838e-01 1.02755288e-19)	(-2.60174967e-01 1.30751857e+00 -1.01600534e-17)
1.09828252e+02	p              	-6.20757838e-01	(2.69643629e+00 -7.60821952e-01 3.10083782e-17)	5.89046024e-01	(-1.03340804e+00 4.06193375e-02 1.52084025e-17)
1.09828252e+02	U              	(4.12585387e-01 -5.93165319e-01 -5.70933331e-19)	(-9.64179915e-01 -5.39939829e-01 1.23452373e-17)	(1.22487271e+00 3.54173911e-01 9.24909913e-20)	(-1.76335015e-01 1.48871874e+00 0.00000000e+00)
1.09890120e+02	p              	-6.22501822e-01	(2.69643629e+00 -7.60821952e-01 3.10083782e-17)	5.89001474e-01	(-1.03340804e+00 4.06193375e-02 1.52084025e-17)
1.09890120e+02	U              	(4.12644051e-01 -5.93284810e-01 -5.70592215e-19)	(-9.64179915e-01 -5.39939829e-01 1.23452373e-17)	(1.25334631e+00 3.33942921e-01 2.21411285e-19)	(-5.55685462e-02 1.41263523e+00 1.56671443e-17)
1.09951975e+02	p              	-6.23808342e-01	(2.69643629e+00 -7.60821952e-01 3.10083782e-17)	5.89228038e-01	(-1.03340804e+00 4.06193375e-02 1.52084025e-17)
1.09951975e+02	U              	(4.12684620e-01 -5.93373739e-01 -5.70276688e-19)	(-9.64179915e-01 -5.39939829e-01 1.23452373e-17)	(1.22351318e+00 4.18744850e-01 1.03149055e-19)	(-2.60174967e-01 1.30751857e+00 -1.01600534e-17)
1.10013818e+02	p              	-6.25996209e-01	(2.87998353e+00 -5.73373142e-01 0.00000000e+00)	5.89253755e-01	(-1.03340804e+00 4.06193375e-02 1.52084025e-17)
1.10013818e+02	U              	(4.12704099e-01 -5.93426362e-01 -5.69834809e-19)	(-9.64179915e-01 -5.39939829e-01 1.23452373e-17)	(1.22391367e+00 4.18441629e-01 1.03298975e-19)	(-2.60174967e-01 1.30751857e+00 -1.01600534e-17)
1.10075650e+02	p              	-6.30017833e-01	(2.87998353e+00 -5.73373142e-01 0.00000000e+00)	5.88982807e-01	(-1.03340804e+00 4.06193375e-02 1.52084025e-17)
1.10075650e+02	U              	(4.12703166e-01 -5.93443551e-01 -5.69421193e-19)	(-9.64179915e-01 -5.39939829e-01 1.23452373e-17)	(1.29633367e+00 2.05124934e-01 2.34401005e-19)	(2.65772748e+00 -1.85814625e+00 0.00000000e+00)
1.10137475e+02	p              	-6.32816489e-01	(2.87998353e+00 -5.73373142e-01 0.00000000e+00)	5.88913761e-01	(-1.03340804e+00 4.06193375e-02 1.52084025e-17)
1.10137475e+02	U              	(4.12682917e-01 -5.93427821e-01 -5.69010448e-19)	(-9.64179915e-01 -5.39939829e-01 1.23452373e-17)	(1.23389045e+00 2.57602876e-01 3.03252019e-19)	(1.66357433e-01 1.40459629e+00 -7.82047486e-18)
1.10199295e+02	p              	-6.34513550e-01	(2.87998353e+00 -5.73373142e-01 0.00000000e+00)	5.89082417e-01	(-1.03340804e+00 4.06193375e-02 1.52084025e-17)
1.10199295e+02	U              	(4.12642092e-01 -5.93376956e-01 -5.68527489e-19)	(-9.64179915e-01 -5.39939829e-01 1.23452373e-17)	(1.23482634e+00 2.56997105e-01 3.04462165e-19)	(1.66357433e-01 1.40459629e+00 -7.82047486e-18)
1.10261110e+02	p              	-6.36732460e-01	(2.87998353e+00 -5.73373142e-01 0.00000000e+00)	5.88999473e-01	(-1.03340804e+00 4.06193375e-02 1.52084025e-17)
1.10261110e+02	U              	(4.12581332e-01 -5.93292023e-01 -5.68053721e-19)	(-9.64179915e-01 -5.39939829e-01 1.23452373e-17)	(1.23583456e+00 2.56383405e-01 3.05720611e-19)	(1.66357433e-01 1.40459629e+00 -7.82047486e-18)
1.10322924e+02	p              	-6.38763895e-01	(2.87998353e+00 -5.73373142e-01 0.00000000e+00)	5.88911355e-01	(-1.03340804e+00 4.06193375e-02 1.52084025e-17)
1.10322924e+02	U              	(4.12499794e-01 -5.93171407e-01 -5.67524273e-19)	(-9.64179915e-01 -5.39939829e-01 1.23452373e-17)	(1.23691643e+00 2.55759557e-01 3.07003831e-19)	(1.66357433e-01 1.40459629e+00 -7.82047486e-18)
1.10384738e+02	p              	-6.40888956e-01	(3.04392071e+00 -5.86640221e-01 -4.03402637e-17)	5.88832425e-01	(-1.03340804e+00 4.06193375e-02 1.52084025e-17)
1.10384738e+02	U              	(4.12399057e-01 -5.93017968e-01 -5.67025706e-19)	(-9.64179915e-01 -5.39939829e-01 1.23452373e-17)	(1.23806921e+00 2.55123692e-01 3.08385082e-19)	(1.66357433e-01 1.40459629e+00 -7.82047486e-18)
1.10446555e+02	p              	-6.44832766e-01	(3.04392071e+00 -5.86640221e-01 -4.03402637e-17)	5.88585544e-01	(-1.03340804e+00 4.06193375e-02 1.52084025e-17)
1.10446555e+02	U              	(4.12279064e-01 -5.92831216e-01 -5.66482418e-19)	(-9.64179915e-01 -5.39939829e-01 1.23452373e-17)	(1.23929114e+00 2.54477287e-01 3.09787163e-19)	(1.66357433e-01 1.40459629e+00 -7.82047486e-18)
1.10508377e+02	p              	-6.46805188e-01	(3.04392071e+00 -5.86640221e-01 -4.03402637e-17)	5.88574263e-01	(-1.03340804e+00 4.06193375e-02 1.52084025e-17)
1.10508377e+02	U              	(4.12138694e-01 -5.92609443e-01 -5.65892802e-19)	(-9.64179915e-01 -5.39939829e-01 1.23452373e-17)	(1.24614862e+00 2.27830046e-01 2.65715160e-19)	(9.85973000e+00 -2.62662210e+00 -3.47110286e-17)
1.10570205e+02	p              	-6.49071349e-01	(3.04392071e+00 -5.86640221e-01 -4.03402637e-17)	5.88409929e-01	(-1.03340804e+00 4.06193375e-02 1.52084025e-17)
1.10570205e+02	U              	(4.11977583e-01 -5.92351707e-01 -5.65278171e-19)	(-9.64179915e-01 -5.39939829e-01 1.23452373e-17)	(1.25510511e+00 2.21731085e-01 2.76360249e-19)	(9.85973000e+00 -2.62662210e+00 -3.47110286e-17)
1.10632041e+02	p              	-6.50808825e-01	(3.04392071e+00 -5.86640221e-01 -4.03402637e-17)	5.88248457e-01	(-1.03340804e+00 4.06193375e-02 1.52084025e-17)
1.10632041e+02	U              	(4.11796388e-01 -5.92059173e-01 -5.64662923e-19)	(-9.64179915e-01 -5.39939829e-01 1.23452373e-17)	(1.21259637e+00 3.30879911e-01 2.45339558e-19)	(-1.86683358e-01 1.57596711e+00 2.82577808e-17)
1.10693889e+02	p              	-6.52106591e-01	(3.04392071e+00 -5.86640221e-01 -4.03402637e-17)	5.88138684e-01	(-1.03340804e+00 4.06193375e-02 1.52084025e-17)
1.10693889e+02	U              	(4.11595569e-01 -5.91732795e-01 -5.64031744e-19)	(-9.64179915e-01 -5.39939829e-01 1.23452373e-17)	(1.27228217e+00 2.07509747e-01 2.83160610e-19)	(9.85973000e+00 -2.62662210e+00 -3.47110286e-17)
1.10755750e+02	p              	-6.52904345e-01	(3.04392071e+00 -5.86640221e-01 -4.03402637e-17)	5.87879240e-01	(-1.03340804e+00 4.06193375e-02 1.52084025e-17)
1.10755750e+02	U              	(4.11376048e-01 -5.91374058e-01 -5.63398293e-19)	(-9.64179915e-01 -5.39939829e-01 1.23452373e-17)	(1.26399269e+00 3.27148374e-01 2.29876374e-19)	(-5.55685462e-02 1.41263523e+00 1.56671443e-17)
1.10817626e+02	p              	-6.54060606e-01	(3.04392071e+00 -5.86640221e-01 -4.03402637e-17)	5.87578848e-01	(-1.03340804e+00 4.06193375e-02 1.52084025e-17)
1.10817626e+02	U              	(5.02439391e-01 -6.01523812e-01 -4.16143185e-20)	(-1.02819339e+00 -5.75773651e-01 0.00000000e+00)	(1.26515255e+00 3.26659851e-01 2.30750151e-19)	(-5.55685462e-02 1.41263523e+00 1.56671443e-17)
1.10879518e+02	p              	-6.52603232e-01	(3.04392071e+00 -5.86640221e-01 -4.03402637e-17)	5.87421433e-01	(-1.03340804e+00 4.06193375e-02 1.52084025e-17)
1.10879518e+02	U              	(4.10882186e-01 -5.90561921e-01 -5.62055683e-19)	(-9.64179915e-01 -5.39939829e-01 1.23452373e-17)	(1.26636297e+00 3.26171707e-01 2.31649803e-19)	(-5.55685462e-02 1.41263523e+00 1.56671443e-17)