# Field minima and maxima
# Time         	field          	min            	location(min)  	max            	location(max)  
1.06058433e+02	p              	-6.24139350e-01	(3.44418942e+00 5.85804487e-01 7.71131706e-19)	5.62933507e-01	(-1.03340804e+00 -4.06193375e-02 -1.52065714e-17)
1.06058433e+02	U              	(2.55410242e-01 -5.26941296e-01 -3.69319016e-19)	(4.13525402e+00 3.51948704e-01 -2.21585871e-17)	(1.29752571e+00 2.03364562e-01 2.80188231e-19)	(4.81739219e-01 1.70757903e+00 0.00000000e+00)
1.06121336e+02	p              	-6.24298677e-01	(3.44418942e+00 5.85804487e-01 7.71131706e-19)	5.63121326e-01	(-1.03340804e+00 -4.06193375e-02 -1.52065714e-17)
1.06121336e+02	U              	(2.63585884e-01 -5.18621588e-01 -3.66285344e-19)	(4.13525402e+00 3.51948704e-01 -2.21585871e-17)	(1.29722103e+00 3.40167792e-01 2.35721000e-19)	(-5.55685462e-02 1.41263523e+00 1.56671443e-17)
