# Force coefficients
# liftDir      : (0.00000000e+00 1.00000000e+00 0.00000000e+00)
# dragDir      : (1.00000000e+00 0.00000000e+00 0.00000000e+00)
# pitchAxis    : (0.00000000e+00 0.00000000e+00 1.00000000e+00)
# magUInf      : 1.00000000e+00
# lRef         : 1.00000000e+00
# Aref         : 2.00000000e+00
# CofR         : (0.00000000e+00 0.00000000e+00 0.00000000e+00)
# Time         	Cm             	Cd             	Cl             	Cl(f)          	Cl(r)          
0.000498281    	2.64936040e-07	6.32726280e+03	2.56932333e-02	1.28468816e-02	1.28463517e-02
0.00109621     	1.04585749e-06	-4.12953221e+01	9.55403767e-04	4.78747741e-04	4.76656026e-04
0.00181371     	2.08290806e-07	-8.03081882e+02	-1.31288908e-02	-6.56423712e-03	-6.56465370e-03
0.0026747      	8.35769736e-08	-1.16973464e+02	1.21427328e-02	6.07144997e-03	6.07128281e-03
0.00370783     	-1.33718118e-07	8.50208133e+00	-1.37531979e-02	-6.87673268e-03	-6.87646525e-03
0.00494753     	-1.25416092e-07	-4.45276067e+01	7.32833442e-03	3.66404179e-03	3.66429263e-03
0.00643514     	-1.54743540e-07	-3.43579315e+01	5.41207398e-04	2.70448956e-04	2.70758443e-04
0.00822028     	-1.43388922e-07	-1.90006470e+01	-1.63947520e-04	-8.21171489e-05	-8.18303711e-05
0.0103623      	-1.23872116e-07	-1.39209163e+01	-1.13376118e-03	-5.67004464e-04	-5.66756720e-04
0.0129327      	-1.07914531e-07	-1.02863610e+01	-5.11085782e-04	-2.55650805e-04	-2.55434976e-04
0.0160166      	-9.54639370e-08	-7.47420855e+00	-3.01038814e-04	-1.50614871e-04	-1.50423943e-04
0.0197167      	-8.67529471e-08	-5.75208689e+00	-1.87888015e-04	-9.40307607e-05	-9.38572548e-05
0.0241558      	-8.40513601e-08	-4.52263954e+00	-1.19671338e-04	-5.99197206e-05	-5.97516179e-05
0.0294812      	-8.20812922e-08	-3.58538771e+00	-7.44376557e-05	-3.73009091e-05	-3.71367465e-05
0.0358718      	-7.97280243e-08	-2.87205751e+00	-6.82524966e-05	-3.42059763e-05	-3.40465203e-05
0.0435385      	-7.86513895e-08	-2.31574827e+00	-6.04789439e-05	-3.03181233e-05	-3.01608205e-05
0.052735       	-8.08726940e-08	-1.86861258e+00	-5.54475679e-05	-2.78046566e-05	-2.76429113e-05
0.0637678      	-8.10002597e-08	-1.50195445e+00	-3.72890868e-05	-1.87255436e-05	-1.85635431e-05
0.0770057      	-7.74889117e-08	-1.19693322e+00	-3.19315863e-05	-1.60432821e-05	-1.58883042e-05
0.0928806      	-7.37507056e-08	-9.40911662e-01	-2.18454256e-05	-1.09964635e-05	-1.08489621e-05
0.11193        	-7.06490485e-08	-7.25136834e-01	-1.55170627e-05	-7.82918039e-06	-7.68788229e-06
0.134505       	-6.86539201e-08	-5.46128142e-01	-9.36202608e-06	-4.74966696e-06	-4.61235912e-06
0.160609       	-6.65791856e-08	-4.01505801e-01	-8.35440655e-06	-4.24378246e-06	-4.11062409e-06
0.19022        	-6.49209182e-08	-2.87733641e-01	-6.15544608e-06	-3.14264396e-06	-3.01280212e-06
0.223347       	-6.01882316e-08	-2.01420869e-01	-1.91573342e-06	-1.01805494e-06	-8.97678479e-07
0.259045       	-5.43036237e-08	-1.37675737e-01	-1.00661097e-06	-5.57609106e-07	-4.49001859e-07
0.294873       	-4.93582888e-08	-9.25054753e-02	-2.84879173e-06	-1.47375415e-06	-1.37503757e-06
0.330831       	-4.54594629e-08	-6.03109038e-02	-8.49198095e-06	-4.29144994e-06	-4.20053101e-06
0.366921       	-4.50819930e-08	-3.69193958e-02	-7.68499420e-06	-3.88757909e-06	-3.79741511e-06
0.403144       	-4.67065153e-08	-1.98205208e-02	-1.76273999e-06	-9.28076512e-07	-8.34663482e-07
0.439502       	-4.77751796e-08	-7.14523251e-03	4.71869631e-06	2.31157298e-06	2.40712334e-06
0.47586        	-3.53667197e-08	2.48572461e-03	5.25066369e-06	2.58996513e-06	2.66069857e-06
0.51215        	-2.54507411e-08	9.96729905e-03	4.17881372e-06	2.06395612e-06	2.11485760e-06
0.548373       	-3.57831073e-08	1.55233241e-02	4.57942790e-06	2.25393084e-06	2.32549706e-06
0.584596       	-4.58382809e-08	1.95244002e-02	3.45686233e-06	1.68259289e-06	1.77426945e-06
0.620751       	-3.83141237e-08	2.25606665e-02	3.40851342e-06	1.66594259e-06	1.74257084e-06
0.656839       	-1.76386095e-08	2.49999330e-02	3.06601660e-06	1.51536969e-06	1.55064691e-06
0.692927       	-3.46018338e-09	2.69731513e-02	2.70745205e-06	1.35026584e-06	1.35718621e-06
0.728948       	-1.98578166e-09	2.87058582e-02	2.32361298e-06	1.15982071e-06	1.16379227e-06
0.764968       	-5.83483823e-09	3.02021151e-02	8.57124792e-07	4.22727558e-07	4.34397234e-07
0.800989       	-6.71439990e-09	3.16086920e-02	2.25823091e-06	1.12240105e-06	1.13582985e-06
0.836942       	-6.05224305e-09	3.29012862e-02	1.58224497e-06	7.85070244e-07	7.97174730e-07
0.872895       	-5.61724275e-09	3.42529987e-02	5.11952000e-06	2.55414276e-06	2.56537724e-06
0.908849       	-5.85257358e-09	3.55968150e-02	4.17215737e-06	2.08022611e-06	2.09193126e-06
0.944734       	-7.39864380e-09	3.70324490e-02	4.08237180e-06	2.03378726e-06	2.04858454e-06
0.98062        	-8.55364360e-09	3.86693768e-02	5.11614079e-06	2.54951675e-06	2.56662404e-06
1.01651        	-7.94919117e-09	4.04593261e-02	5.59551687e-06	2.78980924e-06	2.80570763e-06
1.05239        	-8.27778194e-09	4.23357460e-02	6.34974972e-06	3.16659708e-06	3.18315264e-06
1.08821        	-9.01750656e-09	4.42674170e-02	6.01945194e-06	3.00070846e-06	3.01874348e-06
1.12403        	-1.09254698e-08	4.61704958e-02	7.33831000e-06	3.65822953e-06	3.68008047e-06
1.15984        	-1.46624711e-08	4.82053767e-02	5.79918994e-06	2.88493250e-06	2.91425744e-06
1.19566        	-2.05503658e-08	5.01637585e-02	5.17448166e-06	2.56669046e-06	2.60779120e-06
1.23148        	-2.90530772e-08	5.22402395e-02	5.05614924e-06	2.49902154e-06	2.55712770e-06
1.2673         	-3.87690621e-08	5.44160060e-02	5.38136601e-06	2.65191394e-06	2.72945207e-06
1.30312        	-4.78071267e-08	5.67447201e-02	5.41170618e-06	2.65804597e-06	2.75366022e-06
1.33893        	-5.53425878e-08	5.91991931e-02	5.37254079e-06	2.63092781e-06	2.74161298e-06
1.37475        	-6.08449768e-08	6.15392082e-02	5.61149324e-06	2.74490164e-06	2.86659160e-06
1.41057        	-6.55216047e-08	6.40951233e-02	6.06939520e-06	2.96917599e-06	3.10021920e-06
1.44639        	-6.77479829e-08	6.67728858e-02	6.07741632e-06	2.97096017e-06	3.10645614e-06
1.4822         	-6.64957720e-08	6.95873783e-02	6.31474404e-06	3.09087625e-06	3.22386779e-06
1.51802        	-6.09791682e-08	7.25359341e-02	6.61750241e-06	3.24777204e-06	3.36973037e-06
1.55384        	-5.45124439e-08	7.55715850e-02	6.74557386e-06	3.31827448e-06	3.42729937e-06
1.58966        	-4.70127750e-08	7.85963464e-02	6.95445714e-06	3.43021580e-06	3.52424135e-06
1.62548        	-3.79639227e-08	8.20684446e-02	7.01542086e-06	3.46974651e-06	3.54567435e-06
1.66129        	-2.95713460e-08	8.60904881e-02	7.30225726e-06	3.62155729e-06	3.68069998e-06
1.69711        	-1.94318621e-08	9.02171497e-02	7.44064765e-06	3.70089196e-06	3.73975569e-06
1.73293        	-6.84684863e-09	9.38700247e-02	7.15580690e-06	3.57105660e-06	3.58475030e-06
1.76875        	3.51844144e-09	9.76065886e-02	8.46830688e-06	4.23767188e-06	4.23063500e-06
1.80456        	1.49355727e-08	1.03516547e-01	7.52484958e-06	3.77736036e-06	3.74748922e-06
1.84045        	3.00714743e-08	1.07716763e-01	7.59669101e-06	3.82841698e-06	3.76827403e-06
1.87634        	4.61748305e-08	1.13437977e-01	7.48152269e-06	3.78693617e-06	3.69458651e-06
1.91223        	4.46328413e-08	1.18978654e-01	9.25232306e-06	4.67079437e-06	4.58152869e-06
1.94812        	2.57767571e-08	1.21380803e-01	8.34666990e-06	4.19911171e-06	4.14755819e-06
1.98401        	4.23019278e-08	1.25665238e-01	8.09130587e-06	4.08795486e-06	4.00335101e-06
2.0199         	3.84579467e-08	1.31380636e-01	8.59581525e-06	4.33636557e-06	4.25944968e-06
2.05586        	-5.49764018e-10	1.37490994e-01	8.28145620e-06	4.14017834e-06	4.14127786e-06
2.09182        	6.04064352e-08	1.43114632e-01	8.82445771e-06	4.47263529e-06	4.35182242e-06
2.12778        	2.07445703e-08	1.48724125e-01	9.25378456e-06	4.64763685e-06	4.60614771e-06
2.16374        	-7.66418797e-09	1.53684150e-01	8.08996219e-06	4.03731691e-06	4.05264528e-06
2.1997         	-8.92549883e-08	1.59852741e-01	8.18756168e-06	4.00452585e-06	4.18303583e-06
2.23573        	3.19312783e-08	1.67507460e-01	9.29125086e-06	4.67755671e-06	4.61369415e-06
2.27176        	9.60744598e-08	1.74969382e-01	8.52846875e-06	4.36030883e-06	4.16815991e-06
2.3078         	-2.32785881e-08	1.80121511e-01	8.93940278e-06	4.44642280e-06	4.49297998e-06
2.34383        	-9.70625037e-09	1.88210103e-01	1.02868267e-05	5.13370708e-06	5.15311958e-06
2.37986        	1.68813319e-08	1.95752403e-01	9.20953674e-06	4.62164970e-06	4.58788704e-06
2.41597        	-4.95043971e-08	2.04449331e-01	9.61104146e-06	4.75601634e-06	4.85502513e-06
2.45208        	-4.80378443e-08	2.11233766e-01	9.80246372e-06	4.85319402e-06	4.94926971e-06
2.48818        	1.04359548e-08	2.19024991e-01	9.49968218e-06	4.76027704e-06	4.73940513e-06
2.52429        	-4.50105895e-08	2.25519724e-01	8.82106201e-06	4.36552041e-06	4.45554159e-06
2.5604         	-8.82561768e-08	2.33692727e-01	8.81333821e-06	4.31841293e-06	4.49492528e-06
2.59658        	-2.75502167e-08	2.41943016e-01	7.59405191e-06	3.76947574e-06	3.82457617e-06
2.63276        	-8.38977388e-08	2.50235801e-01	7.95506839e-06	3.89363645e-06	4.06143193e-06
2.66894        	-1.05236002e-07	2.58658229e-01	6.03518545e-06	2.91235672e-06	3.12282872e-06
2.70512        	-5.85623574e-08	2.66228534e-01	6.15028097e-06	3.01657813e-06	3.13370284e-06
2.7413         	1.47569784e-08	2.76028455e-01	6.18536312e-06	3.10743854e-06	3.07792458e-06
2.77756        	2.02219941e-07	2.81641697e-01	6.03329928e-06	3.21886958e-06	2.81442970e-06
2.81382        	2.10009452e-07	2.90502504e-01	5.14766849e-06	2.78384370e-06	2.36382479e-06
2.85008        	5.94633501e-09	2.99120627e-01	2.59932997e-06	1.30561132e-06	1.29371865e-06
2.88634        	9.24236064e-09	3.09241918e-01	8.12293418e-06	4.07070945e-06	4.05222473e-06
2.92259        	-7.18265293e-08	3.18235344e-01	7.28001256e-06	3.56817975e-06	3.71183281e-06
2.95893        	-3.66540301e-07	3.24842043e-01	5.82838670e-06	2.54765305e-06	3.28073365e-06
2.99526        	-2.84501769e-07	3.33902663e-01	8.15564356e-06	3.79332001e-06	4.36232355e-06
3.0316         	-2.23135146e-08	3.44785219e-01	6.76906144e-06	3.36221721e-06	3.40684424e-06
3.06793        	7.13970384e-09	3.53208659e-01	6.58474980e-06	3.29951460e-06	3.28523519e-06
3.10435        	-1.34946488e-07	3.62315976e-01	2.68432589e-06	1.20721646e-06	1.47710943e-06
3.14076        	-6.09248143e-08	3.70618802e-01	4.59016484e-06	2.23415761e-06	2.35600723e-06
3.17717        	8.51298398e-09	3.82857184e-01	4.52798956e-06	2.27250776e-06	2.25548180e-06
3.21358        	-1.05515645e-08	3.90549851e-01	2.03973036e-06	1.00931361e-06	1.03041674e-06
3.25008        	3.75667252e-09	3.99464461e-01	4.53502682e-06	2.27127008e-06	2.26375674e-06
3.28657        	1.14258679e-08	4.09237125e-01	2.87669033e-06	1.44977103e-06	1.42691930e-06
3.32306        	1.97976804e-08	4.16744633e-01	1.95551565e-06	9.97555503e-07	9.57960142e-07
3.35955        	3.83064347e-08	4.24931272e-01	2.05543243e-06	1.06602265e-06	9.89409779e-07
3.39613        	3.85671752e-08	4.31770951e-01	4.57507095e-06	2.32610265e-06	2.24896830e-06
3.4327         	3.63291098e-08	4.39696118e-01	7.45083991e-07	4.08871106e-07	3.36212886e-07
3.46927        	4.45720326e-08	4.47319006e-01	-3.67685021e-06	-1.79385307e-06	-1.88299714e-06
3.50592        	2.78343943e-08	4.55138246e-01	-7.56080078e-06	-3.75256600e-06	-3.80823478e-06
3.54258        	4.47484917e-08	4.63096058e-01	-1.01362869e-05	-5.02339494e-06	-5.11289192e-06
3.57923        	4.71400517e-08	4.72750417e-01	-6.87117228e-06	-3.38844609e-06	-3.48272619e-06
3.61588        	3.14237351e-08	4.80363956e-01	-2.26942824e-06	-1.10329038e-06	-1.16613785e-06
3.65262        	3.56303205e-08	4.79810228e-01	3.34620937e-07	2.02940789e-07	1.31680148e-07
3.68936        	3.75396100e-08	4.83148145e-01	-2.01369657e-05	-1.00309432e-05	-1.01060225e-05
3.72609        	2.83367169e-08	4.90487373e-01	1.04273447e-06	5.49703952e-07	4.93030518e-07
3.76291        	2.29858623e-08	4.95898718e-01	1.58992936e-06	8.17950543e-07	7.71978818e-07
3.79973        	1.91589941e-08	5.00521910e-01	-4.96422644e-06	-2.46295423e-06	-2.50127221e-06
3.83655        	1.51972598e-08	5.02997643e-01	-2.60853071e-06	-1.28906809e-06	-1.31946261e-06
3.87337        	1.29666317e-08	5.05889483e-01	-4.79383522e-06	-2.38395098e-06	-2.40988424e-06
3.91027        	1.10746727e-08	5.08811574e-01	-5.75664359e-06	-2.86724712e-06	-2.88939647e-06
3.94717        	6.52299785e-09	5.11664498e-01	-6.83173990e-06	-3.40934695e-06	-3.42239295e-06
3.98408        	1.70903476e-09	5.15509539e-01	-9.01711387e-06	-4.50684790e-06	-4.51026597e-06
4.02106        	-1.72629135e-09	5.13064941e-01	-6.03963070e-06	-3.02154164e-06	-3.01808906e-06
4.05805        	-5.71643109e-09	5.09796800e-01	-1.06056588e-05	-5.30854581e-06	-5.29711294e-06
4.09504        	-6.10194915e-09	5.09365758e-01	-9.75395886e-06	-4.88308138e-06	-4.87087748e-06
4.13203        	-4.59560744e-09	5.08656474e-01	-1.38105176e-05	-6.90985439e-06	-6.90066318e-06
4.1691         	-2.33444854e-09	5.09070965e-01	-1.10516749e-05	-5.52817188e-06	-5.52350299e-06
4.20618        	3.48825573e-09	5.10360728e-01	-1.19887765e-05	-5.99090001e-06	-5.99787652e-06
4.24325        	9.12150951e-09	5.06725894e-01	-1.24128806e-05	-6.19731878e-06	-6.21556180e-06
4.28042        	1.38379648e-08	5.05546478e-01	-9.74941497e-06	-4.86086952e-06	-4.88854545e-06
4.31758        	1.93004699e-08	5.05335439e-01	-1.23294396e-05	-6.14541935e-06	-6.18402029e-06
4.35474        	2.24305457e-08	5.03206910e-01	-1.80767159e-05	-9.01592742e-06	-9.06078852e-06
4.3919         	2.64760077e-08	4.97533986e-01	1.08805940e-05	5.46677301e-06	5.41382100e-06
4.42915        	2.99349489e-08	4.93523384e-01	-2.58080662e-05	-1.28740981e-05	-1.29339680e-05
4.4664         	3.35841385e-08	4.90197967e-01	-1.57749599e-05	-7.85389583e-06	-7.92106410e-06
4.50365        	3.54476259e-08	4.87540549e-01	-1.76974707e-05	-8.81328773e-06	-8.88418298e-06
4.54091        	3.58774096e-08	4.83244304e-01	-1.20702414e-05	-5.99924329e-06	-6.07099811e-06
4.57816        	3.56982508e-08	4.78865377e-01	-2.25409856e-05	-1.12347946e-05	-1.13061911e-05
4.61541        	3.37569391e-08	4.75303296e-01	-1.59537822e-05	-7.94313415e-06	-8.01064803e-06
4.65266        	3.08847843e-08	4.70379457e-01	-2.51282753e-05	-1.25332528e-05	-1.25950224e-05
4.69           	2.89336275e-08	4.67725622e-01	-1.95696467e-05	-9.75588971e-06	-9.81375696e-06
4.72734        	2.70354278e-08	4.63616699e-01	-1.97874792e-05	-9.86670419e-06	-9.92077504e-06
4.76468        	2.48896972e-08	4.61594628e-01	-1.83208204e-05	-9.13552052e-06	-9.18529991e-06
4.80202        	2.35685546e-08	4.56700848e-01	-1.84268213e-05	-9.18984212e-06	-9.23697923e-06
4.83946        	2.12642875e-08	4.53355251e-01	-2.44850468e-05	-1.22212591e-05	-1.22637877e-05
4.87689        	1.84926314e-08	4.50789984e-01	-2.41748378e-05	-1.20689263e-05	-1.21059115e-05
4.91432        	1.51941745e-08	4.47843712e-01	-2.30333654e-05	-1.15014885e-05	-1.15318769e-05
4.95176        	1.18337746e-08	4.44323410e-01	-2.18720721e-05	-1.09242023e-05	-1.09478698e-05
4.98919        	8.78629659e-09	4.41836978e-01	-2.49586469e-05	-1.24705371e-05	-1.24881097e-05
5.02672        	5.97406243e-09	4.39556030e-01	-2.31780201e-05	-1.15830360e-05	-1.15949841e-05
5.06425        	4.28891012e-09	4.38008012e-01	-3.23280346e-05	-1.61597284e-05	-1.61683062e-05
5.10177        	5.56493089e-10	4.37813228e-01	-3.59223368e-05	-1.79606119e-05	-1.79617249e-05
5.1393         	-5.76428599e-09	4.36491921e-01	-3.28002649e-05	-1.64058967e-05	-1.63943682e-05
5.17683        	-1.69682315e-08	4.36787894e-01	-3.99346046e-05	-1.99842705e-05	-1.99503341e-05
5.21435        	-2.98323915e-08	4.36834269e-01	-3.81922367e-05	-1.91259507e-05	-1.90662859e-05
5.25198        	-4.04061629e-08	4.37022164e-01	-4.12938379e-05	-2.06873251e-05	-2.06065128e-05
5.2896         	-5.05473873e-08	4.36827182e-01	-4.27474808e-05	-2.14242878e-05	-2.13231930e-05
5.32722        	-5.38174759e-08	4.36896861e-01	-5.04559399e-05	-2.52817874e-05	-2.51741525e-05
5.36484        	-4.80505573e-08	4.35826114e-01	-4.74684174e-05	-2.37822593e-05	-2.36861582e-05
5.40247        	-3.35164603e-08	4.36276938e-01	-5.71702181e-05	-2.86186255e-05	-2.85515926e-05
5.44009        	-7.38012311e-09	4.36147516e-01	-5.65084127e-05	-2.82615865e-05	-2.82468262e-05
5.47781        	2.91999479e-08	4.36265843e-01	-3.03345545e-05	-1.51380773e-05	-1.51964772e-05
5.51553        	6.73249928e-08	4.39074825e-01	-4.89050919e-06	-2.37792960e-06	-2.51257959e-06
5.55325        	1.02389207e-07	4.40264161e-01	-6.74867412e-05	-3.36409814e-05	-3.38457598e-05
5.59097        	1.23098607e-07	4.40910298e-01	-5.73812211e-05	-2.85675119e-05	-2.88137091e-05
5.62869        	1.38867126e-07	4.42089264e-01	-5.84921946e-05	-2.91072302e-05	-2.93849644e-05
5.66641        	1.51434731e-07	4.43489527e-01	-5.80506173e-05	-2.88738739e-05	-2.91767434e-05
5.70413        	1.59547155e-07	4.44621273e-01	-6.01839313e-05	-2.99324185e-05	-3.02515128e-05
5.74195        	1.62053156e-07	4.45656536e-01	-6.77772970e-05	-3.37265953e-05	-3.40507017e-05
5.77977        	1.60824125e-07	4.47027274e-01	-5.91894802e-05	-2.94339160e-05	-2.97555642e-05
5.81759        	1.57082239e-07	4.48810430e-01	-5.87484545e-05	-2.92171450e-05	-2.95313095e-05
5.85541        	1.52192870e-07	4.50158458e-01	-7.57811001e-05	-3.77383572e-05	-3.80427429e-05
5.89323        	1.47818248e-07	4.50638517e-01	-8.73825289e-05	-4.35434462e-05	-4.38390827e-05
5.93105        	1.43767704e-07	4.51613559e-01	-6.94819269e-05	-3.45971957e-05	-3.48847311e-05
5.96897        	1.37971326e-07	4.52953882e-01	-8.18421161e-05	-4.07830867e-05	-4.10590294e-05
6.00689        	1.29006453e-07	4.53298121e-01	-8.60193231e-05	-4.28806551e-05	-4.31386680e-05
6.04481        	1.17713903e-07	4.53737504e-01	-8.65413417e-05	-4.31529569e-05	-4.33883847e-05
6.08273        	1.00328401e-07	4.54015855e-01	-8.68493781e-05	-4.33243607e-05	-4.35250175e-05
6.12066        	7.82999467e-08	4.54424059e-01	-9.05668466e-05	-4.52051233e-05	-4.53617232e-05
6.15858        	5.97785931e-08	4.54372361e-01	-9.41955205e-05	-4.70379817e-05	-4.71575388e-05
6.1966         	4.62537144e-08	4.54146832e-01	-9.72540793e-05	-4.85807860e-05	-4.86732934e-05
6.23463        	3.91095973e-08	4.53957155e-01	-1.00693523e-04	-5.03076521e-05	-5.03858713e-05
6.27265        	3.52396709e-08	4.53042064e-01	-8.27512409e-05	-4.13403808e-05	-4.14108601e-05
6.31068        	3.11733841e-08	4.51927239e-01	-9.24281036e-05	-4.61828784e-05	-4.62452252e-05
6.34871        	2.82725947e-08	4.51483302e-01	-9.99344821e-05	-4.99389684e-05	-4.99955136e-05
6.38673        	2.70711013e-08	4.50615757e-01	-9.47053540e-05	-4.73256059e-05	-4.73797481e-05
6.42486        	2.05691661e-08	4.49364615e-01	-9.67721919e-05	-4.83655268e-05	-4.84066651e-05
6.463          	2.25122127e-08	4.47919910e-01	-9.26816449e-05	-4.63183102e-05	-4.63633347e-05
6.50113        	8.33585593e-09	4.45698242e-01	-9.06317373e-05	-4.53075328e-05	-4.53242045e-05
6.53926        	8.46326978e-09	4.44624753e-01	-9.02628928e-05	-4.51229831e-05	-4.51399097e-05
6.57739        	1.38697785e-08	4.43019745e-01	-8.84838553e-05	-4.42280579e-05	-4.42557974e-05
6.61553        	4.06700870e-09	4.41007607e-01	-8.55630795e-05	-4.27774727e-05	-4.27856068e-05
6.65366        	1.18649060e-08	4.38849371e-01	-8.05262015e-05	-4.02512359e-05	-4.02749657e-05
6.69179        	-3.42460977e-09	4.36596717e-01	-8.00336219e-05	-4.00202356e-05	-4.00133864e-05
6.73003        	-2.81297719e-09	4.34324907e-01	-8.30438426e-05	-4.15247343e-05	-4.15191083e-05
6.76828        	-1.36338446e-08	4.31805931e-01	-7.84805410e-05	-3.92539043e-05	-3.92266366e-05
6.80652        	-1.76816714e-08	4.28936235e-01	-8.15425675e-05	-4.07889654e-05	-4.07536021e-05
6.84476        	-2.50499807e-08	4.26479776e-01	-5.76289530e-05	-2.88395265e-05	-2.87894265e-05
6.883          	-4.22840301e-08	4.23595094e-01	-6.74035870e-05	-3.37440776e-05	-3.36595095e-05
6.92124        	-4.16302681e-08	4.21183660e-01	-2.58031880e-05	-1.29432243e-05	-1.28599637e-05
6.95949        	-6.89439426e-08	4.17887896e-01	-7.64478555e-05	-3.82928717e-05	-3.81549838e-05
6.99773        	-5.64813073e-08	4.14782942e-01	-6.06952917e-05	-3.04041272e-05	-3.02911646e-05
7.03597        	-9.90107104e-08	4.12242603e-01	-5.22645305e-05	-2.62312759e-05	-2.60332545e-05
7.07432        	-4.11565358e-08	4.09801629e-01	-5.02911242e-05	-2.51867186e-05	-2.51044056e-05
7.11268        	-7.34826359e-08	4.07309867e-01	-6.19002995e-05	-3.10236324e-05	-3.08766671e-05
7.15103        	2.05426840e-07	4.05070416e-01	-4.70480972e-05	-2.33186218e-05	-2.37294755e-05
7.18939        	-1.69450576e-07	4.02770286e-01	-5.04559330e-05	-2.53974171e-05	-2.50585159e-05
7.22774        	-2.74375139e-07	4.00503197e-01	-5.35136753e-05	-2.70312128e-05	-2.64824625e-05
7.2661         	-1.89826764e-07	3.98033058e-01	-5.40274565e-05	-2.72035550e-05	-2.68239015e-05
7.30446        	-1.04764844e-07	3.96499684e-01	-5.59323293e-05	-2.80709295e-05	-2.78613998e-05
7.34281        	3.75915335e-07	3.95463975e-01	-5.74844800e-05	-2.83663246e-05	-2.91181553e-05
7.38117        	7.11039921e-08	3.93950399e-01	-5.93789392e-05	-2.96183656e-05	-2.97605736e-05
7.41952        	-7.07071820e-07	3.92662182e-01	-7.49357370e-05	-3.81749403e-05	-3.67607967e-05
7.45799        	-1.68090394e-07	3.91684959e-01	-5.62062084e-05	-2.82711946e-05	-2.79350138e-05
7.49647        	-1.81717755e-07	3.90233123e-01	-6.79126913e-05	-3.41380634e-05	-3.37746279e-05
7.53494        	-2.19346513e-06	3.89507696e-01	-7.09609837e-05	-3.76739570e-05	-3.32870267e-05
7.57341        	-7.05233835e-07	3.88905756e-01	-6.86969915e-05	-3.50537296e-05	-3.36432619e-05
7.61188        	8.10567270e-07	3.88472844e-01	-6.50146420e-05	-3.16967537e-05	-3.33178883e-05
7.65035        	-6.13877178e-07	3.88235951e-01	-6.79324050e-05	-3.45800797e-05	-3.33523253e-05
7.68883        	-1.04047135e-06	3.88199334e-01	-7.02541832e-05	-3.61675629e-05	-3.40866202e-05
7.7273         	-1.59038618e-07	3.88337252e-01	-7.04582968e-05	-3.53881870e-05	-3.50701098e-05
7.76577        	-2.00614977e-06	3.88156549e-01	-8.11249470e-05	-4.25686233e-05	-3.85563238e-05
7.80424        	1.30515917e-06	3.88633324e-01	-5.74594078e-05	-2.74245448e-05	-3.00348631e-05
7.84272        	-3.58814599e-07	3.89191410e-01	-6.54810226e-05	-3.30993259e-05	-3.23816967e-05
7.88131        	-4.51782895e-07	3.90043002e-01	-6.66608325e-05	-3.37821991e-05	-3.28786334e-05
7.91991        	-5.07046461e-07	3.91154219e-01	-6.72907680e-05	-3.41524305e-05	-3.31383375e-05
7.9585         	-2.15446240e-07	3.92025346e-01	-8.88225873e-05	-4.46267399e-05	-4.41958474e-05
7.9971         	-2.59087389e-07	3.92079855e-01	-5.38023176e-05	-2.71602462e-05	-2.66420714e-05
8.03569        	-1.75852663e-07	3.93081965e-01	-6.43978315e-05	-3.23747684e-05	-3.20230631e-05
8.07428        	5.94641977e-07	3.95263060e-01	-5.92483005e-05	-2.90295083e-05	-3.02187922e-05
8.11288        	-5.53282181e-07	3.97878762e-01	-4.26587776e-05	-2.18826710e-05	-2.07761066e-05
8.15147        	-2.58215766e-07	3.99483513e-01	-6.80427388e-05	-3.42795852e-05	-3.37631536e-05
8.19007        	-2.89039810e-07	4.01427726e-01	-5.73090349e-05	-2.89435573e-05	-2.83654777e-05
8.22866        	-7.32648452e-07	4.03415885e-01	-6.41138149e-05	-3.27895559e-05	-3.13242590e-05
8.26726        	3.36435782e-07	4.05424068e-01	-6.09543114e-05	-3.01407199e-05	-3.08135915e-05
8.30598        	-1.25979379e-06	4.07410954e-01	-4.31417961e-05	-2.28306918e-05	-2.03111042e-05
8.3447         	-3.92538146e-07	4.09350524e-01	-7.05633245e-05	-3.56742004e-05	-3.48891241e-05
8.38342        	6.38793306e-07	4.11230553e-01	-5.33852356e-05	-2.60538245e-05	-2.73314111e-05
8.42214        	-9.33849977e-08	4.13126769e-01	-4.97181298e-05	-2.49524499e-05	-2.47656799e-05
8.46087        	-1.14132742e-08	4.14825801e-01	-4.42752583e-05	-2.21490424e-05	-2.21262159e-05
8.49959        	-4.39575057e-08	4.16514563e-01	-4.24747793e-05	-2.12813472e-05	-2.11934321e-05
8.53831        	-2.23969890e-08	4.19100198e-01	-6.96773894e-05	-3.48610917e-05	-3.48162977e-05
8.57703        	2.02291460e-07	4.20620830e-01	-4.95406210e-05	-2.45680190e-05	-2.49726019e-05
8.61575        	-1.83534554e-07	4.22835168e-01	-4.74660595e-05	-2.39165643e-05	-2.35494952e-05
8.65461        	-1.38169953e-07	4.23449985e-01	-5.04524213e-05	-2.53643806e-05	-2.50880407e-05
8.69346        	8.68760296e-09	4.24610113e-01	-3.02691587e-05	-1.51258917e-05	-1.51432669e-05
8.73232        	5.02526866e-08	4.25945551e-01	-2.53435148e-05	-1.26215047e-05	-1.27220101e-05
8.77117        	7.97429380e-07	4.26647794e-01	-1.95099856e-05	-8.95756343e-06	-1.05524222e-05
8.81002        	1.02437194e-07	4.27617209e-01	-3.09040328e-05	-1.53495792e-05	-1.55544536e-05
8.84888        	-3.58187432e-07	4.27960031e-01	-3.28853186e-05	-1.68008468e-05	-1.60844719e-05
8.88773        	-1.13159101e-07	4.27815100e-01	-2.09235854e-05	-1.05749518e-05	-1.03486336e-05
8.92659        	-1.79841896e-07	4.27468436e-01	-1.76378887e-05	-8.99878623e-06	-8.63910244e-06
8.96544        	-1.23535627e-07	4.28154314e-01	-1.81664041e-05	-9.20673765e-06	-8.95966640e-06
9.0043         	-3.95190811e-07	4.27957116e-01	-1.51870462e-05	-7.98871391e-06	-7.19833229e-06
9.04329        	2.29247384e-07	4.27497422e-01	-1.40368373e-05	-6.78917126e-06	-7.24766603e-06
9.08228        	-8.13154420e-07	4.26839022e-01	-4.24696062e-06	-2.93663473e-06	-1.31032589e-06
9.12127        	5.37720989e-07	4.25647820e-01	7.27880506e-06	4.17712352e-06	3.10168154e-06
9.16026        	-3.49146225e-07	4.24362329e-01	-1.67494237e-06	-1.18661741e-06	-4.88324961e-07
9.19925        	2.64415681e-08	4.22944426e-01	1.94987799e-06	1.00138056e-06	9.48497426e-07
9.23825        	-3.96856850e-07	4.21139166e-01	2.19071650e-05	1.05567257e-05	1.13504394e-05
9.27724        	3.85968435e-07	4.19395562e-01	4.02830186e-06	2.40011936e-06	1.62818249e-06
9.31623        	-5.88688934e-07	4.17501908e-01	1.23871126e-05	5.60486737e-06	6.78224524e-06
9.35522        	4.16743915e-07	4.15442161e-01	2.31576936e-05	1.19955907e-05	1.11621029e-05
9.39421        	-4.46696717e-07	4.13217264e-01	2.71989071e-05	1.31527568e-05	1.40461503e-05
9.43321        	2.77505338e-07	4.10804598e-01	2.47420363e-05	1.26485235e-05	1.20935128e-05
9.4722         	-5.08715746e-07	4.07848686e-01	3.39672977e-05	1.64749331e-05	1.74923646e-05
9.51119        	3.60064296e-07	4.05092597e-01	4.87631072e-05	2.47416179e-05	2.40214893e-05
9.55033        	-5.47019931e-07	4.02331165e-01	5.08162731e-05	2.48611166e-05	2.59551565e-05
9.58946        	3.39810470e-07	3.99462512e-01	5.81409081e-05	2.94102645e-05	2.87306436e-05
9.6286         	-5.38282264e-07	3.96659400e-01	6.12169249e-05	3.00701802e-05	3.11467447e-05
9.66774        	3.62716280e-07	3.93561996e-01	6.40707743e-05	3.23981035e-05	3.16726709e-05
9.70688        	-5.33508522e-07	3.90609073e-01	7.15075538e-05	3.52202684e-05	3.62872854e-05
9.74601        	3.84361815e-07	3.87944651e-01	8.17590636e-05	4.12638936e-05	4.04951700e-05
9.78515        	-5.29815983e-07	3.84571178e-01	8.55174756e-05	4.22289218e-05	4.32885538e-05
9.82429        	3.99411266e-07	3.81402991e-01	9.17539185e-05	4.62763705e-05	4.54775480e-05
9.86343        	-5.29975905e-07	3.78680434e-01	1.05685364e-04	5.23127062e-05	5.33726580e-05
9.90256        	4.13304642e-07	3.76067264e-01	1.06912375e-04	5.38694923e-05	5.30428830e-05
9.9417         	-5.37453454e-07	3.73530980e-01	1.24544595e-04	6.17348441e-05	6.28097510e-05
9.98084        	4.26107151e-07	3.71070514e-01	1.24633476e-04	6.27428452e-05	6.18906309e-05
10.02          	-5.38308622e-07	3.68749316e-01	1.30854140e-04	6.48887615e-05	6.59653787e-05
10.0591        	4.33960830e-07	3.66545775e-01	1.37958171e-04	6.94130462e-05	6.85451245e-05
10.0982        	-5.41535998e-07	3.64478167e-01	1.56428030e-04	7.76724789e-05	7.87555509e-05
10.1374        	4.42338023e-07	3.62440802e-01	1.30679472e-04	6.57820738e-05	6.48973977e-05
10.1767        	-5.41423498e-07	3.61156722e-01	1.44398294e-04	7.16577236e-05	7.27405706e-05
10.216         	4.53541514e-07	3.59661319e-01	1.49454016e-04	7.51805497e-05	7.42734666e-05
10.2553        	-5.47829284e-07	3.58291478e-01	1.43874093e-04	7.13892172e-05	7.24848758e-05
10.2946        	4.77967941e-07	3.57186230e-01	1.83971066e-04	9.24635009e-05	9.15075650e-05
10.3339        	-5.28405403e-07	3.56239375e-01	1.73936510e-04	8.64398494e-05	8.74966602e-05
10.3731        	4.91835157e-07	3.55428195e-01	1.68090475e-04	8.45370725e-05	8.35534021e-05
10.4124        	-5.01609073e-07	3.54782515e-01	1.72521572e-04	8.57591770e-05	8.67623951e-05
10.4517        	5.14123325e-07	3.54299604e-01	1.79931197e-04	9.04797216e-05	8.94514750e-05
10.491         	-4.76330207e-07	3.53985745e-01	1.83402500e-04	9.12249198e-05	9.21775802e-05
10.5303        	5.35845609e-07	3.53826250e-01	1.91890295e-04	9.64809933e-05	9.54093020e-05
10.5696        	-4.53438695e-07	3.53816534e-01	1.93144665e-04	9.61188937e-05	9.70257711e-05
10.6089        	5.53035193e-07	3.53956055e-01	2.00004478e-04	1.00555274e-04	9.94492037e-05
10.6482        	-4.34984991e-07	3.54228476e-01	2.16769066e-04	1.07949548e-04	1.08819518e-04
10.6875        	5.73826375e-07	3.54652395e-01	2.21574164e-04	1.11360908e-04	1.10213256e-04
10.7268        	-4.37357602e-07	3.55150318e-01	2.22704215e-04	1.10914750e-04	1.11789465e-04
10.7661        	5.77597554e-07	3.55721289e-01	2.70442769e-04	1.35798982e-04	1.34643787e-04
10.8054        	-3.92632727e-07	3.56427493e-01	2.20735738e-04	1.09975236e-04	1.10760502e-04
10.8447        	5.90116935e-07	3.57315577e-01	2.45268721e-04	1.23224477e-04	1.22044243e-04
10.884         	-4.18827852e-07	3.58151154e-01	2.57388555e-04	1.28275449e-04	1.29113105e-04
10.9233        	5.87408009e-07	3.59098445e-01	2.68703005e-04	1.34938910e-04	1.33764094e-04
10.9627        	-4.14841588e-07	3.60040567e-01	2.74039197e-04	1.36604757e-04	1.37434440e-04
11.0022        	5.66732033e-07	3.61064719e-01	2.83349039e-04	1.42241251e-04	1.41107787e-04
11.0416        	-4.29528565e-07	3.62088902e-01	2.87089064e-04	1.43115003e-04	1.43974060e-04
11.0811        	5.40962592e-07	3.63110310e-01	2.97236455e-04	1.49159190e-04	1.48077265e-04
11.1206        	-4.76585139e-07	3.64163638e-01	3.01595689e-04	1.50321260e-04	1.51274430e-04
11.16          	4.94938464e-07	3.65188911e-01	3.07498981e-04	1.54244429e-04	1.53254552e-04