/*--------------------------------*- C++ -*----------------------------------*\
| =========                 |                                                 |
| \\      /  F ield         | OpenFOAM: The Open Source CFD Toolbox           |
|  \\    /   O peration     | Version:  5.0                                   |
|   \\  /    A nd           | Web:      www.OpenFOAM.org                      |
|    \\/     M anipulation  |                                                 |
\*---------------------------------------------------------------------------*/
FoamFile
{
    version     2.0;
    format      ascii;
    class       volScalarField;
    location    "360";
    object      p;
}
// * * * * * * * * * * * * * * * * * * * * * * * * * * * * * * * * * * * * * //

dimensions      [0 2 -2 0 0 0 0];

internalField   nonuniform List<scalar> 
9200
(
0.00095448273
0.00096806403
0.0024611062
0.00097679757
0.0024930706
0.0040980827
0.00099824756
0.0025243175
0.0041467352
0.0055771007
0.0010154784
0.0025842965
0.0042016963
0.0056395322
0.0070332017
0.0010320886
0.0026504337
0.0042963855
0.0057158891
0.0071084467
0.008388025
0.0010378795
0.0027297128
0.0044044774
0.005841567
0.0072045466
0.0084736966
0.0096613289
0.0010291829
0.0028099279
0.0045308315
0.0059902552
0.007359168
0.0085859181
0.009755468
0.010846928
0.0010084196
0.0028801279
0.0046642896
0.0061675848
0.0075460186
0.0087632903
0.0098805966
0.010947779
0.011950249
0.000954908
0.0029107267
0.0048015689
0.0063682708
0.0077718625
0.008979015
0.010074747
0.011083226
0.012056681
0.012974073
0.00080059753
0.002890461
0.0049262411
0.0065930357
0.008036
0.0092393611
0.010309563
0.011289768
0.012201088
0.013085117
0.013922473
0.00049804559
0.002882479
0.0050215642
0.0068360982
0.0083415429
0.0095445758
0.010588122
0.011537483
0.012418326
0.013237449
0.014037201
0.014799408
4.7828328e-05
0.0028334321
0.0050979064
0.0071192252
0.0086991629
0.0098992461
0.010907148
0.011825599
0.012678974
0.013464575
0.014196471
0.01491686
0.015608998
-0.0005450437
0.0026372149
0.0051290642
0.0074378708
0.0091223976
0.010312642
0.011267417
0.012147354
0.012978737
0.013737576
0.014431916
0.015082262
0.015728112
0.016355387
-0.0012982855
0.0022340866
0.0050652516
0.0077672958
0.0096143718
0.010800477
0.011679237
0.012497556
0.01330857
0.014047287
0.014715569
0.015325311
0.015898909
0.016474912
0.017042825
-0.002219558
0.001586349
0.0048567479
0.0080932409
0.010194538
0.011374074
0.012154059
0.012880363
0.013658782
0.014381021
0.015034455
0.015619565
0.016149177
0.016649863
0.017161308
0.017675684
-0.0033517704
0.00061791545
0.0044489858
0.0083929799
0.010879502
0.012061571
0.012698943
0.01325988
0.014010026
0.014719971
0.015376027
0.01595253
0.016454873
0.016905625
0.017338634
0.017791496
0.018258392
-0.0049873264
-0.0006960188
0.0037914957
0.0086344853
0.011685996
0.012890199
0.013336331
0.013680523
0.014311588
0.015039646
0.015719762
0.016312589
0.016805065
0.01722265
0.017597338
0.017969024
0.018369821
0.018795335
-0.0072737978
-0.0023983179
0.0028446798
0.0087855081
0.012633365
0.013889534
0.014085458
0.014146486
0.014570785
0.015334658
0.016039217
0.016679178
0.017190802
0.017589886
0.017922614
0.018227285
0.018545164
0.018900687
0.019290857
-0.0092611335
-0.0047215856
0.0015735696
0.0088091482
0.013725608
0.015091605
0.01497853
0.014650465
0.014787614
0.015551989
0.016335968
0.017034362
0.017594456
0.018003776
0.018304484
0.01855627
0.018799127
0.01907135
0.019388479
0.019749253
-0.012420977
-0.0082986802
-4.921753e-05
0.0086044788
0.014962247
0.016521963
0.016043944
0.015199746
0.014955226
0.015644221
0.016568032
0.017377372
0.018014293
0.018452874
0.01874256
0.018946863
0.01912669
0.019317024
0.019551949
0.019837551
0.020174553
-0.015940841
-0.012213945
-0.0020624734
0.0080461251
0.016327964
0.018171768
0.01729383
0.015802703
0.01503955
0.015581237
0.016679435
0.017669694
0.018440711
0.018940067
0.019230462
0.019400615
0.019518797
0.019637814
0.019785437
0.019991479
0.020252156
0.020570407
-0.01821424
-0.016158878
-0.004876226
0.0068944059
0.017784926
0.020013391
0.018732008
0.016464279
0.014997725
0.015317858
0.016615055
0.01787754
0.018847949
0.019453738
0.019769716
0.019914231
0.019979322
0.020024276
0.020094285
0.020209195
0.020394415
0.020636186
0.020940418
-0.019569497
-0.020604441
-0.0091827638
0.0046752726
0.019369691
0.022092465
0.020351949
0.017182421
0.014786156
0.014771883
0.016309186
0.017954883
0.019217982
0.01998991
0.020358715
0.020490809
0.020505707
0.020481842
0.020468444
0.020501275
0.02059306
0.020764592
0.020993204
0.021288258
-0.020735234
-0.025502093
-0.014436365
0.0020450577
0.021093744
0.024416021
0.022113572
0.017944375
0.014372681
0.0138451
0.015675011
0.017846315
0.019525569
0.020542522
0.021002527
0.021133382
0.021101576
0.021007902
0.020914475
0.020856894
0.020863921
0.020940791
0.021105605
0.02132716
0.021617001
-0.021861201
-0.030611443
-0.019759543
-0.00042242909
0.022704425
0.026918393
0.023933657
0.018733899
0.013687866
0.012444187
0.014598976
0.01749421
0.019746935
0.021109026
0.021705972
0.021848414
0.021769917
0.021605072
0.021429103
0.021284053
0.021195471
0.02118636
0.021256288
0.0214222
0.021642045
0.021928985
-0.022910784
-0.035408335
-0.024810114
-0.0027367414
0.023586539
0.02955894
0.025703198
0.019498313
0.01262359
0.010369615
0.012940269
0.016826119
0.01984244
0.02169038
0.022479398
0.02264604
0.022516861
0.022274489
0.022013333
0.021778696
0.021597482
0.021489377
0.021473441
0.021545862
0.02171868
0.021939956
0.022226751
-0.023837369
-0.039724121
-0.029503657
-0.0050664477
0.023660439
0.031995756
0.027207112
0.020119768
0.011026189
0.0073769609
0.010517212
0.01572776
0.019760157
0.022273778
0.023328129
0.023537712
0.023350771
0.023019188
0.022665744
0.022340426
0.02206581
0.021861722
0.021743634
0.021732255
0.021814199
0.021996522
0.022222475
0.022512662
-0.024591923
-0.043732886
-0.033825901
-0.0074201666
0.023276374
0.033993565
0.028210615
0.020463413
0.0087619505
0.0032445167
0.0071940652
0.014044683
0.019409936
0.022832785
0.024257539
0.02453263
0.024280541
0.023842919
0.023384729
0.022965145
0.022599378
0.022298835
0.022081341
0.021966407
0.021965373
0.022060266
0.022257278
0.022492328
0.022788369
-0.025169131
-0.047590688
-0.037713506
-0.0097841362
0.022335129
0.034976628
0.028527777
0.020456158
0.0058538411
-0.0021063961
0.0029648161
0.011576676
0.018652352
0.02332743
0.025266935
0.025639976
0.025313033
0.024748107
0.024166457
0.02364531
0.023191453
0.022800599
0.022483543
0.022260156
0.022157807
0.022170956
0.022285814
0.022504751
0.022752193
0.023055443
-0.025405094
-0.051416369
-0.041098091
-0.01208221
0.020905633
0.034532068
0.028064275
0.020001749
0.0023646801
-0.0086821919
-0.0025061619
0.008072027
0.017322719
0.023698749
0.026342289
0.02686052
0.026452326
0.025733386
0.025004616
0.024369926
0.023829616
0.023359153
0.022951106
0.02262315
0.022407591
0.022318689
0.022353686
0.02249856
0.022742604
0.023004073
0.023315474
-0.025282292
-0.054322515
-0.043904495
-0.014272372
0.019054471
0.032845188
0.026747128
0.019030078
-0.0019029738
-0.01692874
-0.0099852617
0.003363502
0.01508333
0.023862087
0.027450814
0.028181576
0.027691933
0.026795362
0.025889
0.025122809
0.02449687
0.023959467
0.02347751
0.023054834
0.022725186
0.02252494
0.02245542
0.022525562
0.022702999
0.022972512
0.023249487
0.023569809
-0.024660349
-0.056420623
-0.04626158
-0.016372527
0.01681539
0.030468794
0.024736797
0.017576026
-0.007000208
-0.027471369
-0.020133814
-0.0028314831
0.01178832
0.023559119
0.028527523
0.029569494
0.029009548
0.027921005
0.026804478
0.025883286
0.025168408
0.024580852
0.024047923
0.023550585
0.023116116
0.02279364
0.022610901
0.022575197
0.022687003
0.022897788
0.023195594
0.023489695
0.023819346
-0.02346988
-0.056558113
-0.048155044
-0.018899573
0.014174627
0.027531566
0.022339845
0.015451222
-0.012742673
-0.038536208
-0.032196086
-0.01113116
0.0073000335
0.022569558
0.029461559
0.030952157
0.030355323
0.02908286
0.02772765
0.026622875
0.025811907
0.025191909
0.02464083
0.024098655
0.023579329
0.023137194
0.022826625
0.022672502
0.022682178
0.022836028
0.023085506
0.023414011
0.023725869
0.024064873
-0.021845809
-0.054559114
-0.048752084
-0.021650761
0.010240514
0.024360964
0.019549978
0.012463791
-0.018888927
-0.049390732
-0.045807314
-0.021573736
0.00034904788
0.020741546
0.030026239
0.032256391
0.0316393
0.030233384
0.02862198
0.027304427
0.026384817
0.02575048
0.025222575
0.024680475
0.024108325
0.023561967
0.023116128
0.022826387
0.022715784
0.022776874
0.022978875
0.023270798
0.023629489
0.02395883
0.024307077
-0.019936893
-0.050589461
-0.048131507
-0.024168398
0.0057677842
0.019696102
0.016552448
0.0088246936
-0.025291274
-0.060258762
-0.060289028
-0.034149471
-0.0093554009
0.017670107
0.030423849
0.033238518
0.033038819
0.031310328
0.02943567
0.027879554
0.026834211
0.026201203
0.025745395
0.025266535
0.024690164
0.024069624
0.023494446
0.023054199
0.022800989
0.022744213
0.022862943
0.023118996
0.023453381
0.023842312
0.024189221
0.02454623
-0.01780686
-0.045932925
-0.046449625
-0.026265292
0.00073615411
0.014426073
0.012843252
0.0046576228
-0.031686114
-0.07086498
-0.074858265
-0.047751253
-0.019658817
0.01353764
0.030677646
0.033936574
0.033874719
0.032230313
0.030102587
0.028287776
0.027096237
0.026475407
0.026145887
0.025808509
0.025308844
0.024657665
0.023972785
0.023376486
0.022957219
0.022754504
0.022761626
0.022944951
0.023256723
0.023634272
0.024053654
0.024417623
0.024782765
-0.015520795
-0.040871514
-0.044033037
-0.027912164
-0.004689478
0.0079568033
0.0091771795
0.00035040953
-0.038152525
-0.080737636
-0.088905678
-0.061443867
-0.029751838
0.0087012026
0.029889711
0.033965698
0.034302563
0.032829782
0.03052229
0.028442445
0.027081598
0.026479698
0.026340563
0.026242838
0.02591692
0.025316132
0.02455845
0.023811331
0.023209687
0.02282937
0.022691899
0.022772547
0.023025382
0.023394619
0.023815998
0.024264425
0.024644363
0.025016883
-0.013132142
-0.035520802
-0.040915197
-0.029017953
-0.010517032
0.00050074901
0.0042915765
-0.0038020125
-0.042680493
-0.090072404
-0.1018573
-0.074714788
-0.039661668
0.0032716066
0.027023717
0.033201748
0.033874324
0.032973842
0.030584223
0.028242394
0.026682442
0.026094975
0.026213945
0.02647982
0.026463645
0.026020171
0.025253824
0.024377242
0.023582843
0.022997692
0.022676366
0.02261881
0.022780946
0.023106935
0.023534786
0.023998775
0.024474703
0.024869641
0.025248526
-0.010674125
-0.029871974
-0.036975436
-0.029527939
-0.016559073
-0.0078042444
-0.0023150219
-0.0081565059
-0.046408093
-0.096361039
-0.11480689
-0.087809266
-0.049209142
-0.0027455169
0.022806836
0.031609018
0.032530384
0.032456385
0.030179853
0.027576053
0.025789076
0.025195895
0.025628986
0.026403855
0.026865436
0.026732602
0.026053205
0.025089646
0.024104676
0.02328887
0.022746486
0.022505588
0.022540384
0.022790433
0.023192249
0.023678161
0.024183043
0.024684964
0.025093582
0.025477924
-0.023861378
-0.0081701184
-0.032364729
-0.029458723
-0.022618291
-0.016859451
-0.010444883
-0.012854057
-0.04988711
-0.10248648
-0.12507432
-0.10024172
-0.05833204
-0.0092452733
0.01798823
0.029420851
0.030727017
0.031113039
0.029218222
0.026327922
0.024285189
0.023635743
0.024413557
0.025863882
0.027013336
0.027394507
0.026940487
0.025960175
0.024802277
0.02373832
0.022935244
0.022465723
0.022323635
0.022459577
0.022805398
0.02328329
0.023825754
0.024369799
0.024895391
0.025316186
0.02570486
-0.027238346
-0.017528154
-0.0056788049
-0.02871533
-0.028684986
-0.026543566
-0.019684378
-0.018341005
-0.053110888
-0.10727935
-0.13694508
-0.1118854
-0.066043713
-0.015668623
0.012599022
0.026351107
0.028133614
0.02887183
0.027579496
0.024403362
0.022035137
0.021246268
0.02234916
0.024648939
0.026765905
0.027919262
0.027885657
0.026993756
0.025702024
0.024382449
0.023283368
0.022533428
0.0221643
0.022135305
0.022384274
0.022828286
0.023381608
0.023978595
0.024558939
0.025105915
0.025537384
0.025929306
-0.027289408
-0.02152364
-0.011091169
-0.0032144601
-0.034660378
-0.036678405
-0.02941098
-0.024565534
-0.056268605
-0.11049835
-0.14566717
-0.12605044
-0.073472688
-0.021931611
0.0070688671
0.021858204
0.024507864
0.025665044
0.025121834
0.021730542
0.018913786
0.017841314
0.019175264
0.022472588
0.025915691
0.028182156
0.028837211
0.028186388
0.026826288
0.025259145
0.023833234
0.022751986
0.022093979
0.021846967
0.021949782
0.022321125
0.022861217
0.023488438
0.024136862
0.024750606
0.025316544
0.025757061
0.026151181
-0.040293638
-0.025289461
-0.015443495
-0.0047982787
-0.00080754702
-0.047015948
-0.039426955
-0.030916446
-0.059224472
-0.11201676
-0.15235184
-0.1382186
-0.082497072
-0.031097111
0.001390266
0.016303552
0.019913427
0.021375409
0.021763706
0.018261195
0.014799484
0.013244896
0.014584735
0.018976241
0.024149173
0.027999917
0.029712796
0.029517255
0.028190911
0.026403733
0.0246306
0.023167357
0.022156936
0.021625379
0.021526544
0.021776916
0.022270873
0.022906236
0.023604479
0.024300621
0.024944811
0.025527109
0.025975037
0.026370217
-0.057251398
-0.045443067
-0.022738199
-0.0094365883
0.0012045063
0.0014940162
-0.049654262
-0.037044634
-0.061667136
-0.11136505
-0.15601007
-0.14812548
-0.091353211
-0.040993748
-0.0084157025
0.01025536
0.014158188
0.016089114
0.017426618
0.01396377
0.0096525181
0.0072958844
0.0082563387
0.013694851
0.021069663
0.027108812
0.030376754
0.03094193
0.029797944
0.027846014
0.025719952
0.023830249
0.022401002
0.02151262
0.021143318
0.021216962
0.021619703
0.022236645
0.022965092
0.023730167
0.024470195
0.025141328
0.025737386
0.026191109
0.026586384
-0.059799811
-0.067111719
-0.04996787
-0.019777892
-0.00375648
0.0068850447
0.0036930509
-0.043006245
-0.063356249
-0.10860248
-0.15479469
-0.15340873
-0.099322278
-0.05120675
-0.017840484
2.4209303e-05
0.0085068984
0.0098144499
0.012147085
0.0088480212
0.0034853126
-6.3867854e-05
-0.00017993049
0.0060639742
0.016110281
0.025129411
0.030627807
0.032377696
0.03162769
0.029602879
0.027140324
0.024790209
0.022878463
0.021554683
0.020838554
0.020665749
0.020925107
0.021482315
0.022220924
0.023038783
0.023865764
0.02464528
0.025339894
0.025947118
0.026405065
0.026799421
-0.048899753
-0.069471303
-0.076190876
-0.053835827
-0.016706736
0.001480717
0.012130667
0.005830372
-0.064106314
-0.10422772
-0.14886109
-0.1534746
-0.10528917
-0.060924914
-0.028785542
-0.0097734781
-0.00062635293
0.0032874228
0.0058128634
0.0029967396
-0.0035274643
-0.0089216943
-0.011215287
-0.0048486364
0.0085153851
0.021557397
0.030163208
0.033685589
0.0336269
0.031669508
0.028917893
0.02609163
0.023641588
0.021803276
0.020654254
0.020157476
0.020205327
0.020656097
0.021369023
0.022225568
0.023127784
0.024011191
0.024825478
0.025540121
0.026156026
0.026616721
0.027009223
-0.063731687
-0.054331967
-0.078104854
-0.08442386
-0.056977746
-0.013760965
0.0062882932
0.016846845
0.0078235896
-0.098376397
-0.14025629
-0.15014668
-0.10864441
-0.069814986
-0.040043657
-0.022158454
-0.0074574838
-0.0054121568
-0.0012214105
-0.0036064272
-0.011339816
-0.01905376
-0.025517035
-0.019921483
-0.0030928074
0.015652522
0.028613288
0.034653596
0.035690325
0.034006484
0.031056992
0.027766812
0.024736518
0.022311473
0.020638518
0.019729927
0.019488911
0.01977053
0.020416739
0.021282542
0.022251808
0.023232063
0.024166011
0.025010427
0.025741678
0.026363916
0.026825862
0.027215535
-0.091120512
-0.062101324
-0.05865021
-0.085249992
-0.091747795
-0.05926324
-0.011030618
0.010740604
0.021019677
0.0096154851
-0.12955151
-0.14396474
-0.1090859
-0.077474154
-0.051552596
-0.035443409
-0.018911814
-0.013188338
-0.0094690933
-0.010501044
-0.019780438
-0.03089709
-0.042693863
-0.038799369
-0.018408955
0.0067079886
0.024849518
0.03491101
0.03764056
0.036522159
0.033526482
0.029826557
0.026197857
0.023124128
0.020843546
0.0194214
0.01880668
0.018846713
0.019370138
0.020212011
0.021225206
0.022300122
0.023351117
0.024329635
0.025199656
0.025944374
0.026570492
0.027032052
0.027418137
-0.11704578
-0.082512966
-0.059140557
-0.061928092
-0.090587955
-0.097807523
-0.06056838
-0.0085138018
0.014832439
0.02465998
0.011183659
-0.13478644
-0.10676779
-0.083282782
-0.062924502
-0.049786416
-0.032968971
-0.023505141
-0.016768227
-0.017810214
-0.028531842
-0.043696564
-0.062005845
-0.060320848
-0.036296862
-0.0050546892
0.018284732
0.033545375
0.03913334
0.039053605
0.036244063
0.03224648
0.02804106
0.024275059
0.021309991
0.019285242
0.018193927
0.017907823
0.018243212
0.019012473
0.020045151
0.021198244
0.022370174
0.023484328
0.024501813
0.025393126
0.026147789
0.026774971
0.027234824
0.027617141
-0.12284278
-0.10291835
-0.072935618
-0.055110055
-0.063996602
-0.094172908
-0.10193066
-0.06073005
-0.0062511173
0.018455688
0.027749562
0.012503161
-0.10221439
-0.086183952
-0.073667486
-0.064753003
-0.0494517
-0.037148316
-0.025836765
-0.023987963
-0.036108429
-0.058369894
-0.081204115
-0.084386975
-0.057084231
-0.020977869
0.0092996422
0.030705451
0.039604895
0.041300679
0.039060631
0.034953268
0.030249134
0.025780061
0.022071285
0.019353218
0.017688619
0.016982083
0.017050444
0.017690302
0.018703364
0.019918763
0.021201759
0.022461338
0.023631655
0.024682611
0.025590155
0.026350431
0.026976544
0.027434649
0.027822427
-0.095782508
-0.10853516
-0.088067594
-0.062510166
-0.05044294
-0.064566499
-0.095712927
-0.10284564
-0.059776834
-0.0043046628
0.021503396
0.030362501
0.013534725
-0.086404653
-0.083574607
-0.080072707
-0.067858604
-0.053476461
-0.037661188
-0.03152004
-0.041650325
-0.068593558
-0.10178759
-0.10851248
-0.080424162
-0.041091667
-0.0030317014
0.025709424
0.039092629
0.042847415
0.041728139
0.037813299
0.032758446
0.027632513
0.023134241
0.019658283
0.017322713
0.016096533
0.01581124
0.016251894
0.017197666
0.018446586
0.01983365
0.021235179
0.022573813
0.023793367
0.024870706
0.025787988
0.026550806
0.027176436
0.027642656
0.028037507
-0.084507877
-0.0876239
-0.09287909
-0.072953679
-0.051917844
-0.045115471
-0.063899478
-0.094781299
-0.10081471
-0.05786389
-0.0026341803
0.023989371
0.03232685
0.014390339
-0.092346131
-0.095483771
-0.087651303
-0.072481948
-0.051986593
-0.040900812
-0.047995516
-0.076155894
-0.1144701
-0.13476146
-0.10521126
-0.062535689
-0.018982074
0.017260437
0.036801574
0.043564226
0.043934963
0.040621566
0.035452463
0.029776408
0.024509405
0.020209708
0.017123032
0.015276498
0.014543272
0.01470663
0.015526407
0.016772007
0.018244552
0.019789408
0.021298972
0.022708263
0.023967272
0.025061618
0.02598429
0.026751598
0.027388683
0.027859757
0.028256678
-0.099399379
-0.080765674
-0.078102896
-0.076938387
-0.058044411
-0.041513017
-0.039179058
-0.06219832
-0.090989278
-0.096529826
-0.055232217
-0.00079833222
0.025801985
0.033775857
0.015008705
-0.11048348
-0.10858678
-0.093839017
-0.068583074
-0.051933464
-0.055666052
-0.082742918
-0.1279397
-0.15283501
-0.14727269
-0.087794644
-0.038491603
0.0059565511
0.030971821
0.042766863
0.045316611
0.043098112
0.038154382
0.032111585
0.026142008
0.021005381
0.017098102
0.014541029
0.013262102
0.013062059
0.013689524
0.014884541
0.016417095
0.018097152
0.019786628
0.021394564
0.02286169
0.024146498
0.025252046
0.026184143
0.02697351
0.027608745
0.028082607
0.028479702
-0.12429397
-0.10443174
-0.075934563
-0.067409606
-0.061488326
-0.043683065
-0.031297407
-0.032977035
-0.059280662
-0.085262467
-0.090115412
-0.052040677
0.0014386952
0.027108146
0.034308714
0.015316368
-0.13015488
-0.11678981
-0.087367703
-0.064276557
-0.064597885
-0.089284104
-0.13764224
-0.17962578
-0.16632676
-0.11891675
-0.061435902
-0.0077703083
0.022751665
0.038858505
0.045450712
0.044876736
0.040619051
0.034487076
0.027945649
0.022004811
0.017239267
0.013895367
0.011977153
0.011323753
0.011682944
0.0127751
0.014333043
0.016134443
0.018004834
0.019827989
0.021518469
0.023024056
0.024326548
0.025450663
0.0264186
0.027202796
0.027836753
0.028310312
0.028706604
-0.15126612
-0.13648847
-0.10704758
-0.07009926
-0.056230197
-0.046883627
-0.030214817
-0.021294387
-0.026640969
-0.055248371
-0.078746425
-0.084157724
-0.047516415
0.003564215
0.027804459
0.03381197
0.015324416
-0.14081487
-0.10806445
-0.077527672
-0.074250577
-0.096498577
-0.14535305
-0.19754827
-0.21014731
-0.14874492
-0.082690642
-0.023423182
0.012818283
0.03272605
0.043593557
0.045484002
0.042578116
0.036692415
0.029788721
0.023132841
0.017511577
0.013327471
0.010688079
0.0094908919
0.0095022099
0.010428288
0.011973595
0.013874589
0.015926004
0.017972367
0.019910234
0.021656577
0.023188787
0.024521189
0.02570328
0.026660519
0.027442685
0.028070259
0.028543029
0.028937166
-0.16505301
-0.17105999
-0.14632322
-0.10771214
-0.063553651
-0.045191931
-0.033515253
-0.017874016
-0.011748517
-0.020115217
-0.050416535
-0.07321342
-0.07674482
-0.042596733
0.0055264383
0.027851078
0.032034126
0.015158287
-0.12975309
-0.091371818
-0.084144195
-0.10378903
-0.15250624
-0.21143271
-0.24001766
-0.19180766
-0.10420441
-0.039585023
0.0017576881
0.02535682
0.039451256
0.044727095
0.043672376
0.038496881
0.031489197
0.024270764
0.017849225
0.012803515
0.0093786755
0.0075550873
0.007136646
0.007829592
0.0093134592
0.011290236
0.013512198
0.015797518
0.017997836
0.020014303
0.021798755
0.023376426
0.024797183
0.02596411
0.026915984
0.027688625
0.02830994
0.028780195
0.029171353
-0.15077831
-0.18833634
-0.18790066
-0.15362401
-0.10661293
-0.056980833
-0.034635213
-0.021611942
-0.0068946397
-0.0027580653
-0.013779387
-0.046041161
-0.066989618
-0.069492989
-0.037241771
0.007229276
0.027224696
0.029471603
0.014904519
-0.10528677
-0.093461595
-0.11063601
-0.15833121
-0.22155543
-0.26657411
-0.23347208
-0.13744811
-0.062532174
-0.010368833
0.016493757
0.033409408
0.042348957
0.043349653
0.039571839
0.032833757
0.025263124
0.018146614
0.01226411
0.0080140323
0.0054935945
0.0045670495
0.0049574234
0.0063274976
0.0083470787
0.010730503
0.013254977
0.015746055
0.018055237
0.020124492
0.021974262
0.023682481
0.025083386
0.026241919
0.027177976
0.02794204
0.028554854
0.029021858
0.029408928
-0.11806176
-0.16977001
-0.20837905
-0.20128096
-0.15807762
-0.10380425
-0.050790868
-0.02512181
-0.011355453
0.0024748128
0.0050871353
-0.0075803006
-0.042015055
-0.060028261
-0.061446793
-0.031687026
0.0086782023
0.025883502
0.026445642
0.014672565
-0.10142633
-0.11671866
-0.16168524
-0.22691125
-0.28635831
-0.27453862
-0.17499743
-0.091139625
-0.030766933
0.0060959899
0.026101848
0.03772334
0.041485918
0.039779493
0.033532982
0.025911931
0.018270833
0.011615869
0.0065378337
0.003268215
0.0017630283
0.00178081
0.0029809853
0.005007021
0.0075377317
0.010307499
0.013102115
0.015738151
0.018120659
0.020280913
0.02231817
0.024002266
0.025390344
0.026526654
0.027448724
0.028201634
0.028805011
0.029267498
0.02964977
-0.10803569
-0.12853168
-0.18443091
-0.22365435
-0.21082767
-0.15951876
-0.09982356
-0.045267232
-0.017233044
-0.0033745303
0.009667883
0.012751623
-0.0030752072
-0.037248824
-0.0524943
-0.052743184
-0.026111078
0.0098695087
0.023929506
0.02302941
0.014348504
-0.12159163
-0.16218222
-0.22677809
-0.29811791
-0.31021271
-0.21596914
-0.12523152
-0.051661409
-0.012783441
0.017568338
0.031220072
0.038042719
0.038351836
0.033362134
0.025972405
0.018045537
0.010744706
0.0048660413
0.00082249295
-0.0013194518
-0.0017390138
-0.00076557722
0.0012259606
0.0038848766
0.0069045185
0.010019998
0.013009187
0.015740119
0.018248117
0.020672229
0.022681601
0.02434736
0.025704519
0.026821549
0.027726552
0.028467388
0.029059701
0.029516991
0.029893672
-0.12401251
-0.11316818
-0.13594266
-0.19333751
-0.23351335
-0.21512515
-0.15808731
-0.0952509
-0.04060918
-0.011215449
0.002735952
0.016741231
0.01776257
0.0011718807
-0.031869151
-0.044265841
-0.043728709
-0.020783852
0.01065357
0.021737906
0.019484515
0.013544185
-0.15932046
-0.22127937
-0.29958746
-0.3362038
-0.25730671
-0.15770922
-0.078333536
-0.028853272
-0.00088961425
0.024538971
0.032267384
0.035481798
0.03185615
0.025216235
0.017265715
0.0094943354
0.0028995463
-0.0019222509
-0.0047400941
-0.0056538986
-0.0049615476
-0.0030447152
-0.00027975448
0.002990267
0.0064469529
0.0098089906
0.012928095
0.015825659
0.018699269
0.021091362
0.023075762
0.024699713
0.026030214
0.027124538
0.028011407
0.028738416
0.029318702
0.029769896
0.0301405
-0.15313484
-0.12237255
-0.11567425
-0.13967623
-0.1957505
-0.23587647
-0.2139125
-0.15394531
-0.090451992
-0.036521416
-0.0064562347
0.0091493386
0.020403089
0.022384493
0.0051308974
-0.026047253
-0.035650058
-0.034780163
-0.015546813
0.010799097
0.019421152
0.016247442
0.012036487
-0.21060323
-0.28916724
-0.34770332
-0.2908439
-0.18605967
-0.10525348
-0.051240973
-0.015362236
0.0078948036
0.025911949
0.029001544
0.0289361
0.023240427
0.015724637
0.007700247
0.00050020864
-0.0050554848
-0.0085766419
-0.010029615
-0.0096678972
-0.007865707
-0.0050159209
-0.0014970082
0.0023188582
0.0060859196
0.0096169783
0.012956647
0.016352827
0.019188856
0.021547991
0.023476776
0.025065011
0.026364978
0.027435544
0.028302202
0.029014444
0.029581441
0.030026178
0.030389947
-0.19581071
-0.14361858
-0.11704318
-0.11513323
-0.13884872
-0.19078403
-0.22867926
-0.20718116
-0.14775669
-0.084848833
-0.032538047
-0.00087976694
0.013971253
0.024055362
0.026378455
0.0085793638
-0.019699284
-0.026832048
-0.025989729
-0.010169936
0.010228824
0.017037797
0.013547336
0.010018578
-0.27026341
-0.33091256
-0.30886058
-0.2095075
-0.13174832
-0.074094482
-0.036216846
-0.0059354442
0.011696374
0.022333835
0.023415892
0.020018231
0.013114395
0.0051796794
-0.002459548
-0.0087026511
-0.012915457
-0.014947064
-0.014958603
-0.013307876
-0.010394041
-0.0066254236
-0.0024338691
0.0017665722
0.0057458229
0.0095787972
0.013579851
0.016930391
0.019724493
0.022010351
0.023892177
0.025440388
0.026708756
0.027753369
0.028598546
0.02929481
0.029848078
0.030285284
0.030641804
-0.24563762
-0.17684928
-0.13139848
-0.10884002
-0.1100191
-0.13412369
-0.17819527
-0.2144552
-0.19523543
-0.13932587
-0.078407876
-0.026967799
0.0044961468
0.018378117
0.026744471
0.029380395
0.011555018
-0.013227241
-0.018040118
-0.018037482
-0.0053624468
0.0096218363
0.014703578
0.011284513
0.0080302968
-0.30811079
-0.30842496
-0.22487574
-0.1543573
-0.097164682
-0.058076836
-0.025856493
-0.00057103918
0.0096029515
0.017075372
0.014699574
0.0093724885
0.0017086696
-0.0061441752
-0.012960568
-0.017875841
-0.020495907
-0.020921074
-0.019454576
-0.016494529
-0.012473593
-0.0078860951
-0.0032261526
0.0012373554
0.0056073679
0.010323795
0.014266026
0.017565071
0.020263545
0.022488668
0.024318593
0.025825872
0.027060252
0.028077471
0.028899715
0.02958003
0.030117638
0.030546916
0.030895812
-0.27784228
-0.21580345
-0.15560876
-0.11679104
-0.098379819
-0.10037448
-0.12559434
-0.16057819
-0.1953322
-0.18010003
-0.12814985
-0.071206818
-0.019214102
0.0094883951
0.021968436
0.02868635
0.031406686
0.014272159
-0.0068989108
-0.010302621
-0.01113524
-0.0019601903
0.0091005288
0.01259294
0.0093352007
0.0062952934
-0.29372292
-0.2315872
-0.16922853
-0.11809153
-0.080857859
-0.047243714
-0.021061213
0.00012346162
0.0062447684
0.0087757618
0.0038078286
-0.002767926
-0.01070657
-0.017988456
-0.023534432
-0.02679486
-0.027653385
-0.026401978
-0.02340999
-0.019129757
-0.014123067
-0.0089744583
-0.0039951285
0.00097152421
0.0065092934
0.011142526
0.015023375
0.018200041
0.020819975
0.022978837
0.024756275
0.026220081
0.027418681
0.028407204
0.029206809
0.029868517
0.030389788
0.0308106
0.031151737
-0.26682581
-0.24057471
-0.18386533
-0.13323101
-0.10064155
-0.085465697
-0.088192003
-0.1124903
-0.14162046
-0.17303393
-0.15859733
-0.11822759
-0.06012844
-0.012077013
0.013757534
0.024856492
0.031316075
0.032371355
0.016358356
-0.0008634606
-0.0047169901
-0.0055926597
0.00081726385
0.0085670302
0.010747261
0.0076678515
0.0048723388
-0.22807696
-0.17493913
-0.13495387
-0.10249917
-0.070387882
-0.043705386
-0.018832346
-0.0040984605
-0.0004163793
-0.0021538957
-0.0087886588
-0.01621253
-0.023865442
-0.030062586
-0.033914058
-0.035278009
-0.034259854
-0.031246007
-0.02669397
-0.021238823
-0.015570182
-0.010042322
-0.0044219581
0.0020707953
0.0074910433
0.012051302
0.015776658
0.018853061
0.021389315
0.023481547
0.025203674
0.026621956
0.027783604
0.028744348
0.029517597
0.030159885
0.030663904
0.031075981
0.031409338
-0.21278686
-0.23142561
-0.20169419
-0.15151531
-0.11048439
-0.083672859
-0.070989889
-0.073938884
-0.095737034
-0.12252511
-0.14754899
-0.14115004
-0.10289143
-0.049298963
-0.0055976173
0.017247659
0.027039773
0.0321295
0.031759378
0.017597281
0.0039356786
-0.00058879166
-0.0016209463
0.0029705559
0.0080363872
0.0091779878
0.006283448
0.003757486
-0.17262191
-0.14577659
-0.12081426
-0.093424821
-0.068399492
-0.044477921
-0.021035766
-0.0083414166
-0.010058727
-0.015228214
-0.023018203
-0.030703908
-0.037466296
-0.042050307
-0.043873544
-0.043157762
-0.040124591
-0.035279754
-0.029338471
-0.023113255
-0.017004211
-0.010669705
-0.0030726092
0.0032483357
0.0085887854
0.012949024
0.016549027
0.019519732
0.021972443
0.023994933
0.025659526
0.027031425
0.028157744
0.029085652
0.029831667
0.030453283
0.030939584
0.031342677
0.031668381
-0.16443869
-0.18890281
-0.19390205
-0.16393639
-0.12114987
-0.088157711
-0.066559487
-0.056027149
-0.058585979
-0.077516432
-0.10389212
-0.12736436
-0.119403
-0.087568538
-0.037993385
0.00025490383
0.019913866
0.028383593
0.031718433
0.029818374
0.018117279
0.0068702638
0.0025714636
0.0014104035
0.0045493648
0.0075475846
0.0078755386
0.0051694896
0.0029111837
-0.14986288
-0.13336825
-0.11440535
-0.094217267
-0.073714857
-0.046982893
-0.02482864
-0.014892575
-0.022342639
-0.030300705
-0.038664804
-0.045952543
-0.051144634
-0.053664497
-0.053197245
-0.05018323
-0.045017689
-0.038540014
-0.031713194
-0.024988262
-0.017876776
-0.009005709
-0.0016602062
0.0045779792
0.0096638914
0.01386732
0.017335489
0.020201504
0.022567277
0.02451768
0.026124243
0.027452325
0.028536728
0.029430692
0.03014795
0.030748222
0.031216438
0.031610355
0.031928472
-0.14668351
-0.15118941
-0.16161712
-0.15760702
-0.12951752
-0.093502423
-0.06720936
-0.050058866
-0.041564843
-0.042922703
-0.060477722
-0.090164855
-0.10486653
-0.098448854
-0.071738817
-0.027185135
0.0053132474
0.021815512
0.028904946