/*--------------------------------*- C++ -*----------------------------------*\
| =========                 |                                                 |
| \\      /  F ield         | OpenFOAM: The Open Source CFD Toolbox           |
|  \\    /   O peration     | Version:  5.0                                   |
|   \\  /    A nd           | Web:      www.OpenFOAM.org                      |
|    \\/     M anipulation  |                                                 |
\*---------------------------------------------------------------------------*/
FoamFile
{
    version     2.0;
    format      ascii;
    class       surfaceScalarField;
    location    "360";
    object      phi;
}
// * * * * * * * * * * * * * * * * * * * * * * * * * * * * * * * * * * * * * //

dimensions      [0 3 -1 0 0 0 0];

internalField   nonuniform List<scalar> 
18180
(
-0.0018902893
-1.3895154
-0.0036784679
-1.2995454
-0.0018419719
-1.3876735
-0.0053556803
-1.2155292
-0.0035846774
-1.2978027
-0.0017630132
-1.3859104
-0.0069433671
-1.1370455
-0.0052321615
-1.2138818
-0.003433961
-1.2961317
-0.0016473467
-1.3842631
-0.0084228128
-1.0637056
-0.0067989767
-1.1354787
-0.0050217545
-1.212294
-0.0032115101
-1.2945676
-0.0015144918
-1.3827486
-0.0097752122
-0.99516573
-0.0082849735
-1.0622196
-0.0065443793
-1.1339561
-0.0047009387
-1.2108045
-0.0029504109
-1.2931316
-0.0013765638
-1.381372
-0.010962186
-0.93110401
-0.009683536
-0.99376717
-0.0080153573
-1.0607486
-0.0061376478
-1.1325194
-0.004315559
-1.2094394
-0.0026764574
-1.2918317
-0.0012528302
-1.3801192
-0.011942146
-0.87124541
-0.010978128
-0.92980942
-0.0094495198
-0.992333
-0.0075433844
-1.0593429
-0.0056268623
-1.1312081
-0.0039055549
-1.2082103
-0.0024286263
-1.290656
-0.0011504929
-1.3789687
-0.012676371
-0.81532297
-0.012147978
-0.87007556
-0.010870246
-0.92838869
-0.0089511343
-0.99092525
-0.0069020375
-1.0580677
-0.0050720214
-1.1300416
-0.0035338087
-1.2071051
-0.0022237229
-1.2895827
-0.0010697541
-1.377899
-0.013038146
-0.76314263
-0.013138469
-0.81433248
-0.012320727
-0.86862508
-0.010416073
-0.92692375
-0.0081692813
-0.98965801
-0.0061824206
-1.0569573
-0.004568636
-1.1290068
-0.0032295434
-1.2060993
-0.0020651191
-1.2885874
-0.0010041418
-1.3768948
-0.012907294
-0.71447478
-0.013976447
-0.76230465
-0.013883263
-0.81276994
-0.012006842
-0.86703431
-0.0094711459
-0.92562189
-0.0072465535
-0.98859388
-0.0055309224
-1.055995
-0.0041643323
-1.128072
-0.0030004696
-1.2051639
-0.0019411459
-1.2876504
-0.00094615388
-1.3759487
-0.012162106
-0.6691983
-0.014823218
-0.71362801
-0.015708149
-0.76047976
-0.013840408
-0.81093637
-0.010854925
-0.86565053
-0.0082748902
-0.92459355
-0.0064103195
-0.98771448
-0.0050238667
-1.0551355
-0.0038732598
-1.1271992
-0.0028273743
-1.2042777
-0.0018350383
-1.2867615
-0.00088976268
-1.3750589
-0.010658899
-0.62710058
-0.01574867
-0.66827284
-0.017808155
-0.71152801
-0.015985394
-0.75833478
-0.012386134
-0.80940516
-0.0092773662
-0.86464805
-0.0071885235
-0.92381535
-0.0057888217
-0.98694953
-0.0046826716
-1.0543261
-0.0036643272
-1.1263622
-0.0026812904
-1.2034315
-0.0017313128
-1.2859199
-0.00083062086
-1.3742283
-0.0083039482
-0.5879424
-0.016676711
-0.62617254
-0.020290848
-0.66579015
-0.018516683
-0.70899672
-0.014112537
-0.75660837
-0.010242857
-0.80843967
-0.007838755
-0.86399782
-0.0064281614
-0.92317601
-0.0054111777
-0.98622102
-0.0044556276
-1.0535348
-0.003491544
-1.125552
-0.002536157
-1.2026266
-0.0016189091
-1.2851316
-0.00076585411
-1.3734624
-0.0050224795
-0.55152849
-0.017528012
-0.5870911
-0.023402302
-0.62306108
-0.021639254
-0.66266758
-0.016118732
-0.70699052
-0.011151754
-0.75569948
-0.0083095457
-0.80796888
-0.0068969356
-0.86352905
-0.0060294043
-0.92255778
-0.0051921658
-0.98548448
-0.0042738768
-1.0527524
-0.0033157131
-1.1247724
-0.0023744023
-1.2018711
-0.0014921821
-1.2844053
-0.00069481064
-1.3727676
-0.00081224586
-0.51757533
-0.018277374
-0.55077913
-0.02736473
-0.58312867
-0.025588894
-0.61911144
-0.018521633
-0.66026468
-0.012023545
-0.70611873
-0.008499556
-0.75550947
-0.0071129324
-0.80775289
-0.0064900612
-0.86306839
-0.0058531426
-0.9218968
-0.005032255
-0.9847261
-0.0040843764
-1.0519838
-0.0031109214
-1.1240359
-0.0021874018
-1.2011759
-0.0013512883
-1.2837488
-0.00061964934
-1.372148
0.0044721783
-0.485877
-0.018908102
-0.51694461
-0.032389559
-0.5457543
-0.030602143
-0.57811542
-0.021452776
-0.6161803
-0.012847335
-0.65944089
-0.0083340861
-0.7062842
-0.0069497896
-0.75567261
-0.0066989833
-0.80754397
-0.0063929955
-0.86252854
-0.0057648518
-0.92116421
-0.0048592618
-0.98395122
-0.0038488408
-1.0512459
-0.0028649593
-1.1233584
-0.0019760192
-1.2005512
-0.0012014886
-1.283167
-0.00054449838
-1.3716035
0.011015186
-0.4564026
-0.019530556
-0.48525454
-0.038718497
-0.51061567
-0.036913611
-0.53944283
-0.025057695
-0.5745105
-0.01361316
-0.61541448
-0.0077104477
-0.66006453
-0.0062646415
-0.70696935
-0.0065989996
-0.75577259
-0.0067676413
-0.80716932
-0.0064618311
-0.86183156
-0.0056658436
-0.92035763
-0.0046133401
-0.98318672
-0.0035460677
-1.0505648
-0.0025798982
-1.1227545
-0.0017493423
-1.2000033
-0.0010511704
-1.2826603
-0.00047368528
-1.3711298
0.019305257
-0.42956494
-0.019884595
-0.45604856
-0.046479638
-0.4774934
-0.044698936
-0.50283034
-0.029470743
-0.53502978
-0.014319315
-0.57380435
-0.0064984659
-0.61662646
-0.0049115364
-0.66141763
-0.0060305217
-0.70753783
-0.0070176338
-0.7555226
-0.0071657431
-0.80646541
-0.0065447539
-0.86095265
-0.0054481197
-0.91952285
-0.0042583761
-0.98247441
-0.0031791762
-1.0499655
-0.0022695433
-1.1222343
-0.0015211101
-1.1995334
-0.00090919549
-1.2822248
-0.00041050265
-1.3707193
0.0293564
-0.40517298
-0.019180097
-0.43026944
-0.055641583
-0.44688662
-0.054054473
-0.46813786
-0.034765771
-0.49753531
-0.014959541
-0.53438956
-0.0045484993
-0.57575432
-0.0026994399
-0.61883855
-0.0048254335
-0.66262272
-0.0070570964
-0.70749836
-0.0079011898
-0.75478716
-0.0075733315
-0.80543683
-0.0064194262
-0.85998134
-0.0050442521
-0.91873697
-0.0037977227
-0.98185586
-0.0027712311
-1.0494638
-0.0019547429
-1.1218006
-0.0013054314
-1.1991371
-0.00078269583
-1.2818526
-0.0003570242
-1.3703623
0.039399917
-0.38092963
-0.01629967
-0.40805341
-0.066025272
-0.41988575
-0.065198715
-0.43574238
-0.041044891
-0.46185875
-0.015506928
-0.49698793
-0.0016959119
-0.53724214
0.0005908529
-0.57904461
-0.0027957575
-0.62086823
-0.0067381824
-0.66294163
-0.0086855326
-0.70671402
-0.0087835074
-0.75357698
-0.0075995466
-0.80425671
-0.0059667671
-0.85905882
-0.0044671804
-0.91806751
-0.0032683046
-0.98135879
-0.0023540195
-1.0490645
-0.0016566442
-1.1214494
-0.0011135246
-1.1988063
-0.00067603976
-1.2815336
-0.00031436356
-1.3700479
0.049734421
-0.3558174
-0.011440468
-0.38578883
-0.077584638
-0.39649404
-0.078654179
-0.40643029
-0.048759003
-0.42802826
-0.015925641
-0.46144003
0.0022249786
-0.50090882
0.0052083289
-0.54185962
0.0002825616
-0.58212293
-0.0059237179
-0.62168269
-0.0095311411
-0.66209603
-0.010274498
-0.70522303
-0.0090625502
-0.75211397
-0.0070893533
-0.80313412
-0.0052318647
-0.85829414
-0.003780646
-0.91755517
-0.0027219632
-0.98099084
-0.001958965
-1.0487622
-0.0013920763
-1.1211709
-0.00095218155
-1.1985302
-0.00059085779
-1.2812571
-0.00028272963
-1.3697652
0.060057255
-0.33101838
-0.0059331859
-0.36132468
-0.088710017
-0.37466345
-0.095187704
-0.37996052
-0.058923937
-0.39626535
-0.016371449
-0.42758246
0.007378754
-0.46659381
0.011393116
-0.5070936
0.0046598711
-0.54623693
-0.0044581038
-0.58358854
-0.010429254
-0.62078458
-0.01217917
-0.66019135
-0.010957186
-0.70332839
-0.0085056012
-0.75069773
-0.0061422649
-0.80222372
-0.0043294776
-0.85774531
-0.0030647487
-0.91721238
-0.0022066256
-0.98074318
-0.0016109935
-1.0485433
-0.0011716073
-1.1209514
-0.00082378472
-1.1982972
-0.00052659346
-1.2810132
-0.00026111506
-1.3695041
0.069989264
-0.30624402
-0.0016678713
-0.3352837
-0.099795075
-0.35023963
-0.11507179
-0.35477937
-0.072479627
-0.36640483
-0.017407544
-0.39522926
0.013925451
-0.43412915
0.019369479
-0.47457017
0.010613324
-0.51304706
-0.0021580929
-0.54853694
-0.011372485
-0.58264531
-0.014644049
-0.6183197
-0.01346375
-0.65768479
-0.010350172
-0.70148382
-0.0072691311
-0.74957086
-0.0049405996
-0.8016126
-0.003382181
-0.85742787
-0.0023921466
-0.91702686
-0.001758614
-0.98059556
-0.0013256876
-1.0483892
-0.0009992839
-1.1207759
-0.00072738143
-1.1980965
-0.00048110139
-1.2807933
-0.00024720964
-1.3692568
0.079169847
-0.28161443
0.0011461169
-0.30905801
-0.11203154
-0.32304723
-0.13599747
-0.32931395
-0.08928388
-0.33797511
-0.019531308
-0.36428106
0.022019515
-0.40332332
0.029364494
-0.44412417
0.018409961
-0.48236681
0.0011704216
-0.51637557
-0.012353983
-0.54755544
-0.017848909
-0.57944045
-0.016807992
-0.61497546
-0.012789723
-0.65524524
-0.0086993297
-0.70005362
-0.0056449043
-0.74886655
-0.003671391
-0.80132339
-0.0024979997
-0.85732202
-0.0018170993
-0.91696838
-0.0013994515
-0.9805218
-0.00110864
-1.0482798
-0.00087325014
-1.1206301
-0.0006599184
-1.1979176
-0.00045113155
-1.2805893
-0.00023806446
-1.3690188
0.087403946
-0.25787132
0.0037099083
-0.28417822
-0.12472599
-0.29636356
-0.15537886
-0.30366584
-0.10725754
-0.31134029
-0.022599462
-0.33490696
0.031785969
-0.37404752
0.041629431
-0.41558826
0.028290037
-0.45400424
0.0057858997
-0.48698228
-0.013342398
-0.51538716
-0.022013937
-0.54339041
-0.021259065
-0.57498938
-0.016028605
-0.61173658
-0.010541453
-0.65340311
-0.0064755981
-0.69922293
-0.0039254174
-0.74861253
-0.0024980418
-0.80132335
-0.0017572466
-0.85738187
-0.0013700698
-0.91699776
-0.0011352837
-0.98049515
-0.00095641896
-1.0481967
-0.00078738227
-1.1205026
-0.00061683428
-1.1977519
-0.0004328987
-1.2803945
-0.00023149585
-1.3687873
0.094732437
-0.23548866
0.0059276956
-0.2600891
-0.13723057
-0.27167364
-0.17251792
-0.2792245
-0.12411838
-0.286805
-0.026478247
-0.30746151
0.043171766
-0.34629276
0.056290722
-0.38870881
0.040372287
-0.42767051
0.01187059
-0.46008893
-0.014330096
-0.48599459
-0.027399737
-0.51000136
-0.027128825
-0.53752065
-0.020293335
-0.57072465
-0.012919123
-0.60935891
-0.0074703296
-0.65240838
-0.0041301935
-0.69901815
-0.0023552662
-0.7487553
-0.0015380644
-0.80154253
-0.0012032616
-0.85754868
-0.0010571044
-0.91707594
-0.00095971531
-0.98049186
-0.00085880413
-1.0481252
-0.00073395092
-1.1203855
-0.00059236582
-1.1975925
-0.00042303817
-1.280203
-0.00022694326
-1.3685603
0.10125074
-0.21465052
0.0078410674
-0.23740203
-0.14937592
-0.24794375
-0.18870838
-0.25548318
-0.13966651
-0.26367637
-0.031259967
-0.28202328
0.055665987
-0.31995573
0.073159513
-0.36316155
0.054572678
-0.4029092
0.019400541
-0.43520046
-0.01537393
-0.4590451
-0.034318012
-0.47907631
-0.034769019
-0.50236116
-0.025834066
-0.53197992
-0.01596295
-0.56768082
-0.0086651208
-0.60816412
-0.0042624606
-0.65227611
-0.002018964
-0.69935446
-0.0011032994
-0.74919007
-0.00085186608
-0.80189392
-0.00084119439
-0.85776459
-0.00086583499
-0.91716982
-0.00085814275
-0.98049252
-0.00080236076
-1.0480568
-0.00070523557
-1.1202726
-0.00058074164
-1.1974348
-0.00041933856
-1.2800106
-0.00022478738
-1.3683356
0.10704891
-0.19541958
0.0095227352
-0.21633218
-0.16094079
-0.22583716
-0.20375023
-0.2329019
-0.15389943
-0.24125026
-0.036501445
-0.25843489
0.068633964
-0.29499125
0.091942349
-0.33873856
0.070760367
-0.37934924
0.028260642
-0.4117693
-0.016779282
-0.43379511
-0.043216655
-0.45014646
-0.044572979
-0.46927235
-0.032924755
-0.49527047
-0.019807052
-0.52813582
-0.010092795
-0.56625314
-0.0042880975
-0.60813848
-0.0014232718
-0.65287181
-0.00037912145
-0.70007863
-0.0002518177
-0.74979012
-0.00044231637
-0.8022928
-0.00064871538
-0.85798171
-0.00077337718
-0.91725458
-0.00081091264
-0.98048397
-0.00077252325
-1.0479895
-0.00069367289
-1.1201597
-0.00057812254
-1.197276
-0.00042002706
-1.2798153
-0.00022484927
-1.3681107
0.11220889
-0.17780367
0.011033764
-0.19693061
-0.17181424
-0.20545874
-0.21763452
-0.21195286
-0.16653823
-0.2202631
-0.041121338
-0.23663036
0.081701333
-0.27150226
0.1123759
-0.31542481
0.089025184
-0.35700338
0.038827841
-0.38991643
-0.018582166
-0.40996642
-0.054605213
-0.42240655
-0.056926624
-0.43779281
-0.041842697
-0.46035441
-0.024579447
-0.49049808
-0.011773676
-0.52645494
-0.0041629919
-0.56637825
-0.00048648888
-0.60907526
0.00072572209
-0.65397665
0.00067939453
-0.70100985
0.00020098474
-0.75043342
-0.00027137531
-0.80267014
-0.00058912377
-0.85816596
-0.00075202924
-0.91731346
-0.00079577185
-0.98046072
-0.00076408653
-1.0479191
-0.0006961224
-1.1200417
-0.00058209098
-1.1971139
-0.00042292215
-1.2796172
-0.00022608696
-1.3678846
0.11566815
-0.18932339
0.012426126
-0.17919604
-0.18190743
-0.18683741
-0.23035469
-0.19273858
-0.17770147
-0.20078963
-0.044783868
-0.21660057
0.094668874
-0.2495979
0.13383745
-0.29296381
0.10946526
-0.33586488
0.051966529
-0.37014207
-0.019670808
-0.38882779
-0.068261091
-0.39631054
-0.072024118
-0.40730905
-0.052735282
-0.42690023
-0.030379541
-0.45455431
-0.013702371
-0.48856938
-0.0038284422
-0.52678949
0.00088655204
-0.56775129
0.0023225556
-0.6106721
0.0020459617
-0.65534322
0.0011688763
-0.70197774
0.00031635051
-0.75102114
-0.0002816252
-0.80297764
-0.00062070211
-0.85829729
-0.00077207318
-0.91733716
-0.0008016159
-0.98042319
-0.00077666822
-1.0478386
-0.00070815366
-1.1199156
-0.00058805127
-1.1969488
-0.00042604101
-1.2794173
-0.00022737715
-1.3676572
0.119302
-0.18355558
0.013976387
-0.19087365
-0.19115141
-0.16995206
-0.2418913
-0.1753008
-0.18752171
-0.18291834
-0.047421489
-0.19815201
0.10736029
-0.22929199
0.15545428
-0.27121473
0.13090881
-0.31440737
0.067612689
-0.35151104
-0.018439321
-0.37137356
-0.082692384
-0.3743965
-0.089639855
-0.3786948
-0.065520733
-0.3945236
-0.03718296
-0.42009681
-0.015836338
-0.45242035
-0.0032033819
-0.48919444
0.002802927
-0.52870587
0.0045355957
-0.56996433
0.0039687208
-0.61259486
0.0025592756
-0.65673362
0.0011788267
-0.70284021
0.00018148884
-0.75148426
-0.00040945986
-0.80318888
-0.0007025337
-0.85836683
-0.00081101739
-0.91732776
-0.00082687983
-0.98037298
-0.00079825516
-1.0477485
-0.0007170282
-1.1197867
-0.00059254772
-1.1967823
-0.00042846933
-1.2792162
-0.00022803779
-1.3674292
0.12295186
-0.17757375
0.016059841
-0.18563903
-0.19907282
-0.18295224
-0.25227858
-0.15956478
-0.19610254
-0.16671996
-0.049148855
-0.18119097
0.11964362
-0.21043533
0.17650175
-0.25033946
0.15241339
-0.29271931
0.083393774
-0.33018845
-0.014519295
-0.35543107
-0.096745664
-0.35732027
-0.10928941
-0.35474694
-0.080467427
-0.36374811
-0.044795105
-0.38691146
-0.018064978
-0.41786817
-0.0021810702
-0.45344266
0.0053775143
-0.49176903
0.0074988984
-0.53166917
0.0065860353
-0.57258165
0.0044910704
-0.61452665
0.0023985421
-0.65795333
0.00084192912
-0.70350066
-0.00010749654
-0.75178622
-0.00059558685
-0.80329583
-0.00080112851
-0.85837672
-0.0008608284
-0.91729381
-0.00086010393
-0.98031113
-0.00081296456
-1.0476526
-0.00072381556
-1.1196554
-0.0005967721
-1.196614
-0.00042978122
-1.2790145
-0.00022782805
-1.3672014
0.12649278
-0.17148289
0.018463725
-0.17997764
-0.20594498
-0.17876687
-0.26258631
-0.17264451
-0.20359927
-0.15206806
-0.050220415
-0.1656484
0.13136349
-0.19291084
0.19655502
-0.2304886
0.17339339
-0.27131945
0.098945077
-0.30827062
-0.008772225
-0.33593552
-0.11024446
-0.34193227
-0.13078676
-0.33582293
-0.098689501
-0.33652487
-0.05352058
-0.35502263
-0.020169667
-0.38480677
-0.00063024536
-0.41941899
0.008729252
-0.4567944
0.011347769
-0.4956179
0.01004715
-0.53513028
0.0071018577
-0.57519243
0.0040760889
-0.6162042
0.00175506
-0.65886646
0.00030087392
-0.70390903
-0.00046127884
-0.75192053
-0.00079103687
-0.80330592
-0.00089786271
-0.85833969
-0.00091253706
-0.91724138
-0.0008855001
-0.98023859
-0.0008234032
-1.047553
-0.00073101297
-1.1195211
-0.00059928071
-1.1964445
-0.00042948279
-1.2788128
-0.00022673768
-1.3669746
0.12988207
-0.16556157
0.021088031
-0.17410719
-0.21174637
-0.17417625
-0.27180514
-0.16954804
-0.21403828
-0.16220549
-0.050705527
-0.15158294
0.14236455
-0.17664947
0.21542912
-0.21178494
0.19326609
-0.25036131
0.11419331
-0.28656768
-0.0035390001
-0.31350384
-0.1224363
-0.32374369
-0.15424494
-0.31847408
-0.12077372
-0.31373871
-0.064958384
-0.32508706
-0.022055276
-0.35313702
0.0016145722
-0.38705159
0.012976997
-0.42366674
0.016210583
-0.46165721
0.014503031
-0.50007378
0.010543219
-0.53857164
0.006331656
-0.577448
0.0029903261
-0.61743946
0.00083721631
-0.65940281
-0.00031063778
-0.70405967
-0.00080696513
-0.7519046
-0.00096302763
-0.80324076
-0.00097874474
-0.85827348
-0.00094956637
-0.91717731
-0.00089989358
-0.9801621
-0.00083172782
-1.0474522
-0.00073425285
-1.1193862
-0.00059883565
-1.1962751
-0.00042753111
-1.278612
-0.00022489885
-1.3667497
0.13311251
-0.16000663
0.023850241
-0.16832378
-0.21635513
-0.16949843
-0.27973262
-0.16624878
-0.22341879
-0.16016753
-0.058420576
-0.15449044
0.15264845
-0.16186684
0.23305361
-0.19427396
0.21174111
-0.23025995
0.12871515
-0.26488315
7.7653632e-05
-0.29018434
-0.13475675
-0.30118339
-0.17839793
-0.2995907
-0.14582709
-0.29342071
-0.08064922
-0.29804787
-0.024313521
-0.32282882
0.0047513149
-0.35627377
0.018218932
-0.39229352
0.022196029
-0.42965219
0.020096327
-0.46725051
0.014975081
-0.50450565
0.0093039356
-0.54154392
0.0046339806
-0.57909166
0.0015304218
-0.61813267
-0.00015707433
-0.65955637
-0.00088356457
-0.70398307
-0.0010936107
-0.75177402
-0.0010901509
-0.80312935
-0.0010300874
-0.85819296
-0.00096749547
-0.91710971
-0.00090691665
-0.98008691
-0.00083458704
-1.0473519
-0.00073335569
-1.1192517
-0.00059628344
-1.1961064
-0.00042429084
-1.2784126
-0.00022243735
-1.3665273
0.13615893
-0.15493497
0.02668613
-0.16284252
-0.21971345
-0.16496547
-0.28627134
-0.16295971
-0.23163984
-0.15802773
-0.065397561
-0.15319054
0.15438247
-0.15622446
0.24929009
-0.17810331
0.22870014
-0.211233
0.14218266
-0.24372746
0.0027699121
-0.26757541
-0.14762224
-0.27731885
-0.20084248
-0.27873884
-0.17127161
-0.27414618
-0.099748051
-0.27432188
-0.02822774
-0.29413365
0.0089969405
-0.32707444
0.024562195
-0.36261703
0.02938729
-0.39948478
0.026951016
-0.43650687
0.020557533
-0.47283296
0.013148218
-0.50834993
0.0067917689
-0.54370171
0.0024190296
-0.57998026
-1.6330306e-05
-0.61827341
-0.0010660398
-0.6593739
-0.0013423205
-0.70373436
-0.0012923538
-0.75157182
-0.0011621629
-0.80299728
-0.0010496475
-0.8581108
-0.00097035852
-0.91704627
-0.00090655801
-0.98001494
-0.0008323023
-1.047253
-0.00073015963
-1.1191178
-0.0005920289
-1.1959386
-0.00041983039
-1.2782152
-0.00021948531
-1.3663078
0.13902683
-0.1505063
0.029565429
-0.15781427
-0.22180303
-0.16075294
-0.29142947
-0.15980734
-0.23864327
-0.15595628
-0.071599865
-0.15182542
0.15618805
-0.15499612
0.26047318
-0.16740756
0.24397442
-0.19337759
0.15434786
-0.22339819
0.0047786368
-0.24573619
-0.1603854
-0.25481225
-0.22103646
-0.25712486
-0.19458534
-0.25542511
-0.12012773
-0.25376651
-0.034606285
-0.26794333
0.014063278
-0.29919999
0.032121593
-0.33463384
0.037829158
-0.3710589
0.035160168
-0.40769394
0.027439741
-0.44338908
0.018032585
-0.47771733
0.0095918105
-0.51114997
0.0035559249
-0.54483861
9.5910717e-05
-0.5800925
-0.0014099639
-0.61792949
-0.0017772525
-0.65893896
-0.0016471803
-0.70337953
-0.0013942426
-0.75133974
-0.0011804131
-0.80286651
-0.0010426111
-0.85803855
-0.00096091707
-0.91699191
-0.00089936316
-0.97994788
-0.00082668261
-1.0471564
-0.0007244737
-1.1189853
-0.00058583467
-1.1957726
-0.00041443603
-1.2780203
-0.00021619056
-1.3660916
0.1417596
-0.14689173
0.032504818
-0.15344568
-0.22261659
-0.1570007
-0.29519901
-0.1569834
-0.24437098
-0.15407963
-0.076928835
-0.15062731
0.15798493
-0.1536223
0.271599
-0.16612194
0.25851029
-0.18194344
0.16509435
-0.20412408
0.0060356375
-0.2246552
-0.17276401
-0.23335758
-0.23987142
-0.23597729
-0.21543263
-0.23627757
-0.14034252
-0.23521032
-0.043686062
-0.24468673
0.019143001
-0.27302306
0.041131416
-0.30820981
0.047477068
-0.34428175
0.044762587
-0.38066132
0.035740139
-0.41599433
0.024128191
-0.44948469
0.013186034
-0.48131155
0.0050139831
-0.51260803
0.00016664003
-0.54490934
-0.0019830407
-0.57951943
-0.0024839896
-0.61722275
-0.0022347811
-0.65835136
-0.0017901047
-0.70298367
-0.001405876
-0.75111428
-0.0011535221
-0.8027556
-0.0010150185
-0.85798445
-0.00094200758
-0.91694927
-0.00088745611
-0.9798871
-0.00081807382
-1.0470628
-0.00071647201
-1.1188547
-0.00057853147
-1.1956085
-0.00040845791
-1.277828
-0.00021270956
-1.3658789
-0.14425248
0.14439754
0.035527861
-0.14991478
-0.22216974
-0.15389254
-0.2975865
-0.15461322
-0.24881098
-0.1525434
-0.081308683
-0.14969978
0.15988592
-0.15252831
0.28230754
-0.16433083
0.27255016
-0.18016181
0.1815048
-0.19835389
0.0069079913
-0.20499643
-0.1844377
-0.2129815
-0.25754964
-0.21567935
-0.23438596
-0.21702397
-0.15914272
-0.21747738
-0.055040865
-0.22385551
0.02319581
-0.24873954
0.05143687
-0.28332851
0.058347419
-0.31908017
0.055730292
-0.35524946
0.045538614
-0.39045979
0.031601093
-0.42346723
0.017750031
-0.45404868
0.0068903011
-0.48318787
0.00018961695
-0.512631
-0.0028647245
-0.54402765
-0.0035686114
-0.57843481
-0.0031566651
-0.61630087
-0.0024322609
-0.65770921
-0.0017863133
-0.70260323
-0.0013433233
-0.75092447
-0.0010925705
-0.80267805
-0.00097284059
-0.85795362
-0.0009169842
-0.91691974
-0.00087252844
-0.97983265
-0.00080734002
-1.046972
-0.0007073584
-1.1187259
-0.00057050422
-1.1954465
-0.00040212961
-1.2776386
-0.00020915768
-1.3656698
-0.14733638
0.038611766
-0.14258871
0.14692242
-0.22052455
-0.15155997
-0.29868824
-0.15279079
-0.25202942
-0.15139477
-0.084803856
-0.14904823
0.16206567
-0.15187953
0.29227908
-0.16249985
0.28584593
-0.17762661
0.19724561
-0.19590262
0.020656439
-0.21210234
-0.19509523
-0.1943389
-0.27389302
-0.19663812
-0.25155888
-0.19850643
-0.17605825
-0.20010843
-0.067296103
-0.20522214
0.025735226
-0.22639493
0.062621197
-0.25992387
0.070416829
-0.29539792
0.06798298
-0.33133285
0.056882348
-0.36659319
0.040609692
-0.39946839
0.023486403
-0.42920361
0.0093168602
-0.45647524
0.00017282663
-0.48317108
-0.0041456119
-0.51135012
-0.0051604688
-0.5424358
-0.0045384376
-0.57705303
-0.0034243158
-0.61530881
-0.0023986192
-0.6570969
-0.0016642934
-0.70228226
-0.0012260993
-0.75079095
-0.0010092056
-0.80264168
-0.00092290485
-0.8579477
-0.0008891006
-0.91690317
-0.0008561487
-0.97978384
-0.00079564688
-1.0468837
-0.00069756598
-1.1185988
-0.00056205798
-1.1952866
-0.00039570517
-1.277452
-0.00020564009
-1.3654641
-0.15002408
-0.21783685
-0.14578426
0.041807308
-0.14228668
0.14928796
-0.2986589
-0.15158931
-0.25414769
-0.15067252
-0.08743611
-0.14876252
0.16448333
-0.15146589
0.30137067
-0.16097112
0.29790467
-0.17455859
0.21203537
-0.19241636
0.034270245
-0.20951642
-0.19246311
-0.21473446
-0.2891187
-0.17911323
-0.26691021
-0.18128679
-0.19103654
-0.18352814
-0.079203545
-0.18820099
0.026644195
-0.20613111
0.07420862
-0.23798235
0.083639603
-0.27314664
0.081377643
-0.30879258
0.069755262
-0.34420577
0.051292844
-0.37727634
0.030625335
-0.40660732
0.012469855
-0.4323566
0.00014272417
-0.45644514
-0.0059255752
-0.48139111
-0.0074171802
-0.50909341
-0.0065341446
-0.54044009
-0.0048930092
-0.57558434
-0.0033376207
-0.61436981
-0.002182058
-0.65657914
-0.0014573858
-0.70205098
-0.0010754057
-0.75072475
-0.0009165067
-0.80264808
-0.00087138514
-0.85796541
-0.00086082738
-0.91689849
-0.00083955109
-0.97973994
-0.00078367718
-1.0467976
-0.00068750133
-1.1184734
-0.00055362716
-1.1951286
-0.000389383
-1.2772683
-0.00020223433
-1.3652619
-0.151013
-0.29766999
-0.14955244
-0.21406866
-0.14530805
0.044828674
-0.14282798
0.15159777
-0.25534851
-0.15038848
-0.089106512
-0.14900212
0.16708472
-0.15136391
0.30956334
-0.15965855
0.30825804
-0.17132449
0.22531083
-0.18783405
0.047163628
-0.20530975
-0.18834301
-0.21363653
-0.29895678
-0.20489638
-0.28059959
-0.16542385
-0.20421463
-0.16810869
-0.090091885
-0.1726398
0.026332065
-0.18788886
0.085667346
-0.21758984
0.097907653
-0.2522504
0.095759025
-0.28752802
0.084067306
-0.32310463
0.063750658
-0.35666358
0.039409802
-0.38606081
0.016575523
-0.41071299
0.00015974641
-0.43237362
-0.0083093492
-0.45406137
-0.01052487
-0.47828342
-0.0093282571
-0.50629929
-0.006990513
-0.53834258
-0.0047168434
-0.57420512
-0.0029756787
-0.61357619
-0.0018374976
-0.65619902
-0.0012011404
-0.70192524
-0.00091255964
-0.75072869
-0.00082428498
-0.80269518
-0.00082108463
-0.85800516
-0.00083413644
-0.9169039
-0.00082359705
-0.97970002
-0.00077199382
-1.0467131
-0.00067776911
-1.1183492
-0.00054544866
-1.1949726
-0.0003832926
-1.2770872
-0.00019897906
-1.3650629
-0.15089001
-0.2554715
-0.1518035
-0.29541893
-0.14974777
-0.20962893
-0.14574485
0.047745541
-0.14427114
0.15357462
-0.089667159
-0.14982784
0.16996565
-0.15188305
0.3168326
-0.15863318
0.31681632
-0.16821684
0.23669176
-0.18270542
0.058945188
-0.19961561
-0.18343236
-0.21022039
-0.30748748
-0.20510582
-0.29576248
-0.18973349
-0.21581543
-0.15382305
-0.099752012
-0.15844857
0.025180722
-0.17148846
0.096617838
-0.19883936
0.11296463
-0.23264681
0.11097927
-0.26747065
0.099663008
-0.30312373
0.078045886
-0.33739986
0.050091011
-0.36734479
0.021913669
-0.39139896
0.00032150138
-0.41087475
-0.011406972
-0.429276
-0.014705634
-0.4498806
-0.013143394
-0.47446829
-0.0098955132
-0.50339429
-0.0066685043
-0.53639092
-0.0041369167
-0.57304388
-0.0024259848
-0.6129877
-0.0014212138
-0.65597895
-0.00092829419
-0.70190951
-0.0007529284
-0.75080005
-0.00073628992
-0.80277998
-0.00077532001
-0.85806397
-0.00081041571
-0.91691708
-0.00080924749
-0.97966276
-0.00076135366
-1.0466295
-0.00066869029
-1.118226
-0.00053771495
-1.1948182
-0.00037752866
-1.2769087
-0.00019590745
-1.364867
-0.15165289
-0.088904279
-0.15303588
-0.25423912
-0.15308092
-0.29208579
-0.15063846
-0.20473533
-0.14684147
0.050315873
-0.14648104
0.15501424
0.17331835
-0.15318054
0.32301927
-0.15806972
0.32367003
-0.16548688
0.24584576
-0.17737084
0.069382467
-0.1931427
-0.17756065
-0.20548733
-0.31455997
-0.2031479
-0.30943147
-0.19143684
-0.23548326
-0.17006565
-0.10820495
-0.14537011
0.023575028
-0.15684287
0.10679773
-0.18166835
0.12845699
-0.21433172
0.1268691
-0.24853664
0.1163321
-0.28413974
0.094175616
-0.31925346
0.062913835
-0.35022268
0.028827161
-0.37425828
0.00078428007
-0.39186174
-0.015340024
-0.40694169
-0.020220109
-0.42376153
-0.018243281
-0.44478072
-0.013815869
-0.47054793
-0.0093424092
-0.50072039
-0.0057684436
-0.5347594
-0.0032894961
-0.57218037
-0.0017745977
-0.61263432
-0.00098294962
-0.6559243
-0.00066329165
-0.70199914
-0.00060418401
-0.75093216
-0.00065751873
-0.80289778
-0.000736856
-0.85813753
-0.00079086332
-0.91693547
-0.00079733693
-0.97962678
-0.00075209398
-1.0465461
-0.00066041482
-1.1181033
-0.00053053827
-1.1946651
-0.00037213199
-1.2767325
-0.00019301705
-1.364674
-0.15532927
0.17699472
-0.1546335
-0.087306657
-0.1557331
-0.25158693
-0.15502873
-0.28769551
-0.15208463
-0.19949216
-0.14842388
0.052258706
-0.14921821
0.1558623
0.32793627
-0.15809753
0.3288106
-0.16321029
0.252585
-0.17222611
0.077978161
-0.18596653
-0.17124092
-0.19946244
-0.32009026
-0.19995704
-0.32139212
-0.19118725
-0.25350849
-0.1734116
-0.1307964
-0.14747421
0.021837971
-0.14363306
0.11601069
-0.16605584
0.14407141
-0.19728278
0.14321303
-0.23067565
0.13379818
-0.26600272
0.11195925
-0.30192337
0.077974083
-0.3343137
0.037635
-0.35903052
0.0017775432
-0.37525155
-0.020220738
-0.38698102
-0.027380502
-0.3997813
-0.024946005
-0.4170588
-0.018987812
-0.43960877
-0.012902942
-0.4669874
-0.0079807586
-0.49850807
-0.0044984335
-0.53355046
-0.0023026347
-0.57165233
-0.0010960558
-0.61252121
-0.00056041468
-0.65602717
-0.00042033887
-0.70218299
-0.00047249607
-0.75111718
-0.00059282729
-0.80304181
-0.00070707589
-0.85822132
-0.00077629336
-0.91695651
-0.00078824686
-0.97959063
-0.0007443667
-1.0464621
-0.00065310976
-1.1179807
-0.00052396795
-1.1945133
-0.00036710779
-1.2765584
-0.000190301
-1.3644837
-0.15879941
0.33140641
-0.15775605
0.18011728
-0.15863006
-0.084409692
-0.15921338
-0.24740229
-0.15760548
-0.28217467
-0.15408435
-0.19383169
-0.15055097
0.053591457
-0.15239788
0.15607821
0.33219737
-0.16148431
0.25686518
-0.16749048
0.084484529
-0.17873248
-0.16497804
-0.19222941
-0.32414153
-0.19541117
-0.33166664
-0.18968252
-0.26991664
-0.17477911
-0.1520008
-0.1522072
0.0029310457
-0.12856728
0.12476445
-0.15238681
0.15941692
-0.18140134
0.15975963
-0.21382937
0.15172431
-0.24860178
0.1308949
-0.28493837
0.094809919
-0.3187592
0.0481836
-0.3448623
0.0033696085
-0.36062259
-0.026145409
-0.36932687
-0.03653074
-0.37783079
-0.033622437
-0.39110487
-0.025677519
-0.4103691
-0.017523004
-0.43498871
-0.010886558
-0.4640816
-0.0061225075
-0.496884
-0.003045613
-0.53280748
-0.0012854946
-0.57146289
-0.00044664671
-0.61263498
-0.00017726449
-0.65627025
-0.00020795526
-0.70244753
-0.00036500614
-0.751345
-0.00054446093
-0.80320442
-0.00068669591
-0.85831092
-0.00076703223
-0.91697772
-0.0007820771
-0.97955292
-0.0007383185
-1.0463769
-0.00064679545
-1.1178579
-0.00051799013
-1.1943624
-0.00036243295
-1.2763862
-0.00018773742
-1.3642959
-0.16040295
0.33380091
-0.15935052
0.33300088
-0.16158724
0.18307445
-0.16339192
-0.08023115
-0.16341419
-0.24159357
-0.16090015
-0.27535887
-0.15675479
-0.18762786
-0.15321484
0.05440842
-0.15602037
0.1555543
0.25877637
-0.1633955
0.088690124
-0.17169607
-0.15909956
-0.18461097
-0.32638416
-0.18998678
-0.34001995
-0.18705787
-0.28455349
-0.17504567
-0.17160869
-0.15517121
-0.016532329
-0.13274383
0.11929023
-0.12309307
0.1743613
-0.16733119
0.17620398
-0.1978457
0.16964542
-0.23175048
0.15024595
-0.26795283
0.11216487
-0.30229332
0.059368648
-0.32994425
0.0046844659
-0.34617716
-0.033711624
-0.35305637
-0.048095513
-0.3577621
-0.044707393
-0.36674583
-0.034175865
-0.38260653
-0.023373998
-0.4045181
-0.014591572
-0.4312837
-0.0082259341
-0.46197817
-0.0040370262
-0.49589259
-0.0015643902
-0.53252858
-0.00031968201
-0.57158986
0.00013651912
-0.61294877
0.00015328279
-0.65663149
-3.5063084e-05
-0.70277747
-0.00028560671
-0.75160385
-0.00051268275
-0.80337843
-0.00067574091
-0.85840221
-0.00076295864
-0.91699684
-0.00077873473
-0.9795125
-0.00073385037
-1.0462899
-0.00064137061
-1.1177345