/*--------------------------------*- C++ -*----------------------------------*\
| =========                 |                                                 |
| \\      /  F ield         | OpenFOAM: The Open Source CFD Toolbox           |
|  \\    /   O peration     | Version:  5.0                                   |
|   \\  /    A nd           | Web:      www.OpenFOAM.org                      |
|    \\/     M anipulation  |                                                 |
\*---------------------------------------------------------------------------*/
FoamFile
{
    version     2.0;
    format      ascii;
    class       surfaceScalarField;
    location    "360";
    object      phi_0;
}
// * * * * * * * * * * * * * * * * * * * * * * * * * * * * * * * * * * * * * //

dimensions      [0 3 -1 0 0 0 0];

internalField   nonuniform List<scalar> 
18180
(
-0.0018889259
-1.3894998
-0.0036756851
-1.2995305
-0.0018407887
-1.387659
-0.0053515041
-1.2155147
-0.0035820161
-1.2977893
-0.0017629984
-1.385896
-0.0069377498
-1.1370309
-0.0052277438
-1.213869
-0.0034336878
-1.2961186
-0.0016486837
-1.3842474
-0.008415685
-1.0636902
-0.0067920946
-1.1354666
-0.0050209339
-1.2122818
-0.0032140566
-1.2945532
-0.0015165015
-1.3827309
-0.0097663983
-0.99514838
-0.0082743409
-1.062208
-0.0065423876
-1.1339451
-0.0047045538
-1.2107913
-0.0029544694
-1.2931152
-0.001378369
-1.3813525
-0.010951385
-0.93108315
-0.0096668489
-0.99375587
-0.0080110291
-1.0607393
-0.0061421759
-1.1325075
-0.0043217442
-1.209424
-0.0026802862
-1.2918133
-0.0012537485
-1.3800987
-0.011928336
-0.87121953
-0.010951644
-0.92979836
-0.0094406671
-0.99232623
-0.0075485483
-1.059333
-0.0056355413
-1.1311937
-0.003911591
-1.2081927
-0.0024307874
-1.2906363
-0.0011502523
-1.3789485
-0.012657131
-0.81529022
-0.012106009
-0.87006517
-0.010852939
-0.92838608
-0.0089563111
-0.99091847
-0.0069139351
-1.0580546
-0.0050808211
-1.1300245
-0.003537343
-1.2070861
-0.0022234835
-1.289563
-0.0010685439
-1.3778799
-0.013009861
-0.76310112
-0.01307279
-0.81432344
-0.012288975
-0.86862913
-0.010420078
-0.92692232
-0.0081856804
-0.98964672
-0.0061950159
-1.0569404
-0.0045739444
-1.1289879
-0.0032292207
-1.2060804
-0.0020626716
-1.2885689
-0.0010023866
-1.3768776
-0.012864943
-0.71442589
-0.013873627
-0.76230029
-0.013826787
-0.81278563
-0.012008112
-0.8670411
-0.0094944307
-0.92561357
-0.0072649888
-0.98857675
-0.0055386391
-1.0559757
-0.0041638642
-1.1280532
-0.002996508
-1.2051466
-0.0019373288
-1.287634
-0.00094429059
-1.3759333
-0.012096432
-0.66914151
-0.014667093
-0.71363242
-0.015615084
-0.76051199
-0.013837814
-0.81095592
-0.010888999
-0.86564653
-0.0083028143
-0.92457574
-0.0064218155
-0.98769357
-0.0050230707
-1.0551165
-0.0038672853
-1.1271825
-0.0028211856
-1.2042627
-0.0018309117
-1.2867473
-0.00088816804
-1.3750451
-0.010557723
-0.62703056
-0.015516295
-0.6682923
-0.017667848
-0.71157966
-0.015979668
-0.75837013
-0.012438506
-0.80940642
-0.0093204303
-0.86462891
-0.0072061714
-0.92379138
-0.005787672
-0.98692897
-0.0046739558
-1.0543098
-0.0036551379
-1.1263485
-0.0026746875
-1.2034189
-0.001727848
-1.2859077
-0.00082962449
-1.3742155
-0.0081539258
-0.58785542
-0.016333288
-0.62621357
-0.020090157
-0.66586999
-0.018507433
-0.7090519
-0.014193136
-0.7566155
-0.010309441
-0.80841741
-0.0078662077
-0.86396887
-0.006427011
-0.92315205
-0.0053986719
-0.98620425
-0.0044426103
-1.0535223
-0.0034818944
-1.1255413
-0.0025307198
-1.2026161
-0.0016168397
-1.2851204
-0.00076569045
-1.3734498
-0.0048077864
-0.55142297
-0.017030307
-0.5871584
-0.023122695
-0.62318103
-0.021627086
-0.66275034
-0.01623858
-0.70700645
-0.011254446
-0.7556705
-0.0083523731
-0.80793124
-0.0068968549
-0.86349903
-0.0060118006
-0.92253892
-0.0051739297
-0.98547293
-0.0042603376
-1.0527439
-0.0033078828
-1.1247641
-0.0023712529
-1.2018616
-0.0014919035
-1.2843942
-0.00069551728
-1.3727543
-0.00051405887
-0.5174518
-0.017574368
-0.55087891
-0.026980863
-0.58330024
-0.025577666
-0.61923045
-0.018697617
-0.6602913
-0.012179421
-0.70608148
-0.0085674427
-0.75545543
-0.0071163463
-0.80771175
-0.006466172
-0.86304466
-0.0058276899
-0.92188516
-0.0050131932
-0.98472008
-0.0040733282
-1.0519784
-0.0031065432
-1.1240289
-0.0021871262
-1.2011664
-0.001352788
-1.283737
-0.00062104106
-1.3721332
0.0048838431
-0.48573995
-0.017940669
-0.5170855
-0.031869861
-0.54598991
-0.030598256
-0.57827965
-0.021707981
-0.61622009
-0.013078905
-0.65939182
-0.0084407712
-0.70620815
-0.0069571061
-0.75561467
-0.0066669791
-0.80751094
-0.0063576808
-0.86251467
-0.0057372495
-0.9211611
-0.0048435319
-0.98394987
-0.0038427867
-1.0512422
-0.0028648206
-1.1233512
-0.0019785445
-1.2005407
-0.0012043777
-1.2831536
-0.0005462628
-1.371587
0.011560859
-0.45623607
-0.018239869
-0.48544075
-0.038028429
-0.51092693
-0.036927438
-0.53966073
-0.025420877
-0.57456675
-0.01394967
-0.61534932
-0.0078727921
-0.6599598
-0.0062805065
-0.70688475
-0.0065513972
-0.75573025
-0.0067154677
-0.80715316
-0.0064198098
-0.86183211
-0.005642378
-0.92036225
-0.0046048203
-0.98318784
-0.003546306
-1.0505607
-0.0025838516
-1.1227459
-0.0017540129
-1.199991
-0.0010548256
-1.2826451
-0.00047550716
-1.3711114
0.019995632
-0.42933201
-0.018210836
-0.45626511
-0.045586506
-0.47788268
-0.044747497
-0.50310687
-0.029976013
-0.5351056
-0.014798185
-0.57371824
-0.0067379402
-0.61648418
-0.0049420505
-0.66129826
-0.0059585587
-0.70747759
-0.0069392298
-0.75550649
-0.0070996609
-0.80647331
-0.0065078585
-0.86096663
-0.0054357422
-0.91953133
-0.0042591993
-0.98247495
-0.0031853722
-1.0499592
-0.002276595
-1.1222233
-0.0015269296
-1.1995189
-0.00091295005
-1.2822076
-0.0004121237
-1.3706993
0.030204356
-0.40486167
-0.017051909
-0.43049094
-0.0545043
-0.44734731
-0.054155587
-0.46847459
-0.035452195
-0.49763069
-0.015626888
-0.53427689
-0.0048921997
-0.57556398
-0.0027523744
-0.61867385
-0.0047219481
-0.66253487
-0.0069355863
-0.70748123
-0.0078017974
-0.75480435
-0.0075164358
-0.80546473
-0.0064010473
-0.86000132
-0.0050462988
-0.91874423
-0.0038074017
-0.98185292
-0.0027817819
-1.049454
-0.0019634124
-1.1217868
-0.0013113542
-1.1991205
-0.00078599175
-1.2818338
-0.0003582421
-1.3703411
0.040425397
-0.3806253
-0.013661756
-0.40825182
-0.064573994
-0.42042125
-0.065351883
-0.43615102
-0.041952975
-0.46197381
-0.016414322
-0.49684326
-0.0021770252
-0.53699207
0.00050568651
-0.57882204
-0.002652314
-0.62074349
-0.0065519307
-0.66291852
-0.0085387013
-0.70674433
-0.0086982429
-0.75362255
-0.0075732612
-0.80429252
-0.0059713879
-0.85907624
-0.0044822758
-0.91806936
-0.0032842432
-0.98135046
-0.0023667189
-1.0490507
-0.0016653881
-1.1214328
-0.0011186827
-1.1987878
-0.00067849621
-1.2815135
-0.00031502711
-1.3700261
0.050915444
-0.35549979
-0.0083060294
-0.38598102
-0.075688425
-0.39713739
-0.078825019
-0.40694811
-0.049926271
-0.42817772
-0.017130731
-0.4612574
0.0015673844
-0.50058767
0.0050791646
-0.54156555
0.00047616125
-0.58195051
-0.0056470654
-0.62164835
-0.0093129948
-0.66214423
-0.010148078
-0.70529449
-0.0090242276
-0.75217158
-0.0070983563
-0.80316555
-0.0052557752
-0.85830274
-0.0038047484
-0.91754886
-0.0027406218
-0.98097656
-0.0019715367
-1.0487445
-0.0013995842
-1.1211519
-0.00095599799
-1.1985103
-0.00059227528
-1.2812362
-0.0002827755
-1.3697433
0.061360757
-0.33071432
-0.0022581064
-0.36154772
-0.086260701
-0.37540875
-0.095319662
-0.38064275
-0.060380906
-0.39649348
-0.01795019
-0.42735826
0.0065010071
-0.46619102
0.011205432
-0.50671393
0.0049147732
-0.54600416
-0.0040597913
-0.58353779
-0.010106185
-0.62085516
-0.011993219
-0.66029909
-0.010901199
-0.70341752
-0.0085210194
-0.75074892
-0.0061797326
-0.80224159
-0.0043661299
-0.85774135
-0.0030923925
-0.91719709
-0.0022246188
-0.98072347
-0.0016215009
-1.0485226
-0.0011769645
-1.1209309
-0.00082597315
-1.1982766
-0.00052693755
-1.2809921
-0.00026062916
-1.3694826
0.071413053
-0.30599106
0.0026168463
-0.33558927
-0.096738271
-0.35107015
-0.1150827
-0.35564571
-0.074266076
-0.36675758
-0.019474833
-0.39496883
0.012776508
-0.43363376
0.019105249
-0.47409084
0.010940957
-0.51274012
-0.0016003217
-0.54846363
-0.010900138
-0.58274383
-0.014372031
-0.61847635
-0.013382876
-0.65781741
-0.010376061
-0.70156248
-0.0073272233
-0.74960143
-0.0049962436
-0.80161148
-0.003423373
-0.85741037
-0.0024182085
-0.9170035
-0.0017731626
-0.98057181
-0.0013328034
-1.0483668
-0.0010020555
-1.1207548
-0.00072788215
-1.1980757
-0.00048048115
-1.2807722
-0.00024641848
-1.3692362
0.080738194
-0.28141156
0.0060413711
-0.30941559
-0.10842594
-0.3239016
-0.13588897
-0.33026388
-0.091467314
-0.33844448
-0.022243353
-0.36398906
0.020529505
-0.40272183
0.029004179
-0.44353269
0.0188198
-0.48196968
0.001931591
-0.51627203
-0.011675135
-0.54768863
-0.017453794
-0.57966207
-0.016692705
-0.61516652
-0.012832383
-0.65536109
-0.0087886063
-0.7001011
-0.0057288709
-0.7488688
-0.0037327995
-0.80130205
-0.002536057
-0.85729253
-0.0018374726
-0.91693919
-0.0014087712
-0.98049584
-0.0011117814
-1.0482571
-0.00087348586
-1.1206092
-0.00065885321
-1.1978973
-0.00044976379
-1.2805689
-0.00023720568
-1.368999
0.089118392
-0.25771862
0.0091891969
-0.28455939
-0.12067575
-0.29716578
-0.15523073
-0.30455983
-0.10985632
-0.31187487
-0.026104524
-0.33458331
0.029871312
-0.37333087
0.041157598
-0.41487525
0.028792541
-0.45350544
0.0068033055
-0.4868414
-0.012383235
-0.51556393
-0.021446421
-0.543696
-0.021098628
-0.57525615
-0.016097684
-0.61190122
-0.010677021
-0.65347267
-0.0066009616
-0.69922901
-0.0040164003
-0.7485852
-0.0025536875
-0.80128442
-0.0017860732
-0.85734393
-0.0013823043
-0.91696565
-0.0011387061
-0.98046892
-0.00095575446
-1.0481748
-0.00078544818
-1.1204826
-0.00061450985
-1.1977326
-0.00043104132
-1.2803751
-0.0002306756
-1.3687683
0.096586938
-0.23537579
0.011953761
-0.26048318
-0.13279004
-0.2724451
-0.17235241
-0.2800441
-0.12705518
-0.28736098
-0.030843706
-0.30713568
0.040756749
-0.34546874
0.055704003
-0.38787727
0.040988624
-0.42707133
0.013206021
-0.45990815
-0.012998067
-0.48622656
-0.026597351
-0.510413
-0.026911798
-0.53788284
-0.020403534
-0.5709503
-0.013122027
-0.60945621
-0.0076550104
-0.65241863
-0.0042634469
-0.69898196
-0.0024362595
-0.74870263
-0.0015790615
-0.80149143
-0.0012194387
-0.85750679
-0.0010604992
-0.91704386
-0.00095750635
-0.98046717
-0.00085504985
-1.0481052
-0.00073032126
-1.1203668
-0.00058921069
-1.1975744
-0.00042090224
-1.2801848
-0.0002261137
-1.3685422
0.10323822
-0.21456774
0.014372624
-0.23779466
-0.14459302
-0.24868021
-0.18853324
-0.25626427
-0.14286986
-0.26422942
-0.036474491
-0.28173019
0.052667482
-0.31904642
0.072461335
-0.36222608
0.05533371
-0.40222236
0.021127344
-0.43499266
-0.013548699
-0.45935752
-0.033202182
-0.47962173
-0.034484759
-0.50284004
-0.026006211
-0.53228016
-0.016260699
-0.56781163
-0.0089327829
-0.60817844
-0.0044547275
-0.65222735
-0.002135685
-0.69928253
-0.001161596
-0.74912009
-0.00087345292
-0.80183742
-0.00084403101
-0.85772326
-0.00086105267
-0.91714031
-0.0008513245
-0.98047089
-0.00079651819
-1.048039
-0.00070043353
-1.1202556
-0.00057715046
-1.1974182
-0.00041706936
-1.2799939
-0.00022388592
-1.3683183
0.10916253
-0.19536074
0.016517512
-0.21671263
-0.15585319
-0.22653449
-0.2035958
-0.23361765
-0.15737889
-0.24175524
-0.042522086
-0.25818182
0.064954636
-0.29401735
0.091122092
-0.33770717
0.071679578
-0.37857194
0.030439281
-0.41153429
-0.014314313
-0.43422704
-0.04169548
-0.45086422
-0.044213716
-0.46989278
-0.033187006
-0.49565924
-0.020235237
-0.52830562
-0.010473375
-0.56627103
-0.0045607105
-0.60807246
-0.0015890698
-0.65277396
-0.00046152542
-0.6999826
-0.00028085738
-0.74971269
-0.00044385681
-0.80223759
-0.00063953289
-0.85794478
-0.00076200538
-0.91722963
-0.00080121027
-0.9804662
-0.00076562202
-1.0479738
-0.00068816934
-1.1201446
-0.00057435582
-1.1972609
-0.0004177962
-1.2798
-0.00022391931
-1.3680944
0.1144419
-0.17776585
0.018443291
-0.19728652
-0.16645151
-0.20611431
-0.2175324
-0.21259788
-0.17029899
-0.22069755
-0.04788283
-0.2363945
0.0772699
-0.27049709
0.11139943
-0.31429468
0.090075292
-0.35610289
0.041466549
-0.38959921
-0.015348353
-0.41050026
-0.05259924
-0.42332328
-0.05649969
-0.43857825
-0.0422346
-0.46084518
-0.025183513
-0.49071097
-0.012304038
-0.52647496
-0.004542164
-0.56628958
-0.00071801312
-0.60894351
0.00061034718
-0.65384583
0.0006401072
-0.70090357
0.00020173781
-0.75035828
-0.0002551606
-0.80262196
-0.0005705025
-0.85813628
-0.0007362876
-0.91729455
-0.00078506417
-0.98044676
-0.00075612162
-1.0479059
-0.00069025206
-1.1200287
-0.0005785004
-1.1971002
-0.00042092519
-1.279603
-0.00022524519
-1.3678692
0.1179965
-0.18926654
0.020194307
-0.17951687
-0.17629103
-0.18744699
-0.23033143
-0.19331529
-0.18174408
-0.20115279
-0.05221287
-0.21636751
0.089467757
-0.24859235
0.13268193
-0.29177959
0.11063196
-0.33485135
0.05501678
-0.36965312
-0.015616029
-0.38933154
-0.065735374
-0.39736412
-0.071566302
-0.40825667
-0.053313616
-0.42749923
-0.031216825
-0.45481187
-0.014426738
-0.48858827
-0.0043452083
-0.52667191
0.00056922217
-0.56757682
0.0021633784
-0.61049655
0.0019929588
-0.65519868
0.0011733924
-0.70187522
0.00034330589
-0.75095675
-0.00025175604
-0.80294071
-0.00059592901
-0.85827664
-0.00075470103
-0.91732492
-0.00079007257
-0.98041281
-0.00076813763
-1.047828
-0.00070290885
-1.1199042
-0.00058502043
-1.1969361
-0.00042441268
-1.2794038
-0.00022672465
-1.3676425
0.12172066
-0.18351391
0.022046282
-0.19111851
-0.18529371
-0.17051418
-0.24196787
-0.17581055
-0.19183768
-0.1832217
-0.055453818
-0.19791184
0.10140628
-0.22830603
0.15412314
-0.27003356
0.13221199
-0.31335962
0.071042321
-0.35087689
-0.013532747
-0.3717364
-0.079599365
-0.37546754
-0.089171542
-0.37975888
-0.066352731
-0.39521756
-0.038321636
-0.42039442
-0.016806099
-0.45243251
-0.0038928587
-0.48904062
0.0023765115
-0.5284792
0.0043194699
-0.56973291
0.0038974047
-0.61240099
0.0025692004
-0.65659449
0.0012215291
-0.70275345
0.00022835093
-0.75143686
-0.00037090076
-0.80316574
-0.00067524766
-0.85835609
-0.00079355356
-0.91732144
-0.00081500815
-0.98036594
-0.00079077353
-1.0477401
-0.00071286095
-1.1197764
-0.00059013371
-1.1967703
-0.00042727079
-1.2792032
-0.00022762226
-1.3674148
0.12545132
-0.177547
0.024397441
-0.18586507
-0.19291741
-0.18349481
-0.25246683
-0.16001523
-0.20067533
-0.1669729
-0.057729855
-0.18094566
0.11297834
-0.2094839
0.17501936
-0.24920226
0.15388534
-0.29170691
0.087318642
-0.32963595
-0.0087370552
-0.35567258
-0.092940578
-0.35839519
-0.10872518
-0.35591391
-0.081579015
-0.3645326
-0.046305956
-0.38723324
-0.019335418
-0.4178651
-0.0030810955
-0.45324427
0.0048165294
-0.49148064
0.0072104274
-0.53137016
0.0064905344
-0.57232604
0.0045082741
-0.61434007
0.0024634723
-0.65783644
0.0009135308
-0.70343863
-4.8315282e-05
-0.75175944
-0.00055355891
-0.80328743
-0.00077421909
-0.85837543
-0.00084393111
-0.91729251
-0.00084945475
-0.98030726
-0.00080721754
-1.0476457
-0.00072046778
-1.1196461
-0.00059501081
-1.1966026
-0.00042905789
-1.2790018
-0.00022765565
-1.3671872
0.12905428
-0.17146807
0.027035646
-0.18018521
-0.1994863
-0.17929619
-0.26279549
-0.17316615
-0.20840816
-0.1522824
-0.059296099
-0.16540665
0.12403733
-0.19200464
0.19495958
-0.22942412
0.17505482
-0.27037174
0.10335803
-0.30774629
-0.0021881622
-0.33618484
-0.1055122
-0.34310096
-0.12997153
-0.33714883
-0.10001832
-0.3374746
-0.055472934
-0.35536562
-0.021793072
-0.38477558
-0.0017794889
-0.41916671
0.0080072805
-0.45643502
0.010969628
-0.49523984
0.0099201407
-0.53479977
0.0071281819
-0.57494595
0.0041712568
-0.61604785
0.0018616605
-0.65878457
0.0003900223
-0.70387696
-0.00039760335
-0.7519154
-0.00075009873
-0.80331155
-0.00087305552
-0.8583463
-0.00089769864
-0.91724427
-0.00087746411
-0.98023701
-0.00081903894
-1.0475472
-0.00072868607
-1.1195124
-0.0005983222
-1.1964333
-0.0004292459
-1.2788002
-0.00022678916
-1.3669604
0.13248067
-0.16555082
0.029856345
-0.17428877
-0.20499734
-0.17467417
-0.27205267
-0.17003901
-0.21891791
-0.16265639
-0.060230352
-0.15134815
0.13442903
-0.17579835
0.21375849
-0.21080355
0.19510465
-0.24947394
0.11905378
-0.2860675
0.0038912564
-0.31382571
-0.11672144
-0.32497559
-0.1530638
-0.32000869
-0.12222068
-0.31494648
-0.067430298
-0.32551724
-0.024099397
-0.35305929
0.00018073247
-0.3867358
0.012068931
-0.42322836
0.01572424
-0.46118964
0.014335404
-0.4996551
0.010579973
-0.53825156
0.0064665366
-0.57724123
0.0031450099
-0.6173312
0.00096892669
-0.65936347
-0.00021573417
-0.70405883
-0.00074578699
-0.75191971
-0.00092659231
-0.80325801
-0.00095807431
-0.85828593
-0.00093859068
-0.91718314
-0.00089435515
-0.98016169
-0.00082892537
-1.0474469
-0.00073320584
-1.1193775
-0.00059864274
-1.1962639
-0.00042773476
-1.2785993
-0.00022514643
-1.3667352
0.13572775
-0.1599973
0.032783661
-0.16847813
-0.20933862
-0.16994748
-0.28002868
-0.16669815
-0.22836245
-0.16059447
-0.068275617
-0.15461113
0.14415448
-0.1610736
0.23133486
-0.19337472
0.21374553
-0.22944444
0.13403559
-0.26445575
0.008418272
-0.29059451
-0.12807123
-0.30247592
-0.17678875
-0.30125064
-0.14738784
-0.29484154
-0.083697521
-0.29867925
-0.026908245
-0.32270839
0.0030102289
-0.35588879
0.01710297
-0.39176984
0.021582351
-0.42908647
0.019876872
-0.46673111
0.015022299
-0.50409743
0.0094889998
-0.54127402
0.0048529814
-0.5789492
0.0017210405
-0.61808331
-1.7983157e-05
-0.65956122
-0.00079342443
-0.7040112
-0.0010404355
-0.75180587
-0.0010610043
-0.80315508
-0.0010151955
-0.85820932
-0.00096047045
-0.91711703
-0.00090379546
-0.98008682
-0.00083358605
-1.0473466
-0.00073337952
-1.1192428
-0.00059675525
-1.1960949
-0.00042488954
-1.2783995
-0.00022285133
-1.3665124
0.13877597
-0.15492846
0.035754761
-0.1629684
-0.21246199
-0.16535476
-0.28661397
-0.16336219
-0.23663884
-0.15842176
-0.075558026
-0.15331206
0.1452026
-0.15565925
0.2475574
-0.17729614
0.230871
-0.21050018
0.14794771
-0.24335656
0.011990251
-0.26802773
-0.1400248
-0.27864095
-0.19896614
-0.28029853
-0.17298749
-0.27565098
-0.10336412
-0.27517493
-0.031565675
-0.29402182
0.0069010527
-0.32659921
0.023218085
-0.36200391
0.028626889
-0.39881438
0.026665855
-0.43587545
0.020612941
-0.47232175
0.013394133
-0.50800256
0.0070944266
-0.54351547
0.0026896262
-0.57991778
0.00018465662
-0.61828595
-0.00093487733
-0.65941977
-0.001265244
-0.70378639
-0.001250919
-0.75161595
-0.0011418207
-0.80302845
-0.0010407531
-0.85812904
-0.00096709505
-0.91705373
-0.0009059219
-0.98001449
-0.00083284335
-1.0472471
-0.00073114781
-1.1191084
-0.00059313312
-1.1959267
-0.00042076994
-1.2782016
-0.0002200318
-1.3662924
0.14163643
-0.15050491
0.038735431
-0.15790914
-0.2143553
-0.16107509
-0.29181006
-0.16015868
-0.24369184
-0.15630919
-0.082034185
-0.1519456
0.14636028
-0.15446974
0.25848867
-0.16659052
0.24630863
-0.19273377
0.16053924
-0.22309171
0.014852735
-0.24621904
-0.15196371
-0.25608882
-0.21907755
-0.25852955
-0.19644258
-0.25684345
-0.12425296
-0.25476215
-0.038832309
-0.2679083
0.011504314
-0.29862508
0.030549146
-0.33393028
0.036904639
-0.37028165
0.034794223
-0.40694275
0.027498372
-0.44276088
0.018348878
-0.47727649
0.010000101
-0.51090823
0.0039327776
-0.54475862
0.00038162552
-0.58011475
-0.001221704
-0.61799913
-0.0016666518
-0.65901836
-0.0015884868
-0.70344882
-0.0013663884
-0.75139138
-0.0011691635
-0.80290004
-0.0010394265
-0.85805671
-0.00096120077
-0.91699845
-0.00090096643
-0.97994636
-0.00082861264
-1.0471496
-0.00072639118
-1.1189751
-0.00058746461
-1.19576
-0.00041563997
-1.278006
-0.00021683174
-1.3660755
0.14435542
-0.14689394
0.041735823
-0.15350531
-0.21501608
-0.15724835
-0.29560888
-0.15727627
-0.24946049
-0.15439003
-0.087604981
-0.15073839
0.14756055
-0.15314587
0.26936041
-0.16534149
0.26073264
-0.18101453
0.17168496
-0.20387949
0.016908778
-0.22514776
-0.16357794
-0.23460481
-0.23787907
-0.2372873
-0.21738165
-0.23759047
-0.14479728
-0.23629912
-0.0488517
-0.24474276
0.015970405
-0.27237439
0.039330442
-0.30740638
0.046377017
-0.34340265
0.044299742
-0.37978717
0.035793415
-0.41523779
0.024521934
-0.44893394
0.013723875
-0.48100027
0.0055291588
-0.51250461
0.00056668054
-0.54494367
-0.001716205
-0.57962025
-0.002327088
-0.61733869
-0.0021523672
-0.65845448
-0.001752153
-0.70306305
-0.0013918001
-0.75116875
-0.0011509013
-0.80278857
-0.0010170848
-0.85800082
-0.00094543353
-0.91695398
-0.00089100031
-0.97988398
-0.00082124507
-1.0470548
-0.00071911559
-1.1188435
-0.0005805576
-1.1955951
-0.00040985207
-1.277813
-0.0002134089
-1.3658621
-0.14425518
0.14697497
0.044776993
-0.14993511
-0.21445774
-0.15406365
-0.29800907
-0.15484815
-0.25392728
-0.15280949
-0.092201441
-0.14979357
0.14892372
-0.15210156
0.27981586
-0.16360132
0.27467338
-0.17928223
0.18812141
-0.19745098
0.018484372
-0.20545508
-0.17456064
-0.21416506
-0.25557912
-0.21690475
-0.23641866
-0.21825028
-0.16382605
-0.2185617
-0.061057907
-0.22409291
0.019294268
-0.24806662
0.049381491
-0.28242544
0.057075825
-0.31810519
0.055150832
-0.35425374
0.04557213
-0.38956589
0.032073511
-0.42278937
0.018440956
-0.45365102
0.0075820047
-0.48305311
0.00074173169
-0.51267966
-0.0024910676
-0.54416881
-0.0033486
-0.57859874
-0.0030422595
-0.6164488
-0.0023810985
-0.65782554
-0.001769054
-0.7026858
-0.0013421713
-0.75097748
-0.0010977582
-0.80270789
-0.00097951532
-0.85796674
-0.00092315247
-0.91692183
-0.00087768107
-0.97982754
-0.00081147971
-1.0469624
-0.0007105503
-1.1187135
-0.00057282122
-1.1954321
-0.00040364104
-1.2776228
-0.0002098811
-1.3656522
-0.14732106
0.047842867
-0.14258824
0.14947321
-0.21273898
-0.15165387
-0.29909911
-0.15297361
-0.25715428
-0.15162115
-0.095881347
-0.14912958
0.15060973
-0.15147959
0.28957183
-0.16185753
0.28788146
-0.1768094
0.20389623
-0.19505704
0.03269774
-0.21166435
-0.18457799
-0.19543773
-0.27198404
-0.19776015
-0.25369521
-0.1996282
-0.18095863
-0.20111771
-0.074016457
-0.20560315
0.020951947
-0.22575059
0.060243271
-0.2589284
0.068987499
-0.29433711
0.067267522
-0.33022188
0.056874201
-0.36555581
0.041153434
-0.39864581
0.024350925
-0.42869934
0.010228903
-0.45629792
0.00092442768
-0.48323581
-0.0036279448
-0.51154279
-0.004855378
-0.54266203
-0.0043816148
-0.57725938
-0.0033563905
-0.61547351
-0.0023781369
-0.65721645
-0.0016661192
-0.70236185
-0.0012363862
-0.75083885
-0.001020915
-0.8026665
-0.00093311563
-0.85795678
-0.0008974005
-0.91690211
-0.00086253425
-0.97977648
-0.00080051373
-1.0468724
-0.00070115878
-1.1185851
-0.00056454774
-1.1952712
-0.000397263
-1.2774354
-0.00020635646
-1.3654459
-0.15004626
-0.21001377
-0.14572505
0.050979678
-0.14228911
0.15181192
-0.29903236
-0.15172062
-0.25926825
-0.15085964
-0.098673968
-0.14882853
0.1525789
-0.15109875
0.29851863
-0.16042639
0.29986182
-0.17383788
0.21872263
-0.1916358
0.046687798
-0.2090471
-0.1809671
-0.21527524
-0.28727956
-0.18014221
-0.26915876
-0.1822966
-0.19614958
-0.18443725
-0.086487606
-0.18864656
0.02090182
-0.20555302
0.071403964
-0.23691129
0.082067688
-0.27200859
0.080509681
-0.30757927
0.069676154
-0.34302383
0.051890152
-0.37629253
0.031677799
-0.40597269
0.013650759
-0.43212119
0.001153369
-0.45652686
-0.0052154866
-0.48164827
-0.0069988041
-0.50939936
-0.00632209
-0.54072156
-0.0048045305
-0.57581124
-0.0033145772
-0.61453707
-0.002189338
-0.65669323
-0.0014756492
-0.70212259
-0.0010947043
-0.75076506
-0.0009328775
-0.80266673
-0.0008843259
-0.85796985
-0.00087070624
-0.91689394
-0.00084687798
-0.97973012
-0.00078905702
-1.0467845
-0.0006913207
-1.1184584
-0.00055617947
-1.1951123
-0.0003909257
-1.2772508
-0.00020291822
-1.365243
-0.1510893
-0.29798933
-0.14949189
-0.20624693
-0.14522242
0.053912981
-0.14283301
0.15409725
-0.26045374
-0.15053513
-0.10049717
-0.14903643
0.15479109
-0.15104073
0.30663487
-0.15921498
0.31016562
-0.17073019
0.23203475
-0.18715001
0.059904858
-0.20485286
-0.17595043
-0.21406378
-0.29662645
-0.20592834
-0.28296986
-0.16633111
-0.20952723
-0.16891896
-0.097830428
-0.17309443
0.019644708
-0.18738945
0.082324617
-0.21647368
0.096199493
-0.25104309
0.094730386
-0.2862293
0.083879211
-0.32178233
0.064370596
-0.35550428
0.040654357
-0.38526909
0.01807768
-0.41039961
0.0015034446
-0.43247127
-0.0073439934
-0.45439835
-0.0099563345
-0.47869073
-0.0090454178
-0.50667603
-0.0068778765
-0.53864821
-0.0046931704
-0.57443265
-0.0029923851
-0.61373402
-0.0018680699
-0.65630081
-0.0012319647
-0.70198533
-0.00093829381
-0.75075964
-0.00084426293
-0.8027068
-0.00083614127
-0.85800442
-0.00084515128
-0.91689566
-0.00083156388
-0.97968761
-0.00077764629
-1.0466982
-0.00068165351
-1.1183329
-0.00054796951
-1.1949552
-0.00038476733
-1.277069
-0.00019960935
-1.3650434
-0.15098224
-0.2605608
-0.15181698
-0.29566425
-0.14961686
-0.20185249
-0.14564538
0.056725356
-0.14428204
0.15604511
-0.10120516
-0.14982714
0.15735842
-0.15160376
0.31388364
-0.1582895
0.31870961
-0.16775898
0.24346228
-0.18215772
0.071911662
-0.19915681
-0.17026002
-0.21054326
-0.30461303
-0.2060772
-0.29785255
-0.19104566
-0.22130556
-0.15455277
-0.10787416
-0.15887523
0.017622103
-0.17107182
0.09264676
-0.19771159
0.11110866
-0.23138284
0.10979236
-0.26610507
0.099320487
-0.30167057
0.078641019
-0.33605275
0.051516344
-0.36636626
0.023790261
-0.39098167
0.0020892497
-0.41098541
-0.01010464
-0.42971062
-0.013939074
-0.45041561
-0.012771448
-0.4749647
-0.0097559382
-0.50379797
-0.0066482188
-0.53669316
-0.0041692358
-0.5732558
-0.0024752213
-0.61312687
-0.0014692207
-0.65606356
-0.0009679693
-0.70195565
-0.0007833313
-0.75082057
-0.00075901129
-0.80278393
-0.00079174568
-0.85805782
-0.00082211584
-0.91690511
-0.00081751079
-0.97964775
-0.00076705692
-1.0466128
-0.00067251021
-1.1182084
-0.00054012225
-1.1947999
-0.00037889233
-1.2768897
-0.00019646835
-1.3648469
-0.15161019
-0.10057721
-0.15307545
-0.25930233
-0.15303294
-0.29224816
-0.15045407
-0.1970438
-0.14673575
0.059179058
-0.14650444
0.15744932
0.16047653
-0.15294525
0.3201099
-0.15783002
0.32558339
-0.16516329
0.25266473
-0.17696143
0.082482446
-0.1927285
-0.16372856
-0.20568827
-0.31112696
-0.20402934
-0.31124272
-0.19268703
-0.24074663
-0.17160459
-0.11664184
-0.14578509
0.015249557
-0.15650268
0.10214161
-0.18056667
0.12642719
-0.21303013
0.12553334
-0.24712382
0.11578847
-0.28257305
0.094684037
-0.31771359
0.064491974
-0.34902839
0.031128096
-0.3737041
0.0030863937
-0.39197881
-0.013594125
-0.40749593
-0.019192558
-0.42445714
-0.017761086
-0.44542597
-0.013648741
-0.4710719
-0.0093327495
-0.50111344
-0.0058257699
-0.53503663
-0.0033664109
-0.57236461
-0.001847649
-0.61274844
-0.001042881
-0.65598865
-0.00070887957
-0.70203011
-0.00063795765
-0.75094163
-0.00068181313
-0.80289386
-0.00075394064
-0.858126
-0.00080279439
-0.91691983
-0.00080558609
-0.97960922
-0.00075767063
-1.0465277
-0.00066405456
-1.1180844
-0.0005327657
-1.194646
-0.00037335198
-1.2767128
-0.00019349762
-1.3646534
-0.15513676
0.16400309
-0.15459057
-0.09906209
-0.15570061
-0.25663466
-0.15491938
-0.28778286
-0.15184854
-0.191931
-0.14830716
0.060981777
-0.14925041
0.15826007
0.32512607
-0.15796142
0.3307684
-0.16301502
0.25944521
-0.17194376
0.091110909
-0.18558989
-0.15686044
-0.19959663
-0.31607701
-0.20073822
-0.32292022
-0.19235183
-0.25854917
-0.17488449
-0.13918878
-0.14905766
0.012790189
-0.14332572
0.11065592
-0.16501699
0.14182386
-0.19596334
0.14174042
-0.22923721
0.13301917
-0.26435452
0.11233291
-0.30022193
0.079688663
-0.33291028
0.040422166
-0.35832246
0.0047458626
-0.37536357
-0.017896247
-0.38767669
-0.02601146
-0.40067703
-0.024330171
-0.41788805
-0.018796681
-0.44027803
-0.012916097
-0.46748855
-0.0080768847
-0.49886232
-0.0046155772
-0.53378746
-0.0024114308
-0.57180083
-0.0011847538
-0.61260657
-0.00062767175
-0.65606985
-0.00046975804
-0.70219831
-0.00050802397
-0.75111542
-0.00061760627
-0.80303019
-0.00072420843
-0.85820458
-0.0007880556
-0.91693736
-0.00079623328
-0.97957066
-0.00074965722
-1.046442
-0.00065647235
-1.1179607
-0.00052596481
-1.1944934
-0.00036816072
-1.2765381
-0.00019069414
-1.3644627
-0.15876092
0.32875024
-0.15766342
0.16707594
-0.15856227
-0.096200428
-0.15909853
-0.25245551
-0.15742022
-0.28221118
-0.15378086
-0.1864573
-0.15041423
0.062145595
-0.15243878
0.15843499
0.33421797
-0.16141099
0.26377457
-0.16734439
0.097588857
-0.17842171
-0.15020066
-0.19224967
-0.31959871
-0.19607493
-0.33291244
-0.190746
-0.27472568
-0.17617532
-0.1603062
-0.15376706
-0.0068682007
-0.12939927
0.11869781
-0.15136761
0.15689642
-0.18008955
0.15816911
-0.21239203
0.15069814
-0.24691617
0.13115399
-0.2831756
0.096722338
-0.3172556
0.051599907
-0.34408802
0.007201969
-0.36077856
-0.023065198
-0.37019462
-0.034718117
-0.37897004
-0.03284825
-0.39215895
-0.025473677
-0.41121106
-0.017578564
-0.43561557
-0.011041079
-0.46452436
-0.0062971274
-0.49718077
-0.0032042724
-0.53299462
-0.0014141598
-0.57157142
-0.00054414407
-0.61269009
-0.00024851075
-0.6562911
-0.0002590961
-0.70244723
-0.00040063186
-0.75133239
-0.00056890566
-0.8031855
-0.00070336409
-0.85828928
-0.00077830599
-0.91695528
-0.00078960195
-0.97953071
-0.00074319561
-1.0463553
-0.00064981396
-1.1178369
-0.00051972092
-1.1943418
-0.00036330418
-1.2763655
-0.00018803999
-1.3642747
-0.16045081
0.33590786
-0.15941732
0.33050414
-0.16158673
0.1701004
-0.16329767
-0.092001282
-0.16322177
-0.24665396
-0.16062682
-0.27536522
-0.15638367
-0.18048786
-0.15305437
0.062761182
-0.15607012
0.15786182
0.26575687
-0.16339329
0.10171144
-0.17146697
-0.14411421
-0.18450816
-0.3213364
-0.19051198
-0.34100018
-0.18798719
-0.28912243
-0.17634924
-0.1798131
-0.15666843
-0.026884852
-0.13375041
0.11211159
-0.12281305
0.17157328
-0.16604447
0.17452033
-0.19644076
0.16839743
-0.23009133
0.15045401
-0.26621619
0.11443435
-0.30088761
0.063657377
-0.32931307
0.0097294667
-0.34661552
-0.029579177
-0.35426458
-0.0456974
-0.35921533
-0.043746752
-0.36807153
-0.033982392
-0.38365023
-0.023502294
-0.40528733
-0.014831607
-0.43182504
-0.0084808754
-0.46234061
-0.0042637866
-0.49612126
-0.0017475605
-0.53266122
-0.00045822696
-0.57165734
3.5520702e-05
-0.61297413
8.0888463e-05
-0.65663109
-8.5628958e-05
-0.70276224
-0.00032016903
-0.75158113
-0.00053613343
-0.80335273
-0.00069153947
-0.85837604
-0.00077349765
-0.91697139
-0.00078564147
-0.97948827
-0.00073822446
-1.0462669
-0.00064399427
-1.1177126
-0.00051399571