/*--------------------------------*- C++ -*----------------------------------*\
| =========                 |                                                 |
| \\      /  F ield         | OpenFOAM: The Open Source CFD Toolbox           |
|  \\    /   O peration     | Version:  5.0                                   |
|   \\  /    A nd           | Web:      www.OpenFOAM.org                      |
|    \\/     M anipulation  |                                                 |
\*---------------------------------------------------------------------------*/
FoamFile
{
    version     2.0;
    format      ascii;
    class       volScalarField;
    location    "360";
    object      pMean;
}
// * * * * * * * * * * * * * * * * * * * * * * * * * * * * * * * * * * * * * //

dimensions      [0 2 -2 0 0 0 0];

internalField   nonuniform List<scalar> 
9200
(
0.00058038437
0.00059961253
0.0014612083
0.00061938604
0.0015028531
0.0024117667
0.00065638753
0.0015499222
0.0024743671
0.003239265
0.00070159445
0.0016292275
0.0025539724
0.0033188907
0.0040256356
0.00075820462
0.0017251989
0.0026791633
0.0034256621
0.0041199191
0.0047225201
0.00082803206
0.001837859
0.0028313489
0.0035872041
0.004250693
0.0048280289
0.0053445057
0.00090995887
0.0019665486
0.0030061409
0.0037851577
0.0044438184
0.0049790309
0.0054592957
0.0058878719
0.0010015966
0.0021055269
0.0032006053
0.0040122387
0.0046806528
0.0051983531
0.0056276591
0.0060093522
0.0063568543
0.0010946338
0.0022510624
0.0034070178
0.0042655865
0.0049498953
0.0054683887
0.0058689063
0.0061918728
0.0064829339
0.0067559707
0.001174768
0.0023938135
0.0036231882
0.0045333334
0.0052475554
0.0057742194
0.006167301
0.0064508455
0.0066768494
0.0068842671
0.0070897898
0.0012162343
0.002524983
0.0038357986
0.0048056637
0.0055586887
0.006111519
0.0065048372
0.006773269
0.0069497014
0.007086534
0.0072180098
0.0073641547
0.0011865075
0.002626268
0.0040239539
0.0050656126
0.0058718402
0.0064636669
0.0068773572
0.0071384045
0.0072920904
0.0073689893
0.0074254756
0.0074897842
0.0075843196
0.0010887824
0.0026734675
0.0041623865
0.0052954866
0.0061695323
0.0068190446
0.0072663797
0.0075430255
0.0076807405
0.0077268714
0.0077131536
0.0076990133
0.0077048662
0.007756862
0.00095865038
0.0026499196
0.0042349744
0.0054726992
0.0064369614
0.0071588893
0.0076600833
0.0079675312
0.0081139346
0.0081348069
0.0080816286
0.0079870788
0.0079122953
0.0078696776
0.0078871049
0.00084465211
0.002537991
0.004213676
0.0055709028
0.0066490775
0.0074687813
0.0080410239
0.0084002581
0.0085716182
0.0085928849
0.0085037633
0.0083606058
0.008195699
0.0080714384
0.0079896686
0.0079818572
0.00072134858
0.0023453854
0.0040616335
0.0055615523
0.0067761291
0.0077225586
0.0083946833
0.0088255631
0.0090430074
0.0090810031
0.0089820397
0.0087912718
0.0085682966
0.0083446688
0.0081819553
0.0080716516
0.0080463469
0.0005977357
0.0021026712
0.0037977961
0.0054134429
0.0067879481
0.007888948
0.0086941308
0.0092274118
0.0095131592
0.0095897603
0.0094970929
0.009284122
0.0090009088
0.0087097494
0.0084394559
0.0082505072
0.0081209135
0.0080870556
0.00045927641
0.0018466288
0.0034752791
0.0051292983
0.0066551403
0.0079357457
0.0089083646
0.0095788406
0.0099646013
0.01010421
0.01004018
0.0098203538
0.0095015009
0.0091369333
0.0087901828
0.0084864728
0.0082825325
0.008144168
0.0081090227
0.00028975819
0.0015939579
0.0031086942
0.0047510981
0.0063669755
0.0078354847
0.009003266
0.0098495312
0.010372285
0.010606773
0.01059663
0.010392788
0.010052323
0.0096373473
0.0092039785
0.0088155699
0.0084914531
0.0082848769
0.008146632
0.0081178408
-2.9360334e-05
0.0012851229
0.0027090808
0.0042912715
0.0059471169
0.0075646979
0.0089479817
0.010005567
0.010706118
0.011073762
0.01114964
0.010987578
0.010647736
0.010194459
0.0096953929
0.0092074827
0.0087917062
0.0084612918
0.0082628929
0.0081342138
0.0081181056
-0.00043364153
0.00091661301
0.0022474202
0.0037599443
0.0054127717
0.0071315334
0.0087142228
0.010005135
0.010931283
0.011476243
0.011676745
0.011588456
0.011275226
0.01080477
0.01024946
0.009680222
0.0091530849
0.0087254204
0.0084016186
0.0082229327
0.0081117241
0.0081143071
-0.0007863629
0.00048307899
0.0016566915
0.0031399337
0.0047714941
0.0065557652
0.0082956304
0.0098235983
0.011001222
0.011777005
0.012150184
0.012174383
0.011919122
0.011456965
0.010865102
0.010220833
0.009597137
0.0090474232
0.0086228325
0.0083193443
0.0081700847
0.0080840229
0.0081102673
-0.0010618097
3.4933444e-05
0.00088290885
0.0023372277
0.0040145032
0.0058373945
0.0077039647
0.0094452292
0.010886053
0.011932067
0.012531274
0.012718491
0.012559677
0.012136769
0.011532469
0.010830544
0.010113054
0.0094522802
0.008896943
0.0084912061
0.0082199432
0.0081097722
0.0080552345
0.0081094418
-0.0013425898
-0.00045886471
-4.3528105e-05
0.0012589001
0.0030413479
0.0049687196
0.0069309347
0.008861399
0.010559727
0.01189463
0.012777735
0.01318339
0.013172036
0.012825994
0.012238706
0.01150143
0.010704533
0.0099315667
0.0092522179
0.0087091597
0.0083365479
0.0081096643
0.0080465365
0.0080290767
0.0081146866
-0.0016488634
-0.0010831883
-0.0010866069
-4.7799309e-05
0.0017320854
0.0038601477
0.0059701024
0.0080598189
0.010001353
0.011629407
0.012830263
0.013523354
0.013720196
0.013500855
0.012967619
0.012222539
0.011365975
0.010491663
0.0096827976
0.0090046638
0.0084908646
0.0081660053
0.007993591
0.0079846872
0.0080086902
0.0081283423
-0.0019957667
-0.0018097789
-0.0022179153
-0.0014822054
0.00010135149
0.0023699176
0.0047384697
0.0070292304
0.0091910105
0.0111133
0.012643608
0.013681403
0.014155751
0.014128227
0.013696409
0.012979334
0.012088434
0.011129191
0.010197941
0.0093744807
0.0087171341
0.008249866
0.0079853121
0.007876925
0.0079278552
0.0079967312
0.0081523518
-0.0024001802
-0.0026667736
-0.0034953522
-0.0030083593
-0.0017069895
0.00046244341
0.0030862572
0.0057044861
0.0081085946
0.01031207
0.012187467
0.013594294
0.014425817
0.014659604
0.014394907
0.01375132
0.012859477
0.011837749
0.010796318
0.0098306646
0.009014635
0.008397935
0.0079927857
0.0078007926
0.0077639848
0.0078791956
0.0079953873
0.0081883278
-0.0028389914
-0.0036300571
-0.0049162531
-0.0047190508
-0.0036331655
-0.0016804213
0.00094322942
0.003920234
0.0067019065
0.0091917292
0.011415456
0.013211541
0.014451603
0.015038074
0.015017959
0.01450984
0.013660576
0.012607211
0.011474572
0.010374176
0.0093980041
0.0086122355
0.0080547353
0.0077270091
0.0076173822
0.0076587061
0.0078413802
0.0080064291
0.008237209
-0.0032809161
-0.0046550366
-0.006421392
-0.0065542751
-0.0057616692
-0.0039978632
-0.0015275567
0.0015720266
0.004801233
0.0077021626
0.010280254
0.012489656
0.014163035
0.015190444
0.015503093
0.015213645
0.014465284
0.013421263
0.01222502
0.011004671
0.0098709502
0.0089094887
0.0081760277
0.0076962354
0.0074583296
0.0074400009
0.0075642984
0.00781656
0.0080311189
0.0082990825
-0.0037566645
-0.0056844521
-0.007926108
-0.0084297059
-0.0080177095
-0.0065375164
-0.0042344151
-0.0012215585
0.0022688825
0.0056970638
0.0087251072
0.011366683
0.0135138
0.015023392
0.015783638
0.015801252
0.015235668
0.014255837
0.013033602
0.011717049
0.010435753
0.0092962982
0.0083749122
0.007715626
0.007329779
0.0071934787
0.0072726951
0.0074836406
0.0078063459
0.0080702136
0.0083739461
-0.0042254718
-0.0067393226
-0.0094134711
-0.010299039
-0.010300435
-0.0092158058
-0.007177604
-0.0043204667
-0.00082765089
0.0030109241
0.0066432763
0.0097712926
0.012423396
0.014466381
0.015754532
0.016198179
0.015914257
0.015075227
0.013878658
0.012499903
0.011090355
0.0097775742
0.0086606054
0.007804799
0.007239851
0.0069630575
0.006937691
0.0071197259
0.0074191376
0.0078118893
0.0081241801
0.0084628258
-0.0045853598
-0.0078043894
-0.01093191
-0.012142631
-0.0125729
-0.011926691
-0.010270183
-0.0076625471
-0.0043027618
-0.0003584809
0.0038413706
0.0076425805
0.010815185
0.013433411
0.015313419
0.016314649
0.016420876
0.015827441
0.01472747
0.013334241
0.011825893
0.010354253
0.0090410608
0.0079756458
0.0072092577
0.0067576875
0.0066024923
0.0066960001
0.0069843228
0.0073724893
0.0078340132
0.0081933567
0.008566628
-0.0047908209
-0.0087259778
-0.0124888
-0.014005721
-0.014817622
-0.014618184
-0.0134059
-0.011160887
-0.0080402769
-0.0041954762
0.00023370182
0.0047557589
0.0086557172
0.011842971
0.014372059
0.016016633
0.016670894
0.016433687
0.015531747
0.014190084
0.012626739
0.011020331
0.0095200489
0.0082387037
0.0072528288
0.0065990385
0.0062771657
0.006254682
0.0064723841
0.0068688045
0.0073449531
0.0078732043
0.008277761
0.0086850188
-0.0049002154
-0.0094609294
-0.013886335
-0.015929327
-0.017070228
-0.017273399
-0.016511846
-0.014715429
-0.011932306
-0.0083152414
-0.0039530128
0.00095407072
0.005691604
0.0096663926
0.012828972
0.015193183
0.016531401
0.016798365
0.0162193
0.015022537
0.013465126
0.01176321
0.010094487
0.0086006405
0.0073832269
0.006504388
0.0059839833
0.0058063795
0.0059247832
0.0062706009
0.0067750074
0.0073374091
0.0079296563
0.0083772344
0.0088160399
-0.0049400456
-0.010069832
-0.015037117
-0.017753368
-0.019401069
-0.019931263
-0.019574031
-0.018239828
-0.015900916
-0.012603348
-0.0084430293
-0.0035321568
0.001749585
0.0066562067
0.010649827
0.013720901
0.015849929
0.01681356
0.016688582
0.0157665
0.01430008
0.012558175
0.010754611
0.0090615334
0.0076100925
0.0064884597
0.0057420134
0.0053738755
0.005352183
0.0056178859
0.0060932983
0.0067044133
0.0073502091
0.008003129
0.0084916937
0.0089577187
-0.0049393497
-0.010603511
-0.01598432
-0.019363713
-0.021658006
-0.022677802
-0.022635643
-0.021713194
-0.019848502
-0.016990399
-0.013135022
-0.0083836034
-0.0029677164
0.0026374026
0.0076351874
0.011557421
0.0144823
0.01629735
0.016829355
0.016323739
0.015071278
0.01336779
0.011479255
0.0096146186
0.0079364703
0.006563648
0.0055678551
0.0049774167
0.0047773411
0.0049212076
0.0053377997
0.0059428081
0.006658015
0.0073833632
0.0080928847
0.0086199771
0.0091090359
-0.004932708
-0.011041804
-0.016832492
-0.020714243
-0.023708147
-0.025358756
-0.02580597
-0.025186933
-0.023742789
-0.02137371
-0.017951721
-0.013474823
-0.0081400117
-0.0022405024
0.0035950024
0.0085619366
0.012363527
0.015070079
0.016485776
0.016567927
0.015687431
0.014135017
0.012233968
0.010241876
0.0083585855
0.0067357919
0.0054764867
0.004635117
0.0042212741
0.0042026979
0.004518763
0.0050880951
0.0058206274
0.0066362397
0.0074366316
0.0081982377
0.0087607523
0.0092687707
-0.0049339644
-0.011386442
-0.017552372
-0.021909052
-0.025467153
-0.027869276
-0.028916483
-0.028793921
-0.027642981
-0.025706292
-0.022783499
-0.018716685
-0.013597712
-0.0076872017
-0.0013944427
0.0045364468
0.0093908552
0.01303607
0.015432875
0.016369738
0.016021071
0.014776908
0.012966031
0.010912094
0.008862183
0.0070045244
0.0054765619
0.0043643348
0.0037030633
0.0034837994
0.0036570716
0.0041498197
0.0048710738
0.0057278469
0.0066388006
0.0075093538
0.0083183597
0.0089129579
0.0094363163
-0.0049488128
-0.011647173
-0.018130223
-0.022940047
-0.026977585
-0.030061824
-0.03190021
-0.032349677
-0.031701134
-0.030049311
-0.027565785
-0.023995602
-0.01924532
-0.013484531
-0.0070729298
-0.0005273387
0.0053969711
0.010097
0.013530557
0.015502754
0.015928693
0.015173736
0.013598495
0.011576994
0.0094193963
0.0073590222
0.0055710356
0.0041764557
0.0032422192
0.0027841877
0.0027740875
0.0031470609
0.0038178947
0.004688716
0.0056648469
0.0066653095
0.0076006848
0.0084522667
0.0090754112
0.0096114934
-0.011826527
-0.0049847563
-0.018555024
-0.023777272
-0.028302205
-0.031918209
-0.034551077
-0.035805879
-0.035712112
-0.034568771
-0.032364773
-0.029234402
-0.024959653
-0.01951789
-0.013181025
-0.0063902962
0.00030349634
0.0061433683
0.010646505
0.013773503
0.015224893
0.015163864
0.014019946
0.012164321
0.0099851734
0.0077751407
0.0057526417
0.004077751
0.0028526615
0.0021248844
0.0018897409
0.0021006547
0.0026777849
0.0035259937
0.004542022
0.0056317074
0.0067151429
0.007709613
0.0085989176
0.009247008
0.0097938152
-0.018811673
-0.011894768
-0.0050455028
-0.024390722
-0.029377462
-0.033542843
-0.036796778
-0.038925865
-0.039635202
-0.039043918
-0.037360076
-0.034494143
-0.030639141
-0.025648372
-0.019571205
-0.012761869
-0.0056908718
0.0010583621
0.006741585
0.010987165
0.013696021
0.014579733
0.014070883
0.012570163
0.010492815
0.0082119985
0.0060014152
0.0040645274
0.0025439445
0.0015222748
0.0010259777
0.001030232
0.0014706428
0.0022536322
0.0032760939
0.004431644
0.0056277923
0.0067873372
0.0078349995
0.0087572194
0.0094267459
0.0099823524
-0.024740062
-0.018872804
-0.011846799
-0.0051206839
-0.030153758
-0.034856509
-0.038722073
-0.041592215
-0.043234243
-0.043446683
-0.042315687
-0.039974783
-0.036347957
-0.031757494
-0.026097649
-0.019479418
-0.012290267
-0.00502417
0.0016916658
0.0071452036
0.01104905
0.013232174
0.013567823
0.012645946
0.010844433
0.0086065798
0.0062806291
0.0041214394
0.0023162116
0.00098902742
0.00020135825
-4.14999e-05
0.00021503348
0.00089014611
0.0018779164
0.0030696487
0.004357385
0.0056522729
0.0068807397
0.0079756074
0.0089260269
0.0096137326
0.010176159
-0.030587858
-0.024796133
-0.01873236
-0.011706187
-0.0052054213
-0.035816348
-0.040288658
-0.04382853
-0.0463237
-0.04753447
-0.047211855
-0.045424347
-0.042308159
-0.037911174
-0.03261991
-0.026377978
-0.019304276
-0.011819356
-0.0044527622
0.002151697
0.0072783324
0.010754397
0.01234114
0.012198275
0.01090313
0.00886739
0.0065312697
0.0042159851
0.0021586261
0.00052918992
-0.00056857414
-0.0010946513
-0.0010659616
-0.00054752096
0.00036401232
0.0015530969
0.0029070668
0.0043187277
0.0057039621
0.0069940621
0.0081301544
0.0091041225
0.0098068917
0.010374316
-0.036367145
-0.030657197
-0.024553836
-0.018411004
-0.011471959
-0.005279149
-0.041450541
-0.045654881
-0.048872059
-0.05104416
-0.05179934
-0.050832187
-0.048254778
-0.044352226
-0.039213294
-0.033297417
-0.026547903
-0.019100698
-0.011407773
-0.0040313458
0.0023499083
0.0070763476
0.010050815
0.011036981
0.010481619
0.0088674201
0.0066680696
0.0042941508
0.0020435998
0.00013654809
-0.0012758106
-0.0021109593
-0.0023516091
-0.0020367617
-0.001250662
-0.00010391522
0.0012806369
0.0027882968
0.004314591
0.0057815597
0.0071258974
0.0082973029
0.0092903483
0.010005182
0.010575845
-0.042132183
-0.036473166
-0.030359039
-0.024035467
-0.017921863
-0.011124039
-0.005306458
-0.047021775
-0.050962695
-0.053908437
-0.055728868
-0.055935665
-0.054171818
-0.050787409
-0.046133846
-0.040327386
-0.033847091
-0.026666853
-0.018926017
-0.011116089
-0.0038380011
0.002208585
0.0064946476
0.008894639
0.0093509417
0.0084293076
0.00657117
0.0042761502
0.0019227002
-0.00021087066
-0.0019217931
-0.0030786355
-0.0036214643
-0.003556424
-0.0029447487
-0.0018887787
-0.00051079337
0.0010610393
0.0027125783
0.004343711
0.0058835118
0.0072747014
0.0084756473
0.0094835432
0.010207653
0.010779884
-0.047833245
-0.042282004
-0.036127963
-0.029705499
-0.023268923
-0.017272188
-0.01066289
-0.0052463609
-0.052526917
-0.056257356
-0.058912319
-0.060304651
-0.059792224
-0.057205516
-0.05305721
-0.047720087
-0.041298273
-0.034325926
-0.026786199
-0.018841625
-0.011023844
-0.003965386
0.0016732124
0.0054764296
0.007287688
0.0073146326
0.006073753
0.004049263
0.0017224028
-0.00055552491
-0.0025227547
-0.0039942178
-0.0048602307
-0.0050843853
-0.0046973987
-0.0037820536
-0.0024575115
-0.00085490465
0.00089410935
0.0026787998
0.0044044585
0.0060080871
0.0074387537
0.0086637554
0.0096826837
0.010413488
0.010985624
-0.053456336
-0.048019657
-0.041891214
-0.035353917
-0.028724329
-0.022285581
-0.016466281
-0.010098494
-0.0050748627
-0.058004864
-0.061512515
-0.063815045
-0.064620716
-0.063333893
-0.059978376
-0.055129023
-0.049150993
-0.042185897
-0.034795841
-0.026981199
-0.018939793
-0.011238611
-0.0044857473
0.00070085614
0.0040000807
0.0052916247
0.0049499966
0.0034578014
0.0013361646
-0.00096380025
-0.0031141604
-0.0048678579
-0.0060596012
-0.0066023656
-0.0064854012
-0.0057640843
-0.0045422858
-0.0029536181
-0.0011356653
0.00077910219
0.0026854207
0.0044948639
0.0061532012
0.0076163783
0.0088605062
0.0098869559
0.010621846
0.011192256
-0.059033517
-0.053665133
-0.047569916
-0.040994423
-0.034189463
-0.027461236
-0.021102414
-0.015523641
-0.0093798769
-0.0047190332
-0.063430833
-0.066667387
-0.068497912
-0.068633932
-0.066609037
-0.062551928
-0.057039263
-0.050487247
-0.04304909
-0.035333135
-0.027348637
-0.019335634
-0.011848369
-0.0054519275
-0.00071166329
0.0020924875
0.0029476193
0.0022930029
0.00061990061
-0.0015356927
-0.0037550878
-0.0057276584
-0.0072233839
-0.0080975106
-0.0082880879
-0.0078113916
-0.0067474966
-0.0052204492
-0.0033749751
-0.001353138
0.0007148151
0.0027303235
0.0046124603
0.0063168983
0.007806389
0.0090651204
0.010095328
0.010831522
0.011398992
-0.064540065
-0.059242535
-0.05313902
-0.046531553
-0.039647426
-0.032672824
-0.025968463
-0.019724459
-0.014343474
-0.0084273811
-0.0042017214
-0.068748756
-0.071610036
-0.072910024
-0.072396734
-0.069682888
-0.064966232
-0.05883896
-0.051771024
-0.043967827
-0.036030143
-0.028003681
-0.020138258
-0.012903126
-0.0068521921
-0.002538388
-0.00021190864
0.00028726192
-0.00062300291
-0.0024060097
-0.0045367763
-0.0066245816
-0.0083719507
-0.0095671673
-0.010088554
-0.0099015023
-0.0090505355
-0.0076403654
-0.0058127687
-0.0037206485
-0.0015081972
0.00069914143
0.0028107095
0.0047549993
0.0064979691
0.0080080711
0.009276218
0.010305877
0.011041301
0.011605546
-0.06992561
-0.064728125
-0.058614982
-0.051938592
-0.044980611
-0.037882945
-0.030866223
-0.024192198
-0.018048591
-0.012864632
-0.0072623737
-0.0036322344
-0.073864105
-0.076295483
-0.077091174
-0.075971923
-0.072598675
-0.067257204
-0.060573177
-0.053093619
-0.045047859
-0.037021844
-0.029073146
-0.021403161
-0.014380917
-0.0086785257
-0.0047772192
-0.0028543709
-0.0026589886
-0.003759004
-0.0055856673
-0.0076400527
-0.0095474591
-0.011023863
-0.011878066
-0.012014263
-0.01142803
-0.010192719
-0.0084368617
-0.0063165144
-0.0039907391
-0.001602762
0.00072897893
0.0029239804
0.0049213464
0.0066958009
0.0082194757
0.0094906292
0.010516815
0.011251635
0.011822277
-0.075113744
-0.070082238
-0.063980847
-0.057224994
-0.050152887
-0.042949718
-0.035737072
-0.028676755
-0.022067658
-0.016097827
-0.01115741
-0.0060538136
-0.0030611911
-0.078731556
-0.080769578
-0.081092631
-0.079401852
-0.075400866
-0.069481351
-0.062325691
-0.054561451
-0.046412413
-0.038439619
-0.030623865
-0.023097172
-0.016266672
-0.010916523
-0.0073770016
-0.0057805742
-0.0058415666
-0.0070728758
-0.0088901216
-0.010820492
-0.012500029
-0.013661014
-0.014135417
-0.013857276
-0.012854511
-0.01122942
-0.0091322874
-0.0067303439
-0.0041866353
-0.0016400415
0.00080140826
0.0030691674
0.0051110422
0.00690761
0.0084356562
0.0097056813
0.010730038
0.011476704
0.012052474
-0.080062442
-0.075239358
-0.069202165
-0.062380071
-0.055171433
-0.047827484
-0.040411033
-0.033105811
-0.026097587
-0.019661217
-0.013975619
-0.0094338234
-0.0048389763
-0.0024582131
-0.083409644
-0.085072716
-0.084951144
-0.082733551
-0.078130674
-0.071715232
-0.064210713
-0.056295816
-0.048202804
-0.040367457
-0.032629991
-0.025179972
-0.018551741
-0.013492838
-0.010258101
-0.0089540106
-0.0092217264
-0.01053414
-0.012295164
-0.014054954
-0.015459924
-0.016261508
-0.016319479
-0.015601387
-0.014169141
-0.012153386
-0.0097232945
-0.0070548662
-0.0043114513
-0.0016229718
0.00091575219
0.0032460208
0.0053201383
0.0071261057
0.0086528572
0.0099258466
0.010966198
0.011715187
0.012290257
-0.084837972
-0.080168035
-0.07422925
-0.067375168
-0.060031445
-0.052519153
-0.044870261
-0.037311462
-0.030041943
-0.023256497
-0.01710901
-0.011874969
-0.0077102451
-0.0035821528
-0.0018560748
-0.087933591
-0.089237337
-0.088709724
-0.086005248
-0.08087543
-0.074074948
-0.066375311
-0.058456676
-0.050513006
-0.042794076
-0.035035932
-0.027626209
-0.021167746
-0.016344668
-0.013395296
-0.012345002
-0.012779911
-0.014119473
-0.015779992
-0.017321816
-0.018404772
-0.018803691
-0.018411012
-0.017231416
-0.015361416
-0.012958853
-0.010208777
-0.0072928001
-0.0043683284
-0.0015518913
0.0010721188
0.0034492182
0.0055383251
0.0073464151
0.0088792636
0.010183734
0.011214811
0.011962864
0.012535355
-0.089476438
-0.084933831
-0.079033816
-0.072178391
-0.064719557
-0.057016989
-0.049110606
-0.041273486
-0.033753114
-0.026745907
-0.020268734
-0.014593368
-0.0097625917
-0.0059256062
-0.0023386092
-0.0012864986
-0.092335566
-0.093297378
-0.092416588
-0.089288994
-0.083748907
-0.07671556
-0.068962661
-0.06114194
-0.053360274
-0.045658209
-0.037777944
-0.030386988
-0.024075477
-0.019431815
-0.016750097
-0.015922451
-0.016485618
-0.017808171
-0.019324212
-0.020599832
-0.021312398
-0.021266173
-0.020391491
-0.018733033
-0.016422462
-0.013642739
-0.010590543
-0.0074468778
-0.004356966
-0.0014260909
0.0012636661
0.0036647324
0.0057594039
0.0075814654
0.0091642574
0.010454249
0.011474924
0.012218582
0.012787812
-0.094008735
-0.089573942
-0.083685151
-0.076763239
-0.069212272
-0.06132144
-0.053140269
-0.044987923
-0.037216594
-0.029985544
-0.023304504
-0.017326983
-0.0120471
-0.0075766
-0.0040937996
-0.0011597528
-0.0007425582
-0.096642501
-0.097304662
-0.096143975
-0.092704985
-0.086913096
-0.079798581
-0.072104967
-0.064402192
-0.056680869
-0.048841166
-0.040787357
-0.033433009
-0.027203992
-0.022703558
-0.020283579
-0.019659629
-0.0203178
-0.021584595
-0.022909129
-0.023867458
-0.024160185
-0.023627506
-0.022242837
-0.020093507
-0.017346322
-0.014204953
-0.010870658
-0.0075157397
-0.0042755735
-0.0012540448
0.0014718097
0.0038847473
0.0060025891
0.007902793
0.0094627648
0.010739112
0.011743291
0.012482627
0.013047343
-0.098456096
-0.09412151
-0.088220398
-0.081198548
-0.073497643
-0.065410085
-0.056957716
-0.048472712
-0.040407702
-0.032958769
-0.026077673
-0.019927859
-0.014335119
-0.0094193478
-0.0053418965
-0.0023018297
-8.9050553e-05
-0.00022349627
-0.10088536
-0.10133345
-0.10001921
-0.096400627
-0.090540322
-0.083471922
-0.075860336
-0.068193796
-0.060333368
-0.052257732
-0.044037123
-0.036663014
-0.030441102
-0.026139143
-0.023973136
-0.023550214
-0.024263032
-0.025433446
-0.026515947
-0.027102263
-0.026924453
-0.025865443
-0.023947726
-0.021303398
-0.01813106
-0.014645988
-0.011046229
-0.0074963174
-0.0041340986
-0.0010597501
0.0016865422
0.0041363139
0.0063688285
0.0082392566
0.0097790721
0.011032018
0.012020949
0.012754356
0.013313831
-0.10283499
-0.098592805
-0.092669161
-0.085524105
-0.077631411
-0.069271734
-0.060550385
-0.05173152
-0.043352483
-0.035645558
-0.028565043
-0.022264433
-0.016488377
-0.011251831
-0.0067376241
-0.0031105349
-0.00062942347
0.00087810281
0.00028266637
-0.10513629
-0.10552633
-0.10418794
-0.10054985
-0.094796351
-0.087822006
-0.080203753
-0.072361951
-0.064193265
-0.055861134
-0.04744191
-0.03996714
-0.033751303
-0.029723938
-0.02781336
-0.027580024
-0.028312937
-0.02934061
-0.030124269
-0.030279932
-0.029579599
-0.027958157
-0.025492453
-0.02235769
-0.018774673
-0.014960713
-0.011112039
-0.0074004369
-0.0039631061
-0.00085608532
0.00194482
0.0045575811
0.006753327
0.0085979615
0.010102872
0.011335208
0.012306822
0.013033744
0.013586953
-0.10720949
-0.10299829
-0.097051602
-0.089767677
-0.081660117
-0.072978744
-0.063912017
-0.054768866
-0.046069616
-0.038076168
-0.030761582
-0.024297278
-0.01838273
-0.01294754
-0.0080980582
-0.0040495105
-0.00098729042
0.0008989362
0.0017015319
0.00082825857
-0.10953918
-0.11004382
-0.10883423
-0.10536509
-0.099797322
-0.092829932
-0.084992662
-0.076748588
-0.068154549
-0.059581361
-0.050907132
-0.043312844
-0.037154242
-0.033461575
-0.031817349
-0.031748646
-0.032460821
-0.033290043
-0.033710746
-0.033372509
-0.032099244
-0.029887267
-0.02686829
-0.023251754
-0.019268177
-0.015141063
-0.011081247
-0.0072660219
-0.0037791918
-0.00059392889
0.0024323974
0.0050015431
0.0071652346
0.0089632346
0.010437804
0.011647
0.012600874
0.013320209
0.013866517
-0.1117231
-0.10737963
-0.10136858
-0.093954627
-0.085624955
-0.076583074
-0.067114419
-0.057594417
-0.048573662
-0.040277717
-0.03269666
-0.026020348
-0.019970003
-0.01439143
-0.0093263812
-0.0049423154
-0.0014759335
0.00094244452
0.0023107896
0.0024129402
0.0013569785
-0.1142861
-0.11509547
-0.11418642
-0.11098184
-0.10554069
-0.098347263
-0.090057939
-0.081207359
-0.072151624
-0.06331414
-0.054348549
-0.046639432
-0.040691141
-0.037355295
-0.035995537
-0.036054011
-0.036696975
-0.037261672
-0.037246905
-0.036349728
-0.034460039
-0.03163969
-0.028066295
-0.023971233
-0.019599312
-0.015201633
-0.011000909
-0.0071141603
-0.0035182833
-2.7852931e-05
0.0029492937
0.0054794201
0.007582231
0.009340394
0.010781543
0.011967464
0.012902344
0.013613545
0.014152216
-0.11659577
-0.11188746
-0.10564316
-0.098072819
-0.089548203
-0.080130891
-0.070213522
-0.060281374
-0.050884032
-0.042280045
-0.034412981
-0.027485048
-0.021248498
-0.015533097
-0.010317761
-0.0057154424
-0.0019142502
0.00088346252
0.00273253
0.0035230882
0.0030104047
0.0017248531
-0.11959223
-0.1208814
-0.1203901
-0.11743296
-0.11187339
-0.10419331
-0.095214536
-0.085622718
-0.076114284
-0.066953261
-0.057663828
-0.049933691
-0.044403252
-0.041408627
-0.040347772
-0.040499134
-0.041007846
-0.041228829
-0.040700046
-0.03918396
-0.036644314
-0.033200571
-0.029065457
-0.024497336
-0.019783996
-0.015199775
-0.010898178
-0.0068624644
-0.0028600358
0.00057660512
0.0035078469
0.0059602938
0.0080115942
0.0097265177
0.011134152
0.012295698
0.013210897
0.01391321
0.014443868
-0.12204003
-0.11674751
-0.11002881
-0.10214083
-0.093392221
-0.083636964
-0.07325234
-0.06288116
-0.053067368
-0.044104312
-0.035940618
-0.02873832
-0.022267201
-0.016370015
-0.011029653
-0.0062713958
-0.002244313
0.00087417468
0.003056818
0.0043013802
0.0044570951
0.0034248065
0.0018713217
-0.12563808
-0.12754804
-0.12750405
-0.12457549
-0.118592
-0.11017414
-0.10029768
-0.089900509
-0.079979108
-0.070401018
-0.060855689
-0.053326715
-0.048278739
-0.045670624
-0.044894043
-0.0450788
-0.045371157
-0.045158438
-0.044038944
-0.041852686
-0.038630587
-0.03454015
-0.029839368
-0.024846931
-0.019891606
-0.015168332
-0.01066797
-0.0060974492
-0.0021511545
0.0012323474
0.004066449
0.0064539543
0.0084498096
0.010121741
0.011494617
0.012631245
0.013525934
0.014219147
0.014740977
-0.12820568
-0.122165
-0.11474157
-0.10630237
-0.097153509
-0.08704092
-0.076217883
-0.065413155
-0.055168134
-0.045803993
-0.037289714
-0.029811661
-0.023079293
-0.016949021
-0.011444429
-0.0065729413
-0.0023696033
0.00096671753
0.00341005
0.0049464053
0.0055111386
0.0050694279
0.003655856
0.0018973278
-0.13257366
-0.13515892
-0.13541199
-0.13218664
-0.12551547
-0.11609742
-0.10520017
-0.094017595
-0.083657003
-0.073662298
-0.063999945
-0.056872683
-0.05233498
-0.050175318
-0.049640988
-0.049777394
-0.049756422
-0.049017708
-0.047237454
-0.044327548
-0.040377549
-0.035622152
-0.030404261
-0.025103534
-0.019962056
-0.014974314
-0.0097805424
-0.005265754
-0.0013792406
0.0018842407
0.0046380203
0.0069562093
0.0088971558
0.010524923
0.011862334
0.01297356
0.013847635
0.014530668
0.015043271
-0.13525586
-0.12828616
-0.11996394
-0.11074215
-0.10096402
-0.090327224
-0.079055853
-0.067858748
-0.057194187
-0.047424988
-0.038517555
-0.03072121
-0.023720488
-0.017331272
-0.011609921
-0.0065953765
-0.0022717565
0.0012454226
0.0038519483
0.0055921254
0.0063852497
0.0063091542
0.0053968419
0.0036979876
0.0018333652
-0.14046566
-0.14362381
-0.14388897
-0.14007388
-0.13242664
-0.12181399
-0.10986573
-0.097933843
-0.087101187
-0.076755203
-0.067116361
-0.06063564
-0.056645029
-0.05495401
-0.054580042
-0.054570222
-0.054131907
-0.052778557
-0.050260289
-0.046553041
-0.041835712
-0.036462501
-0.030859333
-0.025315148
-0.019828219
-0.013948848
-0.0088056159
-0.0043565396
-0.00061627773
0.0025491967
0.0052176407
0.0074675607
0.0093523572
0.010935352
0.012236873
0.013323214
0.014174836
0.014847327
0.015350357
-0.14328067
-0.13526308
-0.12586085
-0.11563892
-0.10498538
-0.093635446
-0.08176375
-0.070148446
-0.059119808
-0.048960588
-0.039656987
-0.031512813
-0.024202999
-0.017549818
-0.011590702
-0.0063831305
-0.0019367701
0.0017089503
0.0044551948
0.0062842022
0.0072271707
0.0073391533
0.0067598073
0.005503858
0.0036261693
0.00171777
-0.14925277
-0.15274983
-0.15272647
-0.14801734
-0.13913722
-0.12723976
-0.11426654
-0.10161159
-0.090297898
-0.079713183
-0.070392292
-0.064698849
-0.061297144
-0.060010665
-0.059697318
-0.059430089
-0.058470252
-0.056400487
-0.053036775
-0.048462562
-0.043020472
-0.037176814
-0.031262473
-0.025273128
-0.018648607
-0.012809213
-0.0077353716
-0.0034627297
0.00015971113
0.0032214185
0.005806145
0.0079866061
0.0098146193
0.011352807
0.012619471
0.013678446
0.014507006
0.015168467
0.015661914
-0.15223456
-0.14320992
-0.13259634
-0.12118098
-0.10940559
-0.097126229
-0.08448118
-0.072308258
-0.060883364
-0.050398961
-0.040711847
-0.032221061
-0.024577436
-0.017625763
-0.011426194
-0.006008933
-0.0013986174
0.0023677948
0.0052016086
0.0070961015
0.0080787934
0.0083103431
0.0078988753
0.0069533811
0.0054550708
0.0034788156
0.0015525794
-0.15876124
-0.16231756
-0.16171546
-0.15581957
-0.1455406
-0.13235571
-0.11839106
-0.10502553
-0.093244523
-0.082572961
-0.07405418
-0.069113875
-0.066313507
-0.065340135
-0.064976151
-0.064334635
-0.062728453
-0.059796539
-0.05547822
-0.050069084
-0.044067171
-0.037834484
-0.031354007
-0.023924789
-0.017320891
-0.011552177
-0.0066885655
-0.002555879
0.00094189305
0.0039022054
0.0064020415
0.0085125012
0.010283953
0.011779374
0.013007666
0.014038531
0.014843361
0.015493639
0.01597757
-0.16195742
-0.1520988
-0.14026142
-0.12751522
-0.11441573
-0.10096957
-0.087383199
-0.074469357
-0.06253046
-0.051688857
-0.041667191
-0.032853453
-0.024889126
-0.017619139
-0.011147406
-0.0055218505
-0.00072713453
0.0031868118
0.0060894606
0.0079992834
0.0090062418
0.0092688846
0.0089601176
0.0081710653
0.0069470557
0.0052933047
0.0032844641
0.0013919776
-0.16878108
-0.17212949
-0.17064007
-0.16334633
-0.15162576
-0.13716369
-0.12220571
-0.1081762
-0.095917857
-0.085463939
-0.078181439
-0.073934223
-0.071699598
-0.070942322
-0.070404971
-0.069242647
-0.066803468
-0.062851896
-0.05759204
-0.051532728
-0.045056898
-0.038114121
-0.029824434
-0.022385207
-0.015848491
-0.010328297