/*--------------------------------*- C++ -*----------------------------------*\
| =========                 |                                                 |
| \\      /  F ield         | OpenFOAM: The Open Source CFD Toolbox           |
|  \\    /   O peration     | Version:  5.0                                   |
|   \\  /    A nd           | Web:      www.OpenFOAM.org                      |
|    \\/     M anipulation  |                                                 |
\*---------------------------------------------------------------------------*/
FoamFile
{
    version     2.0;
    format      ascii;
    class       volScalarField;
    location    "360";
    object      pPrime2Mean;
}
// * * * * * * * * * * * * * * * * * * * * * * * * * * * * * * * * * * * * * //

dimensions      [0 4 -4 0 0 0 0];

internalField   nonuniform List<scalar> 
9200
(
8.592476e-07
9.1119611e-07
5.4652608e-06
9.8096231e-07
5.6867415e-06
1.503292e-05
1.1363036e-06
5.9544531e-06
1.5556171e-05
2.755344e-05
1.3738207e-06
6.4882585e-06
1.6282653e-05
2.836454e-05
4.315111e-05
1.7857461e-06
7.2293499e-06
1.7651351e-05
2.9511651e-05
4.4243055e-05
6.0717315e-05
2.4621504e-06
8.3413157e-06
1.9549687e-05
3.162225e-05
4.5724983e-05
6.1974157e-05
7.9899685e-05
3.5813357e-06
9.8964221e-06
2.2297421e-05
3.4511116e-05
4.843149e-05
6.3621125e-05
8.1245902e-05
0.00010036861
5.3417188e-06
1.2061812e-05
2.6017992e-05
3.8633606e-05
5.2058817e-05
6.6653337e-05
8.2892157e-05
0.00010171636
0.00012193042
8.0425118e-06
1.4955529e-05
3.1048138e-05
4.4118774e-05
5.7141885e-05
7.0626829e-05
8.5991119e-05
0.00010320797
0.0001232307
0.00014449171
1.1834158e-05
1.8755784e-05
3.7724431e-05
5.1367816e-05
6.377362e-05
7.6133508e-05
8.9948869e-05
0.00010616141
0.00012446135
0.00014571406
0.00016801586
1.5647854e-05
2.3530655e-05
4.6489912e-05
6.0741469e-05
7.2392287e-05
8.3182401e-05
9.5403283e-05
0.00010981994
0.00012712268
0.00014661618
0.00016915232
0.00019247496
1.8022802e-05
2.9735708e-05
5.7962684e-05
7.2835096e-05
8.339057e-05
9.2197648e-05
0.00010227187
0.00011486727
0.00013029449
0.00014890384
0.00016969528
0.00019353862
0.00021788248
2.1018282e-05
3.9794405e-05
7.3800458e-05
8.8660135e-05
9.7437887e-05
0.00010350894
0.00011095139
0.00012112799
0.00013471467
0.00015148897
0.00017158441
0.00019372595
0.00021889606
0.00024420088
2.8512345e-05
5.8183733e-05
9.8006566e-05
0.00011048617
0.00011567255
0.00011773763
0.00012168698
0.0001289673
0.00014012263
0.00015517804
0.00017356332
0.00019524391
0.0002187515
0.00024520085
0.00027145586
4.2056252e-05
9.1783634e-05
0.00013690617
0.00014306555
0.00014055359
0.00013601405
0.00013503853
0.00013855437
0.00014686246
0.00015963506
0.00017652141
0.00019666399
0.00021995668
0.00024477278
0.00027247558
0.00029958336
6.2697874e-05
0.00014584966
0.00020034436
0.00019411796
0.00017678657
0.00016067126
0.00015204371
0.00015040759
0.00015506056
0.00016520164
0.00018005206
0.00019896992
0.00022091273
0.00024575707
0.00027181198
0.00030065797
0.00032859895
9.0177637e-05
0.00021992685
0.00029684205
0.000275064
0.00023287426
0.00019635207
0.00017477479
0.00016543503
0.00016521693
0.00017198155
0.00018450097
0.00020169104
0.00022270795
0.00024638669
0.00027267256
0.00029981506
0.0003297623
0.00035842617
0.00012152299
0.00031092598
0.00042521734
0.00039801184
0.00032172434
0.00025163466
0.00020751448
0.00018544379
0.00017812981
0.00018045737
0.00018996299
0.00020518742
0.00022480888
0.00024786423
0.00027312939
0.00030066396
0.00032878875
0.00035969836
0.00038905261
0.00015136937
0.00040913576
0.00057902368
0.00056342897
0.00045703061
0.00033913471
0.00025830602
0.00021421766
0.00019535452
0.00019132639
0.00019690144
0.00020953061
0.00022758255
0.00024959592
0.00027451125
0.00030112265
0.00032971603
0.00035863188
0.00039044917
0.00042041712
0.00017570205
0.00050635155
0.00074226967
0.00076287075
0.00064134873
0.00047403854
0.00033946683
0.00025897523
0.00022012246
0.00020598782
0.00020594772
0.00021514197
0.00023106862
0.00025195412
0.00027617016
0.00030265973
0.00033033684
0.0003597201
0.00038932276
0.00042193754
0.00045249285
0.000189539
0.00059189042
0.00090061108
0.0009761481
0.00086515984
0.00066307634
0.00046728985
0.0003323857
0.00025882485
0.00022712871
0.00021836096
0.00022261505
0.00023563122
0.00025492321
0.00027847755
0.00030458805
0.00033227717
0.00036065967
0.00039063715
0.00042075526
0.00045412887
0.00048523946
0.00019355841
0.00065536209
0.0010441944
0.0011806305
0.0011083548
0.00089761222
0.00065215135
0.00045004553
0.00032346578
0.00026027655
0.00023643002
0.00023308054
0.00024182167
0.00025880882
0.00028134934
0.00030727785
0.00033483162
0.00036325087
0.00039201184
0.00042231874
0.00045288409
0.00048696908
0.00051862992
0.00019455938
0.00069746473
0.001166015
0.0013647753
0.0013454506
0.0011590367
0.00088845643
0.00062456206
0.00042882106
0.00031585776
0.00026474113
0.00024853948
0.00025065469
0.00026408258
0.00028502457
0.00031057604
0.00033838294
0.0003668002
0.00039545941
0.00042421116
0.00045470278
0.00048562859
0.00052042515
0.00055264054
0.00019606728
0.00072683898
0.001251709
0.0015226557
0.0015598922
0.0014206605
0.0011608973
0.00085655494
0.00059030196
0.00040883088
0.00031214834
0.00027262667
0.00026381726
0.00027160698
0.00028986139
0.0003146435
0.00034271608
0.00037172571
0.00040033908
0.0004286871
0.00045715764
0.00048765868
0.00051894368
0.00055446402
0.00058725659
0.00019941409
0.00075329369
0.0013103209
0.0016290787
0.0017428818
0.001660193
0.0014409771
0.0011327922
0.00081388169
0.00055649961
0.00039352261
0.00031274019
0.00028432815
0.0002828329
0.00029655526
0.00031968973
0.00034790155
0.00037777873
0.00040714191
0.00043519533
0.00046276202
0.00049065364
0.00052112027
0.00055277964
0.00058906513
0.00062246573
0.00020408111
0.0007740103
0.001358741
0.0016931536
0.0018737355
0.0018673475
0.0017047422
0.0014284057
0.0010892014
0.00076820682
0.00052571988
0.00038208457
0.0003179474
0.00030023345
0.00030632447
0.00032624895
0.0003540067
0.00038494786
0.00041562698
0.00044434677
0.00047111417
0.00049741561
0.00052460324
0.00055500153
0.00058710472
0.00062421372
0.00065824896
0.00020748188
0.0007853527
0.0013897882
0.0017353467
0.0019508705
0.0020300034
0.0019391523
0.0017151816
0.001395644
0.0010377045
0.00072153206
0.00049703987
0.00037558402
0.000328192
0.00032119873
0.00033524685
0.00036136063
0.00039316419
0.00042573003
0.00045597134
0.00048300257
0.00050773929
0.00053247834
0.00055884704
0.00058925391
0.0006218955
0.00065989698
0.00069457757
0.00020814806
0.00078603272
0.0014015354
0.001755751
0.0019956791
0.0021323254
0.0021334589
0.0019763988
0.0017026647
0.0013495122
0.00098143657
0.00067487895
0.00047399431
0.00037558488
0.00034448843
0.00034834594
0.00037063705
0.00040253792
0.00043726243
0.00046999672
0.00049839743
0.0005226547
0.00054478138
0.00056769628
0.00059330603
0.00062383056
0.00065713954
0.00069610101
0.00073144679
0.00020476096
0.00077545925
0.0013967697
0.0017546484
0.0020179469
0.0021904638
0.0022693257
0.0022015924
0.0019894736
0.0016738796
0.0012923436
0.00092127941
0.00063112593
0.00045733477
0.00038295757
0.00036817372
0.00038309117
0.00041348172
0.00045014015
0.00048616533
0.00051729038
0.00054233299
0.00056286437
0.00058188791
0.00060293903
0.00062788656
0.00065871029
0.00069283372
0.00073281712
0.0007688919
0.00019322563
0.00075779599
0.0013777436
0.0017381314
0.0020172538
0.00222332
0.0023530568
0.0023804171
0.0022486612
0.0019859408
0.0016292076
0.0012248911
0.00085761291
0.00059056316
0.00044883595
0.00039945032
0.00040077864
0.00042685479
0.00046451714
0.00050425116
0.00053943023
0.00056692691
0.00058716411
0.00060312234
0.00061882328
0.00063804169
0.0006625646
0.00069389609
0.00072898145
0.00077004384
0.00080690763
0.00017677202
0.0007240422
0.0013484143
0.0017067221
0.0020013583
0.0022339173
0.0024051064
0.0024997043
0.0024706276
0.0022778242
0.0019650619
0.0015669027
0.0011478281
0.00079171885
0.00055901205
0.00045193246
0.00042712618
0.00044421686
0.00048089101
0.00052415604
0.00056451567
0.00059629815
0.00061810217
0.00063218052
0.00064301693
0.00065530272
0.00067295901
0.00069733202
0.00072940481
0.00076558678
0.0008077709
0.0008453603
0.00015495032
0.00068021893
0.0012879384
0.0016676999
0.0019702565
0.0022289421
0.0024365929
0.0025778874
0.0026304007
0.0025372512
0.0022866149
0.0019212666
0.0014861127
0.0010638229
0.0007313847
0.00054086256
0.00046907892
0.00046816045
0.00050030181
0.00054604728
0.00059227163
0.00063016496
0.00065576691
0.00066985573
0.0006767329
0.00068211258
0.00069119894
0.00070761646
0.00073220802
0.00076525175
0.00080265314
0.0008459664
0.00088414352
0.00012807406
0.00061654021
0.0012145955
0.0015930672
0.001933951
0.0022092077
0.0024512688
0.0026367973
0.0027447405
0.0027459139
0.0025834111
0.0022685884
0.0018516871
0.0013905706
0.00097656688
0.00068294172
0.00053931513
0.00050323665
0.00052467799
0.00057049754
0.00062256022
0.00066817158
0.00070002821
0.0007165859
0.00072123289
0.00072016163
0.00072013146
0.00072636659
0.00074204324
0.00076721707
0.00080145946
0.00084017772
0.00088460405
0.00092326163
0.00010116187
0.00053336998
0.0011084713
0.0015114398
0.0018560831
0.0021863548
0.0024513198
0.00267802
0.0028357175
0.0029060147
0.0028462534
0.0026003852
0.0022203948
0.001757126
0.0012855406
0.00089415574
0.00065417228
0.00055905958
0.00055705687
0.00059876904
0.00065556439
0.00070998299
0.00075058039
0.00077254386
0.00077742693
0.00077125362
0.00076196328
0.00075681889
0.00076080889
0.00077625939
0.00080240987
0.00083805728
0.0008781486
0.00092364838
0.00096279789
7.6697154e-05
0.00044165906
0.00096945181
0.0013984149
0.0017777489
0.002113513
0.0024500244
0.0027041971
0.0029087995
0.0030356484
0.0030602225
0.0029122094
0.0025811238
0.002138823
0.0016431075
0.0011774093
0.00082891384
0.00065100468
0.00060378799
0.00063309512
0.00069197289
0.00075546611
0.00080704562
0.00083765359
0.00084594818
0.00083688689
0.0008190933
0.0008016961
0.00079209273
0.00079452187
0.00081035219
0.00083784451
0.00087507081
0.00091655256
0.00096302121
0.0010027732
5.565848e-05
0.00035237676
0.00081320696
0.0012499842
0.0016667977
0.0020481828
0.0023888376
0.0027294839
0.0029655384
0.0031471336
0.0032386723
0.0031858603
0.0029352717
0.0025231411
0.0020288265
0.0015179602
0.0010760224
0.00079233933
0.00067796851
0.00067729208
0.00073318287
0.0008048034
0.00086908441
0.00091165529
0.00092712757
0.0009183019
0.00089369331
0.00086401669
0.00083911998
0.00082590613
0.00082762124
0.000844404
0.00087358695
0.00091251942
0.00095539788
0.0010027149
0.0010430962
3.906179e-05
0.00027097575
0.00066126568
0.0010729114
0.0015174811
0.0019455917
0.0023449027
0.0026822581
0.0030217863
0.0032419379
0.0033964434
0.0034227404
0.0032690654
0.0029109045
0.0024293772
0.0018985107
0.001391914
0.00099907539
0.00079318428
0.00074005483
0.00078171255
0.00085872583
0.00093654594
0.00099421474
0.0010210521
0.0010164366
0.00098775124
0.00094668761
0.00090553172
0.00087409308
0.00085836215
0.00086021336
0.00087853608
0.00090969797
0.00095040679
0.00099465778
0.0010427168
0.0010837222
2.8116844e-05
0.00020381656
0.00052147078
0.0008954188
0.0013328194
0.0018050787
0.0022573175
0.0026638769
0.0029898899
0.0033366341
0.003537473
0.0036336436
0.0035656498
0.0032933979
0.0028425281
0.0023072357
0.0017590299
0.0012799816
0.00096072948
0.00083602307
0.00084246387
0.00091878648
0.0010095937
0.0010850129
0.0011276296
0.0011319393
0.0011029778
0.0010525385
0.00099499567
0.00094330844
0.00090666453
0.00088959985
0.00089248565
0.00091285835
0.00094623252
0.00098873532
0.0010342958
0.0010829782
0.001124571
2.3645824e-05
0.00015652547
0.00040484897
0.00073149628
0.0011371701
0.0016211857
0.002131916
0.0025945685
0.0030008001
0.0033243001
0.0036803123
0.0038294502
0.003832357
0.0036532415
0.0032651243
0.0027410281
0.0021667088
0.0016226132
0.001198307
0.00097488623
0.00092723244
0.00098760627
0.001088983
0.0011838647
0.0012465883
0.0012652058
0.0012408063
0.0011842011
0.0011112328
0.0010379722
0.00097727601
0.00093697793
0.00091986052
0.00092460828
0.00094749436
0.00098322882
0.0010275015
0.0010742724
0.0011234539
0.0011655249
0.00013348772
2.5925477e-05
0.00032207436
0.00059443681
0.00095655328
0.0014137849
0.0019539504
0.0024853637
0.0029521367
0.0033692782
0.003696653
0.0040299468
0.004087323
0.0039838109
0.0036863895
0.0031978185
0.0026130374
0.0020184596
0.0015062853
0.0011711308
0.0010488542
0.0010720764
0.0011761758
0.0012909896
0.0013777423
0.0014163794
0.0014023803
0.0013440817
0.0012579002
0.0011627035
0.0010753157
0.0010075267
0.00096531966
0.00094940142
0.00095679456
0.00098253935
0.0010207187
0.0010666881
0.0011145376
0.0011640855
0.0012064903
0.00028123939
0.00013693072
3.5013739e-05
0.00049718725
0.00080500213
0.0012215581
0.0017401487
0.0023156394
0.0028591569
0.0033459927
0.0037873835
0.0040831788
0.0043525086
0.0043000555
0.0040821121
0.0036656707
0.0030950854
0.0024666979
0.0018775395
0.0014357767
0.0012141434
0.0011858388
0.0012743926
0.0014070253
0.0015209413
0.0015855003
0.0015885678
0.0015343229
0.0014385288
0.0013222422
0.0012062787
0.0011069918
0.0010343719
0.00099202861
0.00097853517
0.00098921423
0.0010180875
0.0010587163
0.0011062658
0.0011550351
0.0012048067
0.0012474054
0.00044911934
0.00028620467
0.00016670454
5.0773584e-05
0.00069729369
0.0010599054
0.0015369947
0.0021004716
0.0027008763
0.003273138
0.0037979847
0.0042339159
0.0044508989
0.0046346766
0.0044665281
0.0041293431
0.0036033176
0.0029647985
0.0023138201
0.0017708636
0.0014358954
0.0013379554
0.0013931525
0.0015331347
0.0016763058
0.0017724623
0.0017999755
0.0017568064
0.0016564565
0.0015213263
0.0013759696
0.0012416644
0.0011332767
0.0010582332
0.0010175328
0.001007536
0.0010220546
0.0010542026
0.001097224
0.0011461961
0.0011957048
0.0012455438
0.0012882114
0.00064364458
0.00045498499
0.00033647561
0.00022009732
7.2689305e-05
0.00094564473
0.0013668081
0.0018864448
0.0024869859
0.0031307539
0.0037521108
0.004289774
0.0046711561
0.0047854996
0.0048783243
0.0045896985
0.0041301711
0.0035067793
0.0028157206
0.0021791231
0.0017289691
0.0015302751
0.0015459981
0.001674019
0.0018442207
0.0019772462
0.0020370229
0.0020130899
0.0019148362
0.0017646534
0.0015903658
0.0014183486
0.0012690062
0.0011546533
0.0010796699
0.0010422809
0.0010367128
0.0010554604
0.0010909391
0.001136227
0.0011864307
0.0012364861
0.0012862333
0.001328841
0.00088953944
0.00064944402
0.00051337761
0.00042673428
0.00029216274
9.9382957e-05
0.0012473806
0.0017071258
0.0022614101
0.0029190968
0.0036326273
0.0042843053
0.0047840624
0.005089028
0.0050901974
0.0050844
0.0046669236
0.0040838367
0.003378362
0.0026671842
0.0020984503
0.0017831562
0.0017305895
0.0018416207
0.0020262057
0.0021998669
0.0022999414
0.0023044712
0.0022165086
0.0020568176
0.0018556082
0.0016442537
0.0014492746
0.0012888003
0.0011718205
0.0010993077
0.0010667234
0.0010663326
0.0010895641
0.0011283224
0.0011756979
0.0012269146
0.0012773118
0.0013268101
0.0013692293
0.0011904324
0.0008974552
0.00071292921
0.00061734753
0.00054746066
0.00037624917
0.0001296467
0.0015817796
0.002072375
0.0026809933
0.0034248289
0.004198921
0.0048305079
0.0052695848
0.0054881427
0.0053679272
0.0052504795
0.0046938269
0.0039956004
0.003233025
0.0025549049
0.0021107785
0.0019570871
0.0020420481
0.0022284605
0.0024403448
0.0025887916
0.0026319406
0.0025640104
0.0024022096
0.0021778509
0.001926932
0.0016824068
0.0014691381
0.0013018676
0.0011856013
0.0011178041
0.0010912872
0.0010966393
0.001124456
0.001166363
0.0012155967
0.0012675872
0.0013181142
0.0013672078
0.0014093124
0.0015238111
0.0012021427
0.00096690481
0.00082569081
0.00075503218
0.00068650194
0.00046544605
0.00016168542
0.0019400888
0.0024803101
0.0031728339
0.0040026414
0.0047898059
0.0053801672
0.0057503255
0.0058731815
0.0056154543
0.0053676924
0.0046640421
0.0038727145
0.0031031068
0.0025268384
0.0022511052
0.0022705166
0.0024627167
0.0027005956
0.002903106
0.0029959983
0.002959483
0.0028049217
0.0025632021
0.0022741503
0.0019773047
0.0017049829
0.0014788487
0.0013092516
0.0011969029
0.0011358093
0.0011163759
0.0011278287
0.0011602046
0.0012050479
0.0012558755
0.0013083846
0.0013588229
0.0014073594
0.0014490342
0.0018808302
0.00153963
0.0012794846
0.001088323
0.00097413561
0.00091174268
0.00083055094
0.00055278268
0.00019243923
0.0023393164
0.0029570559
0.0037376386
0.0046159294
0.0053951144
0.0059391416
0.0062316984
0.006242278
0.0058207482
0.0054271029
0.0045839129
0.0037441485
0.0030410745
0.002627296
0.0025489687
0.0027251289
0.002989539
0.0032428615
0.0033966787
0.0034045821
0.0032686764
0.00301757
0.0026938447
0.0023433376
0.0020064456
0.001712869
0.0014796733
0.0013121532
0.0012066648
0.0011539477
0.0011423382
0.0011600609
0.0011968457
0.0012443538
0.0012964747
0.0013492329
0.0013993657
0.0014472032
0.001488342
0.0022776657
0.0019012059
0.0016253746
0.0014111805
0.0012465251
0.0011408902
0.0010708854
0.00097044768
0.00062680002
0.00021588855
0.0028037897
0.0035053777
0.0043490257
0.0052555294
0.0060215997
0.0065148372
0.0067129994
0.0065832754
0.005971233
0.005424437
0.0044764327
0.0036616237
0.003100876
0.0028984098
0.0030184465
0.0033117947
0.0036128631
0.0038335553
0.0039001261
0.0037965998
0.0035465541
0.003193869
0.0027902253
0.0023843609
0.0020150677
0.0017075121
0.0014731295
0.0013118663
0.0012158114
0.0011727834
0.0011694764
0.0011934522
0.0012343957
0.0012842347
0.0013373192
0.0013900516
0.0014396793
0.0014866895
0.0015271872
0.0027366471
0.0023026713
0.001996224
0.0017678599
0.0015798179
0.0014212972
0.0013078818
0.0012172088
0.0010844102
0.0006734009
0.00023018287
0.0033370021
0.0041026199
0.0049980409
0.0059312745
0.0066797138
0.0071095969
0.007183224
0.0068746366
0.0060572903
0.0053719191
0.0043903223
0.0036871911
0.0033354516
0.0033670677
0.003658261
0.0040188832
0.0043077749
0.0044459917
0.0043909014
0.0041551037
0.003781904
0.0033278384
0.0028501717
0.0023975664
0.002004721
0.0016908002
0.0014609486
0.0013097003
0.0012252036
0.0011928135
0.001198035
0.0012280843
0.0012728359
0.0013246205
0.0013783215
0.0014307757
0.0014797219
0.0015257733
0.0015655156
0.0032618535
0.0027647877
0.0024080231
0.002150724
0.0019467309
0.0017622835
0.0015922163
0.0014487835
0.0013204282
0.0011524116
0.00068955128
0.00023673065
0.003920965
0.0047410782
0.0056917728
0.0066549585
0.0073735774
0.0077110042
0.0076168503
0.0071018544
0.0060778468
0.0053089982
0.0043919833
0.0038842309
0.0037872094
0.0040453275
0.0044549582
0.0048226835
0.0050410747
0.0050521392
0.0048471483
0.0044650143
0.003966062
0.0034157631
0.002873378
0.0023844823
0.0019776644
0.0016649627
0.0014449258
0.001306916
0.0012356249
0.0012144679
0.0012281971
0.0012639893
0.0013121089
0.001365419
0.0014194166
0.0014713754
0.0015194503
0.0015643819
0.0016051007
0.0038386279
0.0032922051
0.00288088
0.0025762093
0.002340606
0.0021369613
0.0019340582
0.001719224
0.0015332837
0.0013686868
0.0011714808
0.00068905362
0.00023271266
0.004547544
0.0054267304
0.0064431357
0.0074342068
0.0080957956
0.0082950083
0.0079893555
0.0072562696
0.0060563265
0.0053069747
0.0045529745
0.0043061498
0.0044842126
0.0049225857
0.0053764355
0.0056877673
0.0057793456
0.0056248385
0.00524918
0.0047142666
0.0040931607
0.0034562328
0.0028611331
0.0023476684
0.0019366606
0.0016323868
0.0014268333
0.0013046922
0.0012477745
0.0012380939
0.0012600733
0.0013011362
0.0013521266
0.0014065693
0.0014605895
0.001511809
0.0015587548
0.0016039849
0.0016468431
0.0044588484
0.0038723753
0.0034192618
0.0030637969
0.0027787018
0.0025393685
0.0023038278
0.0020415931
0.001775938
0.001555443
0.0013655028
0.0011689263
0.00066756712
0.00022168681
0.0052219382
0.0061721513
0.007263033
0.0082644153
0.0088204652
0.0088301553
0.0082848214
0.0073414185
0.0060556745
0.0054447389
0.0049368011
0.0049976818
0.0054261255
0.0059638434
0.006384317
0.0065730678
0.0064884956
0.0061386897
0.0055808606
0.0048942145
0.0041603045
0.0034500471
0.0028162004
0.0022904617
0.0018848054
0.0015954946
0.0014083729
0.0013041016
0.0012622361
0.0012639338
0.0012936874
0.001339458
0.0013928455
0.0014480776
0.0015017972
0.0015519035
0.0015988575
0.001645614
0.0016896148
0.0051259636
0.0044973163
0.0040122845
0.0036170825
0.0032789381
0.0029875044
0.0026963514
0.0023888731
0.0020634218
0.0017679482
0.0015240853
0.0013479726
0.0011275841
0.00063200426
0.00020452281
0.0059562682
0.0069891101
0.0081479027
0.0091241292
0.0095164622
0.0092887234
0.0085022218
0.0074059223
0.0061555691
0.0057984222
0.0056010181
0.005978251
0.0065778633
0.0071189124
0.0074300937
0.007435883
0.0071349823
0.0065722986
0.0058299287
0.0049998537
0.0041673911
0.0033999948
0.0027424802
0.0022167558
0.0018253286
0.0015566597
0.0013911342
0.0013060634
0.001279431
0.0012920992
0.0013290218
0.0013789407
0.0014342954
0.0014898894
0.0015427895
0.0015926215
0.0016409919
0.0016884583
0.0017334111
0.0058519101
0.0051679439
0.0046509456
0.0042261148
0.0038445745
0.0034947029
0.0031300599
0.0027549627
0.0023749405
0.0020194241
0.0017003651
0.0014867286
0.0012868947
0.0010650486
0.00057909514
0.00018293089
0.0067629582
0.0078753274
0.0090798182
0.0099751531
0.010146324
0.0096604957
0.0086592821
0.0075168322
0.006437976
0.0064336594
0.006581975
0.0072231484
0.0078833663
0.008334096
0.008464047
0.0082359772
0.0076920364
0.006909335
0.0059886336
0.0050297675
0.0041169683
0.0033104729
0.0026447373
0.0021307503
0.0017614636
0.0015181459
0.0013765061
0.0013112842
0.0012996203
0.0013226593
0.0013661145
0.0014196424
0.0014764014
0.0015316673
0.0015842998
0.001635479
0.001684528
0.0017325154
0.0017782189
0.0066493062
0.0058961532
0.0053343357
0.0048803932
0.0044652923
0.0040661239
0.0036209564
0.0031566668
0.0027054965
0.0022929307
0.0019086285
0.0016361915
0.001398578
0.001205386
0.00097858843
0.00051122314
0.00015989414
0.0076414742
0.0088144706
0.01002152
0.010769453
0.010687171
0.0099501592
0.008816297
0.0077645872
0.0069771956
0.0073984773
0.0078764148
0.0086696239
0.0092738789
0.0095551554
0.009437154
0.0089395869
0.0081384007
0.0071385179
0.0060536124
0.0049858712
0.0040137739
0.0031871603
0.0025282783
0.0020367455
0.0016963373
0.0014819889
0.0013655914
0.0013202582
0.001323019
0.0013557421
0.0014050577
0.0014614569
0.0015187258
0.0015739462
0.0016281843
0.001679948
0.0017294936
0.0017777584
0.0018240232
0.0075189516
0.0066961853
0.0060744202
0.005577221
0.005130781
0.004685306
0.0041679975
0.0036086012
0.0030682415
0.0025836441
0.0021367886
0.001812084
0.0015119059
0.0012916297
0.0010987949
0.00087022698
0.00043238079
0.00013712239
0.0085741761
0.009770167
0.010922883
0.011471113
0.01113279
0.010201153
0.0090560657
0.0082324826
0.0078293255
0.0087095772
0.0094274632
0.010231364
0.010681754
0.010723092
0.010308148
0.0095188498
0.0084587373
0.0072540006
0.0060257875
0.0048730158
0.0038643736
0.0030366085
0.0023986994
0.0019389681
0.0016328195
0.0014498482
0.0013592208
0.001333413
0.0013499073
0.0013914834
0.0014456996
0.0015038374
0.0015616424
0.0016189817
0.0016739076
0.0017261078
0.001775841
0.0018241646
0.0018708026
0.0084391602
0.0075687919
0.0068868837
0.0063289914
0.0058349497
0.0053372875
0.0047556536
0.0041073151
0.0034761043
0.002902929
0.0023793434
0.0020074077
0.001646075
0.0013719372
0.0011600682
0.00097290868
0.00074277306
0.00035096778
0.00011558725
0.0095220745
0.010703688
0.011741043
0.012063961
0.011508946
0.010489751
0.0094662537
0.0089754756
0.0090248889
0.010325717
0.011136686
0.011828684
0.01205055
0.011785539
0.011045634
0.0099539891
0.008643789
0.0072550476
0.0059097069
0.0046985303
0.0036766714
0.0028659042
0.0022615973
0.0018413493
0.001573329
0.0014230346
0.0013581587
0.001351226
0.0013804756
0.0014296636
0.001487377
0.0015470726
0.0016078723
0.0016661103
0.0017216295
0.0017738838
0.0018235442
0.0018716975
0.0019185347
0.009368929
0.0084876706
0.007772847
0.0071525217
0.006590079
0.0060198518
0.0053659463
0.0046376377
0.0039233177
0.0032613006
0.0026472684
0.0022166928
0.0017967867
0.0014671442
0.0012092575
0.0010117504
0.00082973682
0.00060726287
0.00027355442
9.5276035e-05
0.010446309
0.011574702
0.012453184
0.012564206
0.011883183
0.0108969
0.010108536
0.01003592
0.010543334
0.012148335
0.012908685
0.013395263
0.013321886
0.012703004
0.011622264
0.010231064
0.008690408
0.0071453635
0.0057132433
0.0044716645
0.0034594484
0.002682298
0.002122236
0.0017472914
0.0015198623
0.0014027898
0.0013632027
0.0013739822
0.0014144083
0.0014695085
0.0015303812
0.0015944073
0.0016564967
0.0017156097
0.0017712486
0.0018232533
0.0018725549
0.0019203204
0.0019671913
0.010272842
0.0094116495
0.0087008349
0.0080488924
0.0074178188
0.0067455964
0.0059942313
0.0051822122
0.0043910964
0.0036509397
0.002946955
0.0024493617
0.0019596739
0.0015762757
0.0012672315
0.0010329333
0.00085037492
0.00067952036
0.00047782047
0.00020431264
7.6753321e-05
0.01130868
0.012344801
0.013062294
0.013030627
0.012333331
0.011482175
0.011031606
0.011410917
0.012312624
0.014065379
0.014662998
0.014871499
0.014443251
0.013446878
0.012017901
0.010343988
0.0086007365
0.0069329632
0.0054468806
0.0042030709
0.0032218896
0.0024927403
0.0019853076
0.0016597512
0.0014743361
0.0013903404
0.001374736
0.0014012502
0.001450839
0.001511455
0.0015785452
0.0016444976
0.0017079518
0.0017673546
0.0018227438
0.0018741564
0.0019228236
0.0019699855
0.0020167418
0.011114902
0.010307185
0.0096296935
0.0089806343
0.0083173706
0.0075353219
0.0066521902
0.0057359327
0.004862132
0.0040532971
0.0032695423
0.0027094169
0.0021426962
0.0016955502
0.0013380062
0.0010577562
0.00084929458
0.0006859068
0.00053660583
0.0003603837
0.00014686253
6.0394811e-05
0.012072309
0.013011459
0.01362162
0.013544103
0.012912204
0.012299228
0.012240088
0.013048313
0.014225071
0.015982568
0.016330451
0.016210664
0.015376512
0.013993801
0.012223303
0.010292664
0.0083823059
0.0066293
0.00512319
0.0039041538
0.0029729914
0.002303544
0.0018550178
0.0015815839
0.0014385651
0.0013862282
0.0013921525
0.0014321144
0.0014905295
0.0015599683
0.0016299231
0.0016979931
0.0017620782
0.001821322
0.0018760527
0.0019265321
0.0019742886
0.0020206434
0.0020671493
0.011858268
0.011136693
0.010527443
0.0099063186
0.0092442773
0.0083853916
0.0073590844
0.0063104677
0.0053314697
0.0044500842
0.0035950954
0.0029882052
0.0023480875
0.0018324877
0.0014176776
0.0010944915
0.00084891737
0.00066950881
0.00053353162
0.00040731543
0.0002620189
0.00010288965
4.5976714e-05
0.012732546
0.013617499
0.01421046
0.014154145
0.013668784
0.013359448
0.013691422
0.014865291
0.016181744
0.017820398
0.017868759
0.017368091
0.016098415
0.014324875
0.012234567
0.010083189
0.0080471055
0.0062487584
0.0047560271
0.0035863101
0.0027210996
0.0021205246
0.0017354564
0.0015153789
0.0014132919
0.0013897226
0.0014145747
0.0014679016
0.001538609
0.001612285
0.0016854341
0.0017546838
0.0018188575
0.0018774437
0.0019311024
0.001980308
0.0020268814
0.0020722342
0.0021183868
0.012500518
0.011865252
0.011353727
0.010799336
0.010151147
0.0092476836
0.0081042908
0.0069180395
0.0058107862
0.0048352488
0.0039041209
0.0032641988
0.0025658776
0.001988201
0.00151252
0.0011395769
0.00085904237
0.00065145688
0.00050679957
0.00039976462
0.00030018327
0.00018837747
7.0987519e-05
3.3196393e-05
0.013329138
0.014237023
0.014879972
0.014897964
0.014627582
0.014627021
0.015328565
0.01677925
0.018099726
0.019532752
0.019244156
0.01830603
0.016596218
0.014433171
0.012055681
0.0097274872
0.0076110227
0.005807762
0.0043595895
0.0032603956
0.0024740709
0.0019493758
0.001630263
0.0014621564
0.0013976442
0.0014001039
0.0014442237
0.001514401
0.0015912766
0.0016696615
0.001744798
0.0018145641
0.0018782142
0.001935641
0.0019878105
0.0020353978
0.0020805218
0.0021247095
0.0021704121
0.013078059
0.012496318
0.012082239
0.011623185
0.011012395
0.010072461
0.0088419846
0.0075505425
0.0063107426
0.0052209051
0.0041936557
0.0035204887
0.0027775459
0.0021530773
0.0016236963
0.0011981113
0.00087741036
0.00064268002
0.00047725503
0.00036996723
0.00029284247
0.00022008367
0.00013561704
4.8895095e-05
2.3368665e-05
0.013929377
0.014925123
0.015659725
0.01580148
0.01574954
0.016049272
0.017091905
0.018707051
0.019919812
0.021087641
0.0204223
0.018997665
0.016852015
0.014315511
0.011697544
0.0092421479
0.0070929318
0.0053235947
0.0039476787
0.0029368305
0.0022396699
0.0017951122
0.0015408683
0.001420912
0.001391259
0.001420632
0.0014875025
0.0015665389
0.001650195
0.0017317209
0.0018080285
0.001877549
0.0019400647
0.0019958221
0.002046073
0.002091703
0.0021351482
0.0021780061
0.0022231826
0.01365527
0.013061921
0.012715187
0.012352338
0.011794824
0.010840647
0.0095289685
0.0081559345
0.0068182573
0.0056162224
0.0044748601
0.0037518936
0.0029658512
0.0023093411
0.0017420779
0.0012709369
0.00090789976
0.00064289636
0.00045678901
0.00033771697
0.00026603082
0.00021552599
0.00016282753
9.7761274e-05
3.3803053e-05
1.5684169e-05
0.014593718
0.015715054
0.016569594
0.016826246
0.016970945
0.017579747
0.018912024
0.020585609
0.021606112
0.022471891
0.02136416
0.019421699
0.01684425
0.013980558
0.011175871
0.0086478776
0.0065133476
0.0048135226
0.0035339195
0.0026260355
0.0020246727
0.0016597731
0.0014661511
0.0013918728
0.0013987793
0.00145839
0.0015378485
0.0016264639
0.0017148576
0.001798504
0.001875028
0.0019435515
0.0020043081
0.0020578689
0.0021057733
0.0021491472
0.0021906795
0.0022320557
0.0022766514
0.014296391
0.013620235
0.013279918
0.012990311
0.012483689
0.011527593
0.010154421
0.0087065063
0.0072896616
0.0060069362
0.0047536975
0.003968714
0.0031275732
0.0024422727
0.0018520652
0.0013501257
0.00095086311
0.00065561594
0.0004469046
0.00031409882
0.00023712786
0.00019457167
0.00016155762
0.00012176698
7.095522e-05
2.3669275e-05
1.0064658e-05
0.015359145
0.016623622
0.017577178
0.017905405
0.018253334
0.019185967
0.020724403
0.022372386
0.023141101
0.02367604
0.022015269
0.019564734
0.016575909
0.013443198
0.010512084
0.0079682309
0.0058933871
0.0042950067
0.0031321053
0.0023370516
0.0018319617
0.0015421533
0.0014072284
0.0013813004
0.0014278887
0.0015051816
0.0015979685
0.001693499
0.0017853356
0.0018698951
0.0019457041
0.0020124616
0.0020708149
0.0021216461
0.0021668274
0.0022076371
0.0022470229
0.0022867828
0.0023307708
0.015047375
0.014238858
0.013831425
0.013560292