/*--------------------------------*- C++ -*----------------------------------*\
| =========                 |                                                 |
| \\      /  F ield         | OpenFOAM: The Open Source CFD Toolbox           |
|  \\    /   O peration     | Version:  5.0                                   |
|   \\  /    A nd           | Web:      www.OpenFOAM.org                      |
|    \\/     M anipulation  |                                                 |
\*---------------------------------------------------------------------------*/
FoamFile
{
    version     2.0;
    format      ascii;
    class       volVectorField;
    location    "360";
    object      U;
}
// * * * * * * * * * * * * * * * * * * * * * * * * * * * * * * * * * * * * * //

dimensions      [0 1 -1 0 0 0 0];

internalField   nonuniform List<vector> 
9200
(
(1.0388656 0.00074169523 -1.5653933e-24)
(1.0390454 0.002365021 7.6044816e-22)
(1.0366323 0.00074358078 0)
(1.0393264 0.0037648655 -4.0170596e-22)
(1.0367879 0.0023906764 6.6239995e-22)
(1.0356473 0.00073413402 0)
(1.0397117 0.0051616128 -4.0372827e-23)
(1.0370549 0.0038101258 1.0812327e-23)
(1.0357908 0.0023739872 0)
(1.0341974 0.00070808629 0)
(1.0401512 0.0064407335 8.2863228e-22)
(1.0374112 0.0052331401 6.1291444e-22)
(1.0360425 0.0037889105 3.7629953e-22)
(1.0343177 0.0023018884 2.2972808e-23)
(1.0330834 0.00067361402 2.2163021e-25)
(1.0406401 0.0076375192 7.9383629e-22)
(1.0378471 0.006551903 -3.1133692e-23)
(1.036378 0.0052127655 1.2558907e-21)
(1.0345422 0.0036778525 5.1498561e-22)
(1.0331879 0.0021943378 1.6336823e-23)
(1.0319803 0.00063525173 -9.6643058e-22)
(1.0411519 0.008713758 8.1373346e-22)
(1.0383722 0.0078089894 9.0395544e-22)
(1.036788 0.0065512647 -7.5791167e-22)
(1.0348285 0.0050636834 -5.5363946e-23)
(1.0333928 0.0035058143 4.6609063e-22)
(1.03207 0.0020665953 4.7276861e-22)
(1.0310105 0.00060217537 8.3519667e-23)
(1.041698 0.0096348311 3.9176235e-22)
(1.0389983 0.0089860446 7.4417197e-22)
(1.0372858 0.0078582883 9.045179e-22)
(1.0351672 0.0063811545 4.9392173e-23)
(1.0336456 0.0048195277 -1.2004088e-21)
(1.0322575 0.0032985778 -5.3293496e-22)
(1.0310939 0.0019468024 -5.4416838e-22)
(1.0301146 0.00057765376 8.9683574e-22)
(1.0422804 0.010349528 -1.0726151e-21)
(1.039768 0.010054904 7.9993752e-22)
(1.0378791 0.0091425401 4.1645547e-23)
(1.0355551 0.0076882954 4.3496129e-22)
(1.0339318 0.0060659284 1.1740334e-22)
(1.0324827 0.0045178094 -1.7901743e-21)
(1.0312747 0.0031041326 1.5302157e-22)
(1.0301979 0.0018492719 -9.2407589e-22)
(1.0292896 0.00056062996 -1.9013043e-21)
(1.0428578 0.010826593 8.011163e-22)
(1.0407386 0.01102501 -3.5488678e-22)
(1.0385868 0.010416739 -4.4041305e-23)
(1.0359759 0.00901683 -1.7752094e-22)
(1.0342334 0.0072912886 -1.8399405e-22)
(1.0327294 0.0056620436 2.0105702e-22)
(1.0314944 0.0042327845 6.2715424e-22)
(1.0303764 0.0029482073 1.0469072e-21)
(1.029377 0.0017794671 5.9397805e-22)
(1.0285168 0.00054695134 1.5340703e-22)
(1.0434567 0.011057864 -3.9140061e-22)
(1.0420913 0.011821276 1.3925915e-22)
(1.0394617 0.011745197 6.2255601e-22)
(1.0364237 0.010417383 -7.3125477e-22)
(1.0344979 0.0085259986 5.373008e-22)
(1.0329658 0.0067531682 -1.6388905e-21)
(1.0317398 0.0052796468 6.5759667e-23)
(1.0306005 0.0040072456 1.5749262e-21)
(1.0295537 0.0028415976 -7.8363673e-22)
(1.028608 0.0017311369 1.7257632e-21)
(1.0277893 0.00053352414 -2.5787783e-22)
(1.0444496 0.010685958 9.7624078e-23)
(1.0435857 0.012429651 -3.9554648e-22)
(1.0403627 0.013244426 -7.5805139e-22)
(1.0368767 0.011998269 0)
(1.0346868 0.0098162708 3.2679938e-23)
(1.0331292 0.0078079173 -2.9508238e-22)
(1.0319842 0.0062435174 -3.2279448e-22)
(1.0308605 0.0049859766 -7.7974095e-22)
(1.0297837 0.0038615509 -2.1595278e-22)
(1.0287787 0.0027737568 -9.9281654e-22)
(1.0278799 0.0016928122 -6.7301622e-22)
(1.0271034 0.0005193576 1.5574755e-22)
(1.0456181 0.0097330138 6.2063752e-23)
(1.0455221 0.013236315 -9.6325457e-23)
(1.0412899 0.014990339 0)
(1.0372254 0.013835478 0)
(1.0346641 0.01121866 -1.8939759e-22)
(1.0331739 0.0088299268 -1.9203972e-22)
(1.0321721 0.007121392 -4.2423053e-22)
(1.0311446 0.0058705822 9.2543e-22)
(1.0300568 0.0048134356 9.637231e-23)
(1.029006 0.0037783815 2.605292e-24)
(1.0280395 0.002723699 1.1049793e-21)
(1.027188 0.0016523299 -1.1826484e-21)
(1.0264599 0.0005037061 2.4564679e-21)
(1.0469096 0.0081261824 -9.1748969e-22)
(1.0483118 0.014055819 4.4416399e-23)
(1.0425265 0.017003595 -3.5169728e-22)
(1.0374537 0.015978028 1.4422518e-22)
(1.0343809 0.012777734 -8.0789418e-23)
(1.033009 0.0098315961 -1.4305551e-22)
(1.0322673 0.0078777024 2.5882861e-22)
(1.0314138 0.0066481984 1.564708e-23)
(1.0303799 0.0056812851 1.0438981e-21)
(1.0292783 0.0047323655 9.7251009e-22)
(1.0282546 0.0037218063 3.0685259e-22)
(1.027333 0.0026689904 8.8803305e-22)
(1.0265353 0.001599496 6.0213773e-22)
(1.0258623 0.00048457806 -6.7124429e-22)
(1.0485935 0.0059115488 5.7493061e-22)
(1.0519565 0.014855707 1.6567646e-21)
(1.0441709 0.019455057 -3.3275561e-22)
(1.037559 0.018553361 5.5137724e-23)
(1.0337756 0.01455891 -6.1670855e-23)
(1.0325411 0.010775884 2.7020745e-22)
(1.0321927 0.008491306 2.4947612e-22)
(1.0316531 0.0072658386 -3.3045425e-22)
(1.0307322 0.006453929 -9.9186796e-23)
(1.0296209 0.0056229847 -1.1670599e-22)
(1.0285113 0.0046874247 -1.8300715e-23)
(1.0275261 0.003655302 -1.4733505e-22)
(1.0266642 0.0025912243 -1.1266694e-21)
(1.0259284 0.001527442 5.6663775e-22)
(1.0253155 0.00046003027 -5.0990434e-22)
(1.0505135 0.0026006525 2.3698014e-21)
(1.0564641 0.015491763 -1.9744787e-21)
(1.0462719 0.022574159 2.5650313e-22)
(1.0374822 0.021789268 -1.414449e-22)
(1.0326551 0.016663786 -5.3124287e-23)
(1.0316146 0.011674984 -5.3151565e-22)
(1.0319067 0.0088685632 -4.4494269e-23)
(1.0318397 0.0076670879 3.4783263e-23)
(1.0311246 0.0070743268 -2.018828e-22)
(1.0300311 0.0064483193 -2.7521959e-22)
(1.0288437 0.0056133696 -1.98104e-21)
(1.0277509 0.0046267835 3.9751795e-22)
(1.0268298 0.0035511267 3.5083257e-22)
(1.0260419 0.0024787273 1.8139896e-22)
(1.0253746 0.0014340357 4.3184891e-23)
(1.0248239 0.00043032341 5.6500821e-22)
(1.0528799 -0.0011089166 0)
(1.0617065 0.016168446 -2.7423122e-21)
(1.0488069 0.026561678 8.3049113e-22)
(1.0371526 0.025896951 0)
(1.0308548 0.019206473 0)
(1.030062 0.012538492 0)
(1.0312519 0.0089119772 1.18282e-22)
(1.0320607 0.0077584932 4.6672493e-22)
(1.0316123 0.0074761001 3.7321519e-22)
(1.0305575 0.0071631826 5.93233e-22)
(1.0292617 0.0065167749 9.8688093e-23)
(1.0280375 0.0055829883 4.3361679e-22)
(1.0270089 0.0045091276 6.9429464e-24)
(1.02618 0.0033921921 -4.0270902e-22)
(1.025476 0.0023287515 -1.2394748e-22)
(1.0248792 0.001322568 -2.7532395e-22)
(1.0243893 0.00039791667 0)
(1.0553896 -0.0056391293 4.5255236e-21)
(1.0673867 0.016606756 6.4397185e-21)
(1.0515466 0.031584208 -2.617803e-21)
(1.0363989 0.031108537 9.1392077e-22)
(1.0282078 0.022328758 1.0218564e-21)
(1.0276844 0.013344265 0)
(1.0301315 0.0085451555 7.981017e-22)
(1.0321382 0.0073335622 -2.5522154e-22)
(1.0323565 0.0075899155 3.839614e-22)
(1.0313198 0.007705245 4.3955869e-22)
(1.0298429 0.0073812885 -3.5449037e-22)
(1.0283944 0.0065635554 1.2968373e-22)
(1.027223 0.005470397 7.041713e-22)
(1.0263079 0.0043079489 -1.3336409e-21)
(1.0255913 0.0031744032 -3.8445421e-22)
(1.0249741 0.0021475084 -1.8506336e-21)
(1.0244445 0.001200733 -7.3849421e-22)
(1.0240099 0.0003656609 -7.0483113e-22)
(1.0590718 -0.010974631 -3.4336358e-22)
(1.074362 0.017123727 4.4436934e-21)
(1.0542089 0.037929603 1.1134108e-21)
(1.0348421 0.037636464 7.320122e-23)
(1.0244692 0.026174767 -2.0850274e-22)
(1.0242506 0.014092952 -6.0770832e-22)
(1.0283854 0.0076390441 -2.0499392e-21)
(1.0320488 0.0062961594 -1.0977897e-21)
(1.0333012 0.0072602829 -1.5384353e-22)
(1.0323092 0.0080453838 -6.3151467e-22)
(1.030663 0.0082076871 -1.0117167e-22)
(1.0288904 0.0076003435 -7.8832172e-22)
(1.0274571 0.0064902897 1.0746176e-22)
(1.026439 0.0052309679 1.1920871e-22)
(1.0256771 0.0040189944 1.7955682e-22)
(1.025076 0.0029080527 2.7966976e-22)
(1.0245394 0.0019480087 -6.0823753e-22)
(1.0240691 0.0010781136 2.3844976e-23)
(1.0236811 0.00033582073 -6.6419439e-22)
(1.0628326 -0.019216546 -3.9912843e-21)
(1.0850766 0.017027841 -8.5187827e-21)
(1.0581245 0.045508976 1.2026329e-20)
(1.0323676 0.045587598 -6.1217393e-22)
(1.0193364 0.030861642 -1.2061776e-22)
(1.0194902 0.014768422 -2.8254337e-22)
(1.0258313 0.0060470966 2.7472433e-22)
(1.031771 0.0044414209 -7.7815098e-24)
(1.0344391 0.006320181 -6.5017883e-23)
(1.0337457 0.0082804192 2.5389269e-22)
(1.0316901 0.0090613578 -1.007453e-21)
(1.02952 0.0087698604 2.7763793e-22)
(1.0277417 0.0076389779 4.3484459e-22)
(1.0265274 0.0062229088 -3.9381333e-23)
(1.0257332 0.004854612 1.2798293e-22)
(1.0251364 0.0036573834 8.8386166e-22)
(1.0246401 0.0026140601 -1.6785192e-22)
(1.0241705 0.0017463389 1.0013698e-21)
(1.0237482 0.00096351775 2.6491073e-22)
(1.0233962 0.00031053024 6.9302983e-22)
(1.0685531 -0.026222431 -3.6379642e-22)
(1.1001998 0.016690149 -1.7301114e-20)
(1.0665593 0.054327326 1.1497635e-21)
(1.0304619 0.055057896 -6.7415857e-22)
(1.0125815 0.036369064 -1.4381758e-21)
(1.0131526 0.015367664 -1.2292857e-21)
(1.022258 0.0035969669 2.4835073e-21)
(1.0312474 0.0015371137 2.138816e-21)
(1.0358869 0.0045788723 3.6379347e-22)
(1.0357807 0.0081520043 0)
(1.0331956 0.0099724552 6.8180769e-22)
(1.030309 0.010149583 3.1127199e-22)
(1.0280291 0.0090100612 -5.8385941e-22)
(1.0265651 0.0073515313 4.8096117e-23)
(1.0256988 0.0057449503 -4.1325587e-22)
(1.0251456 0.0043690753 6.9975489e-22)
(1.024696 0.0032531437 1.6154616e-22)
(1.0242829 0.0023171277 -2.940924e-22)
(1.0238619 0.0015578294 5.8974366e-22)
(1.0234741 0.00086354196 4.6365372e-23)
(1.0231473 0.00029207358 6.621611e-22)
(1.0659784 -0.035110852 2.8520085e-21)
(1.1068113 0.011886597 -1.7182447e-20)
(1.0813568 0.064004738 -1.0946827e-20)
(1.032398 0.066298759 4.5482597e-21)
(1.0047621 0.042945454 -3.1860474e-21)
(1.0049549 0.015862139 -9.4905457e-23)
(1.0174637 0.00011463965 0)
(1.0304084 -0.002659981 2.1806886e-22)
(1.0377432 0.0017902205 -4.4609456e-23)
(1.038559 0.0075356566 7.738266e-22)
(1.0354038 0.01095042 3.8017702e-22)
(1.0314754 0.011788541 6.3983837e-23)
(1.0283693 0.010681624 -7.483363e-23)
(1.0264962 0.0086991308 3.469293e-22)
(1.0255335 0.006728996 -2.0209573e-22)
(1.0250307 0.0050977493 2.1655574e-22)
(1.0246936 0.0038226625 -8.8353324e-23)
(1.0243553 0.0028423228 5.3522553e-22)
(1.0239977 0.0020398188 1.2871635e-22)
(1.0236049 0.001394329 1.8333992e-23)
(1.0232381 0.00078257312 3.5030417e-22)
(1.0229263 0.00028221415 0)
(1.0577073 -0.044691498 3.8173816e-22)
(1.1074188 0.0078751295 1.1330733e-20)
(1.0983461 0.074720392 -4.6840124e-22)
(1.0388699 0.079725507 6.0906936e-21)
(0.99737309 0.051274065 -3.995429e-21)
(0.9945934 0.016264008 1.7874451e-21)
(1.0112531 -0.0045633638 -2.6605566e-22)
(1.0291536 -0.0084090514 1.3974422e-21)
(1.0401046 -0.0022972121 3.348143e-23)
(1.0422994 0.0062539846 -6.1985566e-23)
(1.0385342 0.011994752 -2.8918823e-24)
(1.033166 0.0138609 -2.0015016e-22)
(1.0288225 0.012798119 -9.817791e-23)
(1.0263022 0.010364692 1.2293098e-21)
(1.0251609 0.0078758171 8.4455843e-22)
(1.0247381 0.0058581824 5.8175081e-22)
(1.0245526 0.0043604959 -1.3904448e-22)
(1.0243755 0.0032692385 -8.3251454e-22)
(1.0241044 0.0024588192 -2.3821202e-23)
(1.0237734 0.0017989476 3.1472525e-22)
(1.0233896 0.0012629527 0)
(1.023032 0.00072303111 -7.8667089e-22)
(1.022725 0.00028094051 -2.9532688e-24)
(1.0431251 -0.054119574 -6.8351288e-21)
(1.1042835 0.002479987 4.0454733e-20)
(1.1017457 0.085142679 -2.7143367e-20)
(1.0451166 0.097636165 -6.527696e-21)
(0.99016658 0.062502744 -5.1070382e-21)
(0.98177902 0.016752849 0)
(1.0033309 -0.01060553 -1.2230739e-22)
(1.0273762 -0.015985203 1.0539545e-21)
(1.0430131 -0.0079989618 -6.4235497e-22)
(1.04726 0.0041540974 -1.4626655e-21)
(1.0428683 0.013089657 7.4402585e-22)
(1.0355756 0.016525466 3.0068408e-22)
(1.0294432 0.015576202 -2.3062032e-22)
(1.0259246 0.012502334 6.1533918e-22)
(1.0245004 0.0092698533 -6.7711034e-22)
(1.0241698 0.0066881441 -1.3538877e-21)
(1.0242203 0.0048589177 -2.7912618e-22)
(1.024263 0.0036168425 -2.8997203e-22)
(1.0241748 0.0027580408 7.9529907e-22)
(1.0239267 0.0021296089 -2.1365641e-22)
(1.0235961 0.0016047117 -6.6091455e-22)
(1.0232064 0.0011662978 7.156895e-22)
(1.0228484 0.00068501198 -5.4783677e-22)
(1.0225362 0.0002853567 -1.6527011e-24)
(1.023267 -0.062491894 1.5115129e-21)
(1.0953795 0.00040775362 3.9532332e-20)
(1.0889144 0.095207491 1.2349e-21)
(1.0413726 0.11772279 2.8528022e-20)
(0.98039104 0.077637286 2.3284572e-21)
(0.96632236 0.018205766 -8.6478159e-21)
(0.99319724 -0.018223451 -1.8404456e-22)
(1.0249594 -0.025630533 -2.0260947e-21)
(1.0464844 -0.015625467 5.5264205e-22)
(1.0536638 0.00094211142 -8.7463286e-22)
(1.0487429 0.01424318 6.6379707e-22)
(1.0389252 0.019990725 -3.9382442e-22)
(1.0302983 0.019274644 5.5376101e-22)
(1.0253128 0.015313708 -6.8625209e-23)
(1.0234332 0.011016643 -1.0415492e-21)
(1.0232212 0.0076307206 -1.7366333e-23)
(1.0235955 0.0053183104 -5.8429059e-23)
(1.0239768 0.0038549797 -4.1466065e-22)
(1.0241362 0.0029391831 0)
(1.0240659 0.0023264954 -9.4478844e-23)
(1.0238025 0.0018716841 -2.7042983e-23)
(1.0234522 0.0014618645 5.4871426e-23)
(1.0230467 0.0011036658 -3.2190465e-23)
(1.0226807 0.00066607994 7.8288627e-22)
(1.0223554 0.00029042048 4.4447541e-22)
(1.0010004 -0.069856193 8.9374121e-21)
(1.0797284 -0.0018294922 -2.4367923e-20)
(1.0673027 0.10679374 -1.0000871e-20)
(1.0249003 0.13697228 -3.2803451e-21)
(0.96826203 0.094902622 1.0379038e-20)
(0.94865636 0.020739207 1.7340352e-21)
(0.98059008 -0.027516678 -2.8071997e-22)
(1.0217408 -0.037604512 1.785988e-22)
(1.0505287 -0.025470398 -1.7763769e-21)
(1.0617653 -0.003649394 -5.6073648e-22)
(1.0565015 0.015423921 -1.3070552e-21)
(1.0434649 0.024500545 4.7037772e-23)
(1.0314186 0.024214972 -1.2858916e-22)
(1.0243756 0.019049722 -3.3030053e-22)
(1.0218183 0.013256906 -3.4965768e-22)
(1.0217439 0.0087293087 1.4022555e-21)
(1.0225708 0.0057337076 2.1426068e-21)
(1.0234269 0.0039528985 5.3603882e-22)
(1.0239648 0.0029553262 7.3508051e-22)
(1.0241307 0.0023801785 2.1806126e-23)
(1.02402 0.0019962833 -8.4441344e-22)
(1.0237126 0.00168959 -1.8954059e-22)
(1.0233302 0.0013709666 5.7319441e-22)
(1.0229013 0.0010720014 -6.7909461e-22)
(1.0225223 0.000662255 5.9020871e-22)
(1.0221806 0.00029250503 -3.2278348e-23)
(0.97753022 -0.076424048 -3.1478429e-22)
(1.0590164 -0.0038361001 -2.7105748e-20)
(1.0468897 0.1185059 3.8498868e-20)
(1.0061507 0.15352781 -2.3030429e-20)
(0.95598391 0.11256378 1.1312286e-21)
(0.93066922 0.023441357 1.0770869e-20)
(0.96596389 -0.038696786 2.2016041e-21)
(1.0174592 -0.052188029 2.9894396e-21)
(1.0551052 -0.03779782 4.7392049e-21)
(1.0716533 -0.0098574988 2.8756114e-21)
(1.0665381 0.016584906 -2.1526771e-23)
(1.0494475 0.030345844 2.6329346e-21)
(1.0328254 0.030769702 -1.2335455e-21)
(1.0229907 0.023999425 -4.8430138e-22)
(1.0194673 0.016149406 -2.9118713e-22)
(1.0195553 0.010037972 2.9655312e-22)
(1.0209985 0.0060881608 -6.0972014e-23)
(1.022522 0.0038636974 6.1645109e-23)
(1.023592 0.0027531047 1.504606e-22)
(1.0241176 0.002236316 7.4304643e-23)
(1.0242009 0.0019673323 0)
(1.0240097 0.0017731899 -2.9857976e-22)
(1.0236408 0.0015763757 -4.487414e-23)
(1.0232199 0.0013280216 0)
(1.0227628 0.0010662559 8.33645e-22)
(1.022369 0.00066983077 4.2861188e-24)
(1.0220098 0.0002926755 -4.332714e-22)
(0.95327578 -0.08221903 -3.0608152e-21)
(1.0355255 -0.0054201292 -2.2329269e-21)
(1.0224098 0.13001609 3.0804562e-20)
(0.98525111 0.16902119 -3.9702977e-21)
(0.94139275 0.12796733 -1.6851757e-21)
(0.91325723 0.028010348 -1.1630935e-20)
(0.9493246 -0.051336973 -2.2977765e-22)
(1.0118299 -0.069437873 -9.8431137e-22)
(1.0597383 -0.052605436 -2.1337958e-21)
(1.0830092 -0.017848019 -6.1091163e-21)
(1.0789108 0.017782423 5.4329141e-21)
(1.0570907 0.037887629 3.3161139e-22)
(1.0345234 0.039370706 1.5873341e-22)
(1.0210017 0.030484187 -4.6656898e-22)
(1.0161678 0.019878054 -8.4953724e-22)
(1.0164327 0.011608857 -2.820213e-22)
(1.0187008 0.006356284 -1.4894251e-21)
(1.0211388 0.0035181334 -9.8734685e-22)
(1.0229562 0.0022567172 -3.9936086e-22)
(1.023984 0.001828628 -7.400076e-22)
(1.0243621 0.0017323595 -2.8780582e-22)
(1.0243048 0.0017042569 1.0673992e-22)
(1.0240132 0.0016492237 2.7709955e-23)
(1.0235731 0.0015209444 0)
(1.0231142 0.0013241978 0)
(1.0226282 0.0010808002 -6.0814985e-23)
(1.0222167 0.00068673952 7.5577866e-22)
(1.0218415 0.0002951029 8.3025759e-22)
(0.92858478 -0.087334938 0)
(1.0106498 -0.0065001665 -1.5686356e-20)
(0.99628249 0.14101348 -2.6924766e-20)
(0.96033195 0.18372299 -8.9356722e-21)
(0.92018649 0.14255137 -3.7322509e-21)
(0.89502549 0.032558066 1.3327602e-21)
(0.93100389 -0.06465499 -1.7454863e-21)
(1.0041163 -0.088749923 4.7296283e-22)
(1.0634392 -0.06963922 -6.5433516e-21)
(1.09483 -0.027358047 1.1815778e-21)
(1.092725 0.019150367 -6.1924505e-22)
(1.0660424 0.047575183 -1.3751746e-21)
(1.0364139 0.050495694 1.7409805e-21)
(1.0181772 0.038854403 -1.0670088e-21)
(1.0116432 0.024625104 -3.1924641e-22)
(1.0121226 0.013496262 -1.0067075e-21)
(1.0154634 0.0064927346 -1.5235496e-22)
(1.019132 0.0028271982 -3.4601802e-22)
(1.0219741 0.0013591831 -1.5403297e-24)
(1.0237054 0.0010675249 -4.1310831e-22)
(1.0244877 0.0012234075 -1.8579646e-22)
(1.0246328 0.0014417436 -1.4499052e-22)
(1.02441 0.0015766384 2.7420059e-23)
(1.024011 0.0016045204 6.481735e-22)
(1.0235046 0.0015142197 2.1013222e-22)
(1.0230129 0.0013492592 -1.2860336e-23)
(1.0224943 0.0011117398 -7.8940787e-22)
(1.0220621 0.00071186726 4.968723e-22)
(1.021674 0.00030238623 -1.2418004e-21)
(0.90396048 -0.091816212 5.0410281e-21)
(0.98520918 -0.0075078722 0)
(0.96944218 0.15154376 0)
(0.93426959 0.19724351 0)
(0.89698696 0.15565699 2.6713742e-21)
(0.87555554 0.038791135 0)
(0.91200994 -0.078502517 -9.4476005e-22)
(0.99422296 -0.11003342 -2.9405926e-21)
(1.0656821 -0.088872382 -1.6520892e-20)
(1.1065367 -0.038403442 2.8361702e-20)
(1.1069808 0.021156676 -7.6811231e-21)
(1.0746965 0.060068569 2.0048276e-21)
(1.0376604 0.0646988 -3.5880477e-22)
(1.0141588 0.049493888 1.8799053e-21)
(1.0055408 0.030579174 1.9400754e-21)
(1.0063283 0.015738173 -2.2854553e-22)
(1.0110491 0.0064413065 -1.17088e-21)
(1.016331 0.0016744914 2.4169734e-22)
(1.0205513 -7.1218217e-05 7.5311978e-22)
(1.0232478 -0.00017274285 4.6823862e-22)
(1.0245926 0.00035260139 1.6409992e-22)
(1.0250022 0.00092633579 -1.5958422e-22)
(1.0248804 0.0013382633 -2.4392054e-22)
(1.0244957 0.0015573788 1.7317369e-22)
(1.0239955 0.0016074225 1.4447888e-23)
(1.0234424 0.0015466755 1.4903282e-22)
(1.0229112 0.0013969934 -5.9142349e-22)
(1.0223578 0.0011555696 -7.7510648e-25)
(1.0219049 0.00074308077 -1.9222228e-21)
(1.0215058 0.00031360005 -7.4711286e-22)
(0.87751505 -0.096460941 -4.2584927e-21)
(0.95985251 -0.0078714262 -1.0850812e-20)
(0.94265918 0.16124617 0)
(0.90799122 0.20971263 0)
(0.87313038 0.16718334 0)
(0.85650804 0.044912542 0)
(0.89350833 -0.092093401 0)
(0.98237557 -0.13293252 8.4286786e-22)
(1.0665333 -0.11077721 4.8357723e-21)
(1.1187535 -0.052101504 -4.2128216e-20)
(1.1232891 0.023432569 2.5773626e-22)
(1.0831941 0.075884031 -8.438631e-21)
(1.0365761 0.082390781 6.9358086e-21)
(1.0081106 0.062775845 1.7723775e-21)
(0.99742935 0.037908521 -2.5966441e-22)
(0.99870494 0.018353012 4.9165997e-22)
(1.0051951 0.0061230519 -2.2459576e-22)
(1.0125466 -7.8048612e-05 5.6486205e-22)
(1.0185799 -0.0021984034 -5.5852257e-22)
(1.0225772 -0.0020437995 -1.8964601e-22)
(1.0246929 -0.0010051066 -1.5366884e-23)
(1.0254627 8.6368554e-05 -3.5287926e-22)
(1.0254518 0.00089086565 -2.2893356e-23)
(1.0250743 0.001380077 8.2708168e-23)
(1.0245425 0.0016093118 -1.0893271e-22)
(1.0239627 0.0016550276 -4.5079966e-22)
(1.0233718 0.0016177342 -1.6200036e-22)
(1.0227981 0.0014639094 2.5809947e-22)
(1.0222171 0.0012066674 8.3342801e-25)
(1.0217457 0.00077731913 1.3861091e-21)
(1.0213365 0.00032625125 4.8537721e-22)
(0.84930251 -0.10106126 4.9196898e-21)
(0.93253072 -0.010102932 -1.1645491e-21)
(0.91668805 0.16990349 -2.0530223e-20)
(0.88232682 0.22103943 -2.3911682e-20)
(0.84959177 0.17738723 0)
(0.83735059 0.048128174 0)
(0.87569416 -0.1053261 -8.6711073e-22)
(0.96874901 -0.15635377 -6.05048e-21)
(1.0641997 -0.13458227 2.3449012e-20)
(1.131664 -0.069074292 -5.1099796e-20)
(1.1450366 0.023698632 -7.3833818e-22)
(1.0977572 0.094002412 1.5336937e-20)
(1.0354286 0.10379793 -1.1717598e-22)
(0.99878672 0.07863841 -1.0483772e-22)
(0.98672038 0.046729965 -1.5691947e-21)
(0.98887239 0.021304533 -1.0007195e-22)
(0.99762539 0.0054380647 2.8051906e-21)
(1.0075747 -0.0025914229 -8.1160492e-23)
(1.0159362 -0.0052135944 -1.4916759e-21)
(1.0216561 -0.0047370179 -8.1016556e-23)
(1.024816 -0.0030004501 -7.6150692e-22)
(1.026074 -0.0011856735 1.1063873e-22)
(1.026199 0.00019090377 -4.2978985e-24)
(1.0257895 0.0010504975 -2.5608129e-22)
(1.0251962 0.0015154942 -9.359792e-23)
(1.0245477 0.0017035357 -1.4485624e-22)
(1.023918 0.0017549406 -1.1901316e-22)
(1.0232834 0.0017153524 -1.3234149e-22)
(1.0226782 0.0015371623 3.5206863e-22)
(1.0220753 0.0012593928 -2.7425871e-23)
(1.0215855 0.00081202165 6.7143163e-22)
(1.0211661 0.00033849223 5.1406565e-23)
(0.82086817 -0.10537889 -3.9594628e-21)
(0.90301649 -0.013532958 1.6152902e-22)
(0.88998263 0.17791158 2.4421191e-20)
(0.85789545 0.23135069 3.914695e-20)
(0.8272757 0.18621571 0)
(0.81785246 0.05016008 0)
(0.85797675 -0.11833652 0)
(0.95370371 -0.17937882 -7.5300431e-22)
(1.0573521 -0.15888306 -4.7400124e-20)
(1.1371873 -0.087543052 -5.8207578e-20)
(1.1678813 0.020788139 -8.5631378e-22)
(1.1231553 0.11182448 4.1544648e-21)
(1.0429113 0.12804109 -2.1250538e-20)
(0.9882283 0.097144878 5.5691698e-21)
(0.97260827 0.056818459 -1.1411237e-21)
(0.97644429 0.024506688 0)
(0.98806085 0.0042377805 7.9936692e-22)
(1.0012128 -0.0060373765 -7.2134629e-22)
(1.0124894 -0.009332683 -4.7079699e-22)
(1.0204396 -0.008471154 2.0057451e-22)
(1.0249984 -0.0058265736 1.3887926e-22)
(1.0269208 -0.0030174342 3.3538342e-22)
(1.0272143 -0.000836635 1.7778669e-22)
(1.0267299 0.00056155484 1.1263734e-22)
(1.0259938 0.0013308647 6.5878092e-23)
(1.0252404 0.0016980819 -5.3044633e-23)
(1.0245228 0.0018370536 1.9189471e-23)
(1.0238596 0.0018789876 -6.4066655e-24)
(1.0231927 0.001800545 3.4221136e-22)
(1.0225628 0.0016072226 2.6352337e-22)
(1.0219331 0.0013121063 1.4273372e-23)
(1.0214246 0.00084570059 -1.8880408e-21)
(1.0209958 0.00034955112 7.2617802e-22)
(0.79255236 -0.10925227 -7.357253e-21)
(0.87140542 -0.018632617 0)
(0.86190882 0.18445203 2.5024756e-20)
(0.83371829 0.2412456 6.6124414e-20)
(0.80655464 0.19390151 -1.861453e-20)
(0.79898449 0.051419346 -9.0000941e-22)
(0.83997475 -0.13085203 -3.5462297e-20)
(0.93740002 -0.20153946 1.2004466e-20)
(1.0463707 -0.18283928 1.2231808e-20)
(1.1350853 -0.10601601 1.3317283e-19)
(1.1732927 0.014497498 -5.4731191e-20)
(1.1528491 0.12951311 -4.7492446e-20)
(1.0618707 0.1541222 1.6878064e-21)
(0.98429486 0.11892358 1.1115011e-21)
(0.95534879 0.067863106 -1.3924277e-21)
(0.96101303 0.0277348 4.3710979e-22)
(0.97625214 0.002349352 3.7836551e-22)
(0.99326779 -0.010609026 1.6951978e-22)
(1.0081054 -0.014776827 -1.7476227e-22)
(1.0188793 -0.013493323 2.7134221e-23)
(1.0252818 -0.0097045081 4.426198e-22)
(1.0281105 -0.0055767549 3.8831222e-23)
(1.0286291 -0.0022775515 -1.7334144e-22)
(1.0280066 -0.00011994998 3.6222181e-22)
(1.0270272 0.0010846123 8.7560753e-23)
(1.0260641 0.0016626341 8.9606535e-24)
(1.0252203 0.0019047898 1.4386111e-23)
(1.0244735 0.0019945184 2.9788882e-23)
(1.0237872 0.0019951547 1.0690908e-22)
(1.0230985 0.0018870658 -3.7793908e-23)
(1.0224408 0.001681607 1.7881791e-22)
(1.0217882 0.0013641834 1.6263667e-23)
(1.0212632 0.00087760312 7.6665764e-22)
(1.0208259 0.00035936213 -1.359769e-21)
(0.76528696 -0.11259129 6.9081779e-21)
(0.83795684 -0.022950589 -4.9267928e-22)
(0.83271815 0.188989 6.285952e-22)
(0.80994921 0.25090931 -3.624571e-20)
(0.78634243 0.20229091 7.8544612e-20)
(0.78076852 0.051273571 8.095362e-20)
(0.8216157 -0.14215839 5.7413243e-21)
(0.92006996 -0.2226458 0)
(1.0318633 -0.20590594 3.7171394e-20)
(1.1272706 -0.12390457 1.6738545e-19)
(1.172305 0.0072859709 7.1889293e-21)
(1.1715082 0.14592155 2.3808836e-20)
(1.0838156 0.18418502 0)
(0.99035978 0.14565893 3.1716485e-21)
(0.93848535 0.081394286 1.8174869e-21)
(0.94212693 0.030476574 -7.4958284e-22)
(0.96202579 -0.00041762527 -3.3761131e-21)
(0.98358291 -0.016485302 0)
(1.0026554 -0.021765136 5.8722633e-22)
(1.0169164 -0.020058909 7.2017132e-22)
(1.0257072 -0.014890391 -2.0702246e-22)
(1.0297689 -0.0090602417 4.1263219e-22)
(1.0306073 -0.0042508143 0)
(1.0297785 -0.0010252713 3.1638407e-23)
(1.0284119 0.00078874185 2.1280775e-22)
(1.0270998 0.0016543107 -1.7805793e-23)
(1.0260213 0.0019980218 2.7501891e-23)
(1.0251546 0.0021174691 1.0705075e-23)
(1.0244062 0.0021398837 -1.8391172e-24)
(1.0237083 0.0020988064 3.2605121e-22)
(1.0229993 0.0019780017 -7.341525e-22)
(1.022316 0.0017527577 -4.6096966e-22)
(1.021643 0.0014128726 0)
(1.0211024 0.00090722886 -3.0009603e-23)
(1.020657 0.00036807831 -4.0530334e-22)
(0.73979051 -0.11559097 9.9237161e-21)
(0.80502983 -0.025184824 -1.4392194e-20)
(0.80402146 0.19276758 2.5692808e-20)
(0.78642432 0.25964953 -9.144209e-21)
(0.76691668 0.21299216 2.6973859e-20)
(0.76252456 0.053982566 1.106548e-20)
(0.80522618 -0.15517384 5.1714696e-20)
(0.9018837 -0.24250836 3.0757518e-21)
(1.0147555 -0.22740264 0)
(1.1132762 -0.14146405 -6.436944e-20)
(1.1671665 0.0017671104 6.9733854e-20)
(1.1677752 0.16088081 -6.9685364e-21)
(1.0942511 0.21664447 2.0393602e-20)
(0.99725289 0.17860811 -9.0846359e-21)
(0.92649202 0.099517749 3.3160478e-21)
(0.91960884 0.033304677 7.5210237e-22)
(0.94517095 -0.0044532875 -6.2462383e-21)
(0.97205096 -0.023850801 -1.855126e-21)
(0.99603061 -0.030489187 1.3206769e-21)
(1.0144844 -0.028419315 -1.4179589e-21)
(1.0263051 -0.021657191 6.1555865e-22)
(1.0320318 -0.013703832 -5.6147271e-22)
(1.0333474 -0.0068985845 0)
(1.0322446 -0.0022056234 1.3419153e-23)
(1.0303114 0.00047268897 5.3701317e-23)
(1.0284517 0.0017256639 6.5306445e-23)
(1.0269871 0.0021849886 -1.1476043e-22)
(1.0259007 0.0022932093 -4.1963354e-23)
(1.0250633 0.002296629 3.4981637e-23)
(1.0243303 0.002259226 0)
(1.0236287 0.002196814 -2.4742613e-22)
(1.0229004 0.0020593312 -7.9716621e-22)
(1.0221938 0.0018165481 1.2934637e-21)
(1.0214991 0.0014576675 -4.4003909e-22)
(1.0209425 0.00093477394 5.7813473e-23)
(1.0204901 0.00037584301 1.4485267e-21)
(0.71669031 -0.11820722 -9.9865478e-21)
(0.77439272 -0.027256847 -4.4614994e-22)
(0.77722448 0.19696342 -1.2984028e-20)
(0.76439776 0.26741239 -5.2765632e-22)
(0.74867353 0.22203392 -1.0886183e-19)
(0.74465353 0.062015369 -1.1282726e-19)
(0.78551892 -0.16219467 -7.4421412e-22)
(0.8843205 -0.26137684 3.3618935e-20)
(0.99589657 -0.24767639 5.7520331e-21)
(1.0952469 -0.15764291 5.9224999e-20)
(1.155209 -0.0015436388 -5.6286666e-24)
(1.1498961 0.17702481 -3.1854437e-20)
(1.0866913 0.24688911 1.1441308e-21)
(0.99831248 0.21380537 -1.5477936e-20)
(0.91912364 0.1245132 2.1857135e-21)
(0.8955009 0.036618402 -4.2176969e-22)
(0.92540528 -0.009658196 1.2534707e-21)
(0.95863741 -0.032869436 1.6707316e-21)
(0.98813804 -0.04112437 -1.1675413e-21)
(1.0115095 -0.038805136 -2.315492e-22)
(1.0270867 -0.030291104 4.2783377e-22)
(1.0350324 -0.019774024 -3.5842485e-22)
(1.0370745 -0.010401077 2.7188585e-22)
(1.0356516 -0.0037231236 0)
(1.0329322 0.00016209883 -4.4729422e-22)
(1.0302652 0.0019657226 2.4557444e-23)
(1.0281932 0.0025583787 -1.9978542e-22)
(1.0267463 0.0026152467 2.5517767e-22)
(1.0257381 0.0025170255 -7.2912503e-24)
(1.0249625 0.0024283984 -5.9396245e-23)
(1.0242555 0.0023579867 5.548916e-23)
(1.0235511 0.0022848718 -2.6405102e-22)
(1.0228034 0.0021322022 5.9338938e-24)
(1.0220715 0.0018767968 1.3193026e-21)
(1.0213549 0.0014996855 -1.3642506e-23)
(1.0207839 0.00096039744 -4.1186164e-23)
(1.0203248 0.00038281526 5.2419577e-22)
(0.69660346 -0.12046909 -8.2582901e-22)
(0.74631117 -0.029040444 2.1578363e-20)
(0.75310752 0.20099946 -2.0056726e-20)
(0.74444721 0.2740856 3.5053804e-21)
(0.73211618 0.23055738 2.7311924e-22)
(0.72857261 0.068123211 -1.4298648e-22)
(0.76469249 -0.165109 3.8166648e-20)
(0.8620864 -0.27771186 -7.8530739e-21)
(0.97605165 -0.26496763 0)
(1.0741898 -0.17339136 -1.30445e-20)
(1.1375068 -0.0043716875 0)
(1.1304123 0.1931653 0)
(1.0693604 0.27452064 -2.2970074e-20)
(0.99413546 0.24719433 8.3810045e-22)
(0.91583848 0.15327195 2.0764753e-21)
(0.87413875 0.044770599 0)
(0.90189853 -0.017561404 0)
(0.94362562 -0.04366005 -6.6128403e-22)
(0.97895078 -0.053750541 1.6060274e-22)
(1.0079287 -0.051407443 2.3486734e-23)
(1.0280492 -0.041066664 -7.480737e-22)
(1.0388919 -0.027568204 -3.2425515e-22)
(1.0420295 -0.014977294 -4.885541e-24)
(1.0402911 -0.0056661725 -4.3006025e-22)
(1.0365342 -0.0001094124 -1.1258974e-22)
(1.0327253 0.0024745081 5.5724538e-23)
(1.0297489 0.0032523436 1.8001115e-22)
(1.0277297 0.0031964239 -1.7895369e-22)
(1.026437 0.002909529 -5.3236448e-24)
(1.025564 0.0026588083 -3.5058148e-22)
(1.0248674 0.0025181359 -1.2919418e-23)
(1.0241888 0.0024369232 -2.940232e-23)
(1.023478 0.0023603545 1.6550361e-22)
(1.0227077 0.0022005749 7.4386354e-22)
(1.0219487 0.0019331813 -2.6324894e-21)
(1.0212123 0.0015383051 -5.4840688e-22)
(1.0206272 0.00098435641 -5.0412146e-22)
(1.020162 0.00038912614 0)
(0.68016391 -0.12246486 2.1081395e-20)
(0.72155619 -0.030400799 -2.9460116e-22)
(0.73160411 0.20442424 -1.4514054e-20)
(0.72739887 0.27950888 2.2593845e-21)
(0.71809779 0.23784844 7.6294232e-20)
(0.71460243 0.074099204 6.8086924e-20)
(0.7455033 -0.16824911 -6.2086097e-22)
(0.8381059 -0.29272069 -8.912003e-20)
(0.9509633 -0.28367623 -8.2104935e-21)
(1.0501951 -0.18451459 -1.2191388e-19)
(1.1148177 -0.0071910629 -4.1087329e-22)
(1.1079073 0.20824995 0)
(1.0492927 0.29956189 0)
(0.98259117 0.27663113 1.317971e-20)
(0.91379844 0.18261471 -1.5961686e-20)
(0.85822177 0.055821745 -5.0274149e-21)
(0.87691744 -0.0245436 1.5219847e-21)
(0.9263263 -0.056650466 1.305801e-22)
(0.96854487 -0.068437407 4.7103982e-22)
(1.0036772 -0.066333704 -1.4678716e-21)
(1.0291486 -0.054221545 -8.5515129e-23)
(1.0437004 -0.03738968 -2.8949113e-22)