/*--------------------------------*- C++ -*----------------------------------*\
| =========                 |                                                 |
| \\      /  F ield         | OpenFOAM: The Open Source CFD Toolbox           |
|  \\    /   O peration     | Version:  5.0                                   |
|   \\  /    A nd           | Web:      www.OpenFOAM.org                      |
|    \\/     M anipulation  |                                                 |
\*---------------------------------------------------------------------------*/
FoamFile
{
    version     2.0;
    format      ascii;
    class       volVectorField;
    location    "360";
    object      U_0;
}
// * * * * * * * * * * * * * * * * * * * * * * * * * * * * * * * * * * * * * //

dimensions      [0 1 -1 0 0 0 0];

internalField   nonuniform List<vector> 
9200
(
(1.038853 0.00074119822 -1.5398633e-24)
(1.0390324 0.0023632746 7.5895697e-22)
(1.0366213 0.0007432176 0)
(1.039313 0.0037619778 -4.0076329e-22)
(1.0367768 0.0023890261 6.6138004e-22)
(1.0356369 0.00073423335 0)
(1.0396972 0.0051575244 -4.0292526e-23)
(1.0370435 0.0038071423 1.1272175e-23)
(1.0357807 0.0023738775 0)
(1.0341862 0.00070874234 0)
(1.0401347 0.006435443 8.2572209e-22)
(1.0373992 0.0052284023 6.094152e-22)
(1.0360324 0.0037884598 3.7569525e-22)
(1.0343068 0.0023037096 2.2950061e-23)
(1.0330711 0.00067453689 2.192106e-25)
(1.04062 0.0076309184 7.9092623e-22)
(1.0378339 0.0065446496 -3.205793e-23)
(1.0363681 0.0052116168 1.2535547e-21)
(1.0345314 0.0036806772 5.1367738e-22)
(1.0331759 0.0021972663 1.6081389e-23)
(1.0319662 0.00063601121 -9.6609554e-22)
(1.0411258 0.0087055908 8.0725259e-22)
(1.0383569 0.0077977403 9.0270193e-22)
(1.0367788 0.0065486903 -7.5716085e-22)
(1.0348183 0.0050674442 -5.5135066e-23)
(1.033381 0.0035106214 4.659743e-22)
(1.0320559 0.002069418 4.7247319e-22)
(1.0309953 0.00060243498 8.3445172e-23)
(1.0416625 0.0096248153 3.8288234e-22)
(1.0389796 0.008968355 7.3969523e-22)
(1.0372778 0.0078529082 9.0225257e-22)
(1.0351581 0.0063856475 4.7897262e-23)
(1.0336342 0.0048265223 -1.1994862e-21)
(1.0322432 0.0033033383 -5.3250845e-22)
(1.0310785 0.0019484267 -5.4440033e-22)
(1.0300992 0.00057734796 8.9683593e-22)
(1.0422303 0.010336509 -1.0598234e-21)
(1.0397446 0.010027027 8.0167755e-22)
(1.0378734 0.0091318832 3.8847368e-23)
(1.0355487 0.0076931718 4.3542084e-22)
(1.0339214 0.0060755034 1.1494455e-22)
(1.0324681 0.0045250204 -1.7906745e-21)
(1.0312588 0.0031069563 1.5425897e-22)
(1.0301819 0.0018490613 -9.2437622e-22)
(1.0292748 0.00055995936 -1.9012969e-21)
(1.0427872 0.010807089 7.8350912e-22)
(1.0407084 0.010980299 -3.6617314e-22)
(1.0385857 0.010396476 -4.2991114e-23)
(1.0359753 0.0090213049 -1.6985666e-22)
(1.0342257 0.0073043978 -1.8366106e-22)
(1.0327143 0.0056723057 1.9826126e-22)
(1.0314776 0.0042372473 6.2762803e-22)
(1.0303598 0.0029479035 1.0475227e-21)
(1.0293616 0.001777467 5.941848e-22)
(1.0285032 0.00054616048 1.5346599e-22)
(1.0433647 0.011032763 -3.8259467e-22)
(1.0420518 0.011751521 1.2505656e-22)
(1.039469 0.011708218 6.2825384e-22)
(1.0364338 0.010419778 -7.3129616e-22)
(1.0344955 0.0085441369 5.4633251e-22)
(1.0329504 0.0067679379 -1.6456155e-21)
(1.0317214 0.0052861591 6.5292033e-23)
(1.0305828 0.0040068571 1.5772515e-21)
(1.029538 0.0028381581 -7.8419958e-22)
(1.028594 0.0017279186 1.7263173e-21)
(1.0277771 0.00053273213 -2.5769604e-22)
(1.0443371 0.010634611 9.8732331e-23)
(1.0435397 0.012321959 -3.6700901e-22)
(1.0403899 0.013179825 -7.5298961e-22)
(1.0369091 0.011997208 0)
(1.0346935 0.0098422728 3.2310266e-23)
(1.0331136 0.0078297838 -2.9149503e-22)
(1.0319632 0.0062530039 -3.2408056e-22)
(1.0308409 0.0049853701 -7.8157282e-22)
(1.0297671 0.0038561555 -2.161317e-22)
(1.0287647 0.0027681687 -9.9347561e-22)
(1.0278677 0.0016891899 -6.7300948e-22)
(1.0270925 0.0005186166 1.5576208e-22)
(1.0454304 0.0096656516 6.2843149e-23)
(1.0454798 0.013074557 -1.1214441e-22)
(1.0413469 0.014886986 0)
(1.037288 0.013831185 0)
(1.034683 0.011257883 -1.9543019e-22)
(1.0331584 0.0088636847 -1.8366046e-22)
(1.0321468 0.0071357343 -4.2897865e-22)
(1.0311217 0.00586954 9.2822548e-22)
(1.0300392 0.0048055247 9.6558684e-23)
(1.028992 0.003769667 2.6162505e-24)
(1.0280277 0.0027174504 1.1049764e-21)
(1.0271776 0.0016491412 -1.1808133e-21)
(1.0264501 0.00050315704 2.4533103e-21)
(1.0466468 0.0080241057 -9.3383804e-22)
(1.0482783 0.013816732 4.7312924e-23)
(1.0426263 0.016854271 -3.7080187e-22)
(1.0375531 0.015970598 1.6226431e-22)
(1.0344163 0.012838849 -9.1694316e-23)
(1.0329931 0.0098836145 -1.4026381e-22)
(1.0322353 0.0078998544 2.6046093e-22)
(1.0313853 0.0066468966 1.5606067e-23)
(1.03036 0.0056698051 1.0469672e-21)
(1.0292641 0.0047198629 9.7525268e-22)
(1.0282435 0.0037122369 3.0720957e-22)
(1.0273233 0.0026635846 8.8861461e-22)
(1.0265261 0.0015974776 6.0213657e-22)
(1.0258529 0.00048444345 -6.7004412e-22)
(1.0482466 0.0057687893 6.3739881e-22)
(1.0519313 0.014502349 1.7752419e-21)
(1.0443371 0.019244133 -3.2421764e-22)
(1.0377173 0.01854203 5.198438e-23)
(1.0338381 0.01465153 -6.0472858e-23)
(1.0325243 0.010856524 2.6673871e-22)
(1.0321496 0.0085262027 2.5164703e-22)
(1.0316154 0.0072647839 -3.321898e-22)
(1.0307077 0.0064376429 -9.9511415e-23)
(1.0296057 0.0056054363 -1.171983e-22)
(1.028501 0.0046738704 -1.833821e-23)
(1.0275176 0.0036472032 -1.4855742e-22)
(1.0266559 0.0025879213 -1.1261077e-21)
(1.0259197 0.0015271056 5.6539619e-22)
(1.0253059 0.00046043412 -5.0835734e-22)
(1.0500697 0.0023937553 2.3961179e-21)
(1.0564492 0.014985599 -2.0441306e-21)
(1.0465328 0.022282968 2.9563446e-22)
(1.0377279 0.021776316 -1.7523831e-22)
(1.0327563 0.016800576 -3.3156817e-23)
(1.0315972 0.011798976 -5.5211906e-22)
(1.0318428 0.0089224949 -3.6843076e-23)
(1.031786 0.0076691192 3.5314312e-23)
(1.0310916 0.0070517835 -2.031415e-22)
(1.0300131 0.006423838 -2.7742571e-22)
(1.0288345 0.0055944488 -1.9866061e-21)
(1.0277443 0.0046153643 3.9644838e-22)
(1.0268231 0.0035463201 3.508213e-22)
(1.0260341 0.0024783348 1.8202186e-22)
(1.0253656 0.0014355278 4.4257346e-23)
(1.0248135 0.0004311865 5.6293379e-22)
(1.0523333 -0.0013834515 0)
(1.0617105 0.015458943 -2.8764605e-21)
(1.0491991 0.026163598 8.176798e-22)
(1.0375182 0.025886961 0)
(1.0310094 0.019406884 0)
(1.0300414 0.012725437 0)
(1.031159 0.0089988467 1.1953195e-22)
(1.0319745 0.0077633085 4.7192312e-22)
(1.0315622 0.0074458828 3.7797955e-22)
(1.0305328 0.0071290209 5.962508e-22)
(1.0292532 0.0064899923 9.9533239e-23)
(1.0280341 0.0055669035 4.3483599e-22)
(1.027005 0.0045025831 7.4496196e-24)
(1.0261738 0.0033918491 -4.0278695e-22)
(1.0254677 0.0023314412 -1.2475674e-22)
(1.0248692 0.0013256193 -2.7439974e-22)
(1.0243776 0.00039904858 0)
(1.0546928 -0.0059897558 4.4008481e-21)
(1.0674226 0.015644848 6.632257e-21)
(1.0521162 0.031048458 -2.8249571e-21)
(1.0369229 0.03110815 8.1121296e-22)
(1.028435 0.022617588 9.7449998e-22)
(1.0276583 0.013619636 0)
(1.0299974 0.0086797948 8.0364951e-22)
(1.0320055 0.0073450813 -2.6016294e-22)
(1.032286 0.0075498691 3.8263635e-22)
(1.0312841 0.0076570126 4.4250504e-22)
(1.0298341 0.0073419871 -3.557667e-22)
(1.028396 0.0065404706 1.3085954e-22)
(1.0272236 0.0054612765 7.0460544e-22)
(1.0263046 0.0043079001 -1.3359992e-21)
(1.0255843 0.0031787362 -3.8714209e-22)
(1.0249645 0.0021528014 -1.8449539e-21)
(1.0244331 0.0012047596 -7.3625927e-22)
(1.0239969 0.00036688089 -7.0077801e-22)
(1.0580547 -0.011489979 -3.3676179e-22)
(1.0744021 0.015860901 4.5865169e-21)
(1.0549894 0.037225267 1.1352547e-21)
(1.0355642 0.037658273 -7.2534846e-23)
(1.0247903 0.026583672 -2.0132638e-22)
(1.0242166 0.014489875 -6.3911968e-22)
(1.0281923 0.007841211 -2.0984728e-21)
(1.0318522 0.0063198125 -1.1291367e-21)
(1.0331863 0.0071951928 -1.6201303e-22)
(1.032264 0.007974347 -6.3455846e-22)
(1.0306569 0.0081459357 -1.0217822e-22)
(1.0289005 0.0075649189 -7.9073472e-22)
(1.0274659 0.006477326 1.061838e-22)
(1.0264407 0.0052315788 1.2038628e-22)
(1.0256725 0.004025627 1.8157076e-22)
(1.0250672 0.0029162382 2.7905359e-22)
(1.0245281 0.0019549342 -6.0562764e-22)
(1.0240562 0.0010824216 2.3005005e-23)
(1.0236668 0.00033695485 -6.5916357e-22)
(1.0614923 -0.019801312 -4.0477758e-21)
(1.0850312 0.015419005 -8.7163107e-21)
(1.0591024 0.044605925 1.2527855e-20)
(1.0333149 0.045653831 -5.1521119e-22)
(1.0197657 0.031424576 -1.6457512e-22)
(1.0194451 0.015328457 -3.0191998e-22)
(1.0255565 0.0063422096 2.8040044e-22)
(1.0314849 0.0044846061 -1.2271922e-23)
(1.0342589 0.0062253086 -7.1833408e-23)
(1.0336867 0.008171419 2.4579903e-22)
(1.0316894 0.0089646127 -1.0103939e-21)
(1.0295462 0.0087134433 2.7867641e-22)
(1.027765 0.0076196346 4.3673146e-22)
(1.0265376 0.0062243504 -3.9622496e-23)
(1.0257326 0.0048651561 1.2988312e-22)
(1.0251288 0.003669526 8.8247282e-22)
(1.0246289 0.0026245617 -1.6401826e-22)
(1.0241572 0.0017537075 9.973748e-22)
(1.0237337 0.00096748336 2.6364032e-22)
(1.0233808 0.00031136181 6.8702826e-22)
(1.0669744 -0.027000432 -3.5839449e-22)
(1.0999547 0.014589634 -1.7523771e-20)
(1.0677263 0.053179444 1.0555209e-21)
(1.0316687 0.05517894 -9.1504691e-22)
(1.0131372 0.037125503 -1.4703281e-21)
(1.0130911 0.016142636 -1.2285399e-21)
(1.0218729 0.0040161645 2.5460826e-21)
(1.0308372 0.0016087795 2.268264e-21)
(1.0356161 0.004444687 3.6750709e-22)
(1.0356903 0.0079813453 0)
(1.0332023 0.0098309265 6.8210895e-22)
(1.0303568 0.010064129 3.1222788e-22)
(1.0280746 0.0089819545 -5.8630114e-22)
(1.0265899 0.007355354 4.6503463e-23)
(1.0257049 0.0057611753 -4.1563201e-22)
(1.02514 0.0043873541 7.0051435e-22)
(1.0246845 0.0032685959 1.6521671e-22)
(1.0242689 0.0023281658 -2.9100526e-22)
(1.0238468 0.0015645101 5.8486089e-22)
(1.0234584 0.00086667215 4.6695696e-23)
(1.0231312 0.00029236294 6.5537213e-22)
(1.0640316 -0.036195842 2.6270181e-21)
(1.106705 0.0093982443 -1.7126487e-20)
(1.0827276 0.062551718 -1.1120237e-20)
(1.0339324 0.066468222 5.1238174e-21)
(1.0055123 0.043934563 -3.0464788e-21)
(1.0048691 0.016903711 -1.264215e-22)
(1.0169359 0.00069532026 0)
(1.0298322 -0.0025484145 1.8218663e-22)
(1.0373486 0.0016066655 -8.0635454e-23)
(1.0384167 0.0072767494 7.4490645e-22)
(1.0354208 0.010740262 3.7904862e-22)
(1.0315565 0.011661227 6.3556348e-23)
(1.0284468 0.010641322 -7.4867892e-23)
(1.0265425 0.0087075363 3.4921679e-22)
(1.0255504 0.0067546512 -2.0219515e-22)
(1.0250288 0.0051253533 2.1544397e-22)
(1.0246818 0.003845224 -8.8471837e-23)
(1.0243398 0.0028584611 5.3341297e-22)
(1.0239813 0.0020497774 1.3120584e-22)
(1.0235884 0.0013994515 1.8870875e-23)
(1.0232217 0.00078449538 3.4665094e-22)
(1.0229099 0.00028180541 0)
(1.0556021 -0.045842928 3.6216135e-22)
(1.107363 0.004953536 1.118923e-20)
(1.0996593 0.07277973 -4.4694857e-22)
(1.0409211 0.079875464 7.1229441e-21)
(0.9985013 0.052526545 -3.8834033e-21)
(0.99449101 0.017634126 1.7973395e-21)
(1.0105455 -0.0037775915 -1.947592e-22)
(1.0283634 -0.0082425464 1.506403e-21)
(1.0395411 -0.0025441132 5.91736e-23)
(1.0420806 0.0058749205 -5.8833724e-23)
(1.0385627 0.011681964 -2.7135909e-24)
(1.0332978 0.013673028 -1.9483797e-22)
(1.0289514 0.012738777 -9.8595389e-23)
(1.0263824 0.01037969 1.2354976e-21)
(1.0251947 0.0079162969 8.5187414e-22)
(1.0247417 0.0059000102 5.8532342e-22)
(1.0245405 0.0043937524 -1.4122412e-22)
(1.0243575 0.0032921788 -8.3102058e-22)
(1.0240854 0.0024730958 -2.2730305e-23)
(1.0237551 0.0018066102 3.1210314e-22)
(1.0233722 0.0012660011 0)
(1.0230151 0.00072354063 -7.7713116e-22)
(1.0227088 0.00027993795 -3.0994422e-24)
(1.0411599 -0.055341284 -6.5845435e-21)
(1.1042196 -0.00097681456 4.0231828e-20)
(1.1032576 0.08267991 -2.75457e-20)
(1.0479767 0.09768476 -7.0180606e-21)
(0.99189558 0.064044831 -4.694923e-21)
(0.98171214 0.018544551 0)
(1.0023969 -0.0095655959 -1.0215094e-22)
(1.0263184 -0.015746241 1.0730893e-21)
(1.042232 -0.0083198696 -5.4947116e-22)
(1.046933 0.0036154167 -1.4280421e-21)
(1.0429088 0.012627448 7.335101e-22)
(1.0357804 0.016249604 3.0616931e-22)
(1.0296494 0.015489995 -2.3744176e-22)
(1.0260565 0.012527904 6.2190186e-22)
(1.0245601 0.0093329966 -6.848897e-22)
(1.0241818 0.0067517928 -1.3671093e-21)
(1.0242075 0.0049083477 -2.8750198e-22)
(1.024241 0.0036498083 -2.9007655e-22)
(1.0241517 0.0027776912 7.8720502e-22)
(1.0239054 0.0021399355 -2.0572377e-22)
(1.0235769 0.0016092892 -6.5257434e-22)
(1.0231886 0.0011670892 7.0494492e-22)
(1.0228315 0.0006841611 -5.3910795e-22)
(1.0225205 0.0002842146 -1.7599732e-24)
(1.0213809 -0.063815252 1.8069301e-21)
(1.0954537 -0.0035884527 3.967207e-20)
(1.0910521 0.092167562 1.4847603e-21)
(1.0448374 0.11771104 3.0255984e-20)
(0.98272296 0.079567472 1.834284e-21)
(0.96634841 0.020552387 -8.8575959e-21)
(0.99198039 -0.01687241 -1.6149905e-22)
(1.0235742 -0.025299297 -2.2418765e-21)
(1.0454198 -0.016032418 5.823661e-22)
(1.0531873 0.00019483074 -8.4516827e-22)
(1.0487956 0.013572471 6.397248e-22)
(1.0392343 0.019587631 -4.2293051e-22)
(1.030618 0.019150374 5.5658734e-22)
(1.0255218 0.015356276 -6.7948264e-23)
(1.023531 0.01111428 -1.0520361e-21)
(1.0232454 0.0077272598 -1.7629315e-23)
(1.0235809 0.0053920565 -5.9811743e-23)
(1.023948 0.0039029702 -4.1600054e-22)
(1.0241061 0.0029664958 0)
(1.0240394 0.0023400462 -9.4859061e-23)
(1.0237801 0.0018768404 -2.7007903e-23)
(1.0234328 0.0014629209 5.4515291e-23)
(1.023029 0.001102272 -3.0511934e-23)
(1.0226641 0.00066415221 7.7062811e-22)
(1.0223403 0.0002896878 4.3729182e-22)
(0.99932598 -0.071271526 8.760352e-21)
(1.0800591 -0.0063151323 -2.4476921e-20)
(1.0698303 0.10332107 -1.0004343e-20)
(1.028321 0.13686649 -3.4587849e-21)
(0.97089564 0.097244915 7.8328595e-21)
(0.94877167 0.023802657 1.8669481e-21)
(0.97903029 -0.025767975 -2.5406807e-22)
(1.0199549 -0.037158582 1.9420083e-22)
(1.0491127 -0.025973306 -1.5543546e-21)
(1.0610863 -0.0046609246 -6.0027455e-22)
(1.056565 0.014466616 -1.3035032e-21)
(1.0439207 0.023917778 5.4475181e-23)
(1.0319018 0.024039645 -1.1042821e-22)
(1.024696 0.019119778 -3.3240172e-22)
(1.0219714 0.01340644 -3.4987061e-22)
(1.0217853 0.0088744762 1.4212629e-21)
(1.0225531 0.0058435809 2.1757701e-21)
(1.0233871 0.004023095 5.3982633e-22)
(1.0239233 0.0029937572 7.3530085e-22)
(1.0240956 0.0023979224 2.2384998e-23)
(1.0239922 0.0020021287 -8.379992e-22)
(1.0236905 0.0016895267 -1.833017e-22)
(1.0233114 0.0013684407 5.615688e-22)
(1.0228843 0.0010687105 -6.6663824e-22)
(1.0225063 0.00065960099 5.8007567e-22)
(1.0221662 0.00029233309 -3.1776041e-23)
(0.97611082 -0.077935207 -3.0824111e-22)
(1.0595587 -0.0087843952 -2.7150822e-20)
(1.0496058 0.11459373 3.7635425e-20)
(1.0093009 0.15340332 -2.4123779e-20)
(0.95866593 0.11526265 3.6032024e-21)
(0.93092841 0.027299084 1.1311918e-20)
(0.96401822 -0.036433651 2.6272484e-21)
(1.0152095 -0.051615245 3.1536219e-21)
(1.0532758 -0.038410531 4.2762645e-21)
(1.0707186 -0.011197416 2.7884263e-21)
(1.0666146 0.01524179 -2.0357013e-26)
(1.0501097 0.029513377 2.6860101e-21)
(1.0335359 0.030527841 -1.2816689e-21)
(1.0234636 0.024112551 -4.6913111e-22)
(1.0196973 0.016375752 -2.9627495e-22)
(1.0196202 0.010253886 2.9920623e-22)
(1.0209755 0.0062503814 -6.0983878e-23)
(1.0224653 0.0039662937 6.5379883e-23)
(1.0235325 0.0028076667 1.4846918e-22)
(1.0240685 0.0022596416 7.7661136e-23)
(1.0241643 0.0019735318 0)
(1.0239826 0.0017709806 -2.9416898e-22)
(1.0236201 0.0015718537 -4.6634073e-23)
(1.0232022 0.0013223872 0)
(1.0227468 0.0010615245 8.182959e-22)
(1.0223539 0.00066671176 4.7228497e-24)
(1.021996 0.00029267718 -4.2518327e-22)
(0.95203578 -0.083833924 -2.9629553e-21)
(1.0362325 -0.010757466 -2.2694029e-21)
(1.025299 0.12573716 2.9787953e-20)
(0.98848192 0.16886348 -4.0357353e-21)
(0.94417028 0.13095125 -1.413654e-21)
(0.91374244 0.032735814 -1.2118158e-20)
(0.94707982 -0.048545096 -2.3866356e-22)
(1.0090978 -0.068752112 -1.2697168e-21)
(1.0574661 -0.05336576 -2.0544061e-21)
(1.0818015 -0.019598756 -5.8754182e-21)
(1.079024 0.015927413 5.6015189e-21)
(1.0580391 0.036718922 3.9799056e-22)
(1.0355381 0.039048487 2.1037371e-22)
(1.02168 0.030663785 -4.7366598e-22)
(1.0165011 0.020214364 -8.4358057e-22)
(1.0165284 0.011925108 -2.8919336e-22)
(1.0186687 0.0065926969 -1.5129227e-21)
(1.0210565 0.0036670633 -1.006263e-21)
(1.0228693 0.0023344036 -4.0491608e-22)
(1.023913 0.0018596095 -7.5922128e-22)
(1.0243111 0.0017381629 -2.8492681e-22)
(1.0242698 0.0016987526 1.1015033e-22)
(1.0239885 0.0016398453 2.7602396e-23)
(1.0235547 0.0015126761 0)
(1.0230978 0.0013163668 0)
(1.0226133 0.0010750942 -5.9775809e-23)
(1.0222028 0.00068329294 7.4068603e-22)
(1.0218283 0.00029479695 8.1407944e-22)
(0.92743999 -0.089050334 0)
(1.0114864 -0.012134744 -1.5843942e-20)
(0.99929893 0.13643302 -2.5946137e-20)
(0.96357975 0.18356573 -9.5249874e-21)
(0.92294751 0.14579204 -4.8178303e-21)
(0.89564183 0.038161656 1.030525e-21)
(0.92852288 -0.06119154 -1.7759424e-21)
(1.0008799 -0.087946593 -9.3157064e-23)
(1.0607149 -0.070585893 -5.7791177e-21)
(1.0933514 -0.029610219 1.0278698e-21)
(1.0929459 0.016619256 -6.3549189e-22)
(1.067407 0.045963513 -1.3598549e-21)
(1.0378373 0.050079527 1.9337914e-21)
(1.0191268 0.03913247 -1.0853556e-21)
(1.0121113 0.025114882 -3.3188104e-22)
(1.0122576 0.013951484 -1.0132046e-21)
(1.0154168 0.0068316434 -1.5801962e-22)
(1.0190124 0.0030408236 -3.5244387e-22)
(1.0218467 0.0014695565 3.0058581e-24)
(1.0236013 0.0011090223 -4.274388e-22)
(1.0244143 0.0012277674 -1.8403158e-22)
(1.024585 0.0014302959 -1.4331193e-22)
(1.024379 0.0015608307 2.8391335e-23)
(1.0239906 0.0015904195 6.3143664e-22)
(1.0234882 0.0015028377 2.0864147e-22)
(1.022998 0.0013401103 -1.3975381e-23)
(1.0224808 0.0011054503 -7.7173879e-22)
(1.0220494 0.00070825561 4.8622039e-22)
(1.0216615 0.00030166413 -1.2165288e-21)
(0.90291866 -0.093641943 4.8114683e-21)
(0.98611859 -0.013426723 0)
(0.97253128 0.14674351 0)
(0.937505 0.1971185 0)
(0.89957202 0.15916139 2.88231e-21)
(0.87616734 0.045250188 0)
(0.90942777 -0.074301342 -8.9493172e-22)
(0.99045787 -0.10907884 -2.824732e-21)
(1.0624579 -0.089990214 -1.5190351e-20)
(1.1047044 -0.041204348 2.7663647e-20)
(1.1073261 0.017789083 -7.6375617e-21)
(1.0766463 0.057894426 2.0154663e-21)
(1.0396285 0.064180704 -4.6411745e-22)
(1.0154586 0.049913355 1.9151841e-21)
(1.0061786 0.031278018 1.9082237e-21)
(1.0065104 0.016380434 -2.4279018e-22)
(1.0109799 0.0069183824 -1.1903002e-21)
(1.0161583 0.0019759997 2.5257436e-22)
(1.0203657 8.42465e-05 7.7353802e-22)
(1.0230948 -0.00011681752 4.7974925e-22)
(1.0244852 0.0003539652 1.6253387e-22)
(1.0249345 0.00090509517 -1.6455381e-22)
(1.0248398 0.0013119129 -2.3657639e-22)
(1.0244706 0.0015339877 1.6392997e-22)
(1.0239789 0.0015913454 1.7280884e-23)
(1.0234278 0.0015329554 1.444332e-22)
(1.0228983 0.00138711 -5.746263e-22)
(1.0223455 0.0011492324 -2.4081732e-24)
(1.0218931 0.00073958905 -1.8795434e-21)
(1.021494 0.00031269632 -7.3139141e-22)
(0.87658315 -0.098378438 -4.2558464e-21)
(0.96068554 -0.014345348 -8.4585417e-21)
(0.94573929 0.15629257 0)
(0.91118094 0.20965204 0)
(0.87549606 0.17097261 0)
(0.85696279 0.052062198 0)
(0.89090532 -0.087081144 0)
(0.9781442 -0.13179175 8.073749e-22)
(1.0627183 -0.11201198 4.2205796e-21)
(1.1163383 -0.055402862 -4.1062579e-20)
(1.1235118 0.019090343 2.1758096e-22)
(1.0856743 0.073046728 -8.4885839e-21)
(1.0391797 0.081803451 7.2172953e-21)
(1.009835 0.063400266 1.6478545e-21)
(0.9982722 0.038887236 -2.5771086e-22)
(0.99893867 0.019240761 4.7786541e-22)
(1.0050922 0.0067813931 -2.1017855e-22)
(1.0123007 0.00033994 5.7872376e-22)
(1.0183133 -0.0019819388 -5.7806607e-22)
(1.0223545 -0.0019682587 -1.9437537e-22)
(1.0245355 -0.0010087542 -1.5185221e-23)
(1.0253648 4.9739819e-05 -3.596197e-22)
(1.0253963 0.00084804201 -2.3644008e-23)
(1.0250436 0.001342862 7.9503786e-23)
(1.0245254 0.0015825227 -1.1266053e-22)
(1.0239499 0.0016357278 -4.3475259e-22)
(1.0233602 0.001602375 -1.5736824e-22)
(1.0227873 0.0014542461 2.5062727e-22)
(1.0222059 0.0012009129 6.7090471e-25)
(1.0217347 0.00077427475 1.3544073e-21)
(1.0213252 0.00032544944 4.7494189e-22)
(0.84848365 -0.10307179 5.0381986e-21)
(0.93325282 -0.017057032 -9.3836075e-22)
(0.91968011 0.16480213 -2.0134355e-20)
(0.88542922 0.22106374 -2.5291896e-20)
(0.85174526 0.18144563 0)
(0.83765395 0.05610415 0)
(0.8730663 -0.099518283 -8.1344297e-22)
(0.96416788 -0.15500342 -4.9142879e-21)
(1.0599451 -0.13595721 2.1761707e-20)
(1.1286758 -0.072821511 -4.9350743e-20)
(1.1447087 0.01834246 -6.0085848e-22)
(1.100347 0.090514705 1.5623874e-20)
(1.0385526 0.10318762 -2.1725754e-22)
(1.0009582 0.07955851 -7.7649913e-23)
(0.98779022 0.048078534 -1.5235048e-21)
(0.98915648 0.022507169 -1.0728641e-22)
(0.99747247 0.0063277248 2.8681426e-21)
(1.0072308 -0.0020230412 -8.2634053e-23)
(1.01556 -0.004916705 -1.5405469e-21)
(1.0213367 -0.0046349709 -8.3341974e-23)
(1.0245872 -0.0030117679 -7.881125e-22)
(1.0259316 -0.0012453752 1.0931313e-22)
(1.0261208 0.00012267685 9.4861352e-24)
(1.0257504 0.00099214946 -2.5920059e-22)
(1.0251774 0.0014727806 -1.0373535e-22)
(1.0245375 0.0016750032 -1.3629543e-22)
(1.0239088 0.0017335022 -1.1419032e-22)
(1.0232744 0.0017016634 -1.2605074e-22)
(1.0226684 0.0015289363 3.4112984e-22)
(1.0220648 0.0012546162 -2.6299614e-23)
(1.0215749 0.00080967531 6.5552685e-22)
(1.0211553 0.00033795984 5.0281804e-23)
(0.82018083 -0.10746478 -3.8758476e-21)
(0.90353568 -0.020847221 1.4432221e-22)
(0.89288697 0.17259387 2.4127978e-20)
(0.86087389 0.23147815 4.0156289e-20)
(0.82921711 0.19053737 0)
(0.81809229 0.058714774 0)
(0.85529806 -0.11173902 0)
(0.94881464 -0.17783776 -6.4057997e-22)
(1.0528382 -0.16043673 -4.5512762e-20)
(1.1338383 -0.091849659 -5.6938257e-20)
(1.1669963 0.014299209 -6.6098553e-22)
(1.1256441 0.10757807 4.197962e-21)
(1.0464125 0.12742211 -2.2174532e-20)
(0.99085612 0.098450172 5.9760906e-21)
(0.97389151 0.058634261 -1.1996493e-21)
(0.97676638 0.026104356 0)
(0.98783462 0.0054142302 8.2191564e-22)
(1.000741 -0.0052799908 -7.46266e-22)
(1.0119691 -0.0089323225 -5.0105325e-22)
(1.0199896 -0.0083339808 2.0890267e-22)
(1.0246701 -0.005848731 1.4034559e-22)
(1.0267147 -0.0031104773 3.4746221e-22)
(1.0271028 -0.00094260288 1.7580743e-22)
(1.0266782 0.00047107863 1.0565079e-22)
(1.0259735 0.001264337 7.4164083e-23)
(1.0252336 0.0016540606 -5.5481798e-23)
(1.0245185 0.0018074168 2.0450137e-23)
(1.0238542 0.0018591697 -5.8177016e-24)
(1.0231852 0.0017895 3.2675315e-22)
(1.0225538 0.0016004402 2.5545937e-22)
(1.0219232 0.0013084587 1.3558888e-23)
(1.0214144 0.00084418999 -1.8428183e-21)
(1.0209852 0.00034933889 7.1024512e-22)
(0.79202392 -0.11140502 -7.1687452e-21)
(0.87184945 -0.026003073 0)
(0.8646869 0.17888899 2.5404362e-20)
(0.83654587 0.24145904 6.5228083e-20)
(0.80832521 0.19847941 -1.8497687e-20)
(0.79918723 0.06044572 -7.6189938e-22)
(0.83722241 -0.12350721 -3.3107863e-20)
(0.9323121 -0.19992063 1.148307e-20)
(1.0417211 -0.18459732 1.2055218e-20)
(1.1316983 -0.11087535 1.310898e-19)
(1.1731185 0.0070636961 -5.460405e-20)
(1.1553162 0.12424089 -4.7655006e-20)
(1.0658951 0.15329669 1.6666523e-21)
(0.98755118 0.12060642 1.4914404e-21)
(0.95688564 0.070248782 -1.2920149e-21)
(0.9613389 0.029805895 4.9055616e-22)
(0.9759209 0.0038711566 3.9576738e-22)
(0.99263282 -0.0096216571 1.3759708e-22)
(1.0074013 -0.014246352 -1.8151972e-22)
(1.018258 -0.013310151 3.058553e-23)
(1.0248185 -0.0097408709 4.6481815e-22)
(1.027815 -0.0057161604 2.8181364e-23)
(1.0284695 -0.0024378733 -1.7929192e-22)
(1.0279364 -0.00025791414 3.7838799e-22)
(1.0270052 0.00098276917 7.7642771e-23)
(1.0260628 0.0015948133 4.1656706e-24)
(1.0252238 0.0018616081 8.3649403e-24)
(1.0244747 0.0019667907 3.2672763e-23)
(1.0237847 0.0019795392 9.9625653e-23)
(1.0230924 0.0018777742 -3.5815774e-23)
(1.0224328 0.001676524 1.7260626e-22)
(1.0217787 0.0013619184 1.5858141e-23)
(1.0212532 0.00087699781 7.4822837e-22)
(1.0208154 0.00035945856 -1.3299907e-21)
(0.76490373 -0.11480268 6.7056809e-21)
(0.83844529 -0.030511366 -4.4049109e-22)
(0.83531879 0.18297293 -1.2622298e-21)
(0.81259586 0.25111431 -3.3961767e-20)
(0.78798875 0.2070094 7.7156899e-20)
(0.78092159 0.060857117 8.2231754e-20)
(0.81883412 -0.13413192 5.321259e-21)
(0.91491572 -0.22099293 0)
(1.0272235 -0.20786526 3.6173839e-20)
(1.1239659 -0.12938073 1.7647842e-19)
(1.1721541 -0.0011187927 7.5808376e-21)
(1.1735219 0.13938574 2.3600482e-20)
(1.0888477 0.18290564 0)
(0.99453055 0.14752969 3.1904414e-21)
(0.94061112 0.084433968 1.5972363e-21)
(0.94241584 0.033096321 -8.0690953e-22)
(0.96154833 0.0014930158 -3.272198e-21)
(0.98274448 -0.015227064 0)
(1.0017236 -0.021075501 6.3887217e-22)
(1.0160769 -0.01981622 7.802803e-22)
(1.0250655 -0.014943981 -2.1212838e-22)
(1.0293509 -0.0092618252 4.3529582e-22)
(1.0303796 -0.0044871066 0)
(1.0296815 -0.001231617 2.1660976e-23)
(1.0283878 0.00063545473 2.244109e-22)
(1.0271073 0.001551897 -1.8783011e-23)
(1.0260367 0.0019341662 2.4440589e-23)
(1.0251666 0.0020788078 1.8301972e-23)
(1.0244114 0.0021182504 -2.1998729e-24)
(1.0237075 0.0020871231 2.9917858e-22)
(1.0229941 0.0019715234 -6.9829864e-22)
(1.0223082 0.0017501265 -4.4501989e-22)
(1.0216335 0.0014121717 0)
(1.0210924 0.00090752659 -2.9285706e-23)
(1.0206463 0.00036845746 -3.9654778e-22)
(0.73952167 -0.11783564 9.7184637e-21)
(0.80554504 -0.033101452 -1.1663339e-20)
(0.80638432 0.18631482 2.2015595e-20)
(0.78881573 0.25990583 -8.0538428e-21)
(0.76845272 0.21778304 2.6928342e-20)
(0.76275426 0.063832981 1.0719432e-20)
(0.80241057 -0.14660245 4.7956182e-20)
(0.89673547 -0.24078271 2.9458414e-21)
(1.0102077 -0.2295585 0)
(1.1100368 -0.14740046 -6.3256931e-20)
(1.1667728 -0.0077588446 6.9190146e-20)
(1.1704915 0.15314004 -6.7519271e-21)
(1.1005643 0.21481609 2.1575476e-20)
(1.0023819 0.18059962 -9.7999506e-21)
(0.92966298 0.10334494 3.3921666e-21)
(0.91995787 0.036618829 7.1871313e-22)
(0.94448994 -0.0021010053 -6.1691277e-21)
(0.97096608 -0.0222831 -1.9398788e-21)
(0.99482487 -0.029609356 1.3407208e-21)
(1.0133747 -0.028100267 -1.5133743e-21)
(1.0254335 -0.021729663 6.505539e-22)
(1.0314495 -0.013985902 -6.121459e-22)
(1.0330254 -0.0072380961 0)
(1.0321094 -0.0025080084 9.7153016e-24)
(1.0302844 0.00024536804 5.6178191e-23)
(1.0284727 0.0015736065 7.1850308e-23)
(1.0270204 0.0020915934 -1.1865844e-22)
(1.025929 0.0022393216 -4.4180086e-23)
(1.0250811 0.0022673262 4.2185621e-23)
(1.0243381 0.0022442845 0)
(1.0236286 0.0021892981 -2.256826e-22)
(1.0228952 0.0020565826 -7.5750888e-22)
(1.0221858 0.0018162611 1.2486051e-21)
(1.0214895 0.001458453 -4.2808453e-22)
(1.0209322 0.00093592898 5.6360404e-23)
(1.0204791 0.00037647751 1.4172675e-21)
(0.71651945 -0.12046529 -9.7607292e-21)
(0.77484152 -0.035379445 -4.178979e-22)
(0.77937302 0.19035267 -1.101314e-20)
(0.76651396 0.26770045 -5.5586439e-22)
(0.75009902 0.2268544 -1.14011e-19)
(0.74493186 0.072212931 -1.13549e-19)
(0.78275515 -0.1529442 -7.1363293e-22)
(0.87931149 -0.25965039 3.767628e-20)
(0.99147959 -0.24999767 5.6898059e-21)
(1.0920664 -0.16410418 5.8194682e-20)
(1.1551053 -0.012160935 -1.0464903e-22)
(1.1537929 0.16805577 -3.2869766e-20)
(1.0932865 0.24454691 8.9320087e-22)
(1.0038455 0.21603378 -1.6157804e-20)
(0.92333873 0.12918758 3.1278811e-21)
(0.8962168 0.040860829 -6.6579153e-22)
(0.92441922 -0.0067872466 1.4991369e-21)
(0.95726611 -0.030963308 1.7549785e-21)
(0.98661094 -0.040023125 -1.2798034e-21)
(1.0100744 -0.038388418 -2.6351583e-22)
(1.0259266 -0.030380423 4.350729e-22)
(1.0342345 -0.020155598 -4.1695805e-22)
(1.0366239 -0.010877051 3.1208133e-22)
(1.0354631 -0.0041573674 0)
(1.0329013 -0.00016934285 -4.4836315e-22)
(1.0303066 0.0017427241 3.6046682e-23)
(1.0282537 0.0024222282 -2.0865845e-22)
(1.0267996 0.0025386155 2.6869776e-22)
(1.0257754 0.002477174 -7.8058776e-24)
(1.0249838 0.0024095117 -6.8079096e-23)
(1.0242641 0.0023499488 3.1458514e-23)
(1.023551 0.0022824496 -2.4257978e-22)
(1.022798 0.0021326532 5.4660229e-24)
(1.0220633 0.0018786843 1.2734656e-21)
(1.021345 0.0015019225 -1.3810783e-23)
(1.0207733 0.0009623458 -4.0274961e-23)
(1.0203135 0.00038367632 5.1307804e-22)
(0.69651814 -0.12273042 -8.2717851e-22)
(0.74668887 -0.037311032 1.9977146e-20)
(0.7549799 0.1943542 -2.1103632e-20)
(0.74625167 0.27441697 2.4635094e-21)
(0.73343426 0.23534108 3.4491269e-22)
(0.72884707 0.07864376 -2.3779421e-22)
(0.76210497 -0.15503231 3.6642278e-20)
(0.85729495 -0.27583009 -9.2003144e-21)
(0.9718902 -0.26754235 0)
(1.0711926 -0.18035453 -1.2869501e-20)
(1.1375683 -0.015992129 0)
(1.1346927 0.18314168 0)
(1.0756742 0.27200297 -2.3335103e-20)
(0.99952717 0.24962194 8.8434723e-22)
(0.92093418 0.15867298 2.5755209e-21)
(0.87551379 0.050144387 8.4360543e-23)
(0.90053108 -0.014146951 0)
(0.94191408 -0.041383174 -4.1891559e-22)
(0.97705679 -0.052397267 2.8558154e-22)
(1.0061093 -0.050868994 6.8827832e-23)
(1.0265334 -0.041167607 -7.9365841e-22)
(1.0378155 -0.028068901 -2.5726608e-22)
(1.0414056 -0.015628419 -3.0613294e-24)
(1.040028 -0.0062777803 -4.5340456e-22)
(1.0364979 -0.00058479912 -1.1528601e-22)
(1.0327967 0.0021518271 5.9033299e-23)
(1.0298498 0.0030556659 1.837002e-22)
(1.0278206 0.00308741 -1.8579587e-22)
(1.0265039 0.0028548489 -5.4750347e-24)
(1.0256063 0.002634838 -3.7099731e-22)
(1.0248897 0.0025098843 -8.8567077e-24)
(1.0241969 0.0024360727 -2.5932207e-23)
(1.0234771 0.0023628402 1.456209e-22)
(1.0227016 0.0022042336 7.0841211e-22)
(1.0219398 0.0019373691 -2.5414897e-21)
(1.0212018 0.0015419104 -5.3289116e-22)
(1.0206161 0.00098699255 -4.9224723e-22)
(1.0201503 0.00039017332 0)
(0.68014436 -0.12472176 2.0552256e-20)
(0.72186412 -0.038754747 -3.060138e-22)
(0.73295871 0.19742997 -1.4856736e-20)
(0.72885637 0.2798783 1.1876505e-21)
(0.7191541 0.2428878 7.3268716e-20)
(0.71484443 0.084929064 6.8282892e-20)
(0.74323147 -0.15750438 -4.5082447e-22)
(0.83357359 -0.29050332 -9.3295692e-20)
(0.94698065 -0.28627089 -8.0692879e-21)
(1.0474448 -0.19199526 -1.2028614e-19)
(1.1150698 -0.019760764 -7.2368478e-22)
(1.1126381 0.19721105 0)
(1.0555594 0.29700023 0)
(0.98786468 0.27921386 1.369902e-20)
(0.91898521 0.18857176 -1.8625982e-20)
(0.85998519 0.06266335 -3.9743969e-21)
(0.87540406 -0.020275015 1.2715203e-21)
(0.92416372 -0.054046107 8.9946458e-24)
(0.96625444 -0.066806672 6.1313292e-22)
(1.0014225 -0.065646153 -1.441781e-21)
(1.027213 -0.054322893 -7.9940981e-23)