/*--------------------------------*- C++ -*----------------------------------*\
| =========                 |                                                 |
| \\      /  F ield         | OpenFOAM: The Open Source CFD Toolbox           |
|  \\    /   O peration     | Version:  5.0                                   |
|   \\  /    A nd           | Web:      www.OpenFOAM.org                      |
|    \\/     M anipulation  |                                                 |
\*---------------------------------------------------------------------------*/
FoamFile
{
    version     2.0;
    format      ascii;
    class       volVectorField;
    location    "360";
    object      UMean;
}
// * * * * * * * * * * * * * * * * * * * * * * * * * * * * * * * * * * * * * //

dimensions      [0 1 -1 0 0 0 0];

internalField   nonuniform List<vector> 
9200
(
(1.0322191 0.00045010712 -2.3122237e-24)
(1.032419 0.001441548 4.4088984e-22)
(1.0309214 0.00043207113 0)
(1.032731 0.0023453727 -2.3762078e-22)
(1.0310777 0.0013939883 3.800732e-22)
(1.0303438 0.00042009463 0)
(1.0331399 0.0032438651 -2.3033804e-23)
(1.0313439 0.0022676323 -8.0058337e-24)
(1.0304906 0.0013493477 0)
(1.0295454 0.0003929462 0)
(1.0336162 0.0041539107 5.1569282e-22)
(1.0316731 0.0031229871 4.2315189e-22)
(1.0307341 0.0021968067 2.1874574e-22)
(1.0296691 0.0012634423 1.2515611e-23)
(1.028919 0.00037052654 2.9954542e-25)
(1.0341346 0.0050493802 4.8678687e-22)
(1.0320554 0.0039899876 3.2847593e-24)
(1.0310351 0.0030178743 7.495647e-22)
(1.0298849 0.0020638616 3.199154e-22)
(1.0290337 0.0011816778 2.4872415e-23)
(1.0283404 0.00034195213 -4.6655945e-22)
(1.0346567 0.005973825 6.0009305e-22)
(1.0324671 0.0048251953 5.2820441e-22)
(1.0313811 0.0038508768 -4.4456233e-22)
(1.0301483 0.0028251902 -3.7794956e-23)
(1.0292293 0.001935217 2.4190632e-22)
(1.0284427 0.0010796184 2.497648e-22)
(1.02782 0.00031423371 5.0588976e-23)
(1.0351572 0.0068989397 4.4020634e-22)
(1.0328831 0.0056770373 4.8993417e-22)
(1.0317524 0.0046436026 5.6955966e-22)
(1.0304504 0.0036060896 6.970377e-23)
(1.0294654 0.0026389511 -6.8292605e-22)
(1.0286193 0.0017775034 -3.0216326e-22)
(1.0279148 0.00097645439 -2.1823672e-22)
(1.0273876 0.00028448322 3.6582111e-22)
(1.0356157 0.0078439124 -8.3367358e-22)
(1.0332932 0.0065085166 4.1567698e-22)
(1.0321181 0.0054457024 6.6698872e-23)
(1.0307761 0.0043424094 2.4457276e-22)
(1.0297328 0.0033672143 1.5600493e-22)
(1.0288316 0.0024141433 -9.4593434e-22)
(1.0280759 0.0016173152 -8.3556048e-23)
(1.0274766 0.00086370574 -3.4678403e-22)
(1.0269998 0.00025558481 -7.1752004e-22)
(1.0359863 0.0087893206 7.3775985e-22)
(1.0336702 0.0073413467 -2.9373208e-23)
(1.0324599 0.0062170739 -4.0129213e-23)
(1.0310988 0.0050919233 -2.349022e-22)
(1.0300216 0.0040457367 -1.1820915e-22)
(1.0290691 0.0030829205 2.6384989e-22)
(1.0282684 0.0021860436 3.2177694e-22)
(1.0276254 0.001442552 4.7041792e-22)
(1.0270847 0.00075195258 2.7686155e-22)
(1.0266925 0.00022651259 6.9336342e-23)
(1.0362055 0.0097223541 -3.2977423e-22)
(1.0339918 0.0081464726 2.4675294e-22)
(1.0327622 0.0069796648 3.1205338e-22)
(1.0314105 0.0058133069 -4.468875e-22)
(1.0303056 0.0047355164 1.5768877e-22)
(1.0293248 0.0036983816 -7.7187438e-22)
(1.0284808 0.0027938507 8.8481908e-23)
(1.0278026 0.0019375707 6.0996346e-22)
(1.0272232 0.0012691319 -2.7420773e-22)
(1.0267762 0.0006367674 6.4337576e-22)
(1.0264265 0.00019895666 -6.2545711e-23)
(1.0363359 0.010634835 7.9892086e-24)
(1.0341663 0.0089170793 -4.7309554e-22)
(1.033003 0.0077180886 -4.8606803e-22)
(1.0317031 0.0065235806 0)
(1.0305799 0.0053930706 2.4873958e-23)
(1.0295742 0.0043283694 -3.0295312e-22)
(1.0287101 0.0033460141 -1.4087719e-22)
(1.0279935 0.0024789425 -3.0384346e-22)
(1.0273882 0.0016913002 -3.0203487e-22)
(1.0269081 0.0010898921 -3.3345263e-22)
(1.0265106 0.00052547798 -1.9827285e-22)
(1.0262273 0.00017247208 5.0834502e-23)
(1.0363348 0.011522141 2.0117135e-23)
(1.0342536 0.0096788902 5.8266518e-23)
(1.0331543 0.0084347783 0)
(1.0319641 0.0072055731 0)
(1.0308236 0.0060411332 -7.7605347e-23)
(1.0298148 0.0049312536 -2.9317238e-22)
(1.0289283 0.0039143169 -3.5834653e-23)
(1.0281989 0.0029631003 4.2715358e-22)
(1.0275614 0.0021662099 5.7107501e-23)
(1.0270661 0.0014359313 3.6180077e-24)
(1.026638 0.00091634798 2.3764863e-22)
(1.026315 0.00041560388 -1.3997659e-22)
(1.0260639 0.00014816275 4.766803e-22)
(1.0357848 0.012254676 -2.2199574e-22)
(1.0343146 0.010464706 5.808341e-24)
(1.0332005 0.0091032057 -1.1865501e-22)
(1.0321318 0.0078452451 5.2744573e-23)
(1.0310306 0.0066684869 -2.5462871e-23)
(1.0300332 0.0055312575 -1.2432986e-22)
(1.029137 0.0044568897 1.4724074e-22)
(1.02839 0.003466872 2.1054599e-23)
(1.0277467 0.0025817423 5.9924752e-22)
(1.0272266 0.0018402593 5.6472757e-22)
(1.0267919 0.001188285 8.7592513e-23)
(1.0264421 0.00074425577 2.6235781e-22)
(1.0261567 0.00031233803 1.5780717e-22)
(1.0259526 0.0001259222 -1.0469522e-22)
(1.0344387 0.012771242 -4.8243571e-22)
(1.0341536 0.011217432 2.2773202e-22)
(1.0331574 0.0097298634 -1.8976578e-22)
(1.03218 0.0084507201 2.6036376e-23)
(1.0311674 0.0072738455 -3.1445676e-23)
(1.0302181 0.0061123143 1.7833567e-22)
(1.0293211 0.0049999232 1.5208507e-22)
(1.0285687 0.003948386 -1.8497019e-22)
(1.0279127 0.0030183975 -1.4190012e-22)
(1.0273966 0.002183508 -8.3127489e-23)
(1.0269433 0.0015227415 -5.3053187e-24)
(1.0265978 0.00094137764 -1.7196059e-22)
(1.0262859 0.00058192225 -1.8759173e-22)
(1.026054 0.00021458112 5.30731e-23)
(1.0258702 0.00010641901 -4.460632e-23)
(1.0322554 0.013064938 6.2673421e-22)
(1.033333 0.011801137 -5.7713483e-22)
(1.0330172 0.010367662 7.9789442e-23)
(1.0321121 0.009013369 -1.2856134e-22)
(1.0312066 0.0078495993 6.2407388e-23)
(1.0303412 0.0066749709 -3.8917374e-22)
(1.029466 0.0055282925 -8.5639933e-23)
(1.0287199 0.0044341863 4.2933692e-23)
(1.0280642 0.0034360451 -8.1859792e-23)
(1.027542 0.0025496421 -4.23225e-22)
(1.0271018 0.0017934441 -5.9009894e-22)
(1.0267463 0.001203663 -1.6370362e-22)
(1.026447 0.00070752462 4.2337403e-23)
(1.0261899 0.00042732368 7.7652193e-23)
(1.0259816 0.00012579932 6.5970324e-23)
(1.0258249 8.9718567e-05 3.2318949e-23)
(1.0293941 0.013278541 0)
(1.0317942 0.012225142 -5.6633343e-22)
(1.0323658 0.010925235 3.3762162e-22)
(1.0319691 0.0095770178 0)
(1.0310966 0.0083813602 0)
(1.0303812 0.0072135387 0)
(1.0295622 0.006049548 7.6617728e-23)
(1.0288279 0.0049088803 3.0339864e-22)
(1.0281842 0.0038604732 5.9420192e-22)
(1.0276675 0.0028984645 2.4598101e-22)
(1.0272302 0.002086552 1.5622182e-22)
(1.0268995 0.0013987445 1.3080326e-22)
(1.0265972 0.00089925381 5.9308526e-23)
(1.026363 0.00048317905 -4.9824697e-23)
(1.0261268 0.00028617525 -6.5954901e-23)
(1.0259499 4.5841903e-05 -8.3849911e-24)
(1.0258011 7.6172805e-05 0)
(1.0263537 0.013421043 4.3989994e-22)
(1.0294063 0.012459961 1.3168799e-21)
(1.0309764 0.011316707 -1.0082822e-21)
(1.0314811 0.01012947 -1.1679142e-22)
(1.0308923 0.0089084258 -7.4507464e-23)
(1.0302581 0.0077120584 0)
(1.0295927 0.0065542988 3.2312036e-22)
(1.0288905 0.0053832383 -2.3208488e-22)
(1.0282573 0.004278508 -1.4932702e-22)
(1.0277563 0.0032557349 8.061186e-22)
(1.0273347 0.0023638783 -1.3745002e-22)
(1.0270169 0.0016151383 2.0002517e-22)
(1.0267504 0.001019429 -6.1458148e-23)
(1.0265221 0.00060418729 -2.1251603e-22)
(1.0263158 0.00027698656 -2.0733958e-22)
(1.0261093 0.00015806639 2.7758587e-23)
(1.0259411 -2.3245377e-05 -2.3903702e-23)
(1.0258005 6.5920079e-05 1.1857955e-23)
(1.0238369 0.0135955 -6.7231501e-23)
(1.026431 0.012563819 5.8991117e-22)
(1.0287993 0.011609318 3.3365331e-22)
(1.030301 0.010531816 -5.423178e-22)
(1.0304537 0.0094510121 2.2300782e-23)
(1.0299892 0.0081892025 -4.2249485e-22)
(1.0294671 0.0070275627 -9.4278757e-22)
(1.0289008 0.0058483715 -7.7670754e-22)
(1.0282866 0.0047006504 -3.5087459e-22)
(1.0277946 0.0036118292 -4.0879843e-22)
(1.0273972 0.0026507822 -1.9870994e-22)
(1.0271045 0.0018154346 -1.7015526e-22)
(1.0268622 0.0011576713 -3.1160517e-22)
(1.0266831 0.00064810023 1.1822297e-22)
(1.0264892 0.00033021369 1.5183432e-22)
(1.0263213 8.7958853e-05 -1.9208101e-23)
(1.0261171 4.6511546e-05 4.4761247e-23)
(1.0259584 -8.1139955e-05 -2.0612177e-23)
(1.0258135 5.9106093e-05 3.6508507e-23)
(1.0211854 0.01375242 -7.1057078e-22)
(1.0238282 0.012607058 -8.8814868e-22)
(1.026046 0.011780258 3.2561931e-21)
(1.0283557 0.010822136 2.1646998e-22)
(1.0294393 0.0098942599 -3.3165075e-22)
(1.0295428 0.0086957708 -1.9755941e-22)
(1.029138 0.0074641775 3.727132e-23)
(1.028781 0.0062938614 -2.9934108e-22)
(1.0282696 0.0051195178 -1.4039437e-22)
(1.0277864 0.0039746147 -5.9360309e-22)
(1.0274055 0.0029399889 -3.9685415e-22)
(1.0271433 0.0020248704 2.4231402e-22)
(1.0269395 0.0012783803 1.8534011e-22)
(1.0267973 0.00070525053 -2.0250586e-23)
(1.0266644 0.00029985569 1.5730842e-22)
(1.0265172 7.5610596e-05 -1.4468827e-22)
(1.0263557 -7.8359692e-05 1.6797447e-22)
(1.0261558 -4.8040024e-05 -7.7329181e-23)
(1.0259907 -0.00012681537 -1.4227414e-23)
(1.0258379 5.574783e-05 -5.2024111e-23)
(1.0162837 0.01380832 -3.3664678e-24)
(1.0218523 0.012818512 -1.5772543e-21)
(1.0234616 0.011864537 1.2206372e-22)
(1.0257433 0.011006856 -8.4345765e-22)
(1.0276828 0.010230376 -1.6609898e-22)
(1.028631 0.0091544786 2.9305881e-22)
(1.0286389 0.007925219 -7.1187213e-23)
(1.028424 0.0066910784 7.4254603e-22)
(1.0281523 0.0055303534 6.4840357e-22)
(1.0277325 0.0043407905 0)
(1.0273629 0.0032390269 2.9297632e-22)
(1.0271221 0.0022401079 6.4756148e-22)
(1.0269604 0.0014068578 1.8182914e-22)
(1.0268713 0.00074190303 -5.6689377e-22)
(1.0267884 0.0002761128 -9.5354095e-23)
(1.0267157 -2.7971943e-05 -1.0632292e-22)
(1.0265796 -0.00015174225 1.8022759e-22)
(1.0264281 -0.00022141196 1.2324023e-22)
(1.0262117 -0.00012374012 -1.2019214e-22)
(1.0260366 -0.00015995962 3.8209965e-24)
(1.0258681 5.5867295e-05 -5.9494416e-23)
(1.0080395 0.013338352 1.7149437e-21)
(1.0183843 0.012649031 -1.7898678e-21)
(1.0214853 0.011952374 -2.366406e-21)
(1.0232554 0.011122353 2.2176367e-21)
(1.0252008 0.010465515 1.1202503e-21)
(1.027022 0.0095179386 -2.5147533e-22)
(1.0277815 0.0083841234 0)
(1.0278537 0.0070954056 -6.1272799e-22)
(1.027805 0.0058964497 -5.3652776e-22)
(1.0276045 0.004708829 -7.9701762e-23)
(1.0272709 0.0035463201 3.8564245e-22)
(1.0270446 0.0024673287 3.001861e-22)
(1.0269161 0.0015426598 -1.2535538e-22)
(1.0268801 0.00078255535 7.8828859e-23)
(1.0268674 0.00022682256 2.4726709e-22)
(1.0268593 -0.00013347053 -2.2792989e-22)
(1.0268085 -0.00032479373 1.6030464e-23)
(1.0266886 -0.00035120558 -1.6162194e-22)
(1.0265211 -0.00033816975 6.057148e-23)
(1.026285 -0.00017999728 8.0141477e-24)
(1.0260894 -0.00018026639 -5.5534711e-23)
(1.0259005 5.9434348e-05 0)
(0.9971701 0.012852136 5.4658523e-22)
(1.0106624 0.012248394 1.3243931e-21)
(1.0188629 0.011992956 -3.9974829e-23)
(1.0214128 0.011207048 2.9168996e-21)
(1.0226697 0.010636203 9.7545916e-22)
(1.0246548 0.0097849434 -6.1174879e-22)
(1.0262839 0.0087651905 5.9172636e-22)
(1.0269917 0.0075192879 -5.6653784e-22)
(1.0271703 0.0062356759 -1.7636906e-22)
(1.0272861 0.0050505383 7.5260472e-23)
(1.0271195 0.0038620883 -3.298917e-23)
(1.0269111 0.0027083067 -7.7150647e-22)
(1.0268085 0.0016915373 -1.8274239e-23)
(1.0268172 0.00083056225 1.1166427e-21)
(1.0268731 0.00017602608 2.0324901e-22)
(1.0269531 -0.00027147776 -1.0411087e-22)
(1.0269804 -0.00050990741 -1.0978024e-22)
(1.0269577 -0.0005899664 3.4691749e-22)
(1.0268229 -0.00051822152 4.5868635e-23)
(1.0266375 -0.00042767567 -1.1116602e-22)
(1.0263673 -0.00021614921 0)
(1.0261457 -0.0001877308 1.3465482e-22)
(1.0259314 6.6454912e-05 4.196299e-24)
(0.98369449 0.012280046 -2.3368062e-21)
(0.99978726 0.011518098 4.7593975e-21)
(1.0124452 0.011666112 -5.0416488e-21)
(1.0193278 0.011304983 -1.9266783e-21)
(1.020839 0.010790441 3.2540262e-21)
(1.0220833 0.010002755 0)
(1.0240214 0.0090483139 1.3281279e-22)
(1.0255883 0.0078918271 -6.1812643e-22)
(1.0262712 0.0065990354 -1.7320938e-22)
(1.0266378 0.0053323173 7.4729791e-22)
(1.0268281 0.0041741435 1.3083523e-22)
(1.0267216 0.0029636553 -3.0992018e-22)
(1.0266368 0.0018585195 4.0898509e-22)
(1.026682 0.00089166286 -2.4082762e-23)
(1.0268006 0.00013037974 2.7527219e-22)
(1.0269654 -0.00041829342 -6.5941768e-23)
(1.0270993 -0.0007362905 -6.8539914e-22)
(1.0271689 -0.0008526158 1.5579831e-22)
(1.0271391 -0.0008169457 -6.8752569e-22)
(1.0269888 -0.00065120629 3.0633055e-22)
(1.0267656 -0.00048870643 3.0169788e-22)
(1.0264556 -0.00023204558 -2.1224515e-22)
(1.0262014 -0.00018257571 8.6562814e-23)
(1.0259576 7.6553446e-05 4.4265482e-24)
(0.96806709 0.011607467 -2.6466135e-22)
(0.98730961 0.011058821 4.953012e-21)
(1.0026347 0.010852008 8.4138009e-22)
(1.0139835 0.011194296 1.3737395e-20)
(1.0192167 0.011024366 -2.9494568e-21)
(1.0201619 0.010195562 3.8510036e-21)
(1.0213949 0.0092884487 1.1956344e-22)
(1.0234313 0.0081732805 1.8627974e-21)
(1.0249418 0.0069459202 -4.3404892e-22)
(1.0256769 0.0056226887 -1.0969677e-22)
(1.0262216 0.0044214585 3.7850711e-22)
(1.0264344 0.0032330933 7.5299963e-22)
(1.0264032 0.0020445666 5.721595e-23)
(1.0264734 0.00097365431 -9.2037238e-23)
(1.0266458 9.5392983e-05 -4.2947225e-22)
(1.0268922 -0.00056551454 1.096648e-22)
(1.0271301 -0.00098083421 -1.3235097e-22)
(1.0273246 -0.0011670761 2.7250945e-22)
(1.0273987 -0.0011525523 0)
(1.0273617 -0.0010033677 2.8426408e-23)
(1.0271705 -0.00074823589 1.1210556e-23)
(1.0269041 -0.00052079699 -2.2850147e-23)
(1.0265448 -0.00022788979 6.6510448e-24)
(1.026253 -0.00016517244 -1.260855e-22)
(1.0259767 8.971981e-05 -1.7449342e-23)
(0.95107252 0.010880837 1.7735557e-21)
(0.97263515 0.010482632 -3.4140432e-21)
(0.9901922 0.01022812 -2.3880917e-21)
(1.0046389 0.010534075 -2.0826173e-21)
(1.0151028 0.011046142 -1.2906987e-20)
(1.0187709 0.010486117 -5.6787474e-22)
(1.0193367 0.009508811 1.1537153e-22)
(1.020755 0.008406683 -1.7902052e-22)
(1.0228854 0.0072099868 -1.3116793e-21)
(1.0243745 0.0059259014 3.3724526e-22)
(1.0252193 0.0046384346 -1.5929647e-22)
(1.0258903 0.0034651415 -9.3964016e-23)
(1.0260949 0.0022550817 -4.6079701e-22)
(1.0261923 0.0010791323 -1.1100391e-22)
(1.0264073 8.1708185e-05 -3.7717846e-22)
(1.0267261 -0.00070636706 5.7331368e-22)
(1.0270683 -0.0012339651 1.3327966e-21)
(1.0273864 -0.0015111241 -4.1311995e-22)
(1.0276022 -0.0015519415 -7.056033e-22)
(1.0276806 -0.0014066216 1.5616983e-23)
(1.0276056 -0.0011462955 7.1319225e-22)
(1.0273689 -0.00080808048 2.1182648e-22)
(1.0270455 -0.00052402482 -3.0998789e-22)
(1.0266312 -0.00020416988 1.9339111e-22)
(1.0262976 -0.00013607964 -7.9118169e-23)
(1.0259863 0.00010543988 3.8754798e-24)
(0.93347623 0.010126718 -8.1310488e-23)
(0.95632144 0.0098978976 -4.3701949e-21)
(0.97575191 0.0094483132 1.0500711e-20)
(0.99277899 0.009891159 -1.2963829e-20)
(1.0067156 0.010605464 1.3405302e-20)
(1.015697 0.010679197 -7.2936398e-21)
(1.0179956 0.0098160273 -3.2314554e-21)
(1.0185294 0.0086317201 -2.7543659e-21)
(1.020187 0.0074193922 2.7917177e-21)
(1.0224159 0.0061644527 7.2351561e-22)
(1.0238825 0.0048747856 -1.1474317e-22)
(1.0248944 0.0036212185 1.5152038e-22)
(1.0256013 0.002465984 2.8295852e-22)
(1.0258401 0.0012152628 -5.3715521e-22)
(1.0260842 9.3586965e-05 -5.1024071e-23)
(1.026465 -0.00082795304 2.9170945e-22)
(1.0269037 -0.001487466 -5.1074683e-22)
(1.0273493 -0.0018742821 6.1596993e-22)
(1.0277085 -0.001993793 -4.4616989e-22)
(1.027944 -0.0018869024 1.5666172e-22)
(1.027992 -0.0016102303 0)
(1.0278749 -0.0012432867 3.433995e-22)
(1.0275731 -0.00083063557 7.0615754e-24)
(1.0271865 -0.00049882628 0)
(1.0267114 -0.00016173635 -2.3763942e-22)
(1.0263329 -9.6013191e-05 -1.876226e-23)
(1.0259846 0.00012357316 -2.2055013e-23)
(0.91573612 0.0094240555 -6.8871192e-22)
(0.93928654 0.0093284849 -4.1286369e-22)
(0.95979681 0.0087824665 1.0351144e-20)
(0.97908574 0.0091073658 -1.253664e-21)
(0.99529391 0.009875005 3.650966e-21)
(1.0082762 0.010495481 1.0722982e-20)
(1.0157492 0.01012088 4.1474025e-22)
(1.0171284 0.0089178103 3.8027904e-21)
(1.0177733 0.0076177743 -3.7892137e-22)
(1.0197329 0.0063425996 -1.8980473e-21)
(1.0220167 0.0050938436 9.3626024e-22)
(1.0234912 0.0037780147 -8.5964373e-23)
(1.0246873 0.0025929134 -2.221528e-22)
(1.0253588 0.0013774505 -7.8804476e-23)
(1.0256809 0.0001391851 -6.9695678e-22)
(1.0261066 -0.00092441022 -1.1678258e-23)
(1.0266329 -0.0017271302 -1.4352022e-21)
(1.0271997 -0.0022472917 8.5251151e-22)
(1.0277108 -0.0024675743 2.3336778e-22)
(1.0281088 -0.0024242325 -5.9523721e-22)
(1.028326 -0.0021646546 5.2579106e-22)
(1.0283387 -0.0017597505 4.0816838e-23)
(1.0281539 -0.0012941772 -2.68911e-23)
(1.0277811 -0.00081585752 0)
(1.0273223 -0.00044625415 0)
(1.0267824 -0.00010166869 2.0990007e-23)
(1.0263567 -4.5691894e-05 -3.5295521e-23)
(1.0259704 0.00014369261 8.2221045e-23)
(0.89824095 0.0087349345 0)
(0.92203238 0.0087514867 -2.7966699e-21)
(0.94315805 0.0080993025 -1.0704924e-20)
(0.96368281 0.0085827771 -8.4626075e-21)
(0.98198422 0.0091925988 -1.5908633e-20)
(0.99753547 0.0097595326 -1.7561951e-21)
(1.0094862 0.010109604 6.4678217e-21)
(1.0154679 0.0092857315 8.9612721e-21)
(1.0162733 0.007883468 -6.1232277e-21)
(1.017105 0.0065014368 8.3084563e-22)
(1.0193772 0.0052416369 -1.5019656e-22)
(1.0216668 0.0039705972 -3.3589847e-22)
(1.0232399 0.0026719237 3.1421913e-22)
(1.0245433 0.0014951422 -1.8794023e-22)
(1.0251759 0.00022247056 6.6696598e-26)
(1.0256532 -0.00098660658 -7.6780957e-22)
(1.0262518 -0.0019453347 7.0732372e-23)
(1.0269326 -0.002614647 -6.508432e-22)
(1.0275926 -0.0029632397 1.2191894e-21)
(1.0281659 -0.0030080499 -7.4478337e-22)
(1.0285628 -0.0027924546 4.5990959e-22)
(1.0287547 -0.0023805683 3.0354513e-22)
(1.0287012 -0.0018544339 3.8777675e-24)
(1.0284431 -0.0012975973 -1.0228748e-21)
(1.0279857 -0.00076488895 -2.2426319e-22)
(1.0274494 -0.00036755595 4.0124169e-23)
(1.0268416 -2.5196315e-05 1.6402451e-22)
(1.0263674 1.3628242e-05 1.0616727e-23)
(1.0259427 0.00016531606 -2.1112568e-22)
(0.88128387 0.0080173683 2.1175475e-21)
(0.90488639 0.0079549301 0)
(0.92617854 0.0072627506 0)
(0.94733916 0.0077708344 0)
(0.96699549 0.0086788496 4.7552088e-21)
(0.98469491 0.0092094294 -1.4508139e-20)
(0.99955357 0.0093995333 3.7436018e-22)
(1.0105411 0.0093664422 8.6676695e-23)
(1.0150105 0.0082542319 -1.2562531e-20)
(1.0154395 0.0067551737 8.4484178e-21)
(1.0165366 0.0053721075 -2.3178035e-21)
(1.0190819 0.0040969876 5.3893059e-22)
(1.0213576 0.0027971134 -3.8145367e-22)
(1.0231266 0.0015145872 3.3524653e-22)
(1.0244316 0.00031092321 8.1640462e-22)
(1.0251023 -0.0010089206 5.354216e-23)
(1.0257608 -0.0021315461 -9.2611845e-22)
(1.0265429 -0.0029673605 -2.9846619e-22)
(1.0273468 -0.0034642302 7.9664966e-22)
(1.0280959 -0.0036282288 1.1144686e-22)
(1.0286901 -0.0034822866 -5.530576e-22)
(1.0290766 -0.0030922661 -9.8089522e-23)
(1.0292085 -0.0025323379 8.4355507e-22)
(1.0290814 -0.0018907664 -5.7318914e-22)
(1.028731 -0.0012555078 1.0131435e-23)
(1.0281837 -0.00067902043 -1.6134188e-22)
(1.0275649 -0.0002644791 2.8641412e-22)
(1.0268873 6.6238133e-05 9.9190368e-23)
(1.0263639 8.117118e-05 -1.282773e-22)
(1.0259014 0.00018817527 -1.7569235e-22)
(0.86370148 0.007192677 -1.0902369e-22)
(0.88813996 0.0071885435 -3.5262859e-21)
(0.90912404 0.0064069074 0)
(0.93049272 0.0070290779 0)
(0.95093613 0.0078557307 0)
(0.97020174 0.0086702663 0)
(0.98723788 0.0088768458 0)
(1.0015208 0.0087770468 3.0236586e-25)
(1.0113701 0.0084512928 6.9624807e-21)
(1.0143784 0.0071005552 -1.3599819e-20)
(1.0146156 0.0056311133 9.3517892e-23)
(1.0160471 0.0042185391 -2.3023818e-21)
(1.0188119 0.0029102257 2.7203392e-21)
(1.0211462 0.0015320565 -4.172039e-22)
(1.0231548 0.00029758238 -4.1574491e-23)
(1.0243812 -0.00099564778 3.2180078e-22)
(1.0251609 -0.0022798306 -5.0145298e-22)
(1.026029 -0.0032934165 4.952022e-22)
(1.0269669 -0.0039606155 7.8879813e-23)
(1.0278895 -0.0042672127 1.4922785e-22)
(1.028686 -0.0042248334 7.3907201e-23)
(1.0292893 -0.0038826172 1.8698287e-22)
(1.0296274 -0.0033189772 -9.6697677e-24)
(1.0296896 -0.0026157763 -3.4586783e-22)
(1.0294643 -0.0018712998 1.0279886e-22)
(1.0290151 -0.0011675136 9.3702632e-22)
(1.0283699 -0.00056032819 2.0807306e-22)
(1.0276658 -0.00013885624 -1.2891544e-22)
(1.0269177 0.00017111106 1.1984508e-23)
(1.0263454 0.00015594867 1.7163222e-22)
(1.0258465 0.00021211714 1.2845943e-22)
(0.84527977 0.0061494686 -2.3122925e-21)
(0.87067615 0.0063104771 -8.2323619e-22)
(0.89235424 0.0055967044 -1.175804e-20)
(0.91348798 0.006246914 -1.9163428e-20)
(0.93433307 0.0071432878 0)
(0.95442614 0.0078610773 0)
(0.97329157 0.0082722802 -7.9980919e-23)
(0.98981607 0.0082007439 -1.6023499e-20)
(1.0034542 0.0080481707 2.0012543e-20)
(1.0117445 0.0074128766 -1.7811863e-20)
(1.0135761 0.0059394271 -2.1854912e-22)
(1.0137738 0.0044912268 5.3074111e-21)
(1.0156151 0.003022283 -6.6729841e-22)
(1.0185839 0.0016003201 1.9200803e-22)
(1.0211359 0.00020549512 3.0220326e-22)
(1.0232538 -0.0010303388 -1.7303923e-23)
(1.0244254 -0.0023836749 1.4353864e-21)
(1.0253908 -0.0035858279 -8.0562701e-23)
(1.0264498 -0.0044386699 -1.5158614e-21)
(1.0275388 -0.0049140324 1.6111933e-21)
(1.0285391 -0.0050018135 -8.2344702e-22)
(1.0293688 -0.004743527 -4.9586136e-22)
(1.0299401 -0.0042015062 1.428409e-21)
(1.0302165 -0.0034670507 4.2008041e-22)
(1.0301799 -0.0026324264 -3.0710733e-22)
(1.0298491 -0.0017946992 6.1017513e-22)
(1.029288 -0.0010367844 2.8170255e-22)
(1.0285407 -0.0004101363 8.9601417e-23)
(1.0277498 7.3798092e-06 -1.2967816e-22)
(1.0269318 0.00028778198 -5.0551044e-23)
(1.0263115 0.00023689242 1.6903304e-22)
(1.0257772 0.00023624926 1.725273e-23)
(0.82689457 0.0049245651 7.7709152e-22)
(0.85240419 0.0054699557 3.7415377e-21)
(0.87471994 0.0047191609 1.7100755e-20)
(0.89676324 0.0055308192 2.3825497e-20)
(0.91750138 0.0063732256 0)
(0.93800882 0.0071226342 0)
(0.95784318 0.0074625539 0)
(0.9764101 0.0075173047 2.3260042e-21)
(0.99245641 0.0074079202 -2.442688e-20)
(1.0051216 0.0072474927 -1.9423975e-20)
(1.0117317 0.0063798128 -1.6472202e-22)
(1.0126038 0.0047822334 1.4253012e-21)
(1.0128919 0.0032899727 -1.0009257e-20)
(1.0152501 0.0016788238 3.3518933e-21)
(1.0184651 0.00015237313 -2.3040337e-22)
(1.0213479 -0.0012059186 0)
(1.0234007 -0.0024774091 2.6352494e-22)
(1.0246209 -0.0038363393 -4.4643608e-22)
(1.0257938 -0.0048901281 -1.0392921e-22)
(1.0270391 -0.0055543764 2.4250624e-22)
(1.0282394 -0.0058017301 -7.1127898e-22)
(1.0293009 -0.005656308 3.4489653e-22)
(1.0301201 -0.0051733537 -7.9205426e-22)
(1.0306428 -0.0044319402 -1.1140273e-21)
(1.0308243 -0.0035365512 4.9894859e-22)
(1.0306785 -0.0025795942 4.5765669e-23)
(1.0302241 -0.0016650731 -4.3433339e-23)
(1.0295468 -0.00086519009 1.0941666e-23)
(1.0286939 -0.00023167393 -2.4253564e-22)
(1.0278156 0.0001716134 -1.5638435e-22)
(1.0269288 0.00041472738 7.0038603e-23)
(1.026262 0.00032289977 -6.2103187e-22)
(1.0256926 0.00025857917 3.292496e-22)
(0.80878932 0.0038287738 5.7010537e-22)
(0.83405786 0.0042136692 3.3745182e-22)
(0.85623042 0.0038925094 2.8824795e-20)
(0.87912358 0.0046962214 4.7213727e-20)
(0.90089225 0.0056778372 -1.0215214e-20)
(0.92129728 0.0063447322 -1.0945398e-21)
(0.94160515 0.0066645653 -4.0936611e-20)
(0.96134622 0.0066705851 1.9458761e-20)
(0.97958502 0.0066214716 2.8048794e-21)
(0.9950598 0.0065884898 4.9075067e-20)
(1.0065452 0.0064653407 -1.6384406e-20)
(1.011281 0.0053724255 -1.7422327e-20)
(1.0114328 0.0035814417 1.3828489e-22)
(1.0120288 0.0018981038 4.0033509e-21)
(1.0150127 0.00015342286 2.3599163e-21)
(1.0185865 -0.0014285486 1.5034859e-22)
(1.021744 -0.0026970989 2.731383e-23)
(1.0236437 -0.0040473733 1.9731957e-22)
(1.0249943 -0.0053064543 -1.6536458e-22)
(1.0263878 -0.0061775163 -4.4734371e-23)
(1.0277804 -0.0066094394 6.3453305e-22)
(1.0290739 -0.0066093417 -1.4905737e-21)
(1.0301509 -0.0062158656 -1.5325922e-22)
(1.0309393 -0.0055057035 7.7103872e-22)
(1.0313761 -0.0045720005 -1.5532141e-21)
(1.0314488 -0.0035238966 -5.4865647e-22)
(1.0311711 -0.0024616807 -4.9871823e-22)
(1.0305875 -0.0014826212 -1.2905412e-22)
(1.0297865 -0.00065626474 -2.6645581e-22)
(1.0288268 -2.78527e-05 2.207104e-24)
(1.0278617 0.00035205086 -1.9413938e-23)
(1.0269083 0.00055027163 -1.8389109e-23)
(1.0261969 0.00041308283 3.044871e-22)
(1.0255953 0.00028054195 -7.1021726e-22)
(0.79145876 0.0027634982 -8.7430604e-22)
(0.81587678 0.0031924727 -5.2220579e-22)
(0.83768257 0.0027343439 -3.3221362e-20)
(0.86064446 0.0038969511 -2.3506469e-20)
(0.88321516 0.0048284743 3.9605199e-20)
(0.90475853 0.0056784987 4.9405765e-20)
(0.92499979 0.0058337881 5.7728088e-21)
(0.94529022 0.0057962464 0)
(0.96494489 0.0057233028 2.1892869e-20)
(0.98271999 0.0057196028 6.8712475e-20)
(0.99748163 0.0058404248 2.5797914e-21)
(1.0075243 0.0057067812 8.5872184e-21)
(1.0104314 0.0043593887 0)
(1.0100765 0.0022049935 -5.2878303e-22)
(1.0112952 0.00028286969 -6.8415832e-21)
(1.0149947 -0.0015876555 -2.8188674e-22)
(1.0190399 -0.0030717328 9.7617991e-22)
(1.022208 -0.0043098674 0)
(1.024025 -0.0056801103 4.3025343e-22)
(1.0255787 -0.0067748858 9.1668455e-22)
(1.0271594 -0.0074121407 -1.1301278e-21)
(1.0286796 -0.0075861486 6.6011471e-22)
(1.0300186 -0.0073174284 0)
(1.0310875 -0.0066700044 -1.4691585e-21)
(1.0318038 -0.0057361165 7.4700971e-22)
(1.0321364 -0.004617048 -5.1701392e-23)
(1.0320731 -0.0034326772 -6.5376614e-22)
(1.0316553 -0.0022779124 5.8074451e-22)
(1.0309306 -0.0012527126 2.0456821e-23)
(1.0300043 -0.0004129334 -6.5259194e-22)
(1.0289376 0.00019842548 4.7958789e-22)
(1.0278875 0.00054601085 1.0885091e-22)
(1.0268703 0.00069283324 0)
(1.0261162 0.0005066927 -1.2454025e-23)
(1.025486 0.00030190638 -2.4027551e-22)
(0.77494581 0.001675799 -6.1026689e-22)
(0.79842276 0.0024174411 2.0098439e-21)
(0.81939827 0.0015584918 -3.0957917e-20)
(0.8420605 0.0030584028 -8.1446543e-21)
(0.86467414 0.0040355913 1.056998e-20)
(0.88703808 0.0048200143 6.6662838e-21)
(0.90853252 0.0051451907 4.342603e-20)
(0.92877769 0.0048845395 2.1469091e-22)
(0.94912012 0.0047955809 0)
(0.96854552 0.0048059053 -2.6198332e-20)
(0.98570692 0.0049613284 2.1853091e-20)
(0.99952031 0.0052635809 -1.4290121e-21)
(1.0077969 0.0048908695 8.918049e-21)
(1.0090946 0.0030890583 -8.9453697e-21)
(1.0087046 0.00057544419 -4.0824225e-21)
(1.0108244 -0.001594296 -4.4160887e-21)
(1.0153018 -0.0034649141 5.6225446e-21)
(1.0198085 -0.0047767022 4.8935984e-22)
(1.0227355 -0.0060446644 5.900123e-22)
(1.0246029 -0.0073380281 -1.9075733e-21)
(1.0263685 -0.0082009313 1.5437267e-21)
(1.0281142 -0.0085735233 -1.7235626e-21)
(1.0297135 -0.0084606278 0)
(1.0310711 -0.0079132767 -3.9481961e-22)
(1.0320866 -0.0070107781 1.7844084e-22)
(1.0327082 -0.0058580424 8.3390754e-22)
(1.0329052 -0.0045690039 1.3835083e-22)
(1.0326937 -0.0032616439 8.0935494e-23)
(1.0321199 -0.0020346401 4.3640092e-22)
(1.0312515 -0.00097703585 0)
(1.0301971 -0.00013916802 5.7828496e-22)
(1.029025 0.00044414443 5.4181153e-22)
(1.0278927 0.00075127682 3.3755972e-22)
(1.026815 0.00084091495 -2.6762433e-22)
(1.0260205 0.00060290341 1.2626033e-23)
(1.0253668 0.00032423026 9.076298e-22)
(0.75945687 0.00070988761 7.3786528e-22)
(0.78204264 0.0015720744 -1.8767549e-22)
(0.8017915 0.00080600876 9.2896283e-21)
(0.82379267 0.001881552 3.3746234e-22)
(0.84584464 0.003321575 -4.6334454e-20)
(0.86841748 0.0040640612 -4.9339369e-20)
(0.89076002 0.0042747313 -1.7049651e-22)
(0.91238337 0.0041326574 3.3508268e-20)
(0.93272621 0.0038221289 1.8858251e-22)
(0.95300859 0.0038341801 2.564647e-20)
(0.97202659 0.0040787382 -3.7834982e-23)
(0.98835596 0.0044827641 -1.1773331e-20)
(1.0008761 0.0047766835 -1.3768436e-21)
(1.0072292 0.0038114964 -9.337968e-21)
(1.0074503 0.0014549261 3.1222408e-20)
(1.0074572 -0.001413679 4.4961579e-22)
(1.0107349 -0.0036952508 -3.603332e-21)
(1.0160729 -0.0053969041 -1.8932698e-21)
(1.0207312 -0.0065552868 1.3084006e-22)
(1.0233916 -0.0078676441 -3.1768145e-22)
(1.0254001 -0.0089672724 6.404466e-22)
(1.0273697 -0.0095600666 -2.0524498e-21)
(1.0292301 -0.0096322475 1.8307134e-21)
(1.0308786 -0.0092174337 0)
(1.0322057 -0.0083850716 8.2949345e-22)
(1.0331411 -0.0072300257 1.713537e-21)
(1.0336322 -0.0058719806 -8.089892e-22)
(1.0336769 -0.004426075 1.5314167e-21)
(1.0332973 -0.0030170462 2.47713e-23)
(1.0325623 -0.0017328302 -5.0591252e-22)
(1.0315443 -0.00066163074 -6.4635616e-22)
(1.0303631 0.00016165522 -6.6189001e-24)
(1.0290881 0.00070622927 -3.9999639e-23)
(1.0278774 0.00096542171 4.363697e-22)
(1.026743 0.00099313756 -1.2748468e-22)
(1.0259106 0.00070104048 -3.5978336e-23)
(1.0252369 0.00034990737 3.5952908e-22)
(0.74589104 -0.00027400956 -2.1123794e-22)
(0.7670098 0.0006952849 -1.6307441e-21)
(0.78525584 0.0001018298 1.192803e-20)
(0.80604082 0.0012303127 6.5157556e-21)
(0.82734825 0.0023220328 -3.6700483e-22)
(0.84929571 0.0033976069 3.1189308e-22)
(0.87205356 0.003529423 2.7091353e-20)
(0.89455575 0.0032449695 -1.2749642e-20)
(0.91642463 0.0029967088 0)
(0.93677672 0.0028284979 -5.8329642e-21)
(0.95686684 0.0031041252 0)
(0.97520139 0.0036725799 0)
(0.99047457 0.0041667185 -1.2466096e-20)
(1.0014551 0.0040675724 1.4979024e-21)
(1.005953 0.0023213962 6.6490723e-21)
(1.0056895 -0.00063018081 8.8043393e-21)
(1.006538 -0.0037167936 -1.0459651e-20)
(1.0111574 -0.0059507504 -3.4601124e-21)
(1.0172995 -0.0073243928 -1.3431343e-21)
(1.021691 -0.0084450777 6.8404375e-23)
(1.0242318 -0.0097016198 -1.150311e-21)
(1.0264368 -0.010537029 1.1569016e-21)
(1.028561 -0.010817392 2.0896187e-22)
(1.0305023 -0.010568449 -8.4417865e-22)
(1.032148 -0.0098405063 -8.3013394e-23)
(1.0334142 -0.0087226779 4.0088276e-22)
(1.0342289 -0.0073261131 -9.0786312e-23)
(1.0345683 -0.0057752162 -9.609488e-22)
(1.0344364 -0.0041938144 -7.8737824e-23)
(1.0338799 -0.0026994302 -1.5548812e-21)
(1.0329745 -0.0013798528 -3.1579292e-22)
(1.0318074 -0.00030914692 -1.2206926e-22)
(1.0305006 0.00048549736 -6.9087083e-22)
(1.0291268 0.00098171147 1.641688e-22)
(1.0278417 0.0011864451 -9.1307513e-22)
(1.0266551 0.001148287 -1.9682979e-22)
(1.0257877 0.00079999733 -3.1635241e-22)
(1.0250975 0.00037592743 0)
(0.73589137 -0.0012491859 -1.1612096e-21)
(0.7539445 -0.00027469967 -1.7943409e-22)
(0.77003415 -0.00051210267 3.0011136e-21)
(0.78927435 0.00064755395 5.3034634e-21)
(0.80936718 0.0015378758 2.3393514e-20)
(0.83053337 0.0026479465 1.985194e-20)