/*--------------------------------*- C++ -*----------------------------------*\
| =========                 |                                                 |
| \\      /  F ield         | OpenFOAM: The Open Source CFD Toolbox           |
|  \\    /   O peration     | Version:  5.0                                   |
|   \\  /    A nd           | Web:      www.OpenFOAM.org                      |
|    \\/     M anipulation  |                                                 |
\*---------------------------------------------------------------------------*/
FoamFile
{
    version     2.0;
    format      ascii;
    class       volSymmTensorField;
    location    "360";
    object      UPrime2Mean;
}
// * * * * * * * * * * * * * * * * * * * * * * * * * * * * * * * * * * * * * //

dimensions      [0 2 -2 0 0 0 0];

internalField   nonuniform List<symmTensor> 
9200
(
(0.00041986456 1.596379e-05 -4.6662803e-26 1.3132933e-06 -3.5575855e-27 3.0480976e-47)
(0.00042963804 5.2194841e-05 1.4649642e-23 1.4834935e-05 1.8304252e-24 6.0726758e-43)
(0.00033451298 1.3644749e-05 0 1.2711032e-06 0 0)
(0.00044475609 8.3772817e-05 -7.9852629e-24 3.8345007e-05 -1.5843805e-24 1.7444725e-43)
(0.00034176137 4.4757115e-05 1.134293e-23 1.4606851e-05 1.6882372e-24 4.5245561e-43)
(0.00029550882 1.2598445e-05 0 1.2123531e-06 0 0)
(0.00046972412 0.00011793172 -7.9820079e-25 7.7092942e-05 -2.0922139e-25 1.6204414e-45)
(0.0003537727 7.1143697e-05 8.5112667e-26 3.7519552e-05 -7.3371424e-26 1.6336695e-45)
(0.00030235294 4.0948518e-05 0 1.3931823e-05 0 0)
(0.00025055058 1.0846473e-05 0 1.1355811e-06 0 0)
(0.00050233424 0.00015074432 1.8078133e-23 0.00012889887 6.3110965e-24 7.9780573e-43)
(0.00037363262 9.8565537e-05 1.1512668e-23 7.5130166e-05 4.4256156e-24 4.942535e-43)
(0.0003126762 6.4759379e-05 6.012607e-24 3.561453e-05 1.7440577e-24 1.448705e-43)
(0.00025625083 3.5326846e-05 3.1917573e-25 1.3205464e-05 6.5611756e-26 5.168094e-46)
(0.00021644919 9.5845767e-06 1.8804048e-27 1.0702935e-06 3.4390978e-28 2.6313758e-49)
(0.00054558326 0.00018510303 1.7565129e-23 0.00020079602 6.9362289e-24 6.7655656e-43)
(0.0004001789 0.00012338605 -3.5598349e-25 0.00012461262 2.521413e-25 5.0229146e-45)
(0.00032982299 8.911512e-05 2.0473604e-23 7.0958676e-05 8.3999761e-24 1.63601e-42)
(0.00026572934 5.5578947e-05 7.1148842e-24 3.3569875e-05 2.5916363e-24 2.7973208e-43)
(0.00022212257 3.1029847e-05 1.2041356e-25 1.2442754e-05 9.3149656e-26 1.965682e-45)
(0.0001864983 8.3012745e-06 -1.0558541e-23 1.0022419e-06 -8.1223024e-25 9.0246673e-43)
(0.0005996443 0.00021877195 2.2762621e-23 0.00029535142 1.2721895e-23 1.2114081e-42)
(0.00043619902 0.00014750154 1.7113355e-23 0.00019229504 7.6294318e-24 7.8946832e-43)
(0.00035280685 0.00011042731 -1.2553004e-23 0.00011680528 -6.243808e-24 5.7052961e-43)
(0.00028188798 7.5860147e-05 -7.5587393e-25 6.6595705e-05 -4.2914723e-25 3.6476317e-45)
(0.00023113973 4.8582467e-05 5.7616567e-24 3.1418748e-05 2.0806208e-24 2.0340886e-43)
(0.00019178999 2.6831579e-05 5.0391022e-24 1.1727726e-05 1.3684243e-24 2.0963168e-43)
(0.00016204649 7.2113005e-06 7.2256233e-25 9.4109483e-07 7.418835e-26 6.5927936e-45)
(0.00066743976 0.0002510147 1.7234556e-23 0.00042074755 1.5761568e-23 1.1188242e-42)
(0.00048390063 0.00016871666 1.5119399e-23 0.00027992688 9.8308792e-24 6.4953523e-43)
(0.0003842327 0.0001301732 1.5295054e-23 0.00017857793 1.0133776e-23 8.7645659e-43)
(0.00030408652 9.3018926e-05 4.4435308e-25 0.0001089038 1.111171e-24 2.335367e-44)
(0.00024645756 6.5927274e-05 -1.4510468e-23 6.2040136e-05 -7.8431898e-24 1.3302502e-42)
(0.00020043756 4.1930692e-05 -5.5241049e-24 2.9489651e-05 -2.4876448e-24 2.6154468e-43)
(0.00016727066 2.3243363e-05 -5.5091832e-24 1.1049734e-05 -1.4886871e-24 3.1130949e-43)
(0.00014124502 6.204772e-06 7.7203097e-24 8.8700849e-07 7.4281118e-25 8.3217566e-43)
(0.00075185502 0.00027965517 -3.3001026e-23 0.00058491849 -2.4485704e-23 2.1496423e-42)
(0.00054807943 0.00018644564 1.6176223e-23 0.00039490388 5.7562309e-24 5.5358285e-43)
(0.00042617394 0.0001461112 4.2879754e-25 0.0002569078 2.3528906e-24 3.8100182e-44)
(0.00033526083 0.00010835649 6.3202394e-24 0.00016540758 4.0862077e-24 1.6602815e-43)
(0.00026760233 8.0274741e-05 3.3345048e-25 0.00010078733 2.0883601e-24 9.8618802e-44)
(0.00021530256 5.6756229e-05 -1.9259937e-23 5.8099387e-05 -1.1132099e-23 2.8712255e-42)
(0.00017571742 3.6321932e-05 2.8463393e-24 2.7656617e-05 3.4253073e-25 1.7799743e-43)
(0.00014628286 1.9949677e-05 -8.2358369e-24 1.0483847e-05 -2.5723059e-24 9.3162122e-43)
(0.00012440803 5.317012e-06 -1.4258977e-23 8.3839628e-07 -1.5800265e-24 3.9004498e-42)
(0.0008553983 0.00029984654 2.80502e-23 0.00079673783 2.9772558e-23 1.8840482e-42)
(0.00063469345 0.00019832904 -8.7987371e-24 0.00054402499 8.9484087e-24 5.6822769e-43)
(0.00048295921 0.00015766658 -5.3298441e-25 0.00035734254 -1.4409074e-24 7.5407541e-45)
(0.00037779987 0.0001201253 3.1136706e-25 0.00023642758 -6.8431849e-24 3.813469e-43)
(0.00029747449 9.2787331e-05 -1.978133e-24 0.00015208982 -2.0244044e-24 3.1864454e-44)
(0.00023607874 6.8986326e-05 -1.5162013e-25 9.3936431e-05 2.8579549e-24 2.2980807e-43)
(0.00019016357 4.9142731e-05 5.9086724e-24 5.4379845e-05 3.8419615e-24 3.5007498e-43)
(0.00015446766 3.1221768e-05 8.8470832e-24 2.6155972e-05 4.5756855e-24 1.0564785e-42)
(0.00012930946 1.7036184e-05 4.1296878e-24 9.978222e-06 1.6667289e-24 3.3294303e-43)
(0.00011031529 4.4898838e-06 8.872339e-25 7.9664047e-07 1.270228e-25 2.2968004e-44)
(0.0009804269 0.00030700063 -1.4181921e-23 0.0010667277 -1.3856567e-23 3.598899e-43)
(0.00075097541 0.00020023497 -2.7104685e-24 0.00073673589 1.9054645e-23 7.2132017e-43)
(0.00056049011 0.00016302549 1.3881039e-23 0.00048475816 5.2888962e-24 3.9810488e-43)
(0.00043650813 0.00012809034 -1.0024687e-23 0.00032708239 -1.0690424e-23 4.6368614e-43)
(0.0003385044 0.00010201082 1.1736567e-23 0.00021583414 1.7875611e-24 6.7524982e-43)
(0.00026559968 7.9683398e-05 -2.092153e-23 0.00014112999 -1.3562846e-23 2.564435e-42)
(0.00021032958 5.9794916e-05 -1.9853116e-25 8.7590326e-05 7.5923759e-25 2.0976465e-44)
(0.00016843884 4.2284149e-05 1.4739749e-23 5.1423555e-05 9.3527281e-24 2.6681784e-42)
(0.00013722102 2.6746843e-05 -6.2229078e-24 2.482422e-05 -3.446188e-24 6.9815547e-43)
(0.00011504792 1.4297938e-05 1.086988e-23 9.5717411e-06 4.9325982e-24 3.2317122e-42)
(9.9184199e-05 3.7458986e-06 -1.4679506e-24 7.5805315e-07 -2.2146209e-25 9.0259346e-44)
(0.0011335184 0.00031938635 4.6858834e-24 0.0014195906 -2.618498e-24 6.8167316e-44)
(0.00090178483 0.00018654645 1.4549878e-23 0.00098578203 -4.1061116e-23 2.7799759e-42)
(0.00066653005 0.00015997648 -1.1142022e-23 0.00064810524 -1.9087966e-23 6.7955969e-43)
(0.0005178916 0.00013099076 0 0.00044196971 0 0)
(0.00039527026 0.00010791878 1.5363609e-26 0.00029663102 6.6945152e-25 2.0937148e-45)
(0.00030625594 8.7817667e-05 1.8445518e-24 0.00019937585 -5.5532435e-24 3.5167507e-43)
(0.00023886603 6.925476e-05 -3.8853304e-24 0.0001312137 -2.7108449e-24 1.0981857e-43)
(0.00018794962 5.1658668e-05 -7.7928558e-24 8.2657186e-05 -5.698289e-24 6.6678e-43)
(0.0001506509 3.6298341e-05 4.4479945e-25 4.8822125e-05 -1.2664986e-24 1.5059545e-43)
(0.00012263692 2.2536499e-05 -6.6441172e-24 2.37656e-05 -4.4635797e-24 1.1478905e-42)
(0.00010376143 1.1803434e-05 -3.7034689e-24 9.202924e-06 -1.9872065e-24 5.6556617e-43)
(9.0238487e-05 3.0436103e-06 6.3461204e-25 7.2331413e-07 1.3192296e-25 2.8803508e-44)
(0.0012913725 0.00033931487 2.8724345e-24 0.0018660402 9.4617237e-25 9.8920734e-45)
(0.0010943832 0.0001608234 -2.4662606e-23 0.0013134995 1.6103442e-23 1.1114736e-42)
(0.0008071703 0.00014289501 0 0.00085780158 0 0)
(0.00063105313 0.00012759376 0 0.00058928822 0 0)
(0.00047370157 0.0001096728 -7.2845356e-24 0.00039865664 -4.9781025e-25 1.5407565e-43)
(0.000362418 9.3646624e-05 1.0546219e-23 0.00027298114 -7.0584643e-24 1.0968888e-42)
(0.0002779547 7.6759196e-05 -1.1217427e-23 0.00018480069 -2.6083744e-24 8.2015637e-43)
(0.00021554329 6.0225924e-05 9.1102108e-24 0.00012360849 8.2231054e-24 8.2877422e-43)
(0.00016930242 4.4592448e-05 5.7139396e-25 7.8378884e-05 7.2451849e-25 7.2715535e-45)
(0.00013546989 3.0619735e-05 -5.4574012e-27 4.6806618e-05 1.2491948e-26 1.7958101e-47)
(0.00011101559 1.869947e-05 6.7962763e-24 2.2815523e-05 5.238814e-24 1.7977997e-42)
(9.4669821e-05 9.4041144e-06 -5.9061196e-24 8.8903018e-06 -3.7819792e-24 2.4169468e-42)
(8.3523926e-05 2.4084328e-06 8.2998937e-24 6.8947914e-07 2.1579311e-24 8.9279865e-42)
(0.00134329 0.00027485438 -4.6949744e-23 0.0023429738 -6.2113148e-24 2.9187046e-42)
(0.0013326214 0.00014370601 6.2305333e-24 0.0017518748 -1.8646624e-24 4.3295557e-44)
(0.00098479716 0.0001085827 -3.4829817e-23 0.0011297623 5.9710586e-24 1.6736287e-42)
(0.00078397207 0.00011380828 2.3382446e-23 0.00077983093 -5.0138678e-24 9.9914629e-43)
(0.00058252861 0.00010689163 -1.3803334e-23 0.00052988946 2.5287512e-24 4.8765097e-43)
(0.00043965749 9.6678021e-05 4.6550757e-24 0.00036595496 -3.7207713e-24 1.5750287e-43)
(0.00033172813 8.2607392e-05 3.1688618e-24 0.00025241291 3.1927543e-24 6.082328e-44)
(0.000253166 6.7508574e-05 -2.0568797e-25 0.00017375138 2.1843874e-25 1.2456287e-45)
(0.00019549751 5.2360439e-05 6.6959975e-24 0.0001171408 9.4905515e-24 8.5326459e-43)
(0.00015319341 3.7830666e-05 4.8424129e-24 7.5142945e-05 7.2171248e-24 7.4256497e-43)
(0.00012322192 2.5408219e-05 1.8649494e-24 4.5015504e-05 1.9990049e-24 1.2355576e-43)
(0.00010159414 1.4979318e-05 3.8875787e-24 2.2020655e-05 4.1641178e-24 9.9663322e-43)
(8.7842212e-05 7.1917398e-06 1.9253275e-24 8.5837426e-06 1.836902e-24 4.84e-43)
(7.8574011e-05 1.8138115e-06 -1.5208845e-24 6.5664122e-07 -5.9573117e-25 7.1280554e-43)
(0.001250291 6.3506959e-05 4.0865133e-23 0.0027886181 -1.4022529e-22 1.1447629e-41)
(0.0015518608 0.00011403777 2.6467668e-22 0.0023130934 -7.1526036e-23 6.3635371e-41)
(0.0012080287 7.1100748e-05 5.4906433e-24 0.0014871662 -1.97734e-23 3.3450424e-43)
(0.00097879567 8.3199881e-05 -4.4493245e-24 0.0010285867 2.8355347e-24 3.6599926e-44)
(0.0007318029 9.750481e-05 2.1432318e-24 0.00070124436 -1.8174895e-24 1.5186347e-44)
(0.00054626969 9.6804758e-05 -9.3624258e-24 0.0004859237 6.5813879e-24 3.8324908e-43)
(0.00040523038 8.6561593e-05 3.5618133e-24 0.00033780095 3.7431152e-24 6.4090866e-44)
(0.00030447956 7.3854121e-05 -3.5876764e-24 0.0002369444 -4.1383387e-24 1.0055426e-43)
(0.00023094306 5.931566e-05 1.266301e-24 0.00016451006 -1.0978262e-24 4.4789958e-44)
(0.00017799179 4.4771288e-05 -3.9468153e-25 0.00011232554 -1.0288793e-24 1.0032367e-44)
(0.00013994423 3.1559212e-05 -1.21386e-25 7.2314631e-05 -1.5038776e-25 4.5060043e-46)
(0.00011320015 2.0270408e-05 8.1204393e-26 4.3552312e-05 -6.1310207e-25 2.8406951e-44)
(9.4468894e-05 1.153235e-05 -4.1191816e-24 2.1249694e-05 -5.6467735e-24 2.0416842e-42)
(8.2822931e-05 5.0694897e-06 1.3668927e-24 8.2908886e-06 1.8686372e-24 5.740103e-43)
(7.5292166e-05 1.2826379e-06 -6.2448721e-25 6.2318505e-07 -4.5701308e-25 4.5754141e-43)
(0.0011336881 -0.0002404646 5.6220358e-23 0.003178325 4.3686996e-23 1.0599189e-41)
(0.0016019478 -1.1486001e-05 -1.7810321e-22 0.0029209025 -1.4317768e-23 2.7207524e-41)
(0.0014682573 5.5447231e-05 8.8069612e-23 0.0019738749 -1.9732741e-23 6.8846012e-42)
(0.0012145343 4.0305864e-05 -6.2253597e-23 0.0013568926 3.1608123e-24 3.9372469e-42)
(0.00092574147 7.4386261e-05 3.6092437e-23 0.00092755341 -2.1485199e-24 1.7369164e-42)
(0.00069274762 9.301572e-05 -3.069399e-23 0.00064386322 -1.286611e-23 1.7520327e-42)
(0.00050599141 8.8563823e-05 2.8567416e-23 0.00044821531 -1.6314195e-24 2.2179355e-42)
(0.00037410109 7.9138692e-05 -1.1014371e-24 0.00031665428 6.7134238e-25 8.7223794e-45)
(0.00027909475 6.583655e-05 -2.8975456e-24 0.00022408894 -2.5501147e-24 6.1112705e-44)
(0.00021132516 5.1358488e-05 3.2948726e-24 0.00015769543 -2.457403e-24 3.2033956e-43)
(0.00016317951 3.7583475e-05 -1.4890195e-23 0.00010819462 -1.9909131e-23 5.4856905e-42)
(0.0001289667 2.5245551e-05 4.0983536e-24 7.0070385e-05 4.4061365e-24 7.4991488e-43)
(0.00010553096 1.5451723e-05 1.4578727e-24 4.2135738e-05 2.5611654e-24 2.2223127e-43)
(8.9213319e-05 8.189411e-06 2.9368338e-25 2.0522235e-05 8.1611935e-25 3.5036937e-44)
(7.9520507e-05 3.1312324e-06 -4.2296551e-26 7.9801652e-06 6.6826592e-26 4.7344246e-45)
(7.3369846e-05 8.0106769e-07 5.2059577e-26 5.8910358e-07 5.04567e-25 5.8936711e-43)
(0.0011188963 -0.00056546082 0 0.0035069118 0 0)
(0.0015665247 -0.00023708065 -2.5501143e-22 0.0035338419 4.5324249e-23 6.171047e-41)
(0.0016059161 8.4559043e-07 -2.7571511e-24 0.0025632793 6.2568742e-23 1.7954087e-42)
(0.0014872017 1.6836959e-05 0 0.0018083739 0 0)
(0.0011585316 3.2293308e-05 0 0.0012298836 0 0)
(0.00088658336 7.9175817e-05 0 0.00085530205 0 0)
(0.00064470909 8.8503659e-05 -3.815351e-24 0.00059432423 2.6686901e-24 4.6435178e-44)
(0.00046886345 8.3293907e-05 1.0831404e-23 0.00041965788 9.6458235e-24 4.5129792e-43)
(0.00034411443 7.1887926e-05 -1.2902152e-23 0.00029906918 6.7154714e-24 1.2652428e-42)
(0.00025621822 5.7915661e-05 6.911925e-24 0.00021466347 7.9896285e-24 4.9301235e-43)
(0.00019415987 4.3521395e-05 -1.0206993e-24 0.00015196256 7.051358e-25 3.562559e-44)
(0.00015073567 3.0158952e-05 2.499687e-24 0.00010500526 4.4883527e-24 2.579204e-43)
(0.00012040758 1.9222265e-05 -3.0803627e-25 6.7923521e-05 -1.9109168e-25 8.0910589e-45)
(9.9845807e-05 1.0691407e-05 -1.0666555e-24 4.0813685e-05 -2.9956745e-24 2.9295866e-43)
(8.5741961e-05 5.1217316e-06 -5.0384622e-26 1.9753746e-05 -5.3854585e-25 1.5560488e-44)
(7.7642292e-05 1.3253973e-06 -3.3263001e-27 7.6548141e-06 -9.3046215e-25 1.5001826e-43)
(7.2646884e-05 3.8409178e-07 0 5.5391765e-07 0 0)
(0.0013341588 -0.00083977544 4.2112792e-23 0.0038009788 -8.6188209e-23 1.835874e-41)
(0.0015214215 -0.00052889215 3.3603713e-22 0.0041279883 2.2922149e-23 1.3943133e-40)
(0.0016134902 -0.00015386024 -4.7928653e-22 0.0031893341 4.6948868e-23 1.9557818e-40)
(0.0016856113 -5.2425355e-06 -2.1844429e-22 0.0024022287 4.9676171e-23 3.5846683e-41)
(0.0014317828 -2.5233817e-06 -1.427014e-22 0.0016480138 1.4443982e-23 1.6954371e-41)
(0.0011207009 4.2350155e-05 0 0.0011397725 0 0)
(0.00083221408 8.234787e-05 -5.8071242e-23 0.00079198972 1.4005154e-23 5.1963125e-42)
(0.00059900861 8.6369513e-05 1.1432879e-23 0.00055592179 -6.2161331e-24 3.9371444e-43)
(0.00043215443 7.7373806e-05 3.31585e-23 0.00039574351 6.4595762e-24 3.5068299e-42)
(0.00031644592 6.4468643e-05 -1.4531892e-23 0.00028609318 6.5657938e-24 1.8032766e-42)
(0.00023568439 4.9716579e-05 -3.4416227e-24 0.00020680764 -4.9490613e-24 1.7612383e-43)
(0.00017954902 3.5217963e-05 -1.0685654e-24 0.00014762969 7.5230996e-25 4.8783738e-44)
(0.00014079061 2.2912179e-05 4.9952087e-24 0.00010199726 8.9788878e-24 1.4304793e-42)
(0.00011398827 1.3137616e-05 -3.8141233e-24 6.5960144e-05 -1.2570471e-23 3.1308377e-42)
(9.6063755e-05 6.2711477e-06 -9.365847e-26 3.9401408e-05 -2.3538742e-24 1.4896869e-43)
(8.3796741e-05 2.230492e-06 -3.8508677e-26 1.8953208e-05 -1.0219574e-23 7.5156037e-42)
(7.7018732e-05 -2.7793426e-07 8.7464412e-25 7.3014662e-06 -2.4894636e-24 1.0880574e-42)
(7.2876857e-05 2.6698013e-08 1.4365582e-24 5.1779595e-07 -6.0989835e-25 1.0128682e-42)
(0.0019069542 -0.00098558305 -8.6024533e-25 0.0040704526 1.9344236e-24 1.304881e-43)
(0.0015869706 -0.00085230736 1.6918735e-22 0.004685632 -6.0671697e-23 4.4542567e-41)
(0.0015801527 -0.00037684281 5.2662555e-23 0.0038466793 5.4780693e-23 4.3076468e-42)
(0.0017425013 -0.0001156158 -2.5823014e-22 0.0030629353 -1.2687196e-24 4.9907347e-41)
(0.001667309 -1.6945677e-05 2.6399041e-23 0.0022263777 -3.0151015e-24 5.0683785e-43)
(0.0013906005 -6.9092637e-06 -1.5835952e-23 0.0015314536 -4.7769906e-23 2.0329866e-42)
(0.0010653459 5.4746049e-05 1.1478228e-22 0.0010601517 -6.5205278e-23 1.9226241e-41)
(0.00077781012 8.6344981e-05 1.0517884e-22 0.00074111681 -2.2645952e-23 1.8065978e-41)
(0.00055272692 8.2408353e-05 2.2226224e-23 0.00052333282 -5.3336722e-24 1.3024065e-42)
(0.00039765939 7.0990096e-05 -7.8449832e-24 0.00037776622 -1.310957e-23 5.8114136e-43)
(0.00029113737 5.6251926e-05 2.9221756e-24 0.00027531343 -1.1897561e-24 8.6629874e-44)
(0.00021785559 4.071129e-05 -7.8683096e-24 0.00020097308 -1.1920507e-23 1.1790586e-42)
(0.00016751931 2.6828713e-05 3.9100176e-24 0.00014363215 3.6487091e-24 4.986082e-43)
(0.00013321297 1.5400467e-05 -1.632667e-25 9.9308975e-05 7.7319106e-25 1.2567109e-44)
(0.00010963307 7.3940873e-06 -1.3469097e-25 6.3851861e-05 1.1105329e-24 2.7590936e-44)
(9.3983658e-05 2.0283803e-06 1.961186e-26 3.7923306e-05 2.3258868e-24 1.9641908e-43)
(8.3187761e-05 -3.4451952e-07 7.7037931e-25 1.8082435e-05 -3.4145465e-24 8.8543684e-43)
(7.7409066e-05 -1.6961767e-06 -3.7800373e-26 6.9231317e-06 8.2964975e-26 3.4268103e-45)
(7.3890579e-05 -2.6487714e-07 1.9624667e-24 4.8097081e-07 -5.5028134e-25 9.2714497e-43)
(0.002868071 -0.0010235942 -2.0862804e-23 0.0043737354 2.2142171e-23 5.4818489e-42)
(0.0019714956 -0.0010971279 -1.6791465e-22 0.0052387804 4.2485814e-23 5.2759406e-41)
(0.0016047407 -0.00064862743 7.9489127e-22 0.0045038131 3.991272e-23 8.4654896e-40)
(0.0017413313 -0.0002957037 1.3733754e-22 0.0037779711 -5.4064118e-23 1.5744169e-41)
(0.0017776635 -9.0741998e-05 -7.3586799e-23 0.0029149512 -5.3786703e-23 5.2673554e-42)
(0.0016495 -3.4488479e-05 -7.2627554e-24 0.0020897573 -3.475212e-23 7.4273655e-43)
(0.0013322782 -3.2207143e-06 -2.8416571e-23 0.0014274068 4.8336434e-24 7.0801617e-43)
(0.0010089202 6.9850544e-05 -4.2428306e-23 0.00099498357 -2.4810483e-23 2.5967193e-42)
(0.00071979476 8.6331436e-05 1.4324919e-23 0.00069659903 -2.8358424e-24 3.6717363e-43)
(0.0005085452 7.7480872e-05 5.2075208e-23 0.00049804086 3.2197968e-24 7.1484747e-42)
(0.00036568207 6.3144931e-05 -1.7406212e-23 0.0003627825 -2.0603688e-23 2.0884659e-42)
(0.00026869008 4.6778059e-05 -3.4444889e-25 0.00026734524 3.8455781e-24 7.3117772e-44)
(0.00020283079 3.1230887e-05 1.9760533e-24 0.00019571073 6.0421574e-24 2.1681834e-43)
(0.00015817061 1.7892394e-05 -6.1044266e-26 0.00014015993 -4.4389278e-25 1.4960062e-45)
(0.00012792597 8.1642665e-06 -3.4812667e-25 9.6410747e-05 6.1147608e-25 2.1756333e-44)
(0.00010721921 1.7656011e-06 3.0666825e-25 6.1645524e-05 1.0156073e-23 2.4001826e-42)
(9.3375194e-05 -1.7840214e-06 1.2483396e-25 3.6289545e-05 -1.8566427e-24 2.1645395e-43)
(8.3701724e-05 -2.6457732e-06 -2.601069e-24 1.7150015e-05 5.6106208e-24 2.4395688e-42)
(7.8634725e-05 -2.8926852e-06 -9.186265e-25 6.5189987e-06 8.9450452e-25 1.5940739e-43)
(7.5484072e-05 -4.9295056e-07 -2.6640525e-24 4.4370451e-07 5.4962081e-25 1.0252412e-42)
(0.0039566564 -0.0010377771 1.2845391e-24 0.0046949113 4.4058127e-23 7.5991806e-43)
(0.0028426694 -0.0012205322 -3.2306733e-22 0.0058558107 1.4164587e-22 1.2888025e-40)
(0.0018849289 -0.00089704785 -1.0160987e-22 0.0051661787 2.5738747e-22 2.1692865e-41)
(0.0017477812 -0.0005367506 -2.2375517e-22 0.0045332656 -8.5445072e-24 5.142118e-41)
(0.001819226 -0.00023914039 4.6902881e-23 0.0036809617 -1.1175036e-22 5.2996078e-42)
(0.0018055225 -9.3867596e-05 1.4773789e-22 0.0027972687 1.0884286e-23 1.5210231e-41)
(0.0016120115 -5.4865364e-05 -3.113075e-22 0.001956491 3.3210931e-23 7.044599e-41)
(0.0012779716 1.2502355e-05 -3.77125e-22 0.0013399578 5.9035946e-23 1.2852546e-40)
(0.00094410525 8.0070163e-05 1.9199296e-23 0.00093648301 4.5115049e-23 2.8574325e-42)
(0.00066265849 8.3864808e-05 0 0.00066050419 0 0)
(0.00046714653 7.0360991e-05 1.513279e-23 0.00047681705 1.7392731e-23 1.1550559e-42)
(0.00033678748 5.349645e-05 -1.1529745e-23 0.00035159309 3.4498338e-24 9.9317113e-43)
(0.00024941583 3.6324594e-05 -1.0809568e-23 0.00026031894 -1.3009902e-23 1.7184856e-42)
(0.00019085762 2.0845761e-05 6.2433955e-24 0.00019127753 6.3168184e-24 1.2160874e-42)
(0.00015140557 9.0645511e-06 -7.6110975e-25 0.00013643042 -5.7602918e-24 2.9218636e-43)
(0.00012490743 9.1205094e-07 4.6204865e-25 9.3381687e-05 1.024852e-23 1.5812101e-42)
(0.00010647718 -3.3607238e-06 -4.2642758e-25 5.916968e-05 9.0007288e-25 3.9224315e-44)
(9.4089604e-05 -5.2538865e-06 8.525598e-25 3.4519897e-05 -2.7235154e-24 3.4176074e-43)
(8.5134313e-05 -4.5908269e-06 -2.2284033e-24 1.6151344e-05 3.3031289e-24 9.744822e-43)
(8.0484226e-05 -3.8706735e-06 -2.5621012e-25 6.0942056e-06 1.7578129e-25 5.6987793e-45)
(7.7496943e-05 -6.5703942e-07 -3.0064771e-24 4.0653512e-07 4.9002018e-25 9.2978406e-43)
(0.0050225575 -0.0010839186 1.9032638e-22 0.0050213421 1.0792032e-22 2.5516627e-41)
(0.004020362 -0.0013311653 -4.1806093e-22 0.0065727057 1.1228077e-22 9.9628011e-41)
(0.002649831 -0.0010694571 -3.5665741e-22 0.0058895183 -4.9059224e-23 1.647235e-40)
(0.0019394859 -0.00076508637 3.4978242e-22 0.0053238732 1.656455e-22 1.762114e-40)
(0.001854362 -0.00045447721 3.112997e-22 0.0045240322 -1.1495414e-23 8.6658183e-41)
(0.0018926883 -0.00022499418 -2.1907748e-23 0.0036073579 -7.7630926e-23 2.5018794e-42)
(0.001814309 -0.00011389816 0 0.0026667238 0 0)
(0.0015762108 -6.5120725e-05 -6.6762967e-24 0.0018340494 -1.0266816e-22 7.020678e-42)
(0.0012157572 3.4173288e-05 8.6625081e-23 0.0012627881 -4.1287836e-23 8.7654336e-42)
(0.00087580388 8.5458664e-05 1.0931134e-22 0.00088628201 2.8767478e-23 1.5712019e-41)
(0.00060802805 7.789827e-05 -1.8447684e-24 0.00062974968 1.4410564e-23 4.3216679e-43)
(0.00042926304 6.0852799e-05 -9.7745075e-24 0.00046058099 6.6780938e-25 3.976458e-43)
(0.00031154874 4.2245765e-05 1.765852e-24 0.00034191562 -5.4365625e-25 3.0012199e-44)
(0.00023361845 2.4487754e-05 2.1426049e-24 0.0002545697 6.3373634e-24 2.1056082e-43)
(0.00018187037 1.0267945e-05 -2.8211731e-24 0.00018658454 -6.6023838e-24 5.6177866e-43)
(0.00014733479 6.3269745e-09 9.8346162e-25 0.00013256104 5.7657339e-24 4.9445013e-43)
(0.0001238463 -5.8071033e-06 1.3545787e-25 8.9926982e-05 -1.3464859e-24 2.6980429e-44)
(0.00010733843 -8.1222434e-06 -1.848069e-24 5.6458695e-05 6.6519184e-24 1.0838527e-42)
(9.5849463e-05 -8.2073148e-06 -6.6146675e-25 3.2598681e-05 1.0295388e-24 3.8486799e-44)
(8.7274252e-05 -6.1913903e-06 -1.3345312e-25 1.5099487e-05 1.2403185e-25 1.3066414e-45)
(8.2788628e-05 -4.6193701e-06 -1.8122785e-24 5.6544543e-06 1.0818622e-24 2.9933923e-43)
(7.9769269e-05 -7.60179e-07 0 3.6999429e-07 0 0)
(0.0060262487 -0.0011596978 1.1049774e-22 0.005390903 1.2487019e-22 1.001726e-41)
(0.0050899873 -0.0015738265 3.1997576e-22 0.0073598002 -4.8618516e-23 3.9792222e-41)
(0.0038739641 -0.0011860764 1.0499066e-23 0.0067654522 -5.763215e-23 5.9939289e-43)
(0.0025819171 -0.00091590331 4.1350851e-22 0.0061932258 -1.7501242e-23 1.8606107e-40)
(0.0020303697 -0.00068368314 2.3524185e-22 0.0054374099 -1.4412544e-22 5.541183e-41)
(0.0019697093 -0.00042794279 -1.57824e-22 0.0045227375 -2.522605e-23 2.070673e-41)
(0.001947484 -0.00023499061 4.409777e-24 0.003513489 2.2400092e-22 1.715693e-41)
(0.001822067 -0.00014181336 -3.7366765e-22 0.0025298165 -2.966902e-23 9.4352396e-41)
(0.0015230514 -6.1689675e-05 -6.6434153e-23 0.0017195751 -2.9384548e-23 3.9974412e-42)
(0.0011485049 5.7269985e-05 -1.6133157e-23 0.0011975707 3.0959491e-24 2.700737e-43)
(0.00080639732 8.407144e-05 2.3266061e-24 0.00084147256 -8.5902621e-25 1.0050955e-44)
(0.00055740789 6.878593e-05 3.3449144e-23 0.00060552094 -6.4137877e-24 3.2214387e-42)
(0.0003957216 4.9030632e-05 -1.5668214e-24 0.00044672681 -2.3217117e-24 2.0820487e-44)
(0.00029034493 2.9026798e-05 -7.1283115e-24 0.0003341457 1.46071e-23 1.6207367e-42)
(0.0002213763 1.2044024e-05 2.9704747e-24 0.00024864062 1.5986403e-23 1.2645381e-42)
(0.00017610272 -8.3520979e-07 1.4789491e-24 0.00018178667 1.2905614e-23 1.3122085e-42)
(0.0001456124 -8.5624285e-06 4.2187757e-25 0.00012808235 -1.3293199e-24 2.0228601e-44)
(0.00012476699 -1.2179986e-05 3.210212e-24 8.6101475e-05 -1.4308988e-23 3.3147099e-42)
(0.00010942452 -1.2217459e-05 1.3531723e-25 5.3472134e-05 -4.340808e-25 9.3327164e-45)
(9.8478161e-05 -1.0680021e-05 -1.9284182e-24 3.0552124e-05 2.8084579e-24 3.6335574e-43)
(8.9934746e-05 -7.4162217e-06 0 1.4008102e-05 0 0)
(8.5375646e-05 -5.1443358e-06 4.5909883e-24 5.2069512e-06 -2.2805249e-24 1.4951036e-42)
(8.2166747e-05 -8.0570954e-07 8.6379483e-26 3.3469539e-07 -8.1928926e-27 2.7927063e-46)
(0.0068294095 -0.0012443376 -5.9890669e-22 0.0057852944 -1.8066029e-22 1.3953441e-40)
(0.0060447876 -0.0019597194 1.0826091e-21 0.0082226674 1.8124573e-22 4.0539377e-40)
(0.0049695148 -0.0013960794 -7.6179406e-22 0.0077785438 -1.7554801e-22 2.3952895e-40)
(0.0037848659 -0.00099770191 -2.0188321e-22 0.007240139 -2.1666073e-22 3.7941938e-41)
(0.002611666 -0.00084309414 3.8570545e-22 0.0064572536 1.8006455e-22 1.7068783e-40)
(0.0021511867 -0.00066553206 0 0.0055440372 0 0)
(0.0020837532 -0.00042712983 -4.6318138e-24 0.0044888898 7.0555458e-23 1.305595e-42)
(0.002004586 -0.00026146579 -1.3018956e-22 0.0034031516 -1.3023845e-22 1.8847192e-41)
(0.0018190657 -0.0001684526 -2.6079781e-22 0.0023834053 1.1739109e-23 4.4834028e-41)
(0.0014661974 -3.832927e-05 -2.6031592e-22 0.0016208066 7.7975974e-23 5.6635142e-41)
(0.0010739823 7.2486072e-05 5.8930505e-23 0.00113825 3.326454e-23 4.4093415e-42)
(0.00073930587 7.7041797e-05 3.9378443e-23 0.00080446529 7.1795952e-24 2.6053246e-42)
(0.00051213549 5.6620832e-05 -2.6644948e-23 0.00058498175 -1.0040567e-23 2.218393e-42)
(0.00036692762 3.4590743e-05 1.1065541e-23 0.00043566854 1.7138117e-23 1.293484e-42)
(0.00027342829 1.4652648e-05 -1.0389216e-23 0.0003264352 -2.2160975e-23 2.925827e-42)
(0.00021298354 -1.3171354e-06 -3.4209208e-24 0.00024273558 -3.0997017e-23 5.1301234e-42)
(0.00017320884 -1.1589684e-05 2.3209598e-24 0.00017618595 3.0381983e-24 7.0824033e-43)
(0.00014636234 -1.6864405e-05 1.1730396e-24 0.00012307542 -6.6934904e-24 5.1310806e-43)
(0.000127187 -1.7744116e-05 -5.3820747e-24 8.1817473e-05 1.6070256e-23 4.8724276e-42)
(0.00011264597 -1.5722157e-05 1.6022886e-24 5.0248607e-05 -3.3053012e-24 4.9932051e-43)
(0.00010173124 -1.2588558e-05 4.8952857e-24 2.8406306e-05 -5.7539172e-24 1.7458082e-42)
(9.2926278e-05 -8.2746245e-06 -4.6598419e-24 1.289533e-05 3.4538894e-24 1.4929314e-42)
(8.8101347e-05 -5.4515848e-06 3.1768396e-24 4.7594639e-06 -1.3705344e-24 6.6490785e-43)
(8.4572434e-05 -7.9718018e-07 7.7301807e-26 3.0102061e-07 -6.0571605e-27 1.8283459e-46)
(0.0074929848 -0.0013481217 -1.5370775e-22 0.0061847004 -2.654737e-22 2.6358474e-41)
(0.0069928735 -0.0022835441 1.0874702e-21 0.0091375432 5.982233e-23 3.3870891e-40)
(0.0058560909 -0.0017011531 1.8509443e-22 0.0089023247 -3.5893195e-22 2.4118519e-41)
(0.0049967878 -0.0011366088 1.7391376e-21 0.0084901015 3.5810227e-22 1.1465021e-39)
(0.0037982642 -0.00092468129 -2.8665824e-22 0.0076893048 -2.7285262e-22 6.9549893e-41)
(0.0026868797 -0.00084179716 4.6465346e-22 0.00669898 2.1671748e-22 2.2039171e-40)
(0.0023039763 -0.00067010831 -1.1486053e-23 0.0056074454 8.7561907e-23 1.5919201e-42)
(0.0022041798 -0.00044755184 5.3434994e-22 0.0044314146 9.5475224e-23 2.0385234e-40)
(0.0020611743 -0.00029541219 -5.5272366e-23 0.0032678704 -1.2052748e-22 8.0114922e-42)
(0.0018118347 -0.0001785396 -1.3091266e-22 0.0022390367 -1.3702397e-23 1.1558773e-41)
(0.0014010228 -4.3924033e-06 3.1580081e-23 0.0015381042 6.1323941e-23 3.6806282e-42)
(0.00099478206 7.7418479e-05 -1.1600568e-22 0.001085526 1.8473819e-24 1.6090703e-41)
(0.00067749693 6.4986683e-05 1.7116558e-23 0.00077292191 1.7818142e-23 9.2059131e-43)
(0.00047266054 4.1108371e-05 2.4671649e-24 0.00056846594 -4.4085308e-25 2.6970372e-44)
(0.00034334252 1.8277414e-05 -2.3986602e-24 0.00042514718 -2.1946791e-23 1.3149698e-42)
(0.00026110859 -1.1431942e-06 -1.3913206e-24 0.0003190073 -2.6688153e-24 6.6884314e-44)
(0.00020815297 -1.4592514e-05 6.4572006e-25 0.00023586778 7.6629334e-25 2.907566e-44)
(0.00017340604 -2.2225257e-05 1.5710997e-24 0.00016989047 -1.2658113e-23 1.3466271e-42)
(0.00014901265 -2.4254123e-05 0 0.00011736788 0 0)
(0.00013111663 -2.2613621e-05 8.6264232e-25 7.7127254e-05 -1.6205501e-24 4.136751e-44)
(0.00011662624 -1.8456343e-05 2.718516e-25 4.6831484e-05 -3.5896281e-25 3.4759797e-45)
(0.00010540925 -1.3951686e-05 -5.3633102e-25 2.6197184e-05 5.0014511e-25 1.2652584e-44)
(9.60874e-05 -8.7702963e-06 -3.1855457e-26 1.1781081e-05 -1.6999423e-26 3.9910882e-45)
(9.0837708e-05 -5.5544498e-06 -5.1317408e-24 4.3195276e-06 1.8930895e-24 1.3658373e-42)
(8.6891229e-05 -7.3895982e-07 -2.475069e-24 2.6975785e-07 2.0821742e-25 3.3931541e-43)
(0.0080814281 -0.0014668694 5.0248295e-22 0.0065716473 2.342735e-22 1.0340346e-40)
(0.0078462117 -0.0025946122 -6.7317707e-22 0.010088468 2.6157152e-23 1.1929957e-40)
(0.0066694682 -0.0020357565 -3.5230608e-22 0.010124926 2.119132e-23 3.5157425e-41)
(0.005933097 -0.0014233829 -2.4617122e-22 0.0098900751 -4.6761852e-23 1.8981772e-41)
(0.0051619743 -0.0010517961 -1.4213819e-21 0.0091911695 -3.6842069e-22 7.573319e-40)
(0.0038444766 -0.00092657199 -1.1424229e-22 0.0080986132 2.008653e-22 1.0745862e-41)
(0.0028301822 -0.00086342965 -1.9494658e-23 0.006891106 1.1663849e-22 2.2857337e-42)
(0.0024809729 -0.00069534798 -3.2927501e-23 0.0056383425 -1.45108e-23 9.0784253e-43)
(0.0023202746 -0.00048299041 -4.1049048e-22 0.0043411226 -6.8020465e-23 1.1317323e-40)
(0.002120586 -0.00032863307 -2.6718428e-23 0.0031121796 1.3054348e-22 6.5632268e-42)
(0.0017865813 -0.00016352767 -1.4064601e-22 0.0021052405 -4.1395372e-23 1.4531581e-41)
(0.0013258748 2.948932e-05 2.3417915e-23 0.0014711157 -3.1734139e-24 4.9208167e-43)
(0.00091554441 7.1429874e-05 5.0175101e-23 0.0010375339 -9.2264635e-25 3.4878835e-42)
(0.0006225901 4.8473671e-05 -2.3901874e-24 0.00074727229 -9.2500378e-24 1.4317205e-43)
(0.00043958548 2.2943573e-05 7.9565447e-24 0.00055334165 -1.7925705e-24 3.6145541e-43)
(0.000325275 -8.5778739e-08 2.083355e-25 0.00041538185 3.1164969e-23 2.7103893e-42)
(0.00025321931 -1.7260949e-05 -8.3586979e-24 0.00031054009 3.5026267e-23 5.1960037e-42)
(0.00020717059 -2.7992494e-05 -1.4751213e-24 0.00022816611 2.1408972e-23 2.9111931e-42)
(0.00017606636 -3.1908835e-05 -6.3416915e-24 0.00016259368 2.5949557e-23 5.8659646e-42)
(0.00015366292 -3.0868761e-05 -1.8169469e-25 0.00011103038 2.857903e-25 1.0969036e-45)
(0.0001360064 -2.6471885e-05 1.0770431e-23 7.2091572e-05 -1.6970169e-23 5.48188e-42)