/*--------------------------------*- C++ -*----------------------------------*\
| =========                 |                                                 |
| \\      /  F ield         | OpenFOAM: The Open Source CFD Toolbox           |
|  \\    /   O peration     | Version:  5.0                                   |
|   \\  /    A nd           | Web:      www.OpenFOAM.org                      |
|    \\/     M anipulation  |                                                 |
\*---------------------------------------------------------------------------*/
FoamFile
{
    version     2.0;
    format      ascii;
    class       volScalarField;
    location    "100";
    object      p;
}
// * * * * * * * * * * * * * * * * * * * * * * * * * * * * * * * * * * * * * //

dimensions      [0 2 -2 0 0 0 0];

internalField   nonuniform List<scalar> 
9200
(
0.00054817021
0.00046047141
0.0029853193
0.00038853622
0.0028549635
0.0044431815
0.00020218034
0.0027335632
0.0042329678
0.0062468733
-1.0240915e-05
0.0024399183
0.0039817411
0.0060080163
0.0078741565
-0.0002995607
0.0020682337
0.0034821854
0.0056879641
0.0076249229
0.0095839592
-0.00062492082
0.0015090526
0.0028124697
0.0050671627
0.0072496982
0.0093674641
0.011396565
-0.0010120882
0.00079762264
0.0018440536
0.0041780993
0.006532986
0.0090141434
0.011187393
0.013251329
-0.0014554632
-0.00010705
0.00058552212
0.0028901374
0.0054893533
0.0083406629
0.0109008
0.013127965
0.014996241
-0.0019093972
-0.0012062292
-0.0010078811
0.0011563803
0.0039591173
0.0073211721
0.010347975
0.012928398
0.015012143
0.01661998
-0.0023287217
-0.0024848861
-0.0029609135
-0.0011197384
0.0018414274
0.005778065
0.0094598589
0.012576873
0.01498234
0.016763748
0.018142239
-0.0027226419
-0.0039211318
-0.0053095444
-0.0040142403
-0.0010349964
0.0035533003
0.0080692953
0.01199049
0.014889972
0.016923696
0.01838744
0.01953011
-0.0030917521
-0.0055156377
-0.0080699147
-0.0076093227
-0.0048336081
0.0004094857
0.0059971432
0.011016431
0.01467571
0.017121927
0.018708492
0.019860716
0.020760529
-0.0034187266
-0.0072512001
-0.011210455
-0.011953897
-0.0097238482
-0.003920297
0.0029766593
0.0094806657
0.014240139
0.017314959
0.019174381
0.020312321
0.021152669
0.021824963
-0.0036827728
-0.009088918
-0.014678767
-0.017055796
-0.015859581
-0.0097992828
-0.0013489864
0.0071231884
0.01346257
0.017452209
0.019752206
0.021011602
0.021712924
0.022259187
0.022729856
-0.0038741486
-0.010987169
-0.018414365
-0.02290369
-0.023400714
-0.017647184
-0.0075154466
0.0035896622
0.012157278
0.017481
0.020419005
0.021901615
0.022590226
0.022901863
0.023190016
0.023481236
-0.0039886556
-0.012899094
-0.022352903
-0.029467915
-0.03247051
-0.027951971
-0.016200063
-0.0016594043
0.010069297
0.017298213
0.021167408
0.02300026
0.023714318
0.023894979
0.023877268
0.023947999
0.024082986
-0.0040212656
-0.014749734
-0.026393396
-0.036567948
-0.043066899
-0.041246707
-0.028331871
-0.0093754229
0.0068154979
0.016777352
0.021967062
0.024317488
0.02512723
0.025176721
0.024934683
0.024648596
0.024541453
0.024550491
-0.0039718891
-0.016441782
-0.030390379
-0.04398093
-0.055020866
-0.058119617
-0.045213237
-0.0206885
0.0017949746
0.015715693
0.022782771
0.025865521
0.026846086
0.026791877
0.02630256
0.025727643
0.025235026
0.024989765
0.024901648
-0.0038411564
-0.017881766
-0.034270791
-0.051478775
-0.068317309
-0.079761591
-0.068849208
-0.037248919
-0.0058072695
0.013793812
0.023549601
0.027654315
0.02890037
0.028757639
0.028022083
0.027121652
0.026299807
0.0256586
0.025312504
0.025153259
-0.0036543737
-0.018980759
-0.038021165
-0.05910747
-0.082414352
-0.10684881
-0.10092075
-0.060999816
-0.017398664
0.010608767
0.024156532
0.029680541
0.03131454
0.031105468
0.030104636
0.028865904
0.02767195
0.02668049
0.02594238
0.025528996
0.025321765
-0.0034456552
-0.019797077
-0.041509413
-0.066251409
-0.098098157
-0.13732642
-0.1400226
-0.09303796
-0.035738439
0.0049095186
0.024403377
0.031910866
0.034104557
0.033857734
0.032575464
0.030963505
0.029379282
0.027993794
0.026899333
0.02610908
0.025657723
0.025423433
-0.0032443878
-0.020396476
-0.044530501
-0.072753318
-0.11401105
-0.16765315
-0.18504729
-0.13268761
-0.061535234
-0.0047483787
0.023682145
0.034253076
0.037261913
0.037029868
0.035446383
0.03343017
0.031416765
0.02961851
0.028126289
0.026984558
0.026180067
0.025715553
0.025472852
-0.0030767246
-0.020823407
-0.047085243
-0.078328429
-0.1286835
-0.19573483
-0.22960998
-0.17798387
-0.093939979
-0.017837605
0.02168159
0.036430247
0.040736259
0.04061337
0.038722826
0.036264428
0.03379021
0.031543085
0.02963581
0.028105368
0.026962024
0.026174667
0.025717271
0.025482038
-0.0029689279
-0.021104718
-0.048987631
-0.082568029
-0.14143831
-0.22026406
-0.27106688
-0.22588116
-0.13019918
-0.035463417
0.018663305
0.038176581
0.0443693
0.044567571
0.042386806
0.039459134
0.03648564
0.033764785
0.031412166
0.029477315
0.027962924
0.026854813
0.026109872
0.025675495
0.025460282
-0.0029406943
-0.021278896
-0.049945648
-0.085919993
-0.15194527
-0.23962495
-0.30680592
-0.27349455
-0.17015198
-0.057746025
0.013006659
0.039644474
0.047943633
0.048792196
0.04639593
0.042984872
0.039484486
0.036259871
0.033446393
0.031082992
0.029182534
0.027726669
0.026683151
0.026000577
0.025603491
0.025417334
-0.0030124333
-0.021297332
-0.050045545
-0.088726513
-0.15896395
-0.25268051
-0.33474782
-0.3163079
-0.20929995
-0.082612444
0.003028489
0.039964694
0.051283217
0.053139717
0.050668088
0.046794011
0.042746832
0.039001153
0.035708571
0.032909855
0.030604014
0.028784701
0.027420385
0.026464547
0.02585993
0.025511413
0.025361186
-0.0031931763
-0.021090289
-0.049423398
-0.090487594
-0.16275053
-0.25937738
-0.35344006
-0.35085463
-0.24447324
-0.10770266
-0.0099319155
0.037527511
0.054124223
0.057364655
0.055083705
0.050808434
0.046219158
0.041940725
0.038166362
0.034925492
0.032213766
0.030014392
0.028311533
0.027064312
0.026213991
0.025699136
0.025407362
0.025298448
-0.0034618802
-0.020690114
-0.048178292
-0.091262012
-0.16366738
-0.26068604
-0.3628821
-0.37665327
-0.27307932
-0.13098887
-0.024165801
0.033454694
0.055408441
0.061150667
0.059463201
0.054921986
0.049825681
0.045020978
0.040767496
0.03709614
0.033980201
0.031403182
0.029345631
0.027786106
0.026675569
0.02594419
0.025527578
0.025298272
0.025234377
-0.0037635751
-0.020186466
-0.046761886
-0.091286405
-0.16205494
-0.25799149
-0.36427447
-0.39329072
-0.29363115
-0.15118917
-0.038666003
0.026962241
0.054594397
0.06403445
0.063566146
0.058992852
0.05347139
0.04816876
0.043453283
0.039369447
0.035871736
0.032922914
0.030512653
0.028623204
0.027227663
0.026268583
0.025665802
0.025353031
0.025189755
0.025172994
-0.0041312188
-0.019618597
-0.045467466
-0.090505307
-0.15882148
-0.25220985
-0.3586473
-0.39889788
-0.30660759
-0.16721703
-0.053250426
0.017492009
0.052133884
0.065113405
0.067095152
0.062852641
0.057036602
0.051297082
0.046153576
0.041689046
0.037840005
0.034547186
0.031789627
0.029568992
0.027867944
0.026652312
0.025855462
0.025387649
0.025181809
0.025086321
0.025118827
-0.0044651126
-0.01895708
-0.044289081
-0.088846683
-0.15440809
-0.24410457
-0.3480008
-0.3948374
-0.31270939
-0.17895141
-0.067311985
0.0068330168
0.048410468
0.064351435
0.069563085
0.066281882
0.06038115
0.054306218
0.048786806
0.04399021
0.039835098
0.036235156
0.033157628
0.030606692
0.028593501
0.027097172
0.026073572
0.025446283
0.025116945
0.025018964
0.024991567
0.025074937
-0.0047230075
-0.018105178
-0.042938563
-0.086636326
-0.14905491
-0.23446524
-0.33418835
-0.38479814
-0.3131179
-0.18696328
-0.080103732
-0.004023208
0.043100651
0.061969498
0.070755682
0.069021527
0.063316068
0.0570865
0.051266642
0.04619951
0.041802324
0.037947672
0.034585435
0.031726238
0.029394057
0.027603696
0.026325525
0.025502784
0.025049308
0.024859468
0.024868426
0.024908044
0.025038032
-0.0049145431
-0.017248284
-0.041230834
-0.083213734
-0.14322597
-0.22381705
-0.31813732
-0.3704189
-0.30909118
-0.19209811
-0.09154032
-0.015120095
0.036015738
0.058357722
0.069696902
0.071191109
0.065656503
0.059485328
0.053493242
0.048239418
0.043673371
0.039639596
0.036045671
0.032905818
0.030268504
0.028167603
0.026614596
0.025565505
0.024949404
0.024671203
0.024619729
0.024733071
0.02483726
0.025007228
-0.0050429812
-0.016404843
-0.039365907
-0.078703181
-0.13537088
-0.21291276
-0.30089384
-0.35305951
-0.30182659
-0.19509471
-0.10195099
-0.026482917
0.027363739
0.053379425
0.066968374
0.071665883
0.067579406
0.061398858
0.055342904
0.050013963
0.045380324
0.041246082
0.037503002
0.034136301
0.031206933
0.028795822
0.026941336
0.02563947
0.024827827
0.024421251
0.024317223
0.024401113
0.024614915
0.024780901
0.02499208
-0.0051586978
-0.015550347
-0.037334436
-0.073966946
-0.12632319
-0.19939459
-0.28345317
-0.33471447
-0.29274875
-0.19665944
-0.11159334
-0.038106819
0.017430045
0.046892685
0.063207754
0.070507394
0.068369761
0.06266669
0.05671366
0.051407826
0.046850863
0.042751272
0.038942962
0.035413859
0.032220887
0.029491814
0.027319352
0.025728627
0.024690141
0.024121526
0.023924674
0.023991378
0.024206045
0.024515429
0.024741278
0.024997673
-0.0053096068
-0.014662825
-0.035157609
-0.069146582
-0.11723756
-0.18493081
-0.26365524
-0.31617719
-0.28319269
-0.19747526
-0.12054218
-0.050150827
0.0062444993
0.039017724
0.057847189
0.068209675
0.068179894
0.063136495
0.057472044
0.05232302
0.047986082
0.044076445
0.040425598
0.036763556
0.03331775
0.030274312
0.027762577
0.025851736
0.024542393
0.023777059
0.023453989
0.02346447
0.023696555
0.024036128
0.024435576
0.024719202
0.025019285
-0.0053247741
-0.013731283
-0.032859387
-0.064281036
-0.10808829
-0.17022046
-0.24333033
-0.29539873
-0.27273125
-0.1978298
-0.12875838
-0.06265502
-0.006237145
0.029666179
0.051046418
0.06455288
0.066852875
0.062762828
0.057436849
0.052593989
0.048672904
0.045129641
0.041757886
0.038141216
0.034516192
0.031156108
0.028291795
0.02602873
0.024406693
0.02339485
0.022909331
0.022831213
0.023043995
0.023434663
0.023892261
0.024375665
0.024713725
0.025052976
-0.0049999201
-0.012942094
-0.030498657
-0.059413345
-0.098954831
-0.15532537
-0.2222081
-0.27473444
-0.26061476
-0.19742864
-0.13630927
-0.075025598
-0.019986986
0.018839082
0.042783079
0.059436432
0.064388113
0.061384124
0.0564406
0.052044282
0.048751063
0.045848063
0.042850174
0.0395057
0.035739376
0.03215541
0.028928815
0.026284069
0.024305259
0.022998392
0.022297232
0.022094709
0.022257988
0.022665742
0.023206838
0.023774709
0.024335431
0.024723814
0.025096142
-0.0043445988
-0.01246882
-0.028172822
-0.054586618
-0.089917724
-0.14053183
-0.20101984
-0.25268901
-0.2496091
-0.19772046
-0.14393904
-0.086621233
-0.03441089
0.0065947514
0.032970498
0.052958759
0.060609437
0.058877331
0.054310408
0.050429096
0.0480068
0.046067513
0.043748736
0.040827385
0.037097747
0.033239588
0.029698058
0.026647421
0.024268253
0.022609911
0.021640779
0.021259557
0.021339458
0.021737581
0.022331382
0.023013334
0.023683119
0.024314237
0.024748611
0.025145916
-0.012258248
-0.0034578455
-0.02601489
-0.049840927
-0.081035255
-0.12600276
-0.18019779
-0.23031146
-0.23682959
-0.19762983
-0.15475427
-0.098796779
-0.04863001
-0.0068703506
0.021546055
0.045200767
0.055436812
0.0551078
0.050905266
0.047462455
0.046194822
0.045578884
0.044352186
0.042054283
0.038596385
0.034524484
0.030622495
0.027149916
0.024326401
0.022264177
0.020960673
0.020347004
0.02029033
0.020648232
0.021271942
0.022041186
0.022853452
0.023616686
0.02431118
0.024786977
0.025203537
-0.024133217
-0.012332528
-0.0024859285
-0.045233021
-0.072362686
-0.11184936
-0.16000009
-0.20779715
-0.2226098
-0.19583872
-0.16441131
-0.11653765
-0.063602198
-0.021390069
0.0090686801
0.036262661
0.048877938
0.049968268
0.046001622
0.042828723
0.042971983
0.044152208
0.044491385
0.043169732
0.040153457
0.036060669
0.031763262
0.027846216
0.024522996
0.021990155
0.020293301
0.019374945
0.019128824
0.019396304
0.02002424
0.020862514
0.021794251
0.02272655
0.023574615
0.024325284
0.024837732
0.025271459
-0.040775656
-0.022573651
-0.012863744
-0.0015955513
-0.063917803
-0.098181796
-0.14059006
-0.18571688
-0.20719546
-0.19237984
-0.17313659
-0.13308427
-0.084969107
-0.036044338
-0.0045903028
0.025841855
0.041019355
0.043430814
0.039523959
0.036134701
0.037864466
0.041479793
0.043909528
0.044091539
0.041769882
0.037795895
0.033194499
0.028775183
0.024913026
0.021838151
0.019665602
0.018377379
0.01786912
0.017996119
0.018582508
0.019469528
0.02050975
0.021591255
0.022632664
0.023556146
0.024355672
0.024900009
0.025349071
-0.055724753
-0.036359878
-0.021206373
-0.01389354
-0.00085840673
-0.085066425
-0.12203072
-0.16422899
-0.19112244
-0.1873368
-0.18007098
-0.15025938
-0.10594636
-0.05671821
-0.017775354
0.013963032
0.031960933
0.035626848
0.031160769
0.026822617
0.030177856
0.037183524
0.042320931
0.044682453
0.04339838
0.039717754
0.034920818
0.02998634
0.025547104
0.021858535
0.019129634
0.01738383
0.016540952
0.016457318
0.016956784
0.017852484
0.018984968
0.020211711
0.021434082
0.022569773
0.023559397
0.024401209
0.024973003
0.025434928
-0.072538867
-0.047763947
-0.031899334
-0.019758417
-0.015297334
-0.00016940419
-0.10440621
-0.14351647
-0.17475911
-0.18091157
-0.18566909
-0.16697671
-0.12925206
-0.078993723
-0.035150871
0.00071737812
0.021922256
0.026540572
0.020900788
0.014039781
0.019392867
0.030867276
0.039259053
0.044748954
0.044992067
0.041798737
0.03691902
0.031520968
0.026450044
0.022101189
0.018731306
0.016436054
0.015172109
0.014803878
0.015151511
0.01601666
0.01720825
0.018569715
0.019964961
0.021315369
0.022534583
0.023582248
0.024460416
0.025055761
0.025528183
-0.087736646
-0.06055131
-0.04008418
-0.027446406
-0.018160016
-0.017084566
0.00047184583
-0.12402123
-0.1584638
-0.17342169
-0.19068792
-0.18338374
-0.15350245
-0.10488169
-0.054237625
-0.015702064
0.011022386
0.016606932
0.0086122684
-5.4531133e-05
0.0072679842
0.022554976
0.033722551
0.043752554
0.046394753
0.04398126
0.039157074
0.033370446
0.027655161
0.022604186
0.018510555
0.015577691
0.013797392
0.013059733
0.013183243
0.0139609
0.015179521
0.016649761
0.018221138
0.019769587
0.021229769
0.02252541
0.023623328
0.024531974
0.025147185
0.025628109
-0.10577736
-0.072060231
-0.049177911
-0.032732168
-0.023116821
-0.016595436
-0.019146151
0.00092482497
-0.14250208
-0.1654548
-0.19476103
-0.19930411
-0.17885622
-0.13342037
-0.076918916
-0.032779669
-0.00095227895
0.0052260926
-0.0047563842
-0.015560012
-0.0059260866
0.012723986
0.025831297
0.040938961
0.047230951
0.046141194
0.041541349
0.035497757
0.029170591
0.023380953
0.018513951
0.014846518
0.01245203
0.011251015
0.011070953
0.011693558
0.012891765
0.014446875
0.016174926
0.01793734
0.019626635
0.021180062
0.022540682
0.023681122
0.024614758
0.025246266
0.025733706
-0.12704938
-0.088759953
-0.05737033
-0.038384042
-0.025692365
-0.018914412
-0.015072716
-0.021271522
0.0011709889
-0.15735234
-0.19752732
-0.21452708
-0.20491925
-0.16427505
-0.10411454
-0.051464169
-0.014786232
-0.0053978809
-0.020266654
-0.031097583
-0.020509402
0.0012990424
0.016485498
0.037117438
0.047117036
0.048023681
0.043958475
0.037790908
0.030955378
0.024430924
0.018755383
0.014277729
0.011174013
0.0094080593
0.0088332325
0.0092275664
0.010345776
0.011947789
0.013817745
0.01578161
0.017717833
0.01953028
0.021163723
0.022578286
0.023754049
0.024707625
0.025352041
0.025844057
-0.14929332
-0.11204435
-0.073009832
-0.043599495
-0.028135547
-0.018932515
-0.014879694
-0.013401406
-0.023410895
0.0012955395
-0.19935301
-0.22894577
-0.23117129
-0.19698258
-0.13442349
-0.072785765
-0.030134264
-0.017590855
-0.032061142
-0.047125486
-0.033949268
-0.0080213784
0.0073910878
0.032484936
0.046399033
0.049309148
0.046201677
0.040110898
0.032924853
0.025713193
0.019227132
0.013889591
0.009986742
0.0075587747
0.0064922591
0.006574726
0.0075468881
0.0091464331
0.011129938
0.013290067
0.015468602
0.017558467
0.019475111
0.021177389
0.022636389
0.023840757
0.024809305
0.02546335
0.025958333
-0.20034623
-0.14112698
-0.097756926
-0.058426829
-0.030778602
-0.018392833
-0.012447441
-0.01105612
-0.011604819
-0.025542636
0.0013173893
-0.24252229
-0.25729873
-0.23092049
-0.16686608
-0.096796646
-0.047227743
-0.031203453
-0.045166273
-0.058126538
-0.048546653
-0.019541811
-0.0030273714
0.02619362
0.044513633
0.049811194
0.047985266
0.042260876
0.034922193
0.0271672
0.019892656
0.013678228
0.0089051855
0.0057216939
0.004064468
0.0037454421
0.0044995858
0.0060405276
0.0080986983
0.010437086
0.012862059
0.015231943
0.017454263
0.019459002
0.021218829
0.022713407
0.023939618
0.024918216
0.025579275
0.026076226
-0.25514406
-0.2005029
-0.13303728
-0.084217823
-0.045051358
-0.01893666
-0.0091260793
-0.0062093683
-0.0073476478
-0.0098583063
-0.027607746
0.0010919029
-0.2830166
-0.26551293
-0.20070628
-0.12283137
-0.066020683
-0.046014639
-0.058291225
-0.075703814
-0.061981938
-0.035576306
-0.014525558
0.017642349
0.039381222
0.048839772
0.04880621
0.043983254
0.036749147
0.028657221
0.020688859
0.01361174
0.0079274802
0.0039068542
0.0015644185
0.00074953038
0.0012045344
0.0026266532
0.0047155341
0.0072041232
0.0098667918
0.012529563
0.015065569
0.017400882
0.019479372
0.021285938
0.022807126
0.024048226
0.025033284
0.025700085
0.026203947
-0.30781781
-0.26659722
-0.19981256
-0.12520643
-0.071566895
-0.032871031
-0.008120663
-0.00032324866
-0.00021108769
-0.0036640486
-0.0081905784
-0.029475843
0.0006742124
-0.29993679
-0.23504824
-0.15006467
-0.085933525
-0.062349477
-0.071793325
-0.0917975
-0.0853579
-0.049579305
-0.024637879
0.0082762529
0.031152052
0.04442507
0.048154616
0.044902442
0.038185287
0.03000355
0.021507947
0.013630345
0.0070287142
0.0021087263
-0.0010055774
-0.0024082429
-0.0023372781
-0.00110338
0.00096829493
0.0035753034
0.00646226
0.0094149595
0.012286115
0.014964516
0.017395213
0.019534013
0.021375664
0.022913746
0.02416493
0.025155606
0.025835137
0.026342719
-0.33294292
-0.33110699
-0.27632476
-0.19850769
-0.11774643
-0.05985625
-0.021836219
0.0016555481
0.0080184441
0.0056000523
-1.7003983e-05
-0.0066203216
-0.030953324
5.1512546e-06
-0.26878034
-0.17743261
-0.10619301
-0.079673587
-0.086656892
-0.10719975
-0.10577356
-0.070548829
-0.033234141
-0.001283634
0.021574789
0.036898301
0.045366388
0.044622568
0.038887098
0.031012502
0.022206172
0.013643638
0.0061588737
0.00030402437
-0.0036562196
-0.0057350971
-0.006132866
-0.0051591978
-0.0031600747
-0.00046875907
0.0026201665
0.005867722
0.0090764305
0.01212563
0.01492566
0.017435453
0.019618543
0.021481767
0.023030447
0.024292254
0.025299843
0.025981702
0.026489578
-0.30041556
-0.36352036
-0.35160501
-0.28437745
-0.19658511
-0.11067755
-0.049154814
-0.011863234
0.010390212
0.015876271
0.011144185
0.0035458275
-0.0053608632
-0.032125194
-0.001088565
-0.2034411
-0.12602183
-0.097295835
-0.10233928
-0.12290558
-0.12637172
-0.091449541
-0.047068305
-0.01349812
0.012080666
0.028637358
0.039875397
0.042771967
0.038617294
0.031442441
0.022614913
0.013541045
0.0052419993
-0.0015471277
-0.0064128015
-0.0092473378
-0.010196345
-0.0095564089
-0.0076872993
-0.0049525944
-0.001682121
0.0018462184
0.0054091867
0.0088419496
0.012044818
0.014947292
0.017514779
0.019722811
0.021599965
0.023162281
0.024455629
0.025456405
0.026138
0.026644092
-0.22656069
-0.32887209
-0.39006213
-0.36892738
-0.29043188
-0.19411078
-0.10398183
-0.0396093
-0.003048477
0.017919663
0.023035385
0.016413409
0.0067101167
-0.004254715
-0.032876656
-0.0029605668
-0.1446738
-0.11459706
-0.11799127
-0.13835921
-0.14646409
-0.11367015
-0.063942811
-0.026343163
-0.0010689842
0.019697669
0.032664423
0.039020084
0.03659214
0.031111524
0.022553246
0.013185704
0.0041921625
-0.0035080501
-0.009310585
-0.012973014
-0.014551721
-0.014316686
-0.012637443
-0.0099016988
-0.0064750991
-0.002675013
0.0012444544
0.0050793587
0.0087085349
0.012042494
0.015019861
0.017617931
0.019840937
0.021739504
0.023351862
0.024633842
0.025625238
0.02630227
0.026806354
-0.16105107
-0.24574583
-0.35213566
-0.41164044
-0.38241654
-0.29431339
-0.1911157
-0.097684148
-0.031585985
0.0044217807
0.024436032
0.029519453
0.020954246
0.010082196
-0.0033470087
-0.032986127
-0.0058417261
-0.13090889
-0.13284424
-0.15264091
-0.16555602
-0.13629652
-0.0818865
-0.042444816
-0.011802435
0.0051594364
0.025402974
0.032804486
0.036007883
0.0298334
0.021856279
0.012434116
0.0029006447
-0.0056452808
-0.012406118
-0.016951276
-0.019234675
-0.019474292
-0.018040433
-0.015347994
-0.011792632
-0.007730958
-0.0034580599
0.000804089
0.0048800174
0.008675711
0.012106409
0.015121556
0.017736466
0.019989217
0.021967752
0.023560018
0.024827557
0.025801974
0.026475178
0.026976069
-0.14533898
-0.1750722
-0.25897968
-0.36895291
-0.42765424
-0.39194075
-0.29595131
-0.18787118
-0.091704672
-0.0251528
0.010939001
0.030843819
0.0348652
0.025694437
0.013752552
-0.0024952384
-0.031720529
-0.0089654193
-0.145794
-0.16507354
-0.18256362
-0.15846998
-0.10086551
-0.05967916
-0.026050483
-0.0053305038
0.013020169
0.026778843
0.030593831
0.027711645
0.020299354
0.011154071
0.0012593347
-0.0080483536
-0.015753477
-0.021238466
-0.024292334
-0.025073628
-0.023939603
-0.021327859
-0.017672457
-0.013362137
-0.0087325818
-0.0040427434
0.00051826443
0.0048080352
0.0087277799
0.01220576
0.015239885
0.017896745
0.020269985
0.022218782
0.023787125
0.025028871
0.025988365
0.026656065
0.027153184
-0.15607753
-0.15610738
-0.18681741
-0.26580178
-0.3781161
-0.43717194
-0.39591923
-0.29556424
-0.18422157
-0.085916256
-0.019466395
0.017977121
0.036366081
0.040168087
0.030620134
0.017664629
-0.0018357664
-0.029092207
-0.011478259
-0.17499539
-0.19627709
-0.17885209
-0.12056634
-0.077521107
-0.040888787
-0.018775397
0.0013412832
0.016317927
0.024334235
0.023689026
0.017897123
0.0091687571
-0.00083523432
-0.01079164
-0.019432915
-0.025885762
-0.029786641
-0.031172078
-0.030387574
-0.027892001
-0.024155808
-0.019610942
-0.014623993
-0.0094917681
-0.0044296533
0.00039441553
0.0048437522
0.008823141
0.012323227
0.015414799
0.01824705
0.020578169
0.022492553
0.024021104
0.025241006
0.026183004
0.026844982
0.027337408
-0.18176202
-0.16271092
-0.16286266
-0.1952506
-0.26669742
-0.37798744
-0.43489179
-0.39498061
-0.29240359
-0.17957672
-0.08046001
-0.012119762
0.024278289
0.04183277
0.045171208
0.035592715
0.021817322
-0.0016517961
-0.025765182
-0.013424995
-0.20592241
-0.19572367
-0.14027335
-0.094145053
-0.056354641
-0.032647445
-0.013612123
0.0059229256
0.01531745
0.018792484
0.014150561
0.0064597297
-0.0035053421
-0.013960812
-0.023491417
-0.030973985
-0.035775733
-0.037841612
-0.037452402
-0.035099303
-0.03129798
-0.026521706
-0.021178499
-0.015591457
-0.010006284
-0.0046163051
0.00040666382
0.0049320581
0.0089384296
0.012516135
0.015854395
0.018629173
0.020913069
0.022772033
0.024266801
0.025461651
0.026386152
0.027041419
0.027528564
-0.21056335
-0.18377592
-0.16542207
-0.16599586
-0.19900729
-0.2628306
-0.36814062
-0.42125666
-0.38765675
-0.28540686
-0.1744213
-0.072807532
-0.0044179114
0.030561934
0.046966862
0.049822785
0.040471342
0.026139815
-0.0016877379
-0.021419972
-0.013522144
-0.20726277
-0.15756695
-0.10829625
-0.071435272
-0.047437995
-0.028395938
-0.0089991184
0.0067499972
0.011298368
0.010157103
0.0026442882
-0.0067518731
-0.017635952
-0.028016448
-0.036535401
-0.042350632
-0.045155189
-0.045217353
-0.043025916
-0.039161091
-0.034151346
-0.028442677
-0.022390104
-0.016259402
-0.010270526
-0.0046343654
0.00048296855
0.0050427742
0.0091530032
0.013067779
0.016330251
0.019043214
0.021251757
0.023064018
0.024520976
0.025691395
0.026597101
0.02724526
0.027726445
-0.21167636
-0.20812264
-0.18238503
-0.16398067
-0.16422821
-0.19685071
-0.25477558
-0.3487133
-0.40130127
-0.37344016
-0.27554257
-0.16703342
-0.062608386
0.0033150897
0.036507247
0.051748711
0.054078664
0.045103133
0.030255948
-0.0015524569
-0.017412174
-0.010964219
-0.16986006
-0.11946245
-0.085288752
-0.062247209
-0.043798332
-0.026377538
-0.0088017897
0.0036620845
0.0043418811
-0.0012499563
-0.010893453
-0.021814935
-0.033029527
-0.042678951
-0.04954411
-0.053221343
-0.053773867
-0.051763981
-0.047824499
-0.042561688
-0.036471967
-0.029936502
-0.023240165
-0.016618831
-0.010327934
-0.0045757786
0.00058481291
0.0052827206
0.0098444026
0.01365937
0.016844988
0.019457961
0.021603214
0.023364383
0.024784515
0.025929275
0.026815645
0.02745599
0.027930888
-0.17646119
-0.20901355
-0.20079046
-0.17734516
-0.15894328
-0.15730996
-0.18890348
-0.24220612
-0.32236113
-0.37773478
-0.35176139
-0.26571363
-0.15376412
-0.052073327
0.010616921
0.041953589
0.056035487
0.057858341
0.049286907
0.033587766
-4.4769528e-05
-0.014314381
-0.0074646936
-0.12732446
-0.096805945
-0.076244668
-0.059626403
-0.044316551
-0.02485676
-0.009308897
-0.00024831914
-0.0060485243
-0.015113811
-0.026715928
-0.038570823
-0.049362256
-0.057495447
-0.06208858
-0.063250845
-0.061421243
-0.057383289
-0.051829645
-0.045325086
-0.038281921
-0.030995095
-0.023718496
-0.016725743
-0.010295417
-0.0044883986
0.00085350956
0.0061465749
0.010577604
0.014300012
0.017355974
0.019885414
0.021962534
0.023674329
0.025056159
0.026175072
0.027041209
0.027673498
0.028141376
-0.13119071
-0.17720637
-0.20152376
-0.189554
-0.16858783
-0.15074531
-0.14677261
-0.17630567
-0.22711268
-0.29294912
-0.34824302
-0.33245826
-0.24764579
-0.13942755
-0.041350868
0.017373578
0.046574132
0.059606329
0.06094603
0.052938849
0.034911024
0.0031843746
-0.0090380166
-0.005118849
-0.10504668
-0.088572075
-0.075085995
-0.062692834
-0.046218242
-0.026505309
-0.010870085
-0.0078518343
-0.019287156
-0.031664383
-0.04472728
-0.056714299
-0.066131886
-0.071943407
-0.073726284
-0.072143355
-0.067953394
-0.062045403
-0.055070735
-0.04748067
-0.039572401
-0.031605135
-0.02389017
-0.016730725
-0.010230897
-0.0041874524
0.001928955
0.0070506242
0.011373501
0.014930665
0.017878792
0.020319859
0.022331202
0.023992334
0.025335627
0.026428197
0.027274023
0.027897389
0.028357675
-0.10986567
-0.13021655
-0.17215573
-0.18912285
-0.1747639
-0.15663513
-0.14000746
-0.13412335
-0.16080371
-0.21013458
-0.26497513
-0.32352135
-0.30684879
-0.22765548
-0.12344765
-0.03057624
0.023441584
0.05020477
0.062393605
0.063609045
0.055771478
0.034225322
0.0071960015
-0.0019729241
-0.0033773443
-0.09826644
-0.089176166
-0.081065705
-0.070286722
-0.047782319
-0.028188308
-0.014126903
-0.019618059
-0.035400595
-0.051059082
-0.064614499
-0.075719619
-0.08269404
-0.085440919
-0.084042743
-0.079686189
-0.073320653
-0.065787336
-0.057588138
-0.049020561
-0.040328703
-0.031848833
-0.023937666
-0.016699386
-0.009895651
-0.0028550474
0.0030380606
0.0080356518
0.01215083
0.015571004
0.018407264
0.020763015
0.02270755
0.024318071
0.025622333
0.026689279
0.027513228
0.028127096
0.028579443
-0.10434541
-0.11119712
-0.12466249
-0.16076888
-0.17315263
-0.15773464
-0.14203293
-0.12746071
-0.12076828
-0.14327731
-0.19024425
-0.24452665
-0.29528394
-0.27899771
-0.20502815
-0.10636838
-0.019979031
0.028727184
0.052801564
0.06415335
0.065056874
0.056698162
0.033156433
0.011505916
0.0034621103
-0.0016358114
-0.10103302
-0.098799711
-0.094067788
-0.07363076
-0.050108008
-0.027406392
-0.022932751
-0.034662045
-0.054893518
-0.073042619
-0.085865482
-0.094798693
-0.098311416
-0.097405995
-0.092720026
-0.085796335
-0.077569144
-0.068666117
-0.059380229
-0.049929919
-0.040653306
-0.031952039
-0.023945805
-0.016327748
-0.008254333
-0.0015027079
0.0042513065
0.0089906514
0.012935024
0.016214969
0.018942826
0.02121331
0.023091129
0.024651205
0.025917641
0.026956766
0.027758238
0.028362077
0.028806348
-0.11036359
-0.10722908
-0.10912877
-0.11642358
-0.144483
-0.15482017
-0.14012218
-0.12505064
-0.11402275
-0.10615934
-0.12615698
-0.17090289
-0.22273269
-0.26407557
-0.24759963
-0.18069774
-0.088643068
-0.0097304601
0.03312966
0.054162842
0.064175393
0.064342191
0.054603741
0.032705277
0.014868352
0.0066407828
-0.00015742279
-0.11491526
-0.1176087
-0.10469672
-0.077052546
-0.047625146
-0.031200607
-0.036379798
-0.053451718
-0.077655693
-0.097196757
-0.10758031
-0.11298951
-0.11219163
-0.10736629
-0.099617238
-0.090530385
-0.080781761
-0.070692651
-0.060436935
-0.050337064
-0.040822843
-0.032018451
-0.023535023
-0.014318767
-0.0066164397
-1.5641093e-05
0.0054189363
0.0099488885
0.013719753
0.016864415
0.019484463
0.021670072
0.023481877
0.024993948
0.026219427
0.027229917
0.028008368
0.028601916
0.029038078
-0.12866157
-0.11597666
-0.10723833
-0.10452008
-0.10682863
-0.1257977
-0.13621966
-0.1229463
-0.10686723
-0.098814528
-0.094396624
-0.10833166
-0.15367701
-0.19900928
-0.23130437
-0.21348682
-0.15517506
-0.070831475
-7.3056189e-05
0.036600487
0.054480684
0.06259106
0.06157288
0.050831574
0.032325442
0.016723354
0.0084266375
0.0009741919
-0.13972315
-0.1376859
-0.10965049
-0.074613379
-0.045270251
-0.041924573
-0.053741445
-0.076543242
-0.10333477
-0.12254503
-0.12853976
-0.12919946
-0.12363366
-0.11508356
-0.10479831
-0.094011546
-0.082993865
-0.071869192
-0.060918036
-0.050578184
-0.040958402
-0.031569223
-0.02109413
-0.012348755
-0.0048036532
0.0014047304
0.0065859555
0.01090337
0.014507602
0.017518146
0.020031638
0.022133828
0.023883274
0.025342959
0.026526937
0.02750782
0.028263207
0.028846096
0.029274266
-0.15927933
-0.13915142
-0.11683747
-0.10452104
-0.098065579
-0.096221171
-0.10694651
-0.11901836
-0.10625759
-0.089507386
-0.086245085
-0.077759789
-0.095151733
-0.1350013
-0.17450364
-0.19630499
-0.17782736
-0.1289163
-0.053268413
0.0085277496
0.039078779
0.05394953
0.059928425
0.057301417
0.046721542
0.031081232
0.017343035
0.0092347646
0.001732461
-0.16940454
-0.14510404
-0.1078507
-0.066298144
-0.051408134
-0.057297523
-0.0761894
-0.10383788
-0.13109477
-0.14744278
-0.14737585
-0.14241297
-0.13222982
-0.120619
-0.10844483
-0.096318859
-0.084232631
-0.072397608
-0.061228458
-0.05079448
-0.040470509
-0.02862693
-0.018742649
-0.010151755
-0.0030851802
0.0028198451
0.0077433681
0.01185787
0.015297409
0.018175663
0.020585238
0.022609661
0.024291048
0.025697389
0.026839083
0.027790009
0.028522161
0.029094177
0.029514412
-0.19764605
-0.1753107
-0.14401741
-0.11501509
-0.099907257
-0.090178515
-0.085040063
-0.088811739
-0.10292235
-0.0912813
-0.076784089
-0.066803309
-0.066760985
-0.081601791
-0.1152695