/*--------------------------------*- C++ -*----------------------------------*\
| =========                 |                                                 |
| \\      /  F ield         | OpenFOAM: The Open Source CFD Toolbox           |
|  \\    /   O peration     | Version:  5.0                                   |
|   \\  /    A nd           | Web:      www.OpenFOAM.org                      |
|    \\/     M anipulation  |                                                 |
\*---------------------------------------------------------------------------*/
FoamFile
{
    version     2.0;
    format      ascii;
    class       surfaceScalarField;
    location    "100";
    object      phi;
}
// * * * * * * * * * * * * * * * * * * * * * * * * * * * * * * * * * * * * * //

dimensions      [0 3 -1 0 0 0 0];

internalField   nonuniform List<scalar> 
18180
(
0.0069445569
-1.4091946
0.013940372
-1.3185884
0.0065805506
-1.4157752
0.021061233
-1.2339792
0.013333236
-1.3253411
0.0057907407
-1.4215659
0.028653619
-1.1550628
0.020455148
-1.2411012
0.011783451
-1.3313338
0.004660977
-1.4262269
0.036775996
-1.0811087
0.028318018
-1.1629257
0.018216555
-1.2475343
0.0095449632
-1.3362178
0.0033676913
-1.4295946
0.045536425
-1.0117118
0.037134399
-1.0899251
0.025480977
-1.1701901
0.014886105
-1.2528754
0.0069399472
-1.33979
0.0019514001
-1.431546
0.054932814
-0.94631655
0.047080883
-1.0216583
0.033821379
-1.0982655
0.021082726
-1.1763868
0.010904007
-1.2568395
0.0040743935
-1.341913
0.00056953305
-1.4321155
0.064901307
-0.88456289
0.058314069
-0.95754973
0.043478953
-1.0313158
0.028399873
-1.1055827
0.015607602
-1.1810904
0.0064508502
-1.2592159
0.0012155347
-1.342559
-0.00062534622
-1.4314901
0.075339513
-0.82614378
0.070879223
-0.89712805
0.054673868
-0.96874465
0.037177039
-1.040093
0.021336003
-1.1113111
0.0092873665
-1.1839269
0.0019513854
-1.2599518
-0.0013728025
-1.3418116
-0.0015971557
-1.429893
0.086150697
-0.77074424
0.084736616
-0.84000117
0.067600322
-0.9100545
0.047723799
-0.97929141
0.028417797
-1.0471748
0.012802191
-1.1148259
0.0028566988
-1.1848322
-0.002208476
-1.2591161
-0.0035187974
-1.3398899
-0.0024638679
-1.4274291
0.097143476
-0.7181065
0.099825741
-0.78583336
0.082373786
-0.85477463
0.060369656
-0.92270036
0.037222696
-0.98809631
0.017297962
-1.0516706
0.004018343
-1.1159875
-0.0032132298
-1.1838274
-0.0056980292
-1.2569369
-0.0052404903
-1.3371133
-0.0031527807
-1.4242763
0.10805295
-0.66809036
0.11601725
-0.73429801
0.099021034
-0.80248061
0.07541597
-0.86982095
0.048186428
-0.93366409
0.023137392
-0.99393574
0.0056122388
-1.0532645
-0.0044906869
-1.1147101
-0.0083553664
-1.1811701
-0.0084207026
-1.2537567
-0.0065415952
-1.3337245
-0.0036005116
-1.4206758
0.11861961
-0.6205867
0.13305499
-0.6851281
0.11747751
-0.75275449
0.093126492
-0.82019113
0.061776977
-0.8834115
0.030803529
-0.94133023
0.0078278377
-0.99615134
-0.0060789183
-1.0516762
-0.011700521
-1.1113649
-0.012314196
-1.1772766
-0.010381627
-1.2499166
-0.0073773641
-1.3299477
-0.0038235865
-1.4168522
0.12859678
-0.57549914
0.15061163
-0.63814334
0.13759112
-0.70524171
0.1136889
-0.77331689
0.078492162
-0.83690632
0.040878109
-0.89348608
0.010967142
-0.94446953
-0.0080039365
-0.99422632
-0.015969502
-1.0474072
-0.017156431
-1.1065227
-0.015013844
-1.1726444
-0.011583194
-1.2457108
-0.0077801726
-1.3259911
-0.003873627
-1.4129786
0.13774945
-0.5327829
0.16832335
-0.59321086
0.15909526
-0.65964748
0.13717919
-0.728732
0.098852577
-0.79367731
0.05408274
-0.85011095
0.01547174
-0.89799068
-0.010247306
-0.94222616
-0.021472847
-0.98872297
-0.023304865
-1.0412588
-0.020673552
-1.100863
-0.016529819
-1.1676978
-0.012097495
-1.2413935
-0.007838296
-1.3220264
-0.0037982621
-1.4091804
0.14587664
-0.49242711
0.18579853
-0.55025807
0.18161425
-0.61572985
0.16352483
-0.68599312
0.12334671
-0.75322614
0.071255369
-0.81084994
0.021947419
-0.85658663
-0.012769988
-0.89546799
-0.028607925
-0.93509108
-0.031213972
-0.98081387
-0.027752171
-1.0341802
-0.022460553
-1.0949322
-0.01704547
-1.1627498
-0.012074216
-1.2371575
-0.0076423772
-1.3181823
-0.0036346562
-1.4055457
0.15282465
-0.45442276
0.20263086
-0.50925944
0.2047222
-0.57336603
0.1925352
-0.64474022
0.15238074
-0.71502714
0.093340814
-0.77531158
0.031251618
-0.82015414
-0.015472061
-0.85388455
-0.037854823
-0.8862211
-0.04146445
-0.92484061
-0.036692712
-0.97187333
-0.029718081
-1.0269227
-0.022850383
-1.0891273
-0.01681627
-1.1580077
-0.01167122
-1.2331287
-0.0072750668
-1.3145419
-0.0034162594
-1.4021294
0.15849405
-0.41876211
0.2184095
-0.4702014
0.22787932
-0.53241656
0.22388508
-0.6047159
0.18627852
-0.678638
0.12142369
-0.74311002
0.044475196
-0.78853516
-0.018219559
-0.81740664
-0.049842095
-0.84189728
-0.054809344
-0.8728762
-0.04804952
-0.9134838
-0.03864122
-0.96295019
-0.029753848
-1.0200192
-0.022234786
-1.0837088
-0.016078094
-1.1536009
-0.011024073
-1.2293797
-0.0068061443
-1.311152
-0.0031704548
-1.398959
0.1628378
-0.38542747
0.232751
-0.4331036
0.25041105
-0.49273313
0.25658465
-0.56511613
0.22451826
-0.64295564
0.15610164
-0.71331595
0.063017601
-0.76165243
-0.020459733
-0.78629499
-0.06526431
-0.80198442
-0.07220279
-0.82450384
-0.06249687
-0.85842885
-0.049622856
-0.90250216
-0.037970759
-0.95473328
-0.028475023
-1.013779
-0.020967234
-1.0788197
-0.015026032
-1.1495989
-0.010236931
-1.2259489
-0.0062859419
-1.3080365
-0.002914985
-1.396044
0.16589149
-0.35441067
0.2453145
-0.39799098
0.27161132
-0.45430388
0.28915733
-0.52530582
0.26425364
-0.60485151
0.19516867
-0.68202267
0.08681256
-0.73711091
-0.021949381
-0.76016278
-0.084906845
-0.76665245
-0.094840649
-0.77934657
-0.080852801
-0.80614791
-0.063086434
-0.84496528
-0.047711243
-0.89276168
-0.035637108
-0.94757119
-0.0264087
-1.0083375
-0.019332575
-1.0745131
-0.013810108
-1.1460257
-0.009385983
-1.2228489
-0.0057493009
-1.3052022
-0.002660789
-1.3933832
0.16777339
-0.32569363
0.25599284
-0.36508901
0.29082527
-0.41720493
0.31994529
-0.48509184
0.30258998
-0.56364216
0.23281434
-0.64249718
0.11215433
-0.70736444
-0.025276422
-0.73378387
-0.11046689
-0.73460274
-0.12427662
-0.73721648
-0.10414697
-0.7560524
-0.07947418
-0.78976016
-0.059143429
-0.83353309
-0.04377772
-0.88462107
-0.032412579
-0.94156731
-0.023959059
-1.003711
-0.01754009
-1.0707832
-0.012537872
-1.1428738
-0.0085245965
-1.2200736
-0.0052201814
-1.3026428
-0.0024150893
-1.3909681
0.1686499
-0.29922188
0.26481255
-0.33451333
0.30765102
-0.38191476
0.34746608
-0.44472571
0.33654151
-0.51904337
0.26683953
-0.59766735
0.13466612
-0.66500897
-0.034060499
-0.69858036
-0.14644234
-0.69780841
-0.16247945
-0.69639991
-0.13373684
-0.70762661
-0.099249951
-0.73627663
-0.07236264
-0.77654095
-0.05287737
-0.82443344
-0.038928266
-0.87810538
-0.028854944
-0.93667143
-0.02140584
-0.99984526
-0.015731585
-1.0675894
-0.011281344
-1.1401171
-0.0076883136
-1.2176054
-0.0047143051
-1.3003436
-0.0021831073
-1.388785
0.16871336
-0.27490757
0.27186772
-0.30627706
0.32181923
-0.34868154
0.37044259
-0.40489127
0.36461575
-0.47279995
0.29554748
-0.54775132
0.15129895
-0.61430018
-0.048799164
-0.6502703
-0.19591236
-0.64911035
-0.21049894
-0.64978892
-0.1704562
-0.65968055
-0.12292578
-0.68395077
-0.087343088
-0.72129618
-0.062813048
-0.76660527
-0.045820314
-0.81754139
-0.033906958
-0.87305337
-0.025323479
-0.93275379
-0.018925276
-0.99665157
-0.013995263
-1.0648755
-0.01008541
-1.13772
-0.0068991292
-1.2154206
-0.0042414045
-1.2982853
-0.0019682125
-1.3868168
0.1681717
-0.25263664
0.27730433
-0.28034418
0.33325796
-0.31771579
0.3882276
-0.36646655
0.38584809
-0.42612361
0.31795616
-0.49520863
0.16249698
-0.55894934
-0.070582667
-0.59251668
-0.25298698
-0.59319568
-0.2680822
-0.59152709
-0.21220823
-0.6080369
-0.15036161
-0.63224472
-0.10392595
-0.66736791
-0.073317172
-0.71079206
-0.052852345
-0.75957324
-0.038922731
-0.81252562
-0.029152833
-0.86922401
-0.02202315
-0.92965592
-0.016615739
-0.9940311
-0.012380463
-1.0625805
-0.0089752807
-1.1356438
-0.0061693851
-1.2134926
-0.0038068845
-1.2964466
-0.0017741375
-1.3850427
0.16722839
-0.23227299
0.28131964
-0.25665194
0.34203091
-0.28911713
0.40068028
-0.33016847
0.40012353
-0.380742
0.33379461
-0.44196206
0.16950432
-0.50221597
-0.093494358
-0.53603765
-0.30575264
-0.53975102
-0.32921098
-0.53206689
-0.25511259
-0.54862274
-0.178784
-0.57961451
-0.12166012
-0.61451055
-0.083964746
-0.65672034
-0.059674357
-0.70397004
-0.043625177
-0.75487079
-0.032687862
-0.80899059
-0.024883483
-0.86636368
-0.019049831
-0.92722183
-0.014522424
-0.99188913
-0.010909992
-1.0606458
-0.0079628303
-1.1338504
-0.0055047082
-1.2117948
-0.003412873
-1.2948079
-0.001596792
-1.3834459
0.16608012
-0.21367307
0.28408296
-0.2350363
0.34830034
-0.26292137
0.40807181
-0.29650866
0.40804263
-0.33808757
0.34300963
-0.38995702
0.17184381
-0.44430155
-0.11506928
-0.48064104
-0.35054582
-0.49124448
-0.38198073
-0.48698127
-0.29939404
-0.48778544
-0.20398174
-0.523425
-0.13881594
-0.56245869
-0.094235458
-0.60423984
-0.065823004
-0.65057169
-0.047659459
-0.69993576
-0.035660117
-0.75189854
-0.027315188
-0.80655889
-0.021170401
-0.86424311
-0.016429978
-0.92531427
-0.012656869
-0.99014226
-0.0095900265
-1.0590186
-0.0070512476
-1.1323038
-0.0049062729
-1.2103014
-0.003058872
-1.2933458
-0.0014379228
-1.382008
0.16490596
-0.19669055
0.28581344
-0.21540355
0.35217189
-0.23890785
0.41098666
-0.26583622
0.41061433
-0.29908037
0.34601674
-0.34109468
0.16904099
-0.3871542
-0.13593316
-0.42343767
-0.3901028
-0.44108406
-0.42646562
-0.44675959
-0.34649868
-0.43987663
-0.22798447
-0.46378271
-0.15194844
-0.51029249
-0.10333174
-0.55336241
-0.070761494
-0.59930135
-0.05060527
-0.64762588
-0.037754526
-0.69784135
-0.02908757
-0.75012616
-0.022818419
-0.80491087
-0.017999301
-0.86267379
-0.014150214
-0.92382093
-0.011011678
-0.98872061
-0.0084169877
-1.0576528
-0.00623849
-1.1309716
-0.0043724665
-1.2089878
-0.0027434549
-1.2920403
-0.0012972105
-1.3807107
0.16387154
-0.1811939
0.28673365
-0.19761076
0.35398928
-0.21722093
0.41052756
-0.23844875
0.40892583
-0.26414772
0.34362493
-0.29668855
0.16126445
-0.33331814
-0.15625996
-0.36682741
-0.42486868
-0.38867179
-0.46501773
-0.40253196
-0.39127307
-0.4019852
-0.25963216
-0.40822895
-0.15913127
-0.45659988
-0.10947941
-0.50414483
-0.07395047
-0.55017343
-0.051988383
-0.59791824
-0.038620408
-0.64676
-0.029948097
-0.69698083
-0.02381472
-0.74912986
-0.01911138
-0.80379879
-0.015312612
-0.86151139
-0.012178284
-0.92265432
-0.0095702107
-0.98756738
-0.007382259
-1.0565091
-0.0055195073
-1.1298246
-0.0038999558
-1.2078313
-0.002464423
-1.2908731
-0.0011729433
-1.3795378
0.16309123
-0.16701979
0.28704301
-0.18150326
0.35415754
-0.19777903
0.40748734
-0.21418072
0.40403752
-0.23356045
0.33715208
-0.25767486
0.14996905
-0.28539315
-0.17535011
-0.31422799
-0.4532861
-0.33840999
-0.49676228
-0.35692724
-0.42955225
-0.36425277
-0.29724824
-0.36436912
-0.16566791
-0.4016923
-0.1097155
-0.45636379
-0.074751467
-0.50334383
-0.051317707
-0.55084411
-0.037884766
-0.59865388
-0.029625082
-0.64708301
-0.02397551
-0.69682004
-0.019642308
-0.74859893
-0.016065649
-0.80304575
-0.013037908
-0.86065176
-0.01047601
-0.92174852
-0.008312675
-0.98663697
-0.0064749592
-1.0555536
-0.0048876815
-1.1288369
-0.0034844533
-1.2068113
-0.0022190023
-1.289827
-0.0010640436
-1.3784738
0.162632
-0.15407306
0.28694762
-0.1669244
0.35297621
-0.18032193
0.40264393
-0.19293562
0.39673306
-0.20687626
0.32715952
-0.22356789
0.13675064
-0.24445645
-0.19205535
-0.26868791
-0.47471232
-0.29280177
-0.52134611
-0.31382615
-0.46012317
-0.32635633
-0.33212461
-0.3293764
-0.17809669
-0.35194033
-0.10237473
-0.40903308
-0.072020715
-0.45909454
-0.048192388
-0.50646915
-0.035170086
-0.55355879
-0.027844022
-0.60043494
-0.023108998
-0.64794952
-0.019474254
-0.69698809
-0.01633777
-0.74832681
-0.013547973
-0.80253569
-0.011104411
-0.86002336
-0.0090066377
-0.92105456
-0.0072193009
-0.98589262
-0.0056836004
-1.0547577
-0.0043357745
-1.1279855
-0.003121173
-1.2059091
-0.0020042595
-1.2888868
-0.00096938206
-1.3775044
0.15974391
-0.16566869
0.28658809
-0.15371353
0.35084155
-0.16478974
0.39653373
-0.17421173
0.38778061
-0.18398317
0.31463785
-0.19435458
0.12217262
-0.20898987
-0.20671956
-0.22979224
-0.49089132
-0.25250891
-0.54003006
-0.27411782
-0.48393381
-0.29001551
-0.36020646
-0.29827448
-0.19506244
-0.31241065
-0.091706631
-0.36260843
-0.063457399
-0.4175964
-0.042365736
-0.46492119
-0.030131388
-0.51150785
-0.02435026
-0.55705255
-0.02103147
-0.60251247
-0.018492626
-0.64893115
-0.016069925
-0.69725594
-0.013681567
-0.74819321
-0.011441043
-0.80219905
-0.0094512592
-0.85957874
-0.0077380026
-0.92053586
-0.0062718802
-0.98530434
-0.0049969695
-1.0540965
-0.0038563398
-1.1272504
-0.0028051892
-1.2051082
-0.0018172056
-1.288039
-0.00088811741
-1.3766163
0.15791603
-0.16370092
0.282229
-0.1613096
0.34791424
-0.15078621
0.3897498
-0.15800581
0.37771741
-0.16414853
0.3006488
-0.16999412
0.1067568
-0.17893876
-0.21972182
-0.19598761
-0.50348374
-0.21719982
-0.55427931
-0.23825966
-0.50203054
-0.25602108
-0.38128645
-0.26893553
-0.2122417
-0.28109522
-0.082962654
-0.32115463
-0.04776191
-0.37830392
-0.033513579
-0.42644855
-0.022545402
-0.47250718
-0.018924618
-0.51693349
-0.017584223
-0.56049979
-0.016599369
-0.60440572
-0.015217981
-0.64978309
-0.013428632
-0.69750887
-0.011492879
-0.74814137
-0.0096521699
-0.80199814
-0.0080299912
-0.85928675
-0.0066434438
-0.92016429
-0.0054542765
-0.98484704
-0.0044043675
-1.0535485
-0.0034420826
-1.1266135
-0.0025316123
-1.2043938
-0.0016549265
-1.2872721
-0.00081956493
-1.3757967
0.15709888
-0.16165069
0.27855376
-0.16002569
0.33986498
-0.15326034
0.38248127
-0.14351769
0.36711832
-0.14740672
0.28596903
-0.14946876
0.091094489
-0.15433181
-0.23112149
-0.1675391
-0.51244604
-0.18702532
-0.56447933
-0.2069998
-0.51494685
-0.22534335
-0.39599745
-0.24131008
-0.22653738
-0.25463984
-0.077203099
-0.28685478
-0.02767219
-0.34124435
-0.0205052
-0.3913123
-0.012428588
-0.43656537
-0.011388887
-0.48004291
-0.012641033
-0.52187668
-0.013720394
-0.56337877
-0.013761748
-0.60586195
-0.01280282
-0.6504089
-0.011286998
-0.69771475
-0.0096389651
-0.74815458
-0.0081134535
-0.80191468
-0.0068040966
-0.8591261
-0.0057014621
-0.91991711
-0.0047522151
-0.98449919
-0.0038958129
-1.0530947
-0.0030859891
-1.1260591
-0.002295713
-1.203753
-0.0015146903
-1.286577
-0.00076225169
-1.3750344
0.15717835
-0.1595168
0.27566876
-0.15876569
0.33195489
-0.15211559
0.37041301
-0.14119208
0.35616915
-0.13256852
0.27112282
-0.13256051
0.075614813
-0.13398908
-0.24122833
-0.14422497
-0.51818189
-0.16180325
-0.57128682
-0.18021783
-0.52355178
-0.19839488
-0.40547271
-0.21586809
-0.23669819
-0.23114928
-0.073634909
-0.25820803
-0.0062606608
-0.30826631
-0.0027919533
-0.3589576
-2.4549034e-05
-0.40371634
-0.0016392715
-0.44631498
-0.0061123511
-0.48657159
-0.0097989178
-0.52579815
-0.011703294
-0.56543722
-0.011846613
-0.60681816
-0.010877941
-0.65081796
-0.0094625609
-0.69789115
-0.0080304376
-0.74823759
-0.0067781043
-0.80194067
-0.0057470867
-0.85908047
-0.0048945713
-0.91977475
-0.004153071
-0.98424193
-0.0034619909
-1.0527187
-0.002781411
-1.1255734
-0.0020929982
-1.2031747
-0.0013937317
-1.2859455
-0.00071153573
-1.3743229
0.15798744
-0.15730968
0.27367629
-0.15752433
0.32428543
-0.15109623
0.35860299
-0.14030558
0.34232189
-0.12734483
0.25646792
-0.11791362
0.060444218
-0.11738992
-0.25019455
-0.12502287
-0.5216264
-0.14078046
-0.575551
-0.15753906
-0.52883977
-0.17492984
-0.41108079
-0.19278679
-0.24289727
-0.209669
-0.070970631
-0.23381355
0.014453961
-0.27892266
0.018610781
-0.32966904
0.014868265
-0.37385041
0.010231137
-0.41558674
0.0020594807
-0.45448681
-0.0048054381
-0.49156507
-0.0090775136
-0.52842393
-0.010626494
-0.56665734
-0.010350833
-0.60734527
-0.0092030901
-0.65107743
-0.0078449447
-0.69807665
-0.0066115666
-0.74840413
-0.0056159937
-0.80207176
-0.0048396683
-0.85913537
-0.0042082155
-0.9197196
-0.0036455028
-0.98405842
-0.0030942361
-1.0524059
-0.0025221139
-1.1251443
-0.0019192372
-1.2026492
-0.0012889125
-1.2853682
-0.00066135282
-1.3736615
0.15932239
-0.15504519
0.27265363
-0.15628701
0.31696153
-0.15020043
0.34711311
-0.13960635
0.32840563
-0.12638931
0.24349693
-0.11437383
0.046259381
-0.10372878
-0.25814961
-0.10943485
-0.52332356
-0.12332571
-0.57783629
-0.13849516
-0.53166669
-0.15471214
-0.41384309
-0.17216754
-0.24588834
-0.18979573
-0.068139614
-0.21250002
0.033626089
-0.25298568
0.042559017
-0.30287089
0.032123127
-0.3469239
0.024034894
-0.38765417
0.011917064
-0.42544433
0.0012638983
-0.46055615
-0.0059192397
-0.49472334
-0.0092941079
-0.52975632
-0.0098364175
-0.56717175
-0.0089851818
-0.60756317
-0.007658709
-0.65126367
-0.006374387
-0.69831382
-0.0053518405
-0.74866828
-0.0046087569
-0.80230268
-0.0040670875
-0.8592765
-0.0036297527
-0.91973535
-0.0032191518
-0.9839335
-0.0027845285
-1.0521435
-0.0023023165
-1.1247612
-0.0017704826
-1.2021676
-0.0011972206
-1.2848323
-0.00061042102
-1.3730511
0.1609949
-0.15279563
0.27264776
-0.15503932
0.31011106
-0.14943654
0.33600655
-0.13909387
0.31452616
-0.12572688
0.22998404
-0.11287643
0.041395137
-0.10950959
-0.26486888
-0.097009516
-0.52379271
-0.1089657
-0.57860797
-0.12255403
-0.53275182
-0.13741003
-0.41460758
-0.15394766
-0.24651982
-0.17153607
-0.064523668
-0.19341167
0.051503801
-0.23037773
0.067703428
-0.27813009
0.051739338
-0.3224871
0.039461738
-0.36235074
0.023501303
-0.3992384
0.0084420957
-0.43262252
-0.0022538388
-0.46422155
-0.0079523496
-0.4960651
-0.0095525228
-0.53004021
-0.0089979167
-0.56715902
-0.0076165956
-0.60760529
-0.0061708943
-0.65146716
-0.0050211663
-0.6986445
-0.0042388149
-0.74903823
-0.0037448122
-0.80262495
-0.0034169623
-0.85948929
-0.0031477941
-0.91980671
-0.0028644121
-0.98385362
-0.0025254822
-1.0519203
-0.0021167079
-1.124415
-0.001643183
-1.2017217
-0.0011167722
-1.2843259
-0.00056358886
-1.3724875
0.16275411
-0.15061121
0.27362422
-0.15377209
0.3038896
-0.14881786
0.32533556
-0.13876555
0.30082615
-0.12539386
0.21609276
-0.1118356
0.035048442
-0.10652973
-0.25611528
-0.11826318
-0.52358991
-0.097212311
-0.57843729
-0.10913638
-0.53264793
-0.12265792
-0.41408181
-0.13793579
-0.24550844
-0.15495904
-0.059979819
-0.17607991
0.068594082
-0.21050195
0.093156743
-0.25583104
0.07362648
-0.30001724
0.056398414
-0.33942378
0.036739634
-0.37558908
0.016767304
-0.40756361
0.0018714697
-0.43674783
-0.0066760178
-0.46549788
-0.0096768131
-0.49594081
-0.0093683369
-0.52966979
-0.0078858982
-0.56688972
-0.0061291656
-0.60764702
-0.0047132346
-0.65177509
-0.0037848719
-0.69909844
-0.0032694558
-0.74951358
-0.0030152987
-0.80302661
-0.002878052
-0.85975903
-0.0027516868
-0.91991944
-0.0025723187
-0.98380678
-0.0023102762
-1.0517267
-0.0019604674
-1.1240977
-0.0015342902
-1.2013041
-0.0010467939
-1.2838427
-0.00052446662
-1.3719631
0.1642225
-0.14848013
0.27549895
-0.15248594
0.2984371
-0.14831959
0.31512441
-0.13860671
0.28744343
-0.12538282
0.20199721
-0.11129831
0.027580479
-0.10436764
-0.24918449
-0.11346053
-0.51083244
-0.13102065
-0.57782858
-0.097821019
-0.53171268
-0.11007164
-0.41280796
-0.12393178
-0.24343716
-0.14000707
-0.054571705
-0.16036715
0.08533852
-0.19282435
0.11849826
-0.23584346
0.097151353
-0.27935592
0.074956328
-0.31857515
0.051538208
-0.35422235
0.026337737
-0.38515951
0.0064536218
-0.41214576
-0.0055938636
-0.43782998
-0.010361503
-0.46481319
-0.010362082
-0.49494706
-0.0085581357
-0.52899755
-0.0063805115
-0.56663837
-0.0045290505
-0.6078312
-0.0033150286
-0.65224493
-0.002680802
-0.6996871
-0.0024431587
-0.75008572
-0.002411775
-0.80349289
-0.0024396478
-0.86007107
-0.0024311128
-0.92006064
-0.0023345215
-0.98378254
-0.0021326367
-1.0515546
-0.0018292741
-1.1238027
-0.0014412091
-1.2009097
-0.00098658931
-1.2833806
-0.00049260086
-1.3714705
-0.14652763
0.16493671
0.27817449
-0.15115567
0.29387224
-0.14792108
0.30541069
-0.13860587
0.27450297
-0.12566626
0.18786724
-0.11125286
0.019078811
-0.10279664
-0.24399938
-0.10955274
-0.49840349
-0.12588948
-0.57267326
-0.13617597
-0.53034423
-0.099189464
-0.41116006
-0.11171953
-0.24077738
-0.12659156
-0.048393186
-0.14618559
0.10193543
-0.17696406
0.14354482
-0.21787091
0.12174439
-0.2604365
0.095021961
-0.29942155
0.06784619
-0.33488313
0.037268538
-0.36515315
0.011528487
-0.39023437
-0.0048223833
-0.41291724
-0.011827323
-0.43636416
-0.012279345
-0.46289593
-0.009880157
-0.49362504
-0.0070601037
-0.52831796
-0.0045741146
-0.56659331
-0.0029055058
-0.60824072
-0.002026234
-0.6528995
-0.0017252168
-0.70040504
-0.0017579293
-0.75073957
-0.0019252018
-0.80400734
-0.0020911885
-0.860411
-0.0021761344
-0.92021903
-0.002143347
-0.98377183
-0.0019869006
-1.051397
-0.0017192972
-1.1235246
-0.0013616418
-1.2005347
-0.00093498596
-1.2829382
-0.00046638776
-1.3710041
-0.14978526
0.28143212
-0.14499345
0.16457013
0.29032706
-0.14761049
0.29624272
-0.13875311
0.26210903
-0.12621193
0.17389245
-0.11169146
0.0097670847
-0.10194113
-0.24058223
-0.10621378
-0.48675377
-0.12120246
-0.56671159
-0.13185115
-0.53091131
-0.1356089
-0.40951899
-0.10083053
-0.23778176
-0.11471515
-0.041565025
-0.13341972
0.11845709
-0.16270725
0.16822144
-0.20164068
0.14692629
-0.24305281
0.1163727
-0.28178724
0.085659439
-0.3172348
0.049674503
-0.3472891
0.01716218
-0.37078684
-0.0044865337
-0.39057022
-0.014304332
-0.41044024
-0.015341864
-0.43330165
-0.012203624
-0.46057246
-0.0083229636
-0.49236218
-0.0050012752
-0.5278908
-0.0026367775
-0.56686203
-0.001358551
-0.60890841
-0.0008899308
-0.65373479
-0.00092776153
-0.7012352
-0.0012088355
-0.75145593
-0.0015455546
-0.80455297
-0.0018220258
-0.8607651
-0.0019775635
-0.92038481
-0.001991709
-0.98376702
-0.001867934
-1.0512483
-0.0016271613
-1.1232591
-0.0012934837
-1.2001762
-0.00089057033
-1.282514
-0.00044486887
-1.3705592
-0.14737571
0.28791751
-0.14834948
0.28478816
-0.14402708
0.16318722
0.28768817
-0.13905593
0.25032108
-0.12696515
0.16024822
-0.11256771
-0.00015264227
-0.10177173
-0.23887755
-0.10364582
-0.47608928
-0.11687828
-0.56045885
-0.1274552
-0.53023531
-0.13252714
-0.41712701
-0.12800088
-0.23454305
-0.10406925
-0.034262854
-0.12201732
0.13484412
-0.14980675
0.19246577
-0.18695157
0.17231685
-0.22703124
0.13876138
-0.26544149
0.1048694
-0.30099721
0.063724229
-0.33128452
0.02352146
-0.35364837
-0.0046250047
-0.37064837
-0.018016487
-0.38685807
-0.019836931
-0.40594517
-0.015767534
-0.42973774
-0.010422698
-0.45847273
-0.0059058271
-0.49145763
-0.0026327601
-0.52789482
-0.00073369352
-0.56748689
3.1655131e-05
-0.60982999
6.6957454e-05
-0.65472951
-0.00029013048
-0.70215391
-0.00078771816
-0.75221377
-0.001261828
-0.80511317
-0.0016215442
-0.86112112
-0.0018269673
-0.92054955
-0.0018728771
-0.98376207
-0.0017712756
-1.0511042
-0.0015498419
-1.1230028
-0.0012348187
-1.1998319
-0.0008520264
-1.2821069
-0.00042695587
-1.3701323
-0.13951654
0.279829
-0.14689654
0.28646457
-0.14738147
0.28814255
-0.14342011
0.16076097
0.23914621
-0.12788107
0.14705378
-0.11377071
-0.010559295
-0.10216106
-0.23888513
-0.10176414
-0.46658559
-0.11314952
-0.55396839
-0.12336874
-0.52865183
-0.12903868
-0.42338861
-0.12626555
-0.24748133
-0.1150626
-0.02636814
-0.11196396
0.15100896
-0.13818216
0.21627376
-0.17361474
0.19761037
-0.2122451
0.16190439
-0.25017425
0.12529672
-0.28586881
0.079366895
-0.31663987
0.030809109
-0.33857217
-0.0052813233
-0.35299206
-0.023229114
-0.36543575
-0.02607199
-0.38062301
-0.020839897
-0.40087281
-0.013598082
-0.42656235
-0.0074004031
-0.45697815
-0.002970694
-0.4911197
-0.00022311499
-0.5284054
0.0010070958
-0.56846233
0.0012139884
-0.61097702
0.00083243731
-0.65585207
0.00019209972
-0.70313373
-0.00048353024
-0.75299207
-0.0010623066
-0.8056724
-0.0014795837
-0.86146851
-0.0017164758
-0.92070595
-0.001780621
-0.98375273
-0.0016931751
-1.0509609
-0.0014845995
-1.122753
-0.0011839622
-1.1995
-0.00081821131
-1.2817156
-0.00041154261
-1.3697207
-0.12890692
0.22853658
-0.13982285
0.27275531
-0.1468054
0.28588849
-0.1466358
0.29135824
-0.14309012
0.15722254
0.1343534
-0.11518068
-0.021257804
-0.10307221
-0.2406923
-0.10035389
-0.45831079
-0.11003894
-0.54736621
-0.1197517
-0.52636723
-0.12565334
-0.42853654
-0.12389075
-0.25875903
-0.11498785
-0.039148114
-0.10228263
0.16705112
-0.12800611
0.23948719
-0.16139559
0.2225289
-0.19853327
0.18539724
-0.23573796
0.14635398
-0.27123151
0.095859982
-0.30236189
0.038845664
-0.32467643
-0.0065315043
-0.33732199
-0.030111987
-0.34610918
-0.034388997
-0.35711874
-0.027701714
-0.37376119
-0.018051306
-0.39641958
-0.0096636871
-0.42429907
-0.0036739664
-0.45627488
0.00011461314
-0.49145743
0.0020106664
-0.52940897
0.0025040922
-0.56975244
0.0021624724
-0.61230706
0.0014057641
-0.65706574
0.00052943739
-0.7041467
-0.00028335652
-0.75377102
-0.00093495799
-0.80621703
-0.0013867223
-0.86179826
-0.0016387612
-0.92084781
-0.0017098708
-0.98373603
-0.0016295403
-1.0508159
-0.0014290779
-1.1225079
-0.0011394648
-1.1991787
-0.00078812602
-1.2813391
-0.00039772346
-1.369323
-0.11667617
0.12212266
-0.12978579
0.21849952
-0.14058115
0.26653107
-0.1468301
0.28608279
-0.14595718
0.2942253
-0.14312033
0.15256472
-0.032189999
-0.10424849
-0.24399628
-0.099768219
-0.45120794
-0.10745674
-0.54082855
-0.11657661
-0.52364509
-0.12247384
-0.43273013
-0.12145976
-0.26843442
-0.11421535
-0.050101489
-0.10403448
0.16447282
-0.099704336
0.26224788
-0.15076681
0.24677905
-0.18564575
0.20862884
-0.22176486
0.16702221
-0.25640618
0.1111106
-0.28648213
0.046386763
-0.30990299
-0.0093140939
-0.32189384
-0.039064175
-0.3283698
-0.045171775
-0.33532641
-0.036649477
-0.34817098
-0.023975656
-0.36783684
-0.012825155
-0.39325812
-0.004817505
-0.42315553
0.00027513085
-0.4564354
0.0030214655
-0.49246823
0.0039407791
-0.53084565
0.0037115804
-0.57130154
0.0028702633
-0.61377156
0.0017964685
-0.65833277
0.00073594254
-0.705166
-0.00017323375
-0.75453274
-0.0008679548
-0.8067358
-0.0013341425
-0.86210288
-0.0015874199
-0.92097026
-0.0016564539
-0.98370912
-0.0015767736
-1.0506682
-0.0013814086
-1.1222659
-0.0011001503
-1.1988667
-0.00076096204
-1.2809758
-0.00038489521
-1.3689381
-0.10554025
-0.043325921
-0.11816578
0.11050265
-0.13104812
0.20896649
-0.14139334
0.2610943
-0.14679507
0.28692068
-0.14543502
0.29653999
-0.14355571
0.14666052
-0.24858293
-0.099661837
-0.44519147
-0.10578469
-0.53417381
-0.11411147
-0.52064352
-0.11957818
-0.43615868
-0.11904528
-0.2766692
-0.11322498
-0.058771291
-0.10554555
0.16277445
-0.1023361
0.2752128
-0.11266926
0.27022248
-0.17421023
0.23121019
-0.20822711
0.18638018
-0.24112283
0.12424844
-0.26954403
0.051668214
-0.29176358
-0.015803853
-0.30341323
-0.051419028
-0.30953899
-0.058906178
-0.3146354
-0.04806983
-0.32390605
-0.031529239
-0.3406174
-0.016982727
-0.36367927
-0.0064618087
-0.39161381
0.00026619577
-0.4231466
0.0040350648
-0.457449
0.0055305551
-0.494058
0.0054960118
-0.53263009
0.0046087544
-0.57304004
0.0033435788
-0.61531867
0.0020199477
-0.65961678
0.00082809807
-0.70616733
-0.00013882302
-0.75526187
-0.00085013196
-0.80721981
-0.0013135078
-0.86237679
-0.0015567491
-0.92106997
-0.0016165303
-0.98366936
-0.0015338359
-1.0505158
-0.0013400772
-1.122026
-0.0010650261
-1.1985626
-0.00073613612
-1.2806246
-0.00037279989
-1.3685653
-0.10006272
-0.25406046
-0.10725429
-0.05423741
-0.11974086
0.099195391
-0.13231849
0.19989163
-0.1422024
0.25650163
-0.14666672
0.28815238
-0.14500786
0.29799214
-0.14449304
0.13938673
-0.44006043
-0.10479288
-0.52751076
-0.11244775
-0.51748476
-0.11727024
-0.43884819
-0.11688867
-0.28340939
-0.1123051
-0.065139016
-0.10685725
0.16258586
-0.10535696
0.28865268
-0.11577598
0.29039629
-0.13284307
0.25243383
-0.19543387
0.20409665
-0.22594358
0.13520704
-0.25208142
0.052790926
-0.27066674
-0.027710463
-0.27985697
-0.069431244
-0.28540102
-0.076065939
-0.29237923
-0.062189486
-0.30051575
-0.040903702
-0.31453159
-0.022175646
-0.33542448
-0.0086330562
-0.36150802
9.2555368e-05
-0.39144017
0.0050861329
-0.42419766
0.0072938347
-0.45921227
0.0075428302
-0.49610482
0.0066497048
-0.53467104
0.0052010446
-0.5748975
0.0035996915
-0.61689841
0.0020960199
-0.6608847
0.0008236088
-0.70712976
-0.00016612192
-0.75594588
-0.00087119725
-0.80766212
-0.0013172178
-0.86261632
-0.0015412647
-0.92114523
-0.0015893279
-0.98361387
-0.00149844
-1.0503574
-0.0013037242
-1.1217873
-0.0010332514
-1.1982655
-0.00071322151
-1.2802841
-0.00036137211
-1.3682039
-0.10465997
-0.43546318
-0.10188449
-0.25943027
-0.1085906
-0.065387677
-0.1212016
0.088078505
-0.13356376
0.19125299
-0.14293547
0.25277039
-0.146425
0.28956952
-0.14493216
0.29843126
-0.14590397
0.13067211
-0.52075476
-0.11154887
-0.51417499
-0.11575751
-0.4407624
-0.11535603
-0.28839459
-0.11190347
-0.06890974
-0.10853438
0.16450038
-0.10877178
0.30236
-0.11906428
0.3113013
-0.13668098
0.27341101
-0.15382025
0.21978456
-0.21112179
0.14391284
-0.23464938
0.04942018
-0.24871068
-0.046539467
-0.25183774
-0.095223865
-0.25406435
-0.097010771
-0.26445619
-0.078278787
-0.27628992
-0.05204891
-0.28937054
-0.028395063
-0.30831217
-0.011312332
-0.3327452
-0.0002166017
-0.36119886
0.0062198093
-0.39257385
0.0092661312
-0.42616996
0.0098938898
-0.46156333
0.0090329245
-0.49848804
0.0074072998
-0.53687729
0.0055106211
-0.57680843
0.0036639729
-0.61846637
0.0020473517
-0.66210844
0.00074073793
-0.70803662
-0.00024199309
-0.75657509
-0.00092182806
-0.80805751
-0.0013386702
-0.86281892
-0.001539059
-0.9211955
-0.0015693459
-0.98354296
-0.001468461
-1.0501927
-0.0012712461
-1.1215493
-0.001004136
-1.1979746
-0.00069187639
-1.2799536
-0.00035054803
-1.3678534
-0.11153965
-0.51387509
-0.10688217
-0.4304655
-0.10308175
-0.26493912
-0.10986865
-0.076720631
-0.12250791
0.077022655
-0.13473232
0.18304984
-0.14354518
0.24989057
-0.14625127
0.29088862
-0.14522554
0.29775283
-0.14778668
0.12047866
-0.51057566
-0.1151482
-0.44190739
-0.11461252
-0.29141789
-0.11233273
-0.069777542
-0.11103566
0.16894049
-0.11297448
0.31660044
-0.12301222
0.33264325
-0.14040622
0.29522814
-0.15849811
0.24003278
-0.17406846
0.15065303
-0.21786197
0.043124445
-0.22835364
-0.069157647
-0.2260925
-0.12521709
-0.22184451
-0.12177997
-0.22929515
-0.094439468
-0.2482955
-0.063848283
-0.26449055
-0.035525216
-0.28224038
-0.014397738
-0.30522677