/*--------------------------------*- C++ -*----------------------------------*\
| =========                 |                                                 |
| \\      /  F ield         | OpenFOAM: The Open Source CFD Toolbox           |
|  \\    /   O peration     | Version:  5.0                                   |
|   \\  /    A nd           | Web:      www.OpenFOAM.org                      |
|    \\/     M anipulation  |                                                 |
\*---------------------------------------------------------------------------*/
FoamFile
{
    version     2.0;
    format      ascii;
    class       surfaceScalarField;
    location    "100";
    object      phi_0;
}
// * * * * * * * * * * * * * * * * * * * * * * * * * * * * * * * * * * * * * //

dimensions      [0 3 -1 0 0 0 0];

internalField   nonuniform List<scalar> 
18180
(
0.0069411075
-1.408709
0.013927596
-1.3181104
0.0066008216
-1.4153099
0.021031666
-1.2334993
0.013368256
-1.3248779
0.0058259171
-1.4211358
0.02859469
-1.1545671
0.020497854
-1.2406289
0.011850364
-1.3309023
0.0047149984
-1.4258508
0.036673182
-1.0805901
0.028356969
-1.1624262
0.018310063
-1.2470886
0.0096511421
-1.3358385
0.0034369441
-1.4292877
0.045372337
-1.0111644
0.037155293
-1.0893885
0.02559329
-1.1697094
0.015042828
-1.2524803
0.0070768585
-1.3394784
0.0020312759
-1.431319
0.054686142
-0.94573862
0.047065447
-1.0210745
0.033940967
-1.0977361
0.021288109
-1.1759547
0.011110836
-1.2565143
0.0042341829
-1.3416813
0.00065114771
-1.4319701
0.0645488
-0.88395669
0.058237963
-0.95691114
0.043590237
-1.0307238
0.028649737
-1.1050978
0.015889173
-1.180733
0.0066963378
-1.2589764
0.0013844432
-1.3424146
-0.00055320791
-1.4314169
0.074858951
-0.82551278
0.070711695
-0.89643042
0.054756247
-0.96807715
0.037463277
-1.0395373
0.021697036
-1.1109056
0.0096303667
-1.1836671
0.0022160243
-1.259808
-0.0012097665
-1.341758
-0.0015263115
-1.4298906
0.085519034
-0.77009243
0.084444174
-0.83924526
0.067625666
-0.90929984
0.048032809
-0.97864668
0.02886117
-1.0467015
0.013259414
-1.1145347
0.0032328626
-1.1846839
-0.0019470736
-1.2590707
-0.0033707091
-1.3399136
-0.0023944671
-1.4274962
0.096334773
-0.71744407
0.099373682
-0.78502194
0.082305134
-0.85392473
0.06067986
-0.92194689
0.037747853
-0.98753337
0.017888046
-1.0513301
0.0045304855
-1.1158323
-0.0028341974
-1.1837968
-0.0054599398
-1.2569815
-0.0051049143
-1.3372032
-0.0030925156
-1.4244036
0.10704524
-0.66743093
0.11536539
-0.73343577
0.098814327
-0.80153113
0.075694871
-0.86893974
0.048786061
-0.9329851
0.02388103
-0.99352635
0.0062935725
-1.0530932
-0.0039666247
-1.1146999
-0.0080079556
-1.1812488
-0.0082106853
-1.2538757
-0.0064251454
-1.3338705
-0.0035532302
-1.4208504
0.11739608
-0.61994208
0.13216174
-0.68422728
0.11708351
-0.75170495
0.093327556
-0.81916382
0.062432951
-0.88258663
0.031720885
-0.94082495
0.0087209688
-0.99595375
-0.005368208
-1.0516916
-0.011218969
-1.1114889
-0.012015475
-1.177444
-0.010205907
-1.2500949
-0.0072855983
-1.3301382
-0.0037886919
-1.4170617
0.12714548
-0.57488212
0.14943869
-0.63721903
0.1369532
-0.70409697
0.11375107
-0.77212847
0.079171627
-0.83590249
0.04198545
-0.89285119
0.01212562
-0.94422961
-0.0070488541
-0.9942731
-0.015317572
-1.047593
-0.016753442
-1.1067509
-0.01477422
-1.1728757
-0.011447915
-1.2459326
-0.0077128125
-1.3262141
-0.003849248
-1.4132125
0.1360639
-0.53220629
0.16683796
-0.59228138
0.15815362
-0.65841946
0.13702673
-0.72737264
0.099501963
-0.7924588
0.055387697
-0.84930474
0.016961684
-0.89768726
-0.0089666769
-0.94231178
-0.020599284
-0.98899139
-0.02277606
-1.0415704
-0.020363776
-1.1011613
-0.016353251
-1.1679703
-0.012001652
-1.2416438
-0.0077925164
-1.3222708
-0.0037828374
-1.4094296
0.14395683
-0.49190231
0.18397485
-0.54934318
0.18030861
-0.61443637
0.16306779
-0.68446051
0.1238874
-0.75175807
0.072749581
-0.80982069
0.023847872
-0.85619093
-0.011053566
-0.89560037
-0.027440235
-0.93547083
-0.030530324
-0.98123713
-0.027364092
-1.0345701
-0.022243399
-1.0952712
-0.01692629
-1.1630457
-0.012012296
-1.237424
-0.0076147055
-1.3184389
-0.0036265394
-1.4058031
0.15067752
-0.45395871
0.20045442
-0.50838188
0.20299165
-0.57202622
0.19166486
-0.64303345
0.15269811
-0.71327122
0.094989273
-0.77399776
0.033657544
-0.81963036
-0.013170512
-0.85407398
-0.036290444
-0.88675016
-0.04058833
-0.92541283
-0.036219977
-0.97238124
-0.029464663
-1.0273488
-0.022714299
-1.0894832
-0.016744646
-1.1583133
-0.011636487
-1.2334022
-0.0072615806
-1.3148039
-0.0034135669
-1.4023895
0.15613298
-0.41836565
0.21588186
-0.46938614
0.22567821
-0.53106844
0.2224906
-0.60285196
0.18623226
-0.67656761
0.12315443
-0.74143638
0.047482047
-0.78782227
-0.01514094
-0.81765993
-0.047738991
-0.84262544
-0.053693141
-0.87364535
-0.047489794
-0.91414301
-0.038362172
-0.96348373
-0.029613223
-1.0204499
-0.022163672
-1.0840641
-0.016043754
-1.1539061
-0.011010215
-1.2296536
-0.0068033022
-1.3114141
-0.0031717
-1.3992178
0.16028191
-0.38510285
0.22989277
-0.43237656
0.24772043
-0.49142836
0.25461857
-0.56319641
0.22406497
-0.64068467
0.15787862
-0.71129181
0.066748043
-0.76070237
-0.016356299
-0.78660691
-0.06242918
-0.80296974
-0.070787315
-0.82553126
-0.061856138
-0.859279
-0.049339035
-0.90316615
-0.037845622
-0.95525133
-0.028420228
-1.0141933
-0.02094474
-1.0791632
-0.015019519
-1.1498968
-0.010238626
-1.2262183
-0.0062910161
-1.3082948
-0.0029191879
-1.3962986
0.16315917
-0.35415435
0.24216442
-0.39737451
0.2684462
-0.45310233
0.28663367
-0.52344346
0.26356887
-0.60270031
0.19714292
-0.67994897
0.091529479
-0.73607324
-0.016444056
-0.76061462
-0.081073976
-0.76796211
-0.093050492
-0.78070657
-0.080151468
-0.80723593
-0.062834967
-0.84578307
-0.047632994
-0.89337878
-0.035621716
-0.94804984
-0.026414127
-1.0087239
-0.019344326
-1.0748384
-0.013823462
-1.1463119
-0.0093989307
-1.2231103
-0.0057601538
-1.3054539
-0.0026672439
-1.3936314
0.16488231
-0.3254991
0.25258511
-0.36457504
0.28721938
-0.41614769
0.31702457
-0.48349323
0.30183249
-0.56170708
0.23532516
-0.64088255
0.11810331
-0.7065228
-0.017669308
-0.73484799
-0.10522622
-0.73646237
-0.12199926
-0.73901334
-0.10342519
-0.75743284
-0.07931658
-0.79075432
-0.059159055
-0.83425701
-0.043834516
-0.88516598
-0.03246787
-0.9419961
-0.024003529
-1.0040647
-0.017574587
-1.0710872
-0.012564825
-1.143146
-0.0085454266
-1.2203251
-0.0052351299
-1.302886
-0.0024231758
-1.3912082
0.16561812
-0.29908123
0.26119001
-0.33410401
0.30368347
-0.38103912
0.34432572
-0.44344884
0.33594808
-0.51760883
0.27002457
-0.59640648
0.14180491
-0.66458415
-0.023524905
-0.7006672
-0.13944297
-0.70063124
-0.15963812
-0.69882351
-0.13306963
-0.7093689
-0.099283199
-0.73746622
-0.072539747
-0.77737363
-0.053050937
-0.82504059
-0.039062368
-0.87857148
-0.028950652
-0.93704898
-0.021473405
-1.0001659
-0.01578027
-1.0678718
-0.011317198
-1.1403743
-0.0077144625
-1.2178457
-0.0047320387
-1.3005771
-0.0021922533
-1.389016
0.16555924
-0.27481214
0.26807819
-0.30596941
0.31757762
-0.34799816
0.36725467
-0.40396807
0.3642854
-0.47178616
0.29930542
-0.54688968
0.16014084
-0.61474241
-0.035174597
-0.65293446
-0.18709016
-0.65302002
-0.20727797
-0.65299139
-0.17003709
-0.66185605
-0.12330318
-0.68534892
-0.087775924
-0.72223005
-0.063161505
-0.76726306
-0.046069804
-0.81803315
-0.034076691
-0.87344544
-0.025438343
-0.93308404
-0.019004852
-0.99694132
-0.014052126
-1.0651369
-0.010126777
-1.137962
-0.0069286914
-1.2156491
-0.0042609156
-1.2985085
-0.0019780186
-1.3870379
0.16491399
-0.25257682
0.27339662
-0.28013057
0.32882335
-0.31721514
0.38517414
-0.36591764
0.38583538
-0.42551805
0.32226834
-0.49474909
0.17284712
-0.55959595
-0.054649106
-0.5952679
-0.2426999
-0.59732471
-0.26509506
-0.59520293
-0.2124394
-0.61058908
-0.15131596
-0.63384327
-0.10474213
-0.66838272
-0.073912368
-0.71147918
-0.053261295
-0.76007157
-0.039193239
-0.8129166
-0.029331195
-0.86955259
-0.022143632
-0.92994526
-0.016700198
-0.99429325
-0.012441497
-1.0628221
-0.009019788
-1.1358709
-0.0062009651
-1.213709
-0.0038274182
-1.2966591
-0.0017842973
-1.3852536
0.16388748
-0.23224037
0.27733795
-0.25651815
0.33750614
-0.28881337
0.39794195
-0.32998295
0.40043817
-0.38052042
0.33864832
-0.44189804
0.18109768
-0.50299965
-0.07583588
-0.53840918
-0.29513146
-0.54283635
-0.32707557
-0.5353442
-0.25643969
-0.55120264
-0.18058753
-0.5813175
-0.123013
-0.6155724
-0.084890405
-0.65740468
-0.060292337
-0.70444814
-0.044025997
-0.75523881
-0.032947
-0.8093008
-0.025055094
-0.86664113
-0.019168268
-0.92747719
-0.014607565
-0.99212718
-0.010972649
-1.0608693
-0.0080088517
-1.134063
-0.0055372932
-1.2119992
-0.0034338704
-1.2950095
-0.0016070374
-1.3836466
0.16267654
-0.21365936
0.28007121
-0.23497363
0.34379747
-0.26280948
0.4057425
-0.29661391
0.40867351
-0.33821829
0.34838258
-0.39025468
0.18446652
-0.44526688
-0.096005978
-0.48282955
-0.33988448
-0.49365615
-0.38035079
-0.48956113
-0.30173102
-0.49005288
-0.20680377
-0.5249864
-0.14082846
-0.56350205
-0.095581968
-0.60488083
-0.066701483
-0.65099553
-0.048220556
-0.70025358
-0.036016735
-0.75216908
-0.027547135
-0.80680875
-0.021328176
-0.86448122
-0.016542771
-0.92554198
-0.01274047
-0.99035936
-0.0096527483
-1.0592254
-0.007097678
-1.1325026
-0.0049391293
-1.2104939
-0.0030799161
-1.2935366
-0.001448103
-1.3821985
0.1614606
-0.19668936
0.2818092
-0.21539736
0.34779198
-0.23896814
0.40908249
-0.26614947
0.41154313
-0.29948354
0.3518879
-0.34172361
0.18252027
-0.38830843
-0.11572402
-0.42554884
-0.37939996
-0.44331407
-0.42494949
-0.44905746
-0.34924518
-0.44204696
-0.23182554
-0.46503111
-0.15464669
-0.51116817
-0.10517051
-0.55391351
-0.071951604
-0.59963071
-0.051354247
-0.64786184
-0.038222555
-0.69804776
-0.029386361
-0.75032985
-0.023018477
-0.80511845
-0.018141517
-0.86288247
-0.014256297
-0.92402615
-0.011092739
-0.98891937
-0.0084788457
-1.0578442
-0.0062845745
-1.1311571
-0.0044050625
-1.2091687
-0.0027642379
-1.2922205
-0.0013072041
-1.3808913
0.16040597
-0.18119954
0.28276561
-0.19764577
0.34980982
-0.21741519
0.40900963
-0.23889527
0.41014415
-0.26475049
0.34996382
-0.29755946
0.17540524
-0.33460858
-0.13527967
-0.36875277
-0.41424697
-0.39070183
-0.46361982
-0.40464374
-0.39411297
-0.40418967
-0.26446854
-0.40940396
-0.16257333
-0.45710447
-0.11180383
-0.50453484
-0.075499631
-0.55036548
-0.052947907
-0.59803705
-0.039209351
-0.64687505
-0.030315829
-0.69711829
-0.024056139
-0.74929219
-0.01928163
-0.80397834
-0.015440586
-0.86169818
-0.01227796
-0.92284093
-0.0096484013
-0.98774982
-0.0074426983
-1.0566861
-0.005564722
-1.1299975
-0.0039319034
-1.2080011
-0.0024847187
-1.291043
-0.0011826348
-1.3797087
0.15962604
-0.16702724
0.28313793
-0.18157187
0.35023167
-0.19806762
0.40631222
-0.21471778
0.40555385
-0.23430498
0.34388793
-0.25867459
0.16453836
-0.28669258
-0.15410211
-0.31578614
-0.44291359
-0.34008615
-0.49564995
-0.3586717
-0.43255835
-0.36619836
-0.30290431
-0.3657539
-0.17021004
-0.40176725
-0.11244199
-0.45646632
-0.076676446
-0.50335803
-0.052504731
-0.55080866
-0.038597636
-0.59864877
-0.030058438
-0.64713244
-0.024252364
-0.69692206
-0.019834851
-0.74873896
-0.016211609
-0.80320732
-0.01315431
-0.86082183
-0.010570149
-0.92191918
-0.008387969
-0.98680454
-0.0065336306
-1.0557172
-0.0049316522
-1.1289977
-0.003515468
-1.2069703
-0.0022386426
-1.2899869
-0.0010733301
-1.3786353
0.1591858
-0.15407904
0.2831293
-0.16701861
0.34933491
-0.1806751
0.40177119
-0.1935266
0.39855691
-0.20772084
0.33423017
-0.22464722
0.15156436
-0.24570059
-0.17090433
-0.26989037
-0.46459081
-0.29410893
-0.52055192
-0.31518417
-0.46333217
-0.32789789
-0.33833096
-0.33077171
-0.18412049
-0.35184345
-0.10554748
-0.40866176
-0.074254544
-0.45888822
-0.049617476
-0.50624528
-0.036001001
-0.55340529
-0.028332948
-0.60037425
-0.023409407
-0.64797539
-0.019678298
-0.69707862
-0.016493518
-0.74845706
-0.013676191
-0.80268543
-0.011212153
-0.86017983
-0.0090961887
-0.92121096
-0.0072917591
-0.98604642
-0.005740259
-1.0549086
-0.004378226
-1.128135
-0.0031510475
-1.2060579
-0.0020231201
-1.2890372
-0.00097813627
-1.3776572
0.15635719
-0.16568973
0.28288114
-0.15383088
0.34748724
-0.16517095
0.39593063
-0.17483454
0.38990639
-0.18487608
0.32199099
-0.19548166
0.13711806
-0.21020092
-0.18579704
-0.23080789
-0.48089893
-0.25358224
-0.53945754
-0.27520331
-0.48730421
-0.29121212
-0.3667698
-0.29945905
-0.20251146
-0.31238074
-0.095661045
-0.36172988
-0.065815801
-0.4171005
-0.044019774
-0.46448592
-0.031065818
-0.51118046
-0.024876653
-0.55686159
-0.021336627
-0.60244703
-0.018691164
-0.64896253
-0.016222476
-0.69734966
-0.013812924
-0.74832032
-0.011557554
-0.80234003
-0.00955286
-0.85972315
-0.0078237337
-0.92067899
-0.0063415402
-0.98544513
-0.0050514242
-1.0542354
-0.0038970678
-1.127389
-0.0028337755
-1.2052473
-0.0018351977
-1.2881801
-0.00089617216
-1.376761
0.1546
-0.16370648
0.27869338
-0.16150197
0.34483698
-0.15118061
0.38939331
-0.15863362
0.38012671
-0.16505487
0.30824221
-0.1711273
0.12172828
-0.18009188
-0.19917942
-0.19681854
-0.4936493
-0.21805752
-0.55394044
-0.23909934
-0.50556602
-0.2569415
-0.38816963
-0.26981229
-0.22081019
-0.28116031
-0.088050894
-0.31999089
-0.050146532
-0.37739915
-0.035325646
-0.42579463
-0.023566124
-0.47198561
-0.019461724
-0.51659539
-0.017868124
-0.56033009
-0.016768315
-0.60436988
-0.015348493
-0.64983651
-0.01355023
-0.69761235
-0.011610367
-0.74826751
-0.0097617224
-0.80213117
-0.0081272932
-0.8594196
-0.0067258391
-0.92029469
-0.0055211144
-0.98497544
-0.0044564574
-1.053676
-0.0034809367
-1.1267418
-0.0025588104
-1.2045237
-0.0016719824
-1.2874043
-0.00082678341
-1.3759342
0.15385617
-0.16163395
0.27522284
-0.16023594
0.33707027
-0.15373526
0.3823567
-0.14414401
0.36979266
-0.14829957
0.29375915
-0.15057181
0.10601041
-0.15540943
-0.21110954
-0.16816175
-0.5028213
-0.18764654
-0.56439506
-0.2076029
-0.51869266
-0.22597271
-0.40323676
-0.24187437
-0.23588496
-0.25473753
-0.083570244
-0.28564096
-0.030211814
-0.33992561
-0.022294833
-0.39042996
-0.013520739
-0.43584001
-0.011902545
-0.47954479
-0.012871974
-0.52159154
-0.013828751
-0.56326965
-0.013844825
-0.60587355
-0.012896949
-0.65048979
-0.011394348
-0.69782837
-0.0097502666
-0.74827896
-0.0082193115
-0.80203915
-0.0068981988
-0.85924724
-0.0057807188
-0.92003509
-0.0048161443
-0.98461576
-0.0039454037
-1.0532115
-0.0031228633
-1.1261777
-0.0023214625
-1.2038742
-0.001530764
-1.2867003
-0.00076881073
-1.3751654
0.15399906
-0.15947137
0.27257673
-0.15898785
0.32943469
-0.15260036
0.37047055
-0.14184911
0.3590851
-0.13343645
0.27907976
-0.13362018
0.090418079
-0.13497947
-0.22181271
-0.14470626
-0.5087577
-0.16222535
-0.57141465
-0.18062696
-0.52750335
-0.1987922
-0.41303256
-0.21617691
-0.24656805
-0.23119128
-0.081245509
-0.25706227
-0.0091985081
-0.30665427
-0.0044058249
-0.35781461
-0.0011526776
-0.40279802
-0.0020943457
-0.44564821
-0.0062531782
-0.48616359
-0.0098093631
-0.52561093
-0.011707294
-0.56540718
-0.011890358
-0.60688014
-0.010960706
-0.65092343
-0.0095672653
-0.69801137
-0.0081405359
-0.74835774
-0.0068821439
-0.80205521
-0.0058384176
-0.85918954
-0.0049706572
-0.91988057
-0.0042139622
-0.9843472
-0.0035089779
-1.0528254
-0.0028162392
-1.125683
-0.0021172745
-1.2032877
-0.0014088609
-1.2860603
-0.00071813993
-1.3744473
0.15484676
-0.15723068
0.27085427
-0.15774891
0.32203442
-0.15158758
0.35884685
-0.14097666
0.34534346
-0.12810747
0.26454708
-0.11890377
0.07508724
-0.11828934
-0.23140566
-0.12538653
-0.51240901
-0.14105495
-0.5758428
-0.15779719
-0.53297539
-0.17515491
-0.41891764
-0.19290712
-0.25313036
-0.2096146
-0.079668876
-0.23276791
0.01087385
-0.27713462
0.017217786
-0.32827788
0.013790954
-0.37275825
0.0098568573
-0.41474922
0.0020509455
-0.45395233
-0.0046754949
-0.49129746
-0.0089593644
-0.52835886
-0.010591034
-0.5667065
-0.010390714
-0.60745013
-0.009289818
-0.65120088
-0.0079534551
-0.69819845
-0.0067232153
-0.74851667
-0.0057188602
-0.80217476
-0.0049281593
-0.85923203
-0.0042809515
-0.91981358
-0.0037032105
-0.98415296
-0.0031385446
-1.0525031
-0.0025548664
-1.1252454
-0.0019420518
-1.2027545
-0.0013032453
-1.2854751
-0.00066875334
-1.3737785
0.15618477
-0.15493594
0.27012654
-0.15650295
0.31498102
-0.15069551
0.34754292
-0.14028364
0.33154799
-0.12718119
0.25141893
-0.11497932
0.060695286
-0.10451182
-0.23999291
-0.1097021
-0.51431726
-0.12347828
-0.57825901
-0.13863874
-0.53595931
-0.15481327
-0.42191731
-0.17215525
-0.25639509
-0.18964239
-0.077758479
-0.21152499
0.029262689
-0.25115675
0.041325852
-0.30124269
0.031188404
-0.34567533
0.023746904
-0.38664829
0.012079193
-0.42477747
0.0015787681
-0.46020659
-0.0056303321
-0.49462649
-0.0091366006
-0.52981329
-0.0098059398
-0.56729128
-0.0090369995
-0.60770295
-0.0077570706
-0.65139726
-0.0064904267
-0.69843124
-0.0054657631
-0.74876976
-0.0047101606
-0.80239276
-0.0041523806
-0.8593606
-0.0036988834
-0.91981791
-0.0032735451
-0.98401796
-0.0028261128
-1.0522318
-0.0023329953
-1.1248544
-0.0017918751
-1.2022658
-0.0012108798
-1.284933
-0.00061834652
-1.3731602
0.15781282
-0.15265861
0.27042569
-0.15523509
0.30841008
-0.14993201
0.33661698
-0.13976957
0.31780167
-0.12653731
0.23777991
-0.11354217
0.055278851
-0.10956288
-0.2473078
-0.097196918
-0.51498563
-0.10903373
-0.57911621
-0.12262107
-0.53717092
-0.13742713
-0.42288024
-0.15385034
-0.25725273
-0.1712976
-0.074932942
-0.19246792
0.046301593
-0.2285639
0.066484128
-0.27631503
0.051035234
-0.32108952
0.03926454
-0.36119296
0.023866916
-0.39843601
0.0089909881
-0.43218969
-0.0017428731
-0.46409405
-0.0076247604
-0.49613833
-0.0094239325
-0.5301953
-0.0089937935
-0.56733448
-0.0076949225
-0.6077651
-0.0062878594
-0.65159983
-0.0051457928
-0.69875121
-0.0043541321
-0.74912579
-0.0038439258
-0.80270122
-0.0034985727
-0.85956091
-0.0032130515
-0.9198784
-0.0029153986
-0.98392868
-0.0025643282
-1.0520005
-0.0021453409
-1.124501
-0.0016631964
-1.2018135
-0.0011297108
-1.2844217
-0.00057110775
-1.3725891
0.15946852
-0.15044911
0.27170626
-0.15393918
0.3024798
-0.14930481
0.32611711
-0.13943215
0.30424211
-0.12621001
0.22378177
-0.11253918
0.048392827
-0.10665615
-0.23914779
-0.11772289
-0.51494215
-0.097240399
-0.57900109
-0.10914885
-0.53716886
-0.12262314
-0.42251579
-0.13779159
-0.25645186
-0.15465122
-0.071091539
-0.175139
0.062546836
-0.20871316
0.091820123
-0.25389989
0.073181688
-0.29846148
0.056306535
-0.33813151
0.037319499
-0.37464555
0.017598506
-0.40704353
0.0026625132
-0.43659508
-0.0061257622
-0.46559305
-0.0094126689
-0.49614959
-0.0093028099
-0.52988628
-0.007938798
-0.56709061
-0.0062457819
-0.60780718
-0.0048497009
-0.65189592
-0.0039160971
-0.69918925
-0.0033844138
-0.7495853
-0.0031110881
-0.8030887
-0.0029554675
-0.8598185
-0.0028128647
-0.91998094
-0.0026198522
-0.98387315
-0.0023464107
-1.0517994
-0.0019871015
-1.1241771
-0.0015529527
-1.2013903
-0.0010588692
-1.2839339
-0.00053111969
-1.372058
0.16076892
-0.14830183
0.2738753
-0.15261815
0.29733339
-0.14879277
0.31606994
-0.13925764
0.29100276
-0.1261928
0.20959889
-0.11202713
0.040414605
-0.10456095
-0.23285951
-0.11294444
-0.50188118
-0.13078386
-0.57844789
-0.097793595
-0.53630827
-0.11000944
-0.42137175
-0.12376717
-0.25459939
-0.13964405
-0.066321001
-0.15942176
0.078463943
-0.19105611
0.11695441
-0.23384745
0.09694738
-0.27766558
0.074998799
-0.31715374
0.052323404
-0.35313542
0.027498492
-0.38454553
0.0075907029
-0.41197172
-0.0047571343
-0.43796371
-0.0099138871
-0.46509183
-0.010218935
-0.49523347
-0.0085779148
-0.52924716
-0.0064986809
-0.56683771
-0.0046811266
-0.60797575
-0.0034661911
-0.65234583
-0.0028150424
-0.69975862
-0.0025557296
-0.75014066
-0.00250321
-0.80354096
-0.0025124031
-0.86011896
-0.002488113
-0.92011268
-0.0023785956
-0.98384097
-0.0021661168
-1.0516204
-0.0018539703
-1.123876
-0.0014585445
-1.2009906
-0.00099772145
-1.2834673
-0.00049846579
-1.3715595
-0.14635445
0.16125407
0.2768215
-0.15124802
0.29309316
-0.14837792
0.30651237
-0.1392352
0.27820385
-0.12645873
0.19539997
-0.11199389
0.031437401
-0.10304992
-0.22832349
-0.10909697
-0.48921518
-0.12561044
-0.57294152
-0.13629023
-0.53498062
-0.099121251
-0.41983117
-0.11155003
-0.2521782
-0.12618836
-0.060727559
-0.1452375
0.094252849
-0.17521066
0.14174927
-0.21585097
0.12174205
-0.25864212
0.095211867
-0.29787865
0.068821492
-0.33365183
0.038797004
-0.36443393
0.013087526
-0.39004236
-0.0036252321
-0.41310362
-0.01114335
-0.43673424
-0.01202325
-0.46328752
-0.0098650382
-0.49394635
-0.0071759569
-0.52856989
-0.0047477782
-0.56677106
-0.0030830231
-0.60835892
-0.0021852359
-0.65297563
-0.0018586566
-0.70045569
-0.0018661932
-0.75077768
-0.0020113825
-0.80404198
-0.0021589402
-0.86044813
-0.002228928
-0.92026234
-0.0021839992
-0.98382309
-0.0020178143
-1.0514566
-0.0017421263
-1.1235925
-0.0013776879
-1.2006106
-0.00094519039
-1.2830206
-0.00047154603
-1.371088
-0.14984349
0.28031054
-0.14484342
0.16062142
0.28988484
-0.14803971
0.29749091
-0.13935645
0.2659453
-0.12697664
0.18137181
-0.11243057
0.021685722
-0.10224221
-0.2255515
-0.10582191
-0.47740297
-0.12090919
-0.56664975
-0.13190221
-0.53521876
-0.13605209
-0.41828243
-0.10066999
-0.24944312
-0.11428511
-0.054446505
-0.13246941
0.10998243
-0.16096708
0.16616602
-0.19962742
0.14707585
-0.24118476
0.11670356
-0.28013381
0.08680192
-0.31585908
0.051594161
-0.34644899
0.019226492
-0.3705729
-0.0028437866
-0.3908238
-0.013319475
-0.4109275
-0.014938679
-0.43381882
-0.012152146
-0.46100041
-0.0084416775
-0.49268063
-0.0052013891
-0.52811628
-0.0028493162
-0.56700477
-0.0015501258
-0.60899403
-0.0010502733
-0.65378402
-0.0010570947
-0.70126479
-0.0013111846
-0.75147788
-0.0016257903
-0.80457513
-0.001884592
-0.86079247
-0.0020261541
-0.92042019
-0.0020290628
-0.98381184
-0.0018963928
-1.0513023
-0.0016482015
-1.1233219
-0.0013082996
-1.2002475
-0.00089990841
-1.2825922
-0.00044933033
-1.3706386
-0.1477636
0.28780495
-0.14838677
0.28385389
-0.14390299
0.1589439
0.28908154
-0.13963034
0.25428383
-0.12769499
0.16768703
-0.11329186
0.011368777
-0.10211363
-0.22446227
-0.10333144
-0.46665868
-0.1165662
-0.56010368
-0.12745525
-0.53421665
-0.13290432
-0.42557513
-0.12875939
-0.24649887
-0.10361424
-0.047667705
-0.12106391
0.12560741
-0.1480944
0.19016616
-0.18496721
0.17256594
-0.22511751
0.13920702
-0.26368822
0.10615074
-0.29948263
0.066040802
-0.33030572
0.026176971
-0.35339947
-0.00243064
-0.37098604
-0.016653852
-0.38748942
-0.019249867
-0.40661631
-0.015673889
-0.43029707
-0.010562543
-0.45887955
-0.0061416965
-0.49174032
-0.0028929108
-0.52807268
-0.00096789631
-0.567587
-0.00016368374
-0.60988062
-8.9327046e-05
-0.65475178
-0.00041270492
-0.70216327
-0.00088295709
-0.75222071
-0.0013356713
-0.80512405
-0.0016788737
-0.86113975
-0.0018714148
-0.92057784
-0.0019071473
-0.98380108
-0.0017973628
-1.0511532
-0.0015691945
-1.123061
-0.0012484775
-1.199899
-0.00086057506
-1.282181
-0.00043083936
-1.3702078
-0.14005976
0.2813777
-0.14723145
0.28664963
-0.14740148
0.28735237
-0.14332126
0.15620503
0.2432273
-0.1285738
0.15446382
-0.11447178
0.00062133086
-0.10254441
-0.22504516
-0.10153073
-0.4571713
-0.11281882
-0.55335104
-0.12331883
-0.53231727
-0.12935464
-0.43152086
-0.12695859
-0.25939434
-0.11586392
-0.040271979
-0.11100996
0.14106043
-0.13651692
0.2137403
-0.17166853
0.19791096
-0.21031223
0.16243667
-0.24834716
0.1266976
-0.28423508
0.082102856
-0.31554469
0.034151797
-0.33828055
-0.0024055409
-0.35342457
-0.021398952
-0.36624094
-0.025260539
-0.38147875
-0.020701609
-0.40158859
-0.013778157
-0.42708146
-0.0076955878
-0.45732566
-0.0032927302
-0.4913405
-0.00051561286
-0.52852497
0.00076573519
-0.56851641
0.0010226596
-0.6109926
0.00068415015
-0.65584864
7.8248537e-05
-0.70312447
-0.00057087988
-0.7529855
-0.0011295573
-0.80567337
-0.0015317041
-0.86147946
-0.0017569379
-0.92072804
-0.0018119983
-0.98378645
-0.0017169747
-1.0510054
-0.0015023896
-1.1228071
-0.0011965439
-1.199563
-0.00082605862
-1.2817857
-0.0004150211
-1.3697928
-0.129562
0.23272953
-0.14033084
0.27447709
-0.14709118
0.28633933
-0.14663377
0.29066488
-0.14303191
0.15235145
0.14174722
-0.11585721
-0.01035908
-0.10349136
-0.22738274
-0.10020684
-0.4490066
-0.10969543
-0.54651223
-0.11965764
-0.52971659
-0.12591951
-0.43635933
-0.12451617
-0.27064822
-0.11570471
-0.053505163
-0.10263074
0.15644724
-0.12639677
0.23672644
-0.15950307
0.222855
-0.19661258
0.18602668
-0.23390224
0.14796369
-0.26961325
0.099157558
-0.30128978
0.043031879
-0.32442477
-0.0027937021
-0.33789239
-0.027706622
-0.3471169
-0.033307432
-0.35819405
-0.027520758
-0.3746596
-0.018297482
-0.39706927
-0.010050449
-0.4247266
-0.0040788208
-0.45653957
-0.00025521154
-0.4916009
0.001708267
-0.5294675
0.0022672946
-0.56976105
0.0019813291
-0.61228978
0.0012685653
-0.65703895
0.00042557796
-0.70412093
-0.00036240018
-0.75375266
-0.00099563162
-0.80620944
-0.0014337457
-0.86180265
-0.001675448
-0.92086459
-0.001738433
-0.98376499
-0.0016514158
-1.0508563
-0.0014454265
-1.1225582
-0.0011510492
-1.199238
-0.00079536049
-1.2814054
-0.00040093479
-1.3693918
-0.11733174
0.12951696
-0.1303953
0.22279399
-0.141057
0.26844291
-0.14706444
0.28677
-0.14593549
0.29356847
-0.14311918
0.14737456
-0.0215204
-0.10469589
-0.23120215
-0.099671958
-0.44210515
-0.10710828
-0.53974362
-0.11646404
-0.5266817
-0.12269253
-0.44025152
-0.12202732
-0.28033707
-0.11482732
-0.064889915
-0.10431996
0.15275373
-0.09893723
0.25925152
-0.14892185
0.24711383
-0.1837619
0.20940222
-0.21998812
0.16904548
-0.25498403
0.11526417
-0.28571986
0.051657153
-0.30991505
-0.0043907527
-0.32282772
-0.035929826
-0.32966918
-0.04375773
-0.3366666
-0.0364377
-0.34927711
-0.02432351
-0.36863358
-0.013342937
-0.39377678
-0.0053382048
-0.42346721
-0.00019200103
-0.45660278
0.002638889
-0.49253152
0.0036457934
-0.530846
0.0034885018
-0.57126822
0.0027035795
-0.6137248
0.0016722428
-0.65828562
0.00064277522
-0.70512611
-0.00024387997
-0.75450441
-0.00092222479
-0.80672096
-0.0013763021
-0.8621018
-0.0016205118
-0.92098252
-0.0016824221
-0.98373398
-0.0015968606
-1.0507049
-0.0013964106
-1.1223129
-0.0011108101
-1.1989226
-0.00076765268
-1.2810387
-0.00038791048
-1.3690039
-0.1060081
-0.032844041
-0.11877203
0.11789369
-0.13162319
0.21336018
-0.14183129
0.26320976
-0.14696788
0.28780238
-0.14539974
0.29584903
-0.14362242
0.14113842
-0.23628908
-0.099608961
-0.4363656
-0.10541151
-0.53287045
-0.11398146
-0.52339011
-0.11975562
-0.44339373
-0.11955031
-0.28862664
-0.11373775
-0.074003127
-0.10571411
0.15000594
-0.10157217
0.27131624
-0.11100195
0.27059582
-0.17240383
0.23216371
-0.2065234
0.18895769
-0.23990033
0.12931932
-0.26903918
0.058189186
-0.29225189
-0.0092374207
-0.30506838
-0.047387959
-0.31136958
-0.057100309
-0.3163266
-0.047848912
-0.32525539
-0.032028577
-0.34157204
-0.017680522
-0.36429599
-0.0071397084
-0.39197528
-0.00032555928
-0.42333365
0.0035511563
-0.45751504
0.0051611588
-0.49404689
0.0052200016
-0.5325775
0.0044052409
-0.57296988
0.0031941766
-0.61524673
0.0019097593
-0.6595526
0.00074582371
-0.70611581
-0.00020124218
-0.75522539
-0.00089828014
-0.80719898
-0.0013511313
-0.86237118
-0.0015864892
-0.92107845
-0.0016399888
-0.98369085
-0.0015520876
-1.0505492
-0.0013538274
-1.1220699
-0.0010748334
-1.1986154
-0.00074232898
-1.2806843
-0.00037563215
-1.3686283
-0.10002578
-0.24227139
-0.10770778
-0.043908295
-0.12032231
0.10659281
-0.13286196
0.20439085
-0.1425953
0.25883718
-0.14678225
0.2891849
-0.14496772
0.29719433
-0.14462895
0.13352531
-0.43157734
-0.10439722
-0.52598187
-0.11230009
-0.51995958
-0.11741199
-0.44584141
-0.11730794
-0.29547627
-0.11270068
-0.080850935
-0.10688994
0.14885957
-0.10456774
0.28380115
-0.11405707
0.29050742
-0.13091355
0.25364511
-0.19388522
0.2073376
-0.2249033
0.1412175
-0.25179852
0.060967113
-0.27181711
-0.01911951
-0.2823698
-0.064399139
-0.2880572
-0.073922699
-0.29454719
-0.062028475
-0.30214704
-0.041628695
-0.31565527
-0.023113092
-0.33613947
-0.0095172783
-0.36191842
-0.00065855373
-0.39164228
0.0044782351
-0.42426073
0.0068305801
-0.45918446
0.0072010375
-0.49602792
0.0064005157
-0.53457277
0.0050208008
-0.57479651
0.0034689764
-0.61680595
0.0020001248
-0.6608069
0.00075200812
-0.70706906
-0.00022066594
-0.75590301
-0.00091358305
-0.80763653
-0.001350663
-0.86260701
-0.0015678608
-0.92115058
-0.0016104157
-0.98363252
-0.0015150296
-1.050388
-0.0013163189
-1.1218284
-0.0010422739
-1.1983154
-0.00071895078
-1.2803409
-0.00036401631
-1.3682643
-0.10424253
-0.42736059
-0.10182645
-0.24815272
-0.10904522
-0.055185386
-0.12176708
0.095497936
-0.13407878
0.19587433
-0.14328071
0.25533564
-0.1464921
0.29070927
-0.14489683
0.29746222
-0.14612502
0.124488
-0.51901642
-0.11136267
-0.51641066
-0.11584901
-0.44756773
-0.11568567
-0.3006303
-0.11215391
-0.085155811
-0.10839581
0.14988385
-0.10791422
0.29656005
-0.11732665
0.31113605
-0.1346857
0.27463757
-0.15190602
0.22370569
-0.21025331
0.15095456
-0.23464036
0.059471256
-0.25030266
-0.03589284
-0.25504378
-0.089144226
-0.25762472
-0.094842834
-0.26713707
-0.078383785
-0.27819188
-0.053111228
-0.29066451
-0.029650053
-0.30911831
-0.012457653
-0.3331991
-0.0011683483
-0.36140862
0.0054615256
-0.39262557
0.0086888173
-0.42611897
0.0094716287
-0.46145505
0.0087279931
-0.4983554
0.0071896018
-0.53674157
0.005355359
-0.57668289
0.0035522006
-0.61835802
0.00196542
-0.66202032
0.00067938238
-0.70796911
-0.00028917173
-0.75652742
-0.00095888729
-0.8080283
-0.0013682601
-0.86280661
-0.0015627498
-0.92119824
-0.0015884328
-0.98355912
-0.0014835359
-1.0502208
-0.0012827745
-1.1215879
-0.0010124368
-1.1980219
-0.00069717403
-1.2800078
-0.00035300768
-1.3679113
-0.11131533
-0.51194362
-0.1064242
-0.42276284
-0.10300618
-0.25419176
-0.11030563
-0.066646836
-0.1230593
0.084478458
-0.13521963
0.18781324
-0.14383644
0.25267999
-0.14628923
0.29210167
-0.14520672
0.29654392
-0.14809439
0.11398718
-0.51259892
-0.11517441
-0.4485773
-0.11483944
-0.3038937
-0.11242228
-0.086601567
-0.11070815
0.15350759
-0.11201954
0.30992866
-0.12128283
0.33218505
-0.13837565
0.29649565
-0.15654378
0.24397869
-0.17217902
0.15872438
-0.21802313
0.054881272
-0.23005038
-0.05692713
-0.22926837
-0.11897594
-0.22521206
-0.1202291
-0.23223845
-0.095202892
-0.25031796
-0.065407089
-0.26589602
-0.037189348
-0.28312521