/*--------------------------------*- C++ -*----------------------------------*\
| =========                 |                                                 |
| \\      /  F ield         | OpenFOAM: The Open Source CFD Toolbox           |
|  \\    /   O peration     | Version:  5.0                                   |
|   \\  /    A nd           | Web:      www.OpenFOAM.org                      |
|    \\/     M anipulation  |                                                 |
\*---------------------------------------------------------------------------*/
FoamFile
{
    version     2.0;
    format      ascii;
    class       volScalarField;
    location    "100";
    object      pMean;
}
// * * * * * * * * * * * * * * * * * * * * * * * * * * * * * * * * * * * * * //

dimensions      [0 2 -2 0 0 0 0];

internalField   nonuniform List<scalar> 
9200
(
-0.00048505656
-0.00047686156
-0.0011191835
-0.00046126984
-0.0010977709
-0.0019369853
-0.00044521457
-0.0010589442
-0.001901368
-0.002701748
-0.00041611965
-0.0010156649
-0.001837596
-0.0026551926
-0.0035171789
-0.00038968475
-0.00094836297
-0.0017631136
-0.0025701217
-0.0034611491
-0.0043345364
-0.00035344017
-0.00088318015
-0.0016538997
-0.0024707097
-0.0033547644
-0.0042714171
-0.0051709695
-0.00031698826
-0.00080235637
-0.0015425624
-0.0023281064
-0.0032303674
-0.0041464466
-0.0051027775
-0.0060181024
-0.00027462177
-0.00071997435
-0.0014097521
-0.0021804302
-0.0030536418
-0.0040009905
-0.0049611243
-0.005948047
-0.0068782624
-0.00022869862
-0.00062912846
-0.0012727291
-0.0020070117
-0.002869426
-0.0037943936
-0.0047976079
-0.0057929507
-0.0068087675
-0.0077485783
-0.00017818641
-0.00053605117
-0.0011255422
-0.0018279529
-0.002657078
-0.0035781348
-0.0045646669
-0.0056151821
-0.0066439318
-0.0076828264
-0.0086277578
-0.00012521131
-0.00044076316
-0.00097432199
-0.001639098
-0.0024406769
-0.0033304087
-0.004319154
-0.0053582879
-0.0064567732
-0.0075126057
-0.0085693925
-0.0095103387
-6.9240873e-05
-0.00034301487
-0.00081795332
-0.0014491476
-0.0022175276
-0.0030789742
-0.0040384414
-0.0050846939
-0.0061810048
-0.0073219686
-0.0083991725
-0.0094639159
-0.010393284
-9.5195352e-06
-0.00024252842
-0.00065868703
-0.0012598281
-0.0019979905
-0.0028243186
-0.0037543644
-0.0047707108
-0.0058835322
-0.0070328633
-0.0082123911
-0.0093003014
-0.010363404
-0.011268874
5.3609776e-05
-0.0001409407
-0.00049893479
-0.0010739052
-0.001785078
-0.0025816593
-0.0034708975
-0.0044514357
-0.0055368071
-0.0067154048
-0.0079182867
-0.0091264386
-0.010213537
-0.011260736
-0.012133699
0.00011957477
-3.8593855e-05
-0.00033990278
-0.00089252645
-0.001584529
-0.0023596642
-0.0032088232
-0.0041333934
-0.0051776759
-0.0063379497
-0.0075892034
-0.0088379396
-0.010062618
-0.011132687
-0.012152024
-0.012978673
0.00018813061
6.3967208e-05
-0.00018183708
-0.00071792526
-0.0014001553
-0.0021687405
-0.0029834183
-0.0038427752
-0.0048148821
-0.005937664
-0.0071875228
-0.0085077776
-0.0097922808
-0.011016335
-0.012053498
-0.013028162
-0.013800013
0.0002582812
0.00016588301
-2.5375376e-05
-0.00055076017
-0.0012351932
-0.0020173953
-0.0028146485
-0.0036021427
-0.0044777558
-0.0055217733
-0.0067475528
-0.0080923011
-0.0094753887
-0.010778666
-0.011983323
-0.012967275
-0.013885189
-0.014588907
0.00033248921
0.00026689779
0.00012894101
-0.00039027568
-0.001090567
-0.0019123278
-0.0027225372
-0.0034443196
-0.0041964124
-0.005120279
-0.0062753972
-0.0076231543
-0.0090614117
-0.010491938
-0.011793419
-0.012955493
-0.013869326
-0.014713513
-0.015341069
0.00040673557
0.00036705378
0.00028000406
-0.00023546453
-0.00096577335
-0.0018597666
-0.0027293708
-0.0034039191
-0.0040095022
-0.0047657301
-0.0057994699
-0.0071014655
-0.0085776021
-0.010098457
-0.011555489
-0.012829474
-0.013926799
-0.014749458
-0.015508398
-0.016049548
0.00048204823
0.00046503009
0.00042602443
-8.5940822e-05
-0.00085736946
-0.0018665965
-0.0028610261
-0.003525816
-0.0039662627
-0.0045013658
-0.005350291
-0.0065519688
-0.0080202885
-0.0096210096
-0.011204312
-0.012660176
-0.013879953
-0.014886633
-0.01560238
-0.016261973
-0.016710263
0.00055740638
0.00055928427
0.00056539089
5.7789582e-05
-0.00076305282
-0.0019209449
-0.0031262438
-0.0038596833
-0.0041279096
-0.0043847944
-0.0049707774
-0.00600199
-0.007409129
-0.0090499293
-0.01075771
-0.012375409
-0.013798818
-0.014933908
-0.015828567
-0.016418663
-0.016969592
-0.017318622
0.00063087293
0.00064732557
0.00069618219
0.00019440861
-0.00067820717
-0.0020090454
-0.0034908963
-0.0044085765
-0.0045732295
-0.0045011189
-0.0047207183
-0.0054913856
-0.006767539
-0.0083998076
-0.010199833
-0.011987437
-0.013604637
-0.014960232
-0.015982769
-0.016741157
-0.017192846
-0.017625671
-0.017871475
0.00069765393
0.00072663387
0.00081704494
0.00032424887
-0.00059779429
-0.0021098077
-0.0039123436
-0.0051418206
-0.005315989
-0.0049344978
-0.0046895496
-0.0050774289
-0.0061314154
-0.0076878388
-0.0095396705
-0.011474704
-0.013304543
-0.014881106
-0.016133813
-0.01701358
-0.017617807
-0.017917713
-0.018226609
-0.018366403
0.00075322422
0.00079221347
0.00092624529
0.00045015066
-0.0005155519
-0.0021966063
-0.0043391621
-0.0059770317
-0.0063362668
-0.0057254027
-0.0049625041
-0.004841579
-0.0055495943
-0.0069443234
-0.0087882074
-0.010839773
-0.012871028
-0.014698608
-0.016192296
-0.017305102
-0.018017738
-0.018448755
-0.018588624
-0.018769277
-0.018802194
0.00079841667
0.00084205347
0.0010217964
0.00057392036
-0.00042847871
-0.0022472379
-0.0047144852
-0.0068333554
-0.0075317229
-0.0068580926
-0.0056276719
-0.0048790752
-0.00509864
-0.0062127843
-0.0079688939
-0.010086965
-0.01229966
-0.014379651
-0.016155773
-0.017522036
-0.018462328
-0.01898253
-0.019227991
-0.019200941
-0.019251687
-0.019178334
0.00083795548
0.0008765534
0.0011014877
0.00069402309
-0.00033406529
-0.0022485185
-0.0049957027
-0.0076170474
-0.0087750361
-0.0082313318
-0.006682544
-0.0052821684
-0.004878008
-0.005558978
-0.0071200288
-0.0092338564
-0.011589244
-0.013913531
-0.015986036
-0.017658106
-0.01885517
-0.01959011
-0.019900155
-0.019948534
-0.019751559
-0.019672742
-0.019494793
0.00087422569
0.00089819996
0.0011631834
0.00080659656
-0.0002291533
-0.0021936394
-0.0051555972
-0.008244294
-0.0099476016
-0.0096865959
-0.0080331416
-0.0061029755
-0.0049696699
-0.005081381
-0.0062967417
-0.0083096666
-0.010749584
-0.013292777
-0.015666813
-0.017670937
-0.01918708
-0.020173402
-0.020677573
-0.020760277
-0.020605875
-0.020238277
-0.020032145
-0.019751879
0.00090512454
0.00090447623
0.0012087476
0.00090646549
-0.0001122802
-0.0020844767
-0.0051817809
-0.008671292
-0.01092671
-0.0110893
-0.0095341836
-0.0073031183
-0.0054874087
-0.0048760901
-0.0055842296
-0.0073627389
-0.0098029101
-0.012519255
-0.015183807
-0.017539072
-0.019412513
-0.020720996
-0.021461645
-0.0217108
-0.021556698
-0.021195904
-0.020659964
-0.020330213
-0.019951455
0.0009228055
0.00088852584
0.0012383901
0.00099035263
1.4422948e-05
-0.0019300511
-0.0050786319
-0.0088797842
-0.011645352
-0.012291402
-0.011024308
-0.0087376394
-0.0064420823
-0.0050404421
-0.0050979462
-0.0064638462
-0.0087879079
-0.01160797
-0.014531638
-0.017241973
-0.019505416
-0.02118526
-0.022240014
-0.022702376
-0.022681042
-0.022282453
-0.021716127
-0.021016408
-0.020568164
-0.020097546
0.00091765898
0.00085451803
0.0012547028
0.0010581203
0.00014317141
-0.0017384755
-0.004861778
-0.0088641166
-0.012073509
-0.013198933
-0.012361946
-0.010220841
-0.0076961264
-0.0056688978
-0.0049124555
-0.0057224321
-0.0077625806
-0.01058781
-0.013718025
-0.016767972
-0.019440106
-0.021536449
-0.022964158
-0.02372234
-0.023882752
-0.023577639
-0.022933584
-0.022165122
-0.021308311
-0.020748175
-0.020193502
0.00090205633
0.00079945593
0.0012601243
0.0011088558
0.00026768987
-0.0015204262
-0.0045593075
-0.0085898718
-0.012187169
-0.013782133
-0.013422726
-0.011615562
-0.0090831468
-0.006690507
-0.0051659502
-0.0052414233
-0.00681973
-0.0095067062
-0.012762701
-0.016116374
-0.019198714
-0.021745052
-0.023602005
-0.024722359
-0.025149948
-0.024988321
-0.024394726
-0.023506555
-0.022542626
-0.021537169
-0.020872777
-0.020238751
0.00089088438
0.00072274965
0.0012374667
0.0011449228
0.00038398104
-0.0012901816
-0.0041967243
-0.0081318814
-0.011933761
-0.014014231
-0.014152856
-0.012782356
-0.010452771
-0.0079403898
-0.005893464
-0.0051046817
-0.0060848902
-0.0084384981
-0.01170228
-0.015298587
-0.018773465
-0.02178773
-0.024120964
-0.0256692
-0.026435915
-0.026504036
-0.026009826
-0.025125611
-0.023999921
-0.022849333
-0.021705078
-0.020944263
-0.020233562
0.00089066613
0.00063178753
0.0011896949
0.0011592644
0.00049248241
-0.0010565611
-0.0037958013
-0.007582126
-0.011411038
-0.013869283
-0.01453519
-0.013639145
-0.011671266
-0.009226173
-0.0069504566
-0.0054557364
-0.0056206453
-0.0075021163
-0.010596863
-0.01434079
-0.018166353
-0.02165014
-0.0244935
-0.026528628
-0.027707421
-0.028080579
-0.027770574
-0.026937187
-0.025767552
-0.024413137
-0.023086827
-0.021814519
-0.02096545
-0.020180994
0.00090060619
0.00054240048
0.0011178919
0.001161477
0.00059748301
-0.00082694989
-0.003376355
-0.006963927
-0.010729814
-0.01339245
-0.014561544
-0.014170696
-0.012624953
-0.010428343
-0.0081318969
-0.0062507612
-0.0055616767
-0.0067998388
-0.0095411962
-0.013289876
-0.017395052
-0.021326317
-0.024699656
-0.027270125
-0.028929911
-0.029685776
-0.029636513
-0.02893568
-0.027765236
-0.026317739
-0.024747086
-0.023257464
-0.021868233
-0.020939004
-0.020088065
0.00091704435
0.00046023969
0.0010289351
0.0011329522
0.0007089083
-0.00057268332
-0.0029557725
-0.0063115196
-0.0099488746
-0.012688736
-0.014211939
-0.01436508
-0.013268891
-0.01142472
-0.0092784076
-0.0072880281
-0.0060238422
-0.0063776369
-0.0086594736
-0.012217953
-0.016493821
-0.020824982
-0.024727067
-0.027869386
-0.030071088
-0.031286103
-0.031577636
-0.031084874
-0.029990346
-0.028488539
-0.026776346
-0.025003486
-0.023364291
-0.021869583
-0.0208666
-0.019962188
0.00093247009
0.00038778177
0.00093867093
0.0010850175
0.00078554399
-0.00029250355
-0.0024736918
-0.0056527662
-0.0091151358
-0.011864967
-0.013588973
-0.014192527
-0.013604603
-0.012144113
-0.010281871
-0.0083518342
-0.0068447229
-0.0064508031
-0.0080097817
-0.011237433
-0.015517091
-0.020168973
-0.024575067
-0.02830822
-0.031103599
-0.032848762
-0.033562485
-0.033357873
-0.032411819
-0.030926269
-0.029105857
-0.027143836
-0.025185037
-0.0234108
-0.021823149
-0.020753252
-0.019807047
0.00094135436
0.0003248088
0.00085847212
0.0010335598
0.00083385562
-4.8678473e-05
-0.0019488709
-0.0048935334
-0.0082616579
-0.010972912
-0.012812264
-0.013718124
-0.013616369
-0.012579755
-0.011048178
-0.0093278109
-0.0077995056
-0.0069995298
-0.0077080653
-0.010468822
-0.014556639
-0.019401062
-0.024257879
-0.028579207
-0.032005526
-0.034345353
-0.035559379
-0.035726407
-0.035006691
-0.033605286
-0.031739547
-0.029615965
-0.02742277
-0.025295092
-0.023400593
-0.021732748
-0.02060413
-0.019627357
0.00093423897
0.00026701386
0.0007886141
0.00098628046
0.00086841688
0.00015823992
-0.0014581732
-0.0040878471
-0.0072694441
-0.010031963
-0.011949844
-0.013045988
-0.013305515
-0.012722525
-0.011546979
-0.010113985
-0.0087260926
-0.0077965783
-0.0079185205
-0.0099304106
-0.013743525
-0.018588537
-0.023805768
-0.028688043
-0.032763859
-0.035751096
-0.037540006
-0.038161021
-0.037750812
-0.036506974
-0.034657867
-0.032427224
-0.03002092
-0.02761609
-0.025337891
-0.023337888
-0.021602183
-0.020423104
-0.019425892
0.00090322969
0.00020675551
0.00072151464
0.00094429469
0.00090123699
0.00034116312
-0.0010109441
-0.0032967501
-0.0062407133
-0.0089198475
-0.011024965
-0.012268924
-0.012757489
-0.012575733
-0.011778074
-0.01065657
-0.0095047852
-0.0086495925
-0.0085121901
-0.0098037238
-0.013140685
-0.017838877
-0.023268903
-0.028653559
-0.033375791
-0.037049103
-0.039478401
-0.040634878
-0.040617843
-0.039612046
-0.037846842
-0.035564113
-0.032989937
-0.030322946
-0.02772816
-0.025317781
-0.023227105
-0.021435387
-0.02021425
-0.019202834
0.00013453662
0.00084467216
0.00064850159
0.00090026155
0.00093561794
0.0005147189
-0.00059835267
-0.0025484188
-0.0051884138
-0.0077791315
-0.0099241828
-0.011411946
-0.012085786
-0.012172248
-0.011766669
-0.010948988
-0.010069583
-0.0094106093
-0.0092757785
-0.010162727
-0.012801003
-0.017282871
-0.022729466
-0.028514533
-0.033852699
-0.038230648
-0.041355096
-0.043122195
-0.043583641
-0.042898181
-0.041292562
-0.039017351
-0.036322626
-0.033429312
-0.030526647
-0.027763354
-0.025239491
-0.023072611
-0.021236075
-0.019981134
-0.018959296
0.00056698513
4.9067576e-05
0.00075869707
0.00084582866
0.00096521129
0.00068300963
-0.00020775691
-0.0018447023
-0.0041649976
-0.0065821833
-0.0087774127
-0.010404975
-0.011327407
-0.011604203
-0.01148218
-0.011004579
-0.010395249
-0.0099906743
-0.010022048
-0.010810298
-0.01290977
-0.016923947
-0.022317527
-0.028331943
-0.03422105
-0.039299045
-0.043157182
-0.045602537
-0.046623961
-0.046344916
-0.044977505
-0.042778887
-0.040014357
-0.036933707
-0.033749547
-0.030636394
-0.027727184
-0.025107867
-0.022878747
-0.021007821
-0.019726752
-0.018698113
0.00078003723
0.0004779236
-4.2603118e-05
0.00065858118
0.00098264193
0.00084142774
0.00016649499
-0.0011814403
-0.0031851654
-0.0053942417
-0.0075434294
-0.0093423929
-0.010464308
-0.010937703
-0.011016267
-0.010826464
-0.010486228
-0.010344253
-0.010629752
-0.011546164
-0.01342953
-0.016872153
-0.022113537
-0.028205266
-0.034527925
-0.040271904
-0.044881639
-0.048060285
-0.049718464
-0.049930492
-0.048885368
-0.046836185
-0.044063113
-0.04083629
-0.037400671
-0.033954967
-0.030658312
-0.027625014
-0.024927868
-0.02264974
-0.020754127
-0.019453551
-0.01842204
0.00098566336
0.00070527434
0.00038192208
-0.00013633602
0.0005435449
0.00098175733
0.00052033927
-0.00055108301
-0.002253861
-0.0042358767
-0.0062900967
-0.0081582295
-0.0095180927
-0.010212394
-0.01042229
-0.010459172
-0.010373431
-0.010467702
-0.011032349
-0.012205339
-0.014166823
-0.017286147
-0.022113907
-0.028269081
-0.034845821
-0.041185463
-0.046539822
-0.050488447
-0.052850619
-0.0536362
-0.052997863
-0.051177844
-0.048461451
-0.045140979
-0.041485338
-0.037728409
-0.034052193
-0.030598377
-0.027462674
-0.024704308
-0.02238967
-0.02047853
-0.019164505
-0.018133436
0.0010988837
0.00097519039
0.00062295083
0.00027220115
-0.00023413224
0.0004197966
0.00084456141
4.4911242e-05
-0.0013644227
-0.003119867
-0.0050456275
-0.0069219615
-0.0084499153
-0.009396295
-0.0097980309
-0.0099207531
-0.010071013
-0.010377247
-0.011204422
-0.012698506
-0.014919575
-0.018036532
-0.02246577
-0.028537925
-0.035298498
-0.04209437
-0.048157391
-0.052892444
-0.056011039
-0.057445634
-0.057299072
-0.055790005
-0.053203556
-0.0498456
-0.046012946
-0.041966013
-0.037923435
-0.034048056
-0.03046341
-0.027245729
-0.024441968
-0.022102454
-0.020184136
-0.018862327
-0.017834699
0.0011320656
0.0011933723
0.00094972794
0.00053072584
0.00014466485
-0.00033753582
0.00029440304
0.00059647209
-0.0005221142
-0.0020509833
-0.0038364143
-0.0056836889
-0.0073004693
-0.0084684761
-0.0090635984
-0.0093590573
-0.0095636523
-0.010123763
-0.011159265
-0.012972582
-0.015551232
-0.018917719
-0.023253857
-0.029028654
-0.035988984
-0.043091267
-0.049778324
-0.055290591
-0.059200657
-0.061348121
-0.061773636
-0.060659709
-0.058280082
-0.054949843
-0.050986532
-0.046682655
-0.042284928
-0.03799345
-0.033950364
-0.030259911
-0.026979933
-0.024145539
-0.021791897
-0.019873889
-0.018549401
-0.017527921
0.0010960368
0.0013835491
0.001265957
0.00090717197
0.00042605176
-1.6665691e-06
-0.00044563345
0.00017852779
0.00026123292
-0.0010319318
-0.002676591
-0.0044787949
-0.006140276
-0.0074432405
-0.0082493703
-0.0086361756
-0.0090066049
-0.00963794
-0.010947177
-0.013022279
-0.015982514
-0.019753749
-0.024318978
-0.029915979
-0.036881349
-0.044307393
-0.051470405
-0.057716668
-0.062431304
-0.065341844
-0.066410953
-0.065773907
-0.063681868
-0.0604494
-0.05641133
-0.051886381
-0.047156718
-0.042450451
-0.037947279
-0.033766855
-0.029994665
-0.026670867
-0.023819729
-0.021461651
-0.019550342
-0.018227747
-0.017215062
0.00097644507
0.0015419425
0.0015997392
0.0013137569
0.00084488201
0.00030650697
-0.00015696506
-0.00055205259
7.7136668e-05
-7.5101042e-05
-0.0015636418
-0.0033220483
-0.0050226739
-0.0063997724
-0.0073477841
-0.0078661921
-0.0082327943
-0.0090504285
-0.010514033
-0.012888199
-0.016182364
-0.0204134
-0.025440098
-0.031188502
-0.038014905
-0.045781558
-0.053349885
-0.060224827
-0.065730661
-0.069434016
-0.071207349
-0.071123057
-0.069399135
-0.066339318
-0.062288002
-0.057587982
-0.052551252
-0.047443943
-0.042472627
-0.037794043
-0.033505513
-0.029674484
-0.026324383
-0.023468835
-0.021114591
-0.019215598
-0.017899377
-0.016897967
0.00080456696
0.0016204447
0.0019342716
0.0017764757
0.0013364031
0.00075998747
0.000179571
-0.00030921504
-0.00065273765
-7.9330371e-06
-0.00051103261
-0.0022143703
-0.003955707
-0.0054146969
-0.0064141871
-0.0070196343
-0.0074282401
-0.0081442213
-0.0098839447
-0.012549421
-0.016171141
-0.020825296
-0.026441338
-0.032656793
-0.039557488
-0.047439111
-0.055525838
-0.062902271
-0.069141449
-0.073646199
-0.076166679
-0.076702546
-0.075423454
-0.072613331
-0.068616096
-0.063792723
-0.058484489
-0.052990497
-0.047555084
-0.042361846
-0.037543082
-0.033174544
-0.029306566
-0.025945682
-0.023096112
-0.020752898
-0.018872117
-0.017566848
-0.016578394
0.00045929752
0.0016054813
0.0021900998
0.0022671991
0.0019160207
0.0013329505
0.00066348876
5.6322807e-05
-0.00044865488
-0.00074478683
-7.7334084e-05
-0.0011654254
-0.0029488912
-0.0045064697
-0.0055431632
-0.0061374368
-0.0065613143
-0.0072369694
-0.0087757304
-0.011890868
-0.015961773
-0.021004057
-0.027195119
-0.034107127
-0.041409933
-0.049390225
-0.057948529
-0.065879511
-0.072732434
-0.078013899
-0.081305427
-0.082513862
-0.081750339
-0.079264902
-0.075393179
-0.070504862
-0.064966634
-0.059110469
-0.053215708
-0.047502302
-0.042129113
-0.037204287
-0.032782665
-0.028897201
-0.025538526
-0.022703893
-0.02037976
-0.018523764
-0.017232606
-0.016257215
-0.00019525957
0.0013467348
0.0023181189
0.0026799132
0.002543668
0.0020216645
0.0013122789
0.00057084551
-5.671411e-05
-0.00056976405
-0.000821827
-0.00013566392
-0.0020061375
-0.0036793159
-0.0047977335
-0.0053179007
-0.0056532097
-0.006262046
-0.0076897201
-0.010554609
-0.015291858
-0.0209763
-0.027697452
-0.035362779
-0.043394478
-0.051732924
-0.060553557
-0.069200401
-0.076613811
-0.082591571
-0.086652054
-0.08856908
-0.088380183
-0.086290741
-0.082615334
-0.077726067
-0.072006588
-0.065818859
-0.059478578
-0.053240125
-0.047298544
-0.041786243
-0.036788168
-0.032337693
-0.028450699
-0.025105455
-0.022296448
-0.020001178
-0.018173906
-0.016896183
-0.015918661
-0.0011438435
0.00069014872
0.0021390826
0.0029336847
0.003089639
0.0027710326
0.0021020298
0.0012907345
0.00049397476
-0.00015757369
-0.00067195117
-0.00088049445
-0.00018706031
-0.002929193
-0.0041669174
-0.0046598186
-0.0047959868
-0.0052491405
-0.0065374256
-0.0092258855
-0.013735599
-0.020311071
-0.027963939
-0.036367863
-0.045308443
-0.054310089
-0.063512818
-0.072735118
-0.080886461
-0.087465278
-0.092251515
-0.094889925
-0.095321008
-0.093689934
-0.090280577
-0.08545554
-0.079609672
-0.07312905
-0.066362768
-0.059603325
-0.053078798
-0.046957818
-0.041346077
-0.036304301
-0.031844553
-0.027969962
-0.024652237
-0.021882594
-0.019621876
-0.017819626
-0.016534237
-0.015557772
-0.0022613898
-0.00036451097
0.0014806596
0.0028218416
0.0034499335
0.0034356317
0.0029590312
0.0021746897
0.0012801985
0.00043149652
-0.00024078357
-0.00076667778
-0.00091932516
-0.00023695967
-0.0036311066
-0.004158762
-0.0041129914
-0.0042753734
-0.0053413155
-0.0078330169
-0.012147294
-0.018552633
-0.027327605
-0.037103833
-0.047007354
-0.056979648
-0.066785822
-0.076502392
-0.085493492
-0.092756745
-0.098171826
-0.10151499
-0.10258954
-0.10146832
-0.098388064
-0.093692739
-0.0877788
-0.081050203
-0.073885888
-0.066614489
-0.059501452
-0.052748559
-0.046495433
-0.040820031
-0.035758434
-0.031306747
-0.027462903
-0.024191321
-0.02146864
-0.019234605
-0.017426132
-0.016149967
-0.015183857
-0.0031760111
-0.0016731701
0.0003240689
0.0021538296
0.0033904235
0.0038879209
0.0037287331
0.0031253529
0.0022492438
0.0012839172
0.00038732012
-0.0003215457
-0.00084775471
-0.0009430829
-0.00028385944
-0.0037806787
-0.0036456758
-0.0034875981
-0.0041752214
-0.0063921978
-0.010474307
-0.016723089
-0.025324771
-0.036603849
-0.048435227
-0.05954481
-0.070249001
-0.080599939
-0.090314805
-0.09848112
-0.10452657
-0.10849661
-0.11021636
-0.10963806
-0.10694128
-0.10243736
-0.096514674
-0.089588542
-0.082060934
-0.074294696
-0.066592488
-0.059192649
-0.052267468
-0.045925123
-0.040214964
-0.035154955
-0.030734757
-0.026946366
-0.023730528
-0.021041665
-0.0187842
-0.017012041
-0.015750766
-0.014797516
-0.003482684
-0.0027870208
-0.0011659168
0.00089487528
0.0027043696
0.003870221
0.0042619092
0.0039899128
0.0032850691
0.0023308432
0.0013024778
0.00034315267
-0.00038531444
-0.00091089601
-0.00094745182
-0.00032422443
-0.0033392033
-0.002982764
-0.003220774
-0.0049729225
-0.0087622395
-0.014776444
-0.023247888
-0.03439317
-0.048247716
-0.061890354
-0.073729945
-0.08493289
-0.095397656
-0.10448326
-0.11137599
-0.11593289
-0.1182433
-0.11822225
-0.11594903
-0.1116916
-0.10581843
-0.098746723
-0.090897279
-0.082660569
-0.074376338
-0.066319202
-0.058698487
-0.051651844
-0.045255012
-0.039536259
-0.034507425
-0.030150682
-0.026429843
-0.023250074
-0.020519754
-0.01831331
-0.016580165
-0.015338476
-0.014398853
-0.0031173389
-0.0032339745
-0.0024587236
-0.00076985543
0.0013441786
0.0031651504
0.0042806595
0.0045934296
0.004231219
0.0034383948
0.002418522
0.0013186981
0.00031370103
-0.00043010876
-0.00094751242
-0.00092998427
-0.00035158357
-0.0026867139
-0.0026264358
-0.0037901718
-0.0070914816
-0.012789787
-0.021037795
-0.032113878
-0.045946386
-0.062233987
-0.077135224
-0.089333088
-0.10073517
-0.11071856
-0.11860742
-0.12390302
-0.12674872
-0.12725432
-0.1254282
-0.12146106
-0.11569147
-0.10852727
-0.10040038
-0.091724666
-0.082872285
-0.074155629
-0.065819915
-0.058038114
-0.050911343
-0.044491699
-0.038801322
-0.033844182
-0.029565849
-0.025884944
-0.022634151
-0.019977039
-0.017821258
-0.016135555
-0.014912892
-0.013988453
-0.002494654
-0.0029393963
-0.0030175816
-0.0022231158
-0.00048604725
0.0017150966
0.0035608339
0.0046428851
0.0048951437
0.0044522395
0.0035912887
0.0024969592
0.0013343091
0.00031076839
-0.00044397532
-0.00094473655
-0.00088731715
-0.00036042087
-0.0022949197
-0.0030553602
-0.0056692585
-0.010873904
-0.01878323
-0.029687716
-0.043569258
-0.060035707
-0.078205194
-0.093827829
-0.10610617
-0.11719603
-0.12609805
-0.13235408
-0.13581624
-0.13679649
-0.13540488
-0.13175855
-0.12613731
-0.11893116
-0.11057305
-0.10149491
-0.092095965
-0.082724301
-0.073661914
-0.065117266
-0.057222926
-0.050053992
-0.043657111
-0.038045729
-0.033178753
-0.028941597
-0.025153065
-0.021996758
-0.019408759
-0.017317926
-0.015676816
-0.014475101
-0.013566697
-0.0021094421
-0.0023473902
-0.0027842693
-0.0028706119
-0.0020759007
-0.00026829705
0.0020517576
0.003910441
0.0049696709
0.0051639416
0.0046598469
0.0037341939
0.0025586837
0.0013810481
0.00034004282
-0.00042252315
-0.00089680296
-0.0008126868
-0.00035006566
-0.0026496561
-0.0047361682
-0.0092198168
-0.016607126
-0.02720515
-0.041042483
-0.057724246
-0.076400213
-0.095669887
-0.11163438
-0.1236268
-0.13378974
-0.1411018
-0.14544611
-0.1469253
-0.14592912
-0.14260377
-0.13716516
-0.12996088
-0.12141718
-0.11197546
-0.10205756
-0.092043002
-0.082249453
-0.072921511
-0.064224323
-0.05626257
-0.049107096
-0.042795457
-0.037285452
-0.032459981
-0.028067802
-0.024398126
-0.021327957
-0.018831389
-0.016800008
-0.015205631
-0.01402536
-0.01313425
-0.0024405736
-0.0019632142
-0.0022295286
-0.0027013989
-0.0027833408
-0.0019409846
1.6401502e-05
0.0023715292
0.004231032
0.0052584015
0.0054099517
0.0048712045
0.0038447317
0.0026526413
0.0014571834
0.0004058321
-0.00036535014
-0.00081563757
-0.0006988467
-0.00032607685
-0.0042258291
-0.0080432612
-0.014718528
-0.024793154
-0.038425741
-0.055228725
-0.074382829
-0.094456077
-0.11417602
-0.1301713
-0.14135455
-0.15006624
-0.15542383
-0.15768128
-0.15706706
-0.154036
-0.1487895
-0.14162233
-0.13293398
-0.12316802
-0.11276303
-0.10212392
-0.09160274
-0.08147822
-0.071949659
-0.063152889
-0.05519067
-0.048124924
-0.041925355
-0.036454565
-0.031414741
-0.027169385
-0.023604913
-0.020653209
-0.01823954
-0.016270104
-0.01472229
-0.013564678
-0.012691584
-0.0039488013
-0.0022537212
-0.0018477559
-0.0022024042
-0.0026854353
-0.0026732608
-0.0016778053
0.00036995158
0.0026935541
0.0045337215
0.0055248098
0.0056848054
0.0050337866
0.0039857648
0.0027721463
0.0015623802
0.00050138205
-0.00028131569
-0.0006982885
-0.00056663658
-0.00029223495
-0.0074153947
-0.013337471
-0.022672831
-0.035848308
-0.052615962
-0.072101664
-0.09300603
-0.11362097
-0.13327576
-0.1489026
-0.15880101
-0.16566036
-0.16883281
-0.1688856
-0.16611032
-0.16103946
-0.15392567
-0.14512685
-0.13507333
-0.12421372
-0.11297451
-0.10173619
-0.090809908
-0.080428175
-0.070760097
-0.061943671
-0.054073267
-0.047128954
-0.040963283
-0.035204833
-0.030342707
-0.026223972
-0.022810241
-0.019964749
-0.017636615
-0.015728338
-0.014228004
-0.013093559
-0.01223932
-0.0070475498
-0.0036728497
-0.0020920228
-0.0018505492
-0.0022567596
-0.0026437218
-0.0023955603
-0.0012620832
0.00076956461
0.003035907
0.0048220231
0.0058523326
0.0059084372
0.005225749
0.004144821
0.0029119153
0.0016929845
0.00062884744
-0.00016602645
-0.00054701366
-0.00041898057
-0.00025256823
-0.012591669
-0.021064692
-0.03353275
-0.049988928
-0.069635874
-0.091176512
-0.11284604
-0.1333336
-0.15254592
-0.16739252
-0.17561589
-0.18031608
-0.18115787
-0.17890688
-0.17396169
-0.16689334
-0.15800223
-0.1476928
-0.13640992
-0.124597
-0.11265804
-0.10093287
-0.089684358
-0.079115175
-0.069402092
-0.060676427
-0.052934873
-0.046014842
-0.039471109
-0.033926206
-0.029213445
-0.025283156
-0.022003286
-0.019266629
-0.017022834
-0.01517602
-0.013723482
-0.012612979
-0.011777893
-0.012129647
-0.006670954
-0.003429968
-0.0021023176
-0.0019662638
-0.0022851978
-0.0024204393
-0.0019370823
-0.00074266709
0.0012145499
0.0034055997
0.0051986715
0.0061580527
0.0061616489
0.0054251434
0.0043169552
0.0030727523
0.0018496243
0.00078438658
-2.0435896e-05
-0.00036053168
-0.00024546874
-0.00021007045
-0.020166507
-0.031710983
-0.047551336
-0.067093028
-0.089025454
-0.11165229
-0.13320864
-0.15310574
-0.17165898
-0.18526617
-0.19149395
-0.19382787
-0.19222774
-0.18764115
-0.18056189
-0.17157727
-0.16102913
-0.14935077
-0.13698997
-0.1243709
-0.11185703
-0.099736533
-0.088244506
-0.077597979
-0.067970903
-0.059378948
-0.051646455
-0.044238
-0.037947951
-0.032577763
-0.028096948
-0.02433198
-0.02118895
-0.018558919
-0.016399553
-0.014614077
-0.013209722
-0.012123202
-0.011308266
-0.019581612
-0.011659153
-0.0063557361
-0.0034096551
-0.0022690551
-0.0020680035
-0.0021286567
-0.0019874
-0.0013506914
-0.00014578936
0.0017653265
0.0038679853
0.0056119857
0.0065000847
0.0064182209
0.005633707
0.0045046563
0.0032528554
0.0020265656
0.00096419139
0.00016421805
-0.00014391745
-6.5834635e-05
-0.00016116057
-0.030628187
-0.045550398
-0.06464542
-0.086708255
-0.1100429
-0.13274806
-0.15355346
-0.17270885
-0.19025295
-0.20221726
-0.20616479
-0.20600526
-0.20193483
-0.19502255
-0.18588102
-0.17509596
-0.16303617
-0.15015056
-0.13687313
-0.12358538
-0.11059606
-0.098167937
-0.086559307
-0.075990034
-0.066498028
-0.05789308
-0.049537488
-0.04242862
-0.036339955
-0.031252688
-0.026972946
-0.023376486
-0.02036699
-0.017843148
-0.015767857
-0.01404336
-0.012686618
-0.011625356
-0.010830981
-0.029887466
-0.018976271
-0.011234474
-0.0062481252
-0.0035959088
-0.0024523357
-0.0020088707
-0.001761334
-0.0014013035
-0.00067750967
0.00058649598
0.0023650942
0.0044304785
0.0060754552
0.0068516586
0.006680421
0.0058487573
0.0046995751
0.0034399107
0.0022187888
0.0011587924
0.00037991105
7.8488145e-05
8.028414e-05
-0.00011349103
-0.044283138
-0.062528995
-0.084382964
-0.10813322
-0.1318392
-0.15378472
-0.17359047
-0.19190601
-0.20801094
-0.21801129
-0.21943725
-0.2167322
-0.21018314
-0.20100241
-0.18991465
-0.17747594
-0.16407571
-0.15015865
-0.13611492
-0.12226674
-0.10889846
-0.096307837
-0.084763187
-0.074326684
-0.064791314
-0.055399765
-0.047395383
-0.040516123
-0.034769065
-0.029923842
-0.025848841
-0.022415949
-0.019539086
-0.017120473
-0.015128313
-0.013463199
-0.01215608
-0.011120285
-0.010346768
-0.043404946
-0.029119472
-0.018398212
-0.01101722
-0.006419796
-0.003842922
-0.0025102832
-0.0017434589
-0.0012246869
-0.00071414121
0.00013007469
0.0013249055
0.0031203851
0.0050723594
0.0065682915
0.0072108157
0.0069373075
0.0060480121
0.0048811569
0.0036277121
0.0024046637
0.0013401572
0.00059323775
0.00026327022
0.00018834596
-8.1553437e-05
-0.061110697
-0.082264189
-0.10608478
-0.13050338
-0.15360881
-0.17436394
-0.19315593
-0.21040578
-0.22473506
-0.23250321
-0.23120116
-0.2258934
-0.21688796
-0.20556397
-0.19268242
-0.17877057
-0.16422118
-0.1494383
-0.13474563
-0.12044097
-0.10685823
-0.094314267
-0.082896331
-0.072375958
-0.06185667
-0.05287413
-0.045128101
-0.038658167
-0.033199386
-0.028600358
-0.024723207
-0.021452164
-0.018706389
-0.0163911
-0.014479382
-0.012876257
-0.011619058
-0.010609114
-0.0098562373
-0.060132228
-0.04252351
-0.028423231
-0.018069245
-0.01115257
-0.0067248589
-0.0040194602
-0.0023969969
-0.0013374326
-0.00060912173
0.00010367923
0.00091995743
0.0022317795
0.0039688364
0.005754646
0.0070638853
0.0075442386
0.0071559929
0.0062072776
0.0050295399
0.0037535702
0.002523244
0.001475483
0.00076481899
0.00037968475
0.00024843503
-6.1497864e-05
-0.080768176
-0.10411411
-0.12889944
-0.15295963
-0.17484859
-0.19434697
-0.2121265
-0.22801886
-0.2402366
-0.24546844
-0.2413339
-0.23339099
-0.22202126
-0.20872173
-0.19423734
-0.17905993
-0.16354492
-0.1480229
-0.13279229
-0.11821617
-0.10466028
-0.092233348
-0.080679723
-0.06893853
-0.058892258
-0.050196662
-0.042937303
-0.036807768
-0.031642122
-0.027279856
-0.023597846