/*--------------------------------*- C++ -*----------------------------------*\
| =========                 |                                                 |
| \\      /  F ield         | OpenFOAM: The Open Source CFD Toolbox           |
|  \\    /   O peration     | Version:  5.0                                   |
|   \\  /    A nd           | Web:      www.OpenFOAM.org                      |
|    \\/     M anipulation  |                                                 |
\*---------------------------------------------------------------------------*/
FoamFile
{
    version     2.0;
    format      ascii;
    class       volScalarField;
    location    "100";
    object      pPrime2Mean;
}
// * * * * * * * * * * * * * * * * * * * * * * * * * * * * * * * * * * * * * //

dimensions      [0 4 -4 0 0 0 0];

internalField   nonuniform List<scalar> 
9200
(
1.8536391e-07
1.6892775e-07
1.6656742e-06
1.4986337e-07
1.5288599e-06
4.5165811e-06
1.2425269e-07
1.3557482e-06
4.1727292e-06
8.9325017e-06
9.7711269e-08
1.1160983e-06
3.687212e-06
8.2974353e-06
1.5013134e-05
7.6330839e-08
8.6035955e-07
3.044743e-06
7.3451056e-06
1.4003835e-05
2.3065181e-05
6.0208604e-08
6.1837854e-07
2.3513618e-06
6.0984803e-06
1.2435162e-05
2.1625213e-05
3.3386615e-05
5.4067303e-08
4.1254782e-07
1.7015027e-06
4.7347857e-06
1.03977e-05
1.9313083e-05
3.146065e-05
4.6337401e-05
5.75374e-08
2.7602069e-07
1.1617927e-06
3.4441557e-06
8.1484917e-06
1.6326773e-05
2.8284309e-05
4.3881365e-05
6.2217805e-05
6.9719691e-08
2.2776321e-07
8.270843e-07
2.3659236e-06
5.9929305e-06
1.2980045e-05
2.4193358e-05
3.974639e-05
5.9225351e-05
8.1305939e-05
8.8332114e-08
2.8751069e-07
7.6452931e-07
1.703299e-06
4.1661683e-06
9.7029276e-06
1.9538807e-05
3.4455594e-05
5.4053203e-05
7.7790505e-05
0.00010387747
1.1135222e-07
4.640458e-07
1.0457467e-06
1.6383024e-06
3.0255125e-06
6.8297355e-06
1.4902872e-05
2.8382931e-05
4.7495385e-05
7.1544064e-05
9.9841927e-05
0.00013017607
1.364776e-07
7.5951861e-07
1.7274911e-06
2.3835322e-06
2.944561e-06
4.8918002e-06
1.0699572e-05
2.223743e-05
3.9925924e-05
6.3710453e-05
9.2477701e-05
0.00012561835
0.00016043847
1.6212529e-07
1.1691503e-06
2.8483386e-06
4.1524318e-06
4.3963336e-06
4.5060251e-06
7.617298e-06
1.6455827e-05
3.219267e-05
5.4659232e-05
8.3366285e-05
0.00011708822
0.00015533716
0.00019482682
1.8832379e-07
1.6793205e-06
4.416862e-06
7.1458205e-06
7.9236681e-06
6.5450462e-06
6.5078865e-06
1.1828427e-05
2.4760787e-05
4.5409307e-05
7.2871224e-05
0.00010670529
0.00014556714
0.00018914656
0.00023356113
2.1744546e-07
2.2692916e-06
6.4093049e-06
1.1534534e-05
1.416323e-05
1.2198288e-05
8.6929017e-06
9.3514052e-06
1.8450189e-05
3.6423141e-05
6.2219428e-05
9.4820318e-05
0.0001338856
0.00017805351
0.00022723825
0.00027675719
2.5532085e-07
2.912723e-06
8.7777946e-06
1.7447758e-05
2.3830324e-05
2.3092885e-05
1.6201068e-05
1.0647778e-05
1.4242309e-05
2.8527321e-05
5.189844e-05
8.2935188e-05
0.00012063098
0.0001650129
0.00021469427
0.00026970974
0.00032461791
3.0882363e-07
3.5781029e-06
1.1452745e-05
2.4928445e-05
3.7658697e-05
4.1407836e-05
3.2248369e-05
1.8391221e-05
1.3789605e-05
2.2642936e-05
4.2792262e-05
7.1569699e-05
0.00010763622
0.00015037772
0.00020016981
0.00025555483
0.00031674629
0.0003772415
3.9698464e-07
4.229173e-06
1.4337033e-05
3.3868609e-05
5.6218054e-05
6.989352e-05
6.1920486e-05
3.7248644e-05
1.9900516e-05
2.0270331e-05
3.5719159e-05
6.1680494e-05
9.5490042e-05
0.00013636352
0.00018407486
0.00023938407
0.00030078846
0.00036841972
0.00043478307
5.2982476e-07
4.830179e-06
1.7316984e-05
4.3979908e-05
7.9928916e-05
0.00011203263
0.00011335619
7.540506e-05
3.7625091e-05
2.390718e-05
3.2021392e-05
5.4066883e-05
8.5268592e-05
0.00012366209
0.00016904524
0.00022169523
0.00028273305
0.00035043146
0.00042488
0.0004973589
7.2982398e-07
5.3420706e-06
2.0302966e-05
5.4912898e-05
0.00010867077
0.00017253044
0.00019997131
0.00014765785
7.63225e-05
3.8142313e-05
3.3838145e-05
4.9958345e-05
7.7775283e-05
0.00011349413
0.00015592904
0.00020559348
0.00026322362
0.00033020901
0.00040462836
0.00048622615
0.00056508953
1.0087729e-06
5.746374e-06
2.3200686e-05
6.632525e-05
0.00014212373
0.00025360934
0.00033828925
0.00028014711
0.00015342623
7.1499249e-05
4.5009795e-05
5.1217219e-05
7.4182361e-05
0.0001067013
0.00014612183
0.000192124
0.00024589067
0.00030859867
0.00038192227
0.00046344421
0.00055257932
0.00063808067
1.363425e-06
6.0457387e-06
2.5919972e-05
7.7873045e-05
0.00017908314
0.00035534213
0.00053719262
0.00050374474
0.00030262947
0.00014080564
7.2530781e-05
6.1054042e-05
7.6141391e-05
0.00010442051
0.00014052122
0.00018290999
0.00023203172
0.00028979884
0.00035784379
0.00043787696
0.00052700456
0.0006240474
0.00071642142
1.7485919e-06
6.2577902e-06
2.8338965e-05
8.9010682e-05
0.00021770728
0.00047285986
0.00079515122
0.00084602331
0.00056765192
0.00027954129
0.00013009808
8.5202568e-05
8.6416701e-05
0.00010814652
0.00014023841
0.00017891854
0.00022354308
0.00027541823
0.00033722459
0.00041089975
0.00049819609
0.00059541207
0.00070072269
0.00080017276
2.0892369e-06
6.4028671e-06
3.0356964e-05
9.8846953e-05
0.00025542694
0.00059599686
0.0010953765
0.0013080139
0.00099574757
0.00053810194
0.00024612064
0.0001340961
0.00010968662
0.00012025572
0.00014662432
0.00018125464
0.00022150776
0.00026769979
0.00032206378
0.00038802665
0.00046785498
0.00056294597
0.00066877865
0.00078267896
0.00088936311
2.3332798e-06
6.5208202e-06
3.1927953e-05
0.00010663462
0.00029016394
0.00071248993
0.0014075422
0.0018666294
0.0016036846
0.00097406848
0.00047128027
0.00023076499
0.00015417954
0.00014466499
0.00016171686
0.00019112424
0.00022706038
0.00026790952
0.00031503142
0.00037171378
0.00044218518
0.00052870114
0.00063225404
0.00074720754
0.0008699776
0.00098399539
2.516962e-06
6.6455329e-06
3.3064691e-05
0.00011217273
0.00031999523
0.0008115094
0.001697624
0.0024686475
0.0023646192
0.00161938
0.00086457197
0.00041920174
0.00023705854
0.00018795456
0.00018878535
0.00021025401
0.0002412611
0.00027726094
0.00031766815
0.00036514603
0.00042419596
0.00049960899
0.00059357855
0.0007062386
0.00083079074
0.00096264806
0.0010840172
2.6778662e-06
6.8032953e-06
3.3780077e-05
0.00011564963
0.00034291525
0.00088521597
0.0019362104
0.0030427696
0.0032157935
0.0024535384
0.0014708579
0.00075601501
0.00039421412
0.00026234046
0.00023320212
0.00024127862
0.00026553637
0.00029671829
0.00033134525
0.00037025182
0.00041768477
0.00047929385
0.00056038473
0.00066256992
0.00078503146
0.0009195999
0.0010606776
0.0011893175
2.7670165e-06
6.9743872e-06
3.413856e-05
0.00011753218
0.00035721161
0.00093134238
0.0021028049
0.0035309064
0.0040581368
0.0034187336
0.0022925731
0.0013017935
0.00068092453
0.00039589152
0.00030381119
0.00028854318
0.00030198761
0.00032744223
0.00035702628
0.00038868779
0.00042509627
0.00047224501
0.00053695201
0.0006245213
0.00073584926
0.000868759
0.0010136794
0.001164009
0.0012997812
2.680056e-06
7.0866272e-06
3.4218434e-05
0.00011808838
0.00036276864
0.00095232261
0.0021916377
0.0038927051
0.0048042803
0.0044077753
0.0032798084
0.0020773113
0.0011600005
0.00063775018
0.00042028584
0.0003590069
0.00035398269
0.00037102969
0.00039567913
0.00042154606
0.00044852457
0.00048155502
0.00052855172
0.00059707316
0.00069221385
0.00081357654
0.00095753591
0.0011130408
0.0012725468
0.0014153086
2.3520418e-06
7.1563853e-06
3.4121519e-05
0.00011763555
0.00036104868
0.00095046261
0.0022077846
0.0041029143
0.0053911424
0.0053134835
0.0043402238
0.0030425381
0.0018699967
0.0010448136
0.0006232971
0.00046522856
0.00042696066
0.00043000408
0.00044848404
0.00046972766
0.00048935726
0.00050992928
0.00053905853
0.00058632203
0.00065977605
0.00076359916
0.00089594639
0.0010514565
0.0012176576
0.0013861603
0.0015356892
1.9229466e-06
7.2902962e-06
3.3874001e-05
0.00011636045
0.00035433553
0.00092967387
0.0021669179
0.0041203807
0.0057675969
0.0060625403
0.0053571936
0.0041271814
0.0027921967
0.0016750893
0.00096712563
0.0006381265
0.0005296061
0.00050854104
0.00051728026
0.00053412984
0.00054861097
0.00055925107
0.00057195639
0.00059702279
0.00064548686
0.00072514385
0.00083895714
0.00098314055
0.0011505851
0.0013274595
0.0015046611
0.0016604735
1.5794416e-06
7.5783922e-06
3.3463734e-05
0.00011447202
0.00034392607
0.00089601278
0.0020848364
0.0040007711
0.0058649563
0.0065916747
0.0062383003
0.0052171784
0.0038677176
0.0025425911
0.001511685
0.00092870783
0.00068182458
0.00061324402
0.00060507013
0.0006160361
0.0006271002
0.00063088972
0.00062984713
0.00063359796
0.00065507233
0.00070600751
0.00079347892
0.00091852445
0.0010753371
0.0012549479
0.0014423282
0.0016277969
0.0017892612
1.3696351e-06
8.2030781e-06
3.288701e-05
0.00011102647
0.00033139121
0.00085364071
0.0019749212
0.0038156876
0.0057522314
0.006844325
0.0069204558
0.0062045498
0.0050008828
0.003587392
0.0022981091
0.0013890682
0.0009267456
0.00075570269
0.00071683295
0.0007175209
0.00072573044
0.00072582412
0.00071471636
0.00069958985
0.00069402594
0.00071291387
0.00076809979
0.00086504714
0.0010026187
0.0011726845
0.0013645275
0.0015620945
0.0017553069
0.0019218919
1.2479312e-06
9.1921714e-06
3.2851529e-05
0.00010573335
0.00031209788
0.00080778957
0.001848699
0.003583
0.0055180855
0.0068360822
0.0073565801
0.0070230619
0.0060769691
0.0047350678
0.0032940365
0.0020751109
0.0013165284
0.00096647328
0.0008599739
0.0008421305
0.00084594899
0.00084488254
0.00082801022
0.00079787929
0.00076702464
0.00075251418
0.00077055085
0.00083202128
0.00094028865
0.0010915095
0.0012752989
0.0014792605
0.0016865409
0.0018869064
0.0020582676
1.1734954e-06
1.055385e-05
3.3579223e-05
0.00010102327
0.00028735897
0.0007436408
0.0017191398
0.0033257841
0.0052099589
0.0066469591
0.0074968387
0.0076197382
0.0070069239
0.0058750743
0.0044281391
0.0029988208
0.0018979258
0.0012990921
0.0010523729
0.00099562144
0.00099022186
0.00098918005
0.00097084433
0.00093072051
0.00087811047
0.00083077857
0.00080868554
0.00082812456
0.0008982608
0.0010195922
0.0011854883
0.0013832465
0.0015990361
0.0018154198
0.0020222143
0.0021980405
1.1754152e-06
1.2393226e-05
3.5157789e-05
9.7410639e-05
0.00026382085
0.00066981119
0.0015535456
0.0030677938
0.0048623091
0.0063621193
0.0074127598
0.007930717
0.0077432577
0.0069062362
0.005606293
0.0040960199
0.0027174695
0.0017893217
0.0013394785
0.001187656
0.0011626707
0.0011604084
0.0011444137
0.0010999258
0.0010306794
0.00095313257
0.00088986314
0.00086239274
0.00088607979
0.00096732522
0.001103447
0.0012847793
0.0014965411
0.0017236895
0.0019484832
0.0021609113
0.0023406769
1.2718465e-06
1.4793824e-05
3.7566469e-05
9.4955801e-05
0.0002424115
0.00059948637
0.0013779631
0.0027518111
0.0045076728
0.0060193896
0.0072010891
0.0079880022
0.0082322367
0.0077685869
0.0067225097
0.0052841158
0.0037533329
0.0024918417
0.001763747
0.0014450415
0.0013697308
0.0013615143
0.0013501027
0.0013072086
0.0012276577
0.0011244198
0.0010210571
0.00094361251
0.0009139019
0.00094498994
0.0010398809
0.0011922605
0.001389584
0.0016151377
0.0018529926
0.0020854053
0.0023026552
0.0024857489
1.4489642e-06
1.7787482e-05
4.0748521e-05
9.3689666e-05
0.0002235415
0.00053387034
0.0012101924
0.0024337553
0.0040653933
0.005648666
0.0069122129
0.0078764364
0.0084426571
0.0084089914
0.0076955881
0.0064624738
0.0049249802
0.0034315844
0.002355654
0.0018206136
0.0016244009
0.001597491
0.0015901548
0.0015541716
0.0014716962
0.0013490288
0.0012087863
0.0010803909
0.00099190856
0.00096373767
0.0010056638
0.0011165646
0.0012864728
0.0015000239
0.0017389448
0.0019866873
0.0022258267
0.0024470511
0.0026328212
1.7011787e-06
2.138598e-05
4.4706064e-05
9.3700708e-05
0.00020756513
0.00047420557
0.0010532665
0.0021211237
0.0036331628
0.005155978
0.0065811328
0.0076700148
0.0084451566
0.0087942689
0.0084738479
0.0075378612
0.0061374924
0.0045492078
0.0031705149
0.0023389821
0.0019685881
0.001875161
0.0018685126
0.0018430568
0.0017652871
0.0016310159
0.0014592158
0.0012810795
0.0011303501
0.0010350494
0.0010127835
0.0010689726
0.0011980781
0.001386422
0.0016161697
0.0018677963
0.0021244761
0.002369371
0.0025937068
0.0027814712
2.5514067e-05
2.0174358e-06
4.9458032e-05
9.5067247e-05
0.00019472952
0.00042139956
0.000910608
0.0018270299
0.0031895557
0.0046798493
0.0060996366
0.0074033009
0.0083359474
0.0089476338
0.0090408431
0.0084475155
0.0072969888
0.0057611013
0.0041993912
0.0030361283
0.0024468436
0.0022159598
0.0021904584
0.002177399
0.0021115168
0.0019744493
0.00177824
0.0015538307
0.0013394747
0.0011707633
0.0010738673
0.0010621078
0.0011359038
0.00128505
0.0014924178
0.0017379943
0.0020014713
0.0022660213
0.0025156427
0.0027422168
0.0029313082
5.5059085e-05
3.0173381e-05
2.3877071e-06
9.7856182e-05
0.00018510634
0.0003759033
0.00078406398
0.0015579057
0.0027621475
0.0041724257
0.0056311394
0.0069631597
0.0081549845
0.0089468978
0.0093586643
0.0091579633
0.0083249635
0.0069764378
0.0053688918
0.0039473207
0.0030633624
0.0026732771
0.0025654876
0.0025621558
0.0025140447
0.0023837712
0.002171929
0.0019067045
0.0016295364
0.0013829918
0.0012022272
0.0011095615
0.0011129995
0.0012074187
0.0013780845
0.001604636
0.0018654195
0.0021396941
0.0024109554
0.0026642367
0.0028921811
0.0030819487
0.00010215218
6.1620288e-05
3.538974e-05
2.876292e-06
0.00017861279
0.00033783172
0.00067433376
0.00131831
0.0023615964
0.0036684728
0.0051106586
0.0065392812
0.0077787345
0.0088628455
0.0094960518
0.0096606918
0.0091737979
0.0081069852
0.006598353
0.0050366332
0.0038588856
0.0032662879
0.0030296663
0.0030031797
0.0029781936
0.0028639421
0.0026467142
0.002348069
0.0020109046
0.001684089
0.0014117108
0.0012259192
0.0011436939
0.0011668031
0.0012844844
0.00147764
0.0017232022
0.0019982772
0.0022821447
0.002558887
0.0028147419
0.0030432064
0.0032330298
0.00017514274
0.00010799691
6.9057863e-05
4.1050252e-05
3.4816907e-06
0.00030699091
0.0005813045
0.0011098723
0.0019981907
0.0031824402
0.004576052
0.0060424497
0.0074181724
0.0085601105
0.009534177
0.0099713698
0.009856004
0.0090920321
0.0078007742
0.0062309242
0.00484817
0.0039906292
0.0036314318
0.003517194
0.0035105691
0.0034213209
0.003209739
0.0028868614
0.0024944652
0.0020867698
0.0017166822
0.0014265878
0.0012436012
0.0011780154
0.0012249271
0.0013679887
0.0015841325
0.0018481186
0.0021363426
0.0024284599
0.0027094067
0.0029667477
0.0031949087
0.0033841942
0.00028316406
0.00017448496
0.00011513173
7.7151607e-05
4.6909956e-05
4.1880818e-06
0.00050422209
0.00093229306
0.0016768247
0.0027296
0.0040457879
0.0055182677
0.0069735422
0.0082853826
0.0093173052
0.010152519
0.010350551
0.009924554
0.0088999172
0.0074570598
0.0059735884
0.004885471
0.004354268
0.0041530462
0.0041196275
0.0040640435
0.0038694435
0.0035329085
0.0030919004
0.002604469
0.0021321204
0.00172779
0.0014294899
0.0012574347
0.0012144431
0.0012887399
0.0014587025
0.0016978263
0.0019793071
0.0022793151
0.0025782439
0.0028620951
0.0031198504
0.0033469155
0.0035350972
0.00044211875
0.00026576279
0.00017640749
0.00012314702
8.5664615e-05
5.2747095e-05
5.0222482e-06
0.00078431787
0.0013994359
0.0023189612
0.0035397675
0.0049860893
0.0064922141
0.0079135122
0.0091411631
0.01004622
0.010697995
0.010609119
0.0098769326
0.0086355131
0.0071759254
0.0059326045
0.0051996042
0.0049364794
0.0048336964
0.0048007231
0.0046360546
0.0042975269
0.0038159853
0.0032516387
0.0026738967
0.002146584
0.0017191849
0.0014229118
0.0012698932
0.0012549089
0.0013595087
0.001557246
0.0018188615
0.0021165806
0.0024268417
0.0027310746
0.0030165306
0.0032736572
0.00349887
0.00368541
0.00066377925
0.00039349202
0.00025426936
0.00018032104
0.0001318028
9.4369325e-05
5.8310189e-05
5.9817942e-06
0.0011653939
0.0019563445
0.0030711366
0.0044689695
0.0059970102
0.0075011143
0.0088602587
0.0099865273
0.010727234
0.011142245
0.010727875
0.0097313325
0.0083877299
0.0070882542
0.0061935802
0.0058213656
0.0057072906
0.0056470555
0.0055211885
0.0051936938
0.0046812279
0.00404405
0.0033590838
0.0027010356
0.002131586
0.0016936391
0.0014099218
0.0012835747
0.0013012865
0.0014383447
0.0016640905
0.0019472427
0.0022596821
0.0025785197
0.002886517
0.0031722933
0.0034277866
0.0036504313
0.0038348355
0.00097186821
0.00056771944
0.00035710821
0.00024770571
0.00018584241
0.00014091562
0.00010293515
6.3362727e-05
7.0793509e-06
0.0016435488
0.0026481909
0.0039828805
0.005513914
0.0070760549
0.0085334345
0.0098139898
0.010806577
0.011336562
0.011469752
0.010729857
0.0095661166
0.0082954555
0.0073025765
0.0068193498
0.0067204509
0.0066461817
0.0065381492
0.0062371944
0.0057044419
0.0049995412
0.0042063027
0.003410624
0.0026867167
0.0020900666
0.0016547844
0.0013938706
0.0013010785
0.0013553347
0.0015261666
0.001779529
0.0020828663
0.0024082647
0.0027339197
0.003044126
0.0033289661
0.0035818691
0.0038012799
0.003983098
0.0013795804
0.00081442305
0.00049367
0.00033120569
0.00024513969
0.00019280501
0.00015006989
0.00011087932
6.777373e-05
8.2664824e-06
0.0022757739
0.0035399242
0.0050607626
0.0066665121
0.0081957484
0.009584229
0.010764918
0.01158055
0.011859221
0.011679978
0.010681371
0.009513926
0.0084901391
0.0079205689
0.0078179099
0.0078331701
0.0077155342
0.0074452813
0.006904936
0.0061386005
0.0052365523
0.0042964425
0.0034061045
0.0026338685
0.0020262065
0.0016067832
0.0013781899
0.0013249316
0.0014186109
0.0016237022
0.001903713
0.0022255154
0.0025619307
0.00289258
0.0032034465
0.0034861366
0.003735557
0.0039511275
0.0041299422
0.0019559098
0.0011590184
0.00069004242
0.00043846396
0.00031383436
0.0002460794
0.00020062487
0.00015867372
0.00011803584
7.1405704e-05
9.4361087e-06
0.0031474087
0.004653312
0.0062931552
0.0078783262
0.0093399329
0.01065622
0.01170762
0.012289193
0.012297111
0.011812675
0.010708574
0.0097235672
0.0090991842
0.0089953641
0.0091388486
0.0091048502
0.008840666
0.0083047927
0.0074845898
0.0064735181
0.0053821641
0.0043128747
0.0033482923
0.0025472543
0.0019450417
0.0015540651
0.0013663514
0.001357488
0.0014923972
0.0017314714
0.0020366385
0.0023748748
0.0027202254
0.0030540098
0.003364017
0.0036434173
0.003888544
0.0040997151
0.0042751278
0.0028087304
0.0016830444
0.0009796337
0.00059400624
0.00039870041
0.00030392379
0.00024977277
0.00020853323
0.00016636057
0.0001243059
7.4095992e-05
1.0516064e-05
0.0043020845
0.0059773861
0.0076030703
0.0091098214
0.010515824
0.011748709
0.012618025
0.012944891
0.012647958
0.011957788
0.010966736
0.010343251
0.010223887
0.010512973
0.010690151
0.010464727
0.009929675
0.0090638633
0.0079443577
0.0066942166
0.0054327785
0.0042581381
0.0032425849
0.0024328891
0.0018521547
0.001501194
0.0013616574
0.0014008232
0.0015777301
0.0018498
0.0021781501
0.002530531
0.0028826328
0.0032176949
0.0035254051
0.0038004777
0.0040405543
0.0042467796
0.0044253783
0.004010881
0.0025189505
0.0014554376
0.00083624991
0.00052159598
0.00037209487
0.00030040957
0.00025515848
0.00021592844
0.00017303836
0.00012923024
7.5930304e-05
1.1362453e-05
0.0057330172
0.0073981309
0.0089186152
0.010372843
0.011739207
0.012850131
0.013494622
0.013539518
0.012959644
0.012296566
0.011620391
0.011502754
0.011903981
0.0123742
0.012344117
0.011814706
0.010906984
0.0096795119
0.0082627113
0.0067943135
0.0053904724
0.0041381711
0.0030960264
0.0022975987
0.0017533446
0.0014526041
0.0013671571
0.0014566765
0.0016754122
0.0019787838
0.002327933
0.002691969
0.0030485942
0.0033831584
0.0036872521
0.0039570144
0.0041912675
0.0043982641
0.0045840258
0.0055619862
0.0037730735
0.0022742054
0.001268496
0.00072364053
0.00046908268
0.00035658222
0.00030165507
0.00026139276
0.00022281855
0.00017805407
0.00013356994
7.6366624e-05
1.2076758e-05
0.0072805232
0.008797582
0.010250718
0.011703575
0.013011567
0.013954397
0.014339502
0.014079119
0.013392139
0.013004397
0.012818435
0.013293961
0.014067501
0.014414569
0.013995922
0.013049536
0.011714024
0.010121655
0.0084297997
0.006775218
0.0052620622
0.0039614439
0.0029169675
0.0021486037
0.0016543709
0.0014124823
0.0013855361
0.0015264725
0.0017859448
0.0021183083
0.0024855201
0.0028586085
0.0032176001
0.0035500125
0.0038492116
0.0041126115
0.004346159
0.0045576913
0.0047467906
0.0072472287
0.0054519016
0.0035781743
0.0020703669
0.0011167429
0.00063731615
0.0004335317
0.00034986952
0.00030625091
0.00026804473
0.00022818526
0.00018292342
0.00013594619
7.5847951e-05
1.2550928e-05
0.0087675298
0.010180573
0.011660854
0.013122092
0.014331783
0.015044669
0.01514235
0.014663709
0.014129129
0.014257532
0.014685893
0.015706333
0.016530756
0.0164521
0.015529643
0.014088276
0.012309511
0.010375463
0.0084459233
0.0066447832
0.0050577612
0.0037381379
0.0027143312
0.0019932106
0.0015607584
0.001384685
0.0014190735
0.0016113007
0.0019095249
0.0022680238
0.0026503519
0.0030299203
0.0033892312
0.0037178439
0.0040107415
0.0042725288
0.0045089979
0.0047219135
0.0049136253
0.0088230915
0.0072761695
0.0053807596
0.0034189847
0.0019008181
0.00099547072
0.000573676
0.00041154842
0.00034903529
0.00031266249
0.00027399756
0.00023390084
0.00018436918
0.00013635884
7.3956572e-05
1.270743e-05
0.010190175
0.011638113
0.013187131
0.014630688
0.015679168
0.016108666
0.015938146
0.015454634
0.015356824
0.016194803
0.017262872
0.018580106
0.019055541
0.018344481
0.016845173
0.014870552
0.012672392
0.010439865
0.0083202811
0.0064156847
0.0047901122
0.0034791729
0.0024971795
0.001838478
0.0014776923
0.0013725903
0.0014696155
0.0017118337
0.0020460415
0.0024274619
0.0028219093
0.0032054562
0.0035629853
0.0038859575
0.0041771771
0.0044408204
0.0046773301
0.004890862
0.0050844679
0.010275278
0.0089331453
0.0073282062
0.0053343969
0.0032845376
0.0017602384
0.0009007902
0.00052875404
0.0003994517
0.00035214457
0.00031886998
0.00028071236
0.00023468452
0.00018351013
0.00013368947
7.0463123e-05
1.2467687e-05
0.011669616
0.013226332
0.01483923
0.016209707
0.017022214
0.017148239
0.016859543
0.016656792
0.017238913
0.01889233
0.02045304
0.021627294
0.021420772
0.01998313
0.017854165
0.015367058
0.012799593
0.010325776
0.0080686091
0.0061034735
0.0044725661
0.0031956267
0.0022742764
0.0016911036
0.0014099119
0.0013790424
0.0015385126
0.001828344
0.0021952072
0.0025961643
0.0029997235
0.0033846087
0.0037379852
0.0040600784
0.0043528732
0.0046153753
0.0048511027
0.0050644349
0.0052592403
0.011760217
0.010407609
0.0090412318
0.0073777302
0.0052924186
0.0031652992
0.0016443622
0.000828894
0.00049804479
0.00039427836
0.00035565578
0.00032704528
0.00028202082
0.00023236338
0.00017851327
0.00012663789
6.5077495e-05
1.1697049e-05
0.013285298
0.014960247
0.016602332
0.017819801
0.018334748
0.018265119
0.018104971
0.018466796
0.019865319
0.022300122
0.023970662
0.024546047
0.023458119
0.021269168
0.018513179
0.015572503
0.012704149
0.01005307
0.0077108012
0.0057250393
0.0041187601
0.0028983263
0.0020540036
0.0015573154
0.0013614777
0.0014062659
0.0016266043
0.0019608667
0.0023567125
0.0027736677
0.003183071
0.0035662955
0.0039207095
0.0042448688
0.0045356823
0.0047961774
0.0050301782
0.0052425157
0.0054378445
0.01337324
0.011885456
0.010518796
0.0091104086
0.0073920841
0.0052437699
0.0030453979
0.0015503103
0.00077500815
0.00047820386
0.00039115082
0.00036324716
0.00032852702
0.00027994545
0.00022586595
0.00016884767
0.00011497774
5.740388e-05
1.0397362e-05
0.015051245
0.016843522
0.018438049
0.019411293
0.019694483
0.019646242
0.019889493
0.020994553
0.023215019
0.026176828
0.027444915
0.027104901
0.025075361
0.022137897
0.018815591
0.015502569
0.01241082
0.009647234
0.0072682355
0.0052972103
0.0037417291
0.0025974554
0.0018442016
0.0014426433
0.0013357311
0.0014559092
0.0017344437
0.0021093585
0.0025301404
0.0029591218
0.0033706459
0.0037581837
0.0041161252
0.0044377303
0.0047256564
0.0049830531
0.0052144106
0.005424953
0.0056201731
0.015129284
0.013469207
0.011971754
0.010566621
0.0090984074
0.0073353206
0.005096952
0.0029242907
0.0014711711
0.00073434987
0.00046232683
0.00039307034
0.00036345435
0.00032678848
0.00027396788
0.00021459387
0.0001546991
0.00010060369
4.7300242e-05
8.7780097e-06
0.01698181
0.018843646
0.02027828
0.021037114
0.02127121
0.021483937
0.022346249
0.02422352
0.02712014
0.030129014
0.030565484
0.029151785
0.026198963
0.022569949
0.018779109
0.015187502
0.011952403
0.0091357347
0.0067621599
0.0048358796
0.0033537173
0.0023025255
0.0016519728
0.0013517327
0.0013353463
0.0015292453
0.0018624162
0.0022735244
0.0027145202
0.0031509994
0.0035718108
0.0039655281
0.0043207196
0.0046388245
0.0049225909
0.0051758403
0.0054036083
0.005611583
0.0058061019
0.017050975
0.015187378
0.013502232
0.011972124
0.010508185
0.0089655053
0.0071098538
0.0048698155
0.0027947269
0.0013962515
0.00069875836
0.00045062304
0.00038839501
0.00036120232
0.00032104756
0.00026375635
0.00019967589
0.00013741513
8.3922489e-05
3.6697261e-05
7.0102815e-06
0.019049855
0.02086744
0.022155594
0.022856657
0.023256125
0.023937722
0.025474554
0.028024435
0.031266705
0.033780888
0.033129093
0.030606739
0.026802089
0.022585839
0.01844012
0.014668839
0.011364416
0.0085457818
0.0062121235
0.0043555483
0.0029659908
0.0020221751
0.0014834053
0.001288512
0.0013626169
0.0016273269
0.0020104552
0.0024522952
0.0029081257
0.0033609513
0.0037920876
0.0041833533
0.004534812
0.0048479269
0.0051263129
0.0053743131
0.0055975592
0.0058022094
0.0059954962
0.019113702
0.017055157
0.015150173
0.013425184
0.011843408
0.01029763
0.0086150814
0.006726751
0.0045963271
0.0026410698
0.0013206542
0.00066025443
0.0004320279
0.00038258736
0.00035563703
0.00031168609
0.00024951822
0.00018100714
0.00011690671
6.5980781e-05
2.618957e-05
5.2918035e-06
0.021165721
0.022942673
0.024227679
0.025067332
0.025801315
0.027026215
0.029118668
0.032146238
0.035267368
0.036866273
0.035002374
0.031440011
0.026899921
0.022226074
0.017851485
0.01399347
0.010682187
0.0079018557
0.0056353385
0.0038691743
0.0025885581
0.0017639806
0.0013438535
0.0012565706
0.0014194835
0.0017504574
0.0021774487
0.0026438048
0.0031255574
0.0035947478
0.0040244161
0.0044122006
0.0047581556
0.0050648545
0.0053365789
0.00557822
0.0057960116
0.0059966223
0.0061882032
0.021233703
0.019046312
0.016925343
0.014972193
0.013203159
0.011529708
0.0098414305
0.0080830473
0.0062561589
0.0042804282
0.0024567374
0.0012353196
0.00060461856
0.00041435602
0.00037497106
0.00034685298
0.00029792061
0.00023102806
0.00015903547
9.4030175e-05
4.7736086e-05
1.6190903e-05
3.7741983e-06
0.023352429
0.025236792
0.026699367
0.027812908
0.028932678
0.030563735
0.03304646
0.036291167
0.038792983
0.039220639
0.036145236
0.031667468
0.026542517
0.021557041
0.017073903
0.013207284
0.009937213
0.007224897
0.005046577
0.0033880584
0.0022302626
0.0015347277
0.0012384134
0.001259036
0.0015068292
0.0018975779
0.0023614963
0.0028663164
0.0033728456
0.0038425297
0.004269631
0.0046517952
0.0049905706
0.0052893509
0.0055531052
0.0057872664
0.005998692
0.0061945895
0.0063840909
0.023445224
0.021094625
0.018796184
0.016620337
0.014626464
0.012768129
0.010954426
0.0091837822
0.0074538354
0.0057305031
0.003878902
0.0022738986
0.0010994367
0.0005519905
0.00039667686
0.00036421305
0.00033297305
0.00027916383
0.00020831329
0.00013408389
6.9702863e-05
3.1056748e-05
8.5104129e-06
2.3901805e-06
0.025790595
0.027955089
0.029711838
0.031105409
0.032470303
0.034305221
0.037039585
0.040162671
0.041631154
0.040773806
0.036589246
0.031349024
0.025809224
0.020660034
0.016167478
0.012351406
0.0091555832
0.0065317993
0.0044580638
0.002921795
0.0018991795
0.0013411545
0.0011717133
0.001297565
0.0016237818
0.0020669298
0.0025852236
0.0031262028
0.0036365568
0.004105509
0.0045274202
0.0049019734
0.0052317942
0.005521112
0.005775562
0.0060011229
0.006205305
0.0063959063
0.0065829868
0.025925855
0.023243896
0.020726784
0.018343395
0.016122761
0.014054044
0.012067033
0.010182249
0.0084292731
0.0067742207
0.0051049809
0.0035358593
0.0019938396
0.00096723067
0.00050112776
0.00037734254
0.00034821837
0.00031321191
0.00025550854
0.00018202467
0.00010746124
4.7348268e-05
1.8412623e-05
4.0044603e-06
1.3342162e-06
0.028685653
0.031237621
0.033262547
0.034759375
0.036124541
0.038027876
0.040903967
0.04348653
0.043677744
0.041531419
0.036380865
0.030569785
0.024796474
0.019611313
0.015185801
0.011459098
0.0083571811
0.0058354561
0.0038796935
0.0024793215
0.0016035806
0.0011895723
0.0011464207
0.00137169
0.0017690166
0.0022860779
0.0028555705
0.0034056377
0.0039183689
0.004383321
0.0047976504
0.0051624738
0.005481511
0.0057597822
0.0060035708
0.0062194424
0.0064155793
0.0066003129
0.0067847117
0.028894539
0.025676418
0.022758445
0.020124552
0.017683085
0.015391782
0.013216693
0.01116883
0.0093067067
0.0076234249
0.0059930301
0.0045980822
0.0030560234
0.0017159242
0.00083561521
0.00045124947
0.00035410174
0.00032658748
0.00028787117
0.000228402
0.00015327456
8.1648721e-05
3.093159e-05
1.0741679e-05
1.8038416e-06
7.1086318e-07
0.032179993
0.035080034
0.03715258
0.038450059
0.039605854
0.041596301
0.044414972
0.046098354
0.044894039
0.041537973
0.035614549
0.029443486
0.023596056
0.01848178
0.014171979
0.01055445
0.0075555335
0.0051452453
0.0033202784
0.0020700229
0.0013514729
0.0010838713
0.0011626495
0.001480872
0.0019752827
0.002563013
0.0031495401
0.0037068609
0.0042178394
0.0046758773
0.0050800673
0.0054329791
0.0057393477
0.0060049453
0.0062367415
0.0064418924
0.0066291874
0.0068075299
0.0069890762
0.032500734
0.028609231
0.025072833
0.022009751
0.019308044
0.016793045
0.014408113
0.012203402
0.010189239
0.0083923415
0.0067117045
0.0053747373
0.0039383735
0.0025825331
0.0014368529
0.00070920218
0.00040149003
0.00032657892
0.00029926811
0.00025828763
0.00019715155
0.00012465152
6.0543972e-05
2.1395092e-05
6.6858688e-06
1.0414007e-06
3.5223482e-07
0.036268383
0.039279781
0.041035896
0.041844964
0.042798096
0.044926262
0.047361341
0.047922567
0.045302655
0.040892604
0.03442647
0.028087483
0.022301709
0.017329753
0.013157075
0.0096522081
0.0067586571
0.0044688148
0.0027896017
0.0017033514
0.0011480449
0.0010249625
0.0012211229
0.0016627331
0.002252522
0.0028689415
0.0034700263
0.0040293132
0.004534937
0.0049829353
0.0053743611
0.0057131071
0.0060048611
0.0062561773
0.0064746924
0.0066680894
0.0068457627
0.0070172604
0.0071958839
0.036742195
0.032180413
0.027873177
0.024172803
0.021039886
0.01826426
0.015671797
0.013282293
0.011121527
0.0091862789
0.0073811547
0.0059985751
0.0045878118