/*--------------------------------*- C++ -*----------------------------------*\
| =========                 |                                                 |
| \\      /  F ield         | OpenFOAM: The Open Source CFD Toolbox           |
|  \\    /   O peration     | Version:  5.0                                   |
|   \\  /    A nd           | Web:      www.OpenFOAM.org                      |
|    \\/     M anipulation  |                                                 |
\*---------------------------------------------------------------------------*/
FoamFile
{
    version     2.0;
    format      ascii;
    class       volVectorField;
    location    "100";
    object      U;
}
// * * * * * * * * * * * * * * * * * * * * * * * * * * * * * * * * * * * * * //

dimensions      [0 1 -1 0 0 0 0];

internalField   nonuniform List<vector> 
9200
(
(1.0470928 -0.0024792787 7.7375592e-24)
(1.0473747 -0.0088740168 4.2020789e-22)
(1.0557367 -0.002386412 0)
(1.0477303 -0.014304507 -1.875655e-22)
(1.0567096 -0.0087786657 8.8398928e-22)
(1.0591103 -0.0021381348 0)
(1.0480761 -0.020640802 -1.4948766e-23)
(1.0579336 -0.014311455 1.1289015e-22)
(1.060466 -0.0080373101 0)
(1.0635957 -0.0017359993 0)
(1.0484132 -0.027130519 3.4459021e-22)
(1.0596287 -0.021005787 2.718138e-22)
(1.062297 -0.013146256 3.8277249e-22)
(1.0654553 -0.0067495175 2.8651178e-23)
(1.0664436 -0.0012439007 -8.0045333e-25)
(1.0480893 -0.03426746 3.6043081e-22)
(1.0613706 -0.028061819 -2.2643508e-22)
(1.0649648 -0.019487242 1.1148884e-21)
(1.0680441 -0.011068496 3.6975072e-22)
(1.0686677 -0.0051032711 -7.4058712e-23)
(1.0685087 -0.00066818791 -1.4150804e-21)
(1.0471037 -0.041840455 -3.0815465e-22)
(1.0631843 -0.036239714 1.1020668e-21)
(1.0680516 -0.026334069 -7.3097931e-22)
(1.0719594 -0.01660748 -7.4905444e-24)
(1.0718563 -0.0083587407 6.214104e-22)
(1.0710181 -0.0031347631 5.9840011e-22)
(1.0694107 -8.6807714e-05 7.5161688e-23)
(1.0455596 -0.049873932 -8.8424066e-22)
(1.0646302 -0.045384298 2.5704174e-22)
(1.07144 -0.03443662 4.4184204e-22)
(1.0767024 -0.022729155 -3.6163867e-22)
(1.0767724 -0.012678296 -1.1899584e-21)
(1.0746515 -0.0050882688 -5.7013289e-22)
(1.0721208 -0.0010357627 -1.0296e-21)
(1.0693098 0.00036242766 1.5554497e-21)
(1.0432973 -0.058324039 4.9760077e-22)
(1.0654526 -0.055718733 1.0901412e-21)
(1.0749015 -0.043750223 -4.8097195e-22)
(1.0823238 -0.030225009 4.9695926e-22)
(1.0828648 -0.01755923 -8.0258087e-22)
(1.080339 -0.0078396361 -2.4982084e-21)
(1.075977 -0.0015551237 1.0296085e-21)
(1.0720346 0.00098869961 -1.803365e-21)
(1.0684986 0.00076259555 -3.2703168e-21)
(1.0393268 -0.067326426 -5.9827798e-22)
(1.0654504 -0.067199176 -1.6614112e-21)
(1.0781598 -0.054578309 1.6103593e-22)
(1.0885788 -0.039141963 1.8304988e-21)
(1.0903352 -0.023738391 -6.7676327e-24)
(1.0876274 -0.010872612 -1.1873139e-21)
(1.0820452 -0.002532552 1.0030881e-21)
(1.0759032 0.0019240942 1.9125622e-21)
(1.0709133 0.002764857 9.9821993e-22)
(1.0669679 0.0012443031 2.5992904e-22)
(1.0335401 -0.076659373 5.8807149e-22)
(1.0644329 -0.079784709 -1.5798577e-21)
(1.0808939 -0.067025707 9.2609826e-22)
(1.0952874 -0.04990127 4.4791078e-24)
(1.0990537 -0.031308372 3.2100614e-21)
(1.0968034 -0.014884793 -4.1128212e-21)
(1.0898974 -0.00350113 -3.2071931e-22)
(1.0819766 0.0028000461 3.6766331e-21)
(1.0745462 0.0050408986 -1.6433238e-21)
(1.0690059 0.0043716374 3.1607993e-21)
(1.0648249 0.0016923701 -4.3991166e-22)
(1.0270159 -0.085910384 1.5559774e-22)
(1.0620231 -0.093411755 3.0146706e-21)
(1.0827714 -0.081168785 9.9441894e-22)
(1.1021854 -0.062751579 0)
(1.1089884 -0.040780256 -1.3670463e-22)
(1.1079015 -0.019948465 2.0516833e-21)
(1.0999693 -0.0049620325 -9.8281866e-22)
(1.0898155 0.0040589001 -2.154522e-21)
(1.0802183 0.0076460201 1.5393107e-22)
(1.0722003 0.0077245197 -2.0182537e-21)
(1.0664997 0.0057527181 -1.2411116e-21)
(1.062261 0.0020228725 2.8335717e-22)
(1.0193236 -0.094969997 -5.004286e-25)
(1.0579182 -0.10791085 -1.3684512e-21)
(1.0834983 -0.096987392 0)
(1.1089506 -0.077975455 0)
(1.1199834 -0.052536918 -1.5334713e-21)
(1.1211105 -0.026625595 4.9819752e-21)
(1.112406 -0.0068785023 -4.074956e-21)
(1.0999771 0.0055460639 2.6673334e-21)
(1.0874422 0.010961623 1.833224e-22)
(1.0771336 0.011747794 2.2028088e-24)
(1.0691444 0.0099345885 2.1957088e-21)
(1.0635954 0.0067911785 -1.9397109e-21)
(1.0594547 0.0022323742 3.9328594e-21)
(1.0103797 -0.10364652 -4.308993e-22)
(1.0519711 -0.1230155 1.8209752e-22)
(1.0827073 -0.11439686 -1.708154e-21)
(1.1150255 -0.095801815 2.5257033e-21)
(1.1318272 -0.067083353 -2.8407688e-21)
(1.1365228 -0.035382287 2.0465936e-21)
(1.1276615 -0.0096270074 7.3475446e-22)
(1.1126372 0.0074480913 -9.971473e-23)
(1.0967287 0.015108357 2.441834e-21)
(1.0832904 0.016746284 2.1975819e-21)
(1.0731461 0.0149891 6.9759584e-22)
(1.0656527 0.011581252 1.7638538e-21)
(1.0604742 0.0074740706 1.093672e-21)
(1.0565568 0.0023482264 -1.0176303e-21)
(1.0003444 -0.1117311 3.465462e-21)
(1.0440512 -0.13843048 6.2871832e-21)
(1.0800013 -0.13321529 1.4758926e-21)
(1.1198985 -0.11635618 -5.9459232e-22)
(1.1442258 -0.084895026 5.746767e-22)
(1.1542696 -0.046884747 -3.5144391e-21)
(1.1461489 -0.013506329 8.0355681e-22)
(1.1283814 0.0096485617 -1.2069967e-21)
(1.108188 0.020461807 3.3512053e-22)
(1.0910575 0.022980958 -2.705258e-22)
(1.0780234 0.021087136 -4.8470108e-23)
(1.0686866 0.017276297 -4.5215806e-22)
(1.0619689 0.012638298 -2.0008989e-21)
(1.0572849 0.0078530623 8.2094224e-22)
(1.0536729 0.0023936617 -6.6833795e-22)
(0.98939852 -0.11903985 -5.7020276e-22)
(1.0340998 -0.15381676 -1.6836457e-21)
(1.0750401 -0.15315039 3.3849411e-21)
(1.1230561 -0.13965963 -3.5373506e-21)
(1.1566727 -0.1064892 4.3441826e-21)
(1.1743023 -0.061923416 -4.6086638e-21)
(1.1684322 -0.019097716 9.8754513e-21)
(1.1478002 0.012218718 -4.4099515e-22)
(1.1223164 0.027362596 -1.1569837e-21)
(1.1003348 0.03097864 7.4712681e-23)
(1.0839409 0.028625043 -6.2632787e-21)
(1.0722576 0.023957028 7.6877771e-22)
(1.0641171 0.018629965 6.6884729e-22)
(1.0582823 0.013169767 4.3024043e-22)
(1.0541429 0.0079826618 2.4222688e-22)
(1.0508829 0.0023828169 6.82792e-22)
(0.97757903 -0.12543245 0)
(1.0221738 -0.16882632 -4.6774867e-21)
(1.0676002 -0.17380546 -3.2436479e-21)
(1.1239108 -0.16552762 0)
(1.1684298 -0.13228514 0)
(1.1964488 -0.081384312 0)
(1.1950904 -0.027142582 -1.5081903e-21)
(1.171738 0.015072498 3.9473871e-21)
(1.1395917 0.036329997 -3.3779624e-21)
(1.1113466 0.041297194 3.0625685e-21)
(1.0906032 0.03811058 2.4263951e-22)
(1.0762991 0.032102996 1.2757765e-21)
(1.0664524 0.025501018 1.1531475e-22)
(1.0596573 0.019209393 -7.3356352e-22)
(1.0547349 0.01328069 -3.4562397e-22)
(1.0511432 0.0079165775 -3.3407258e-22)
(1.048244 0.0023317867 0)
(0.96505173 -0.13080171 9.5276922e-22)
(1.0083931 -0.18310106 3.6668898e-21)
(1.0575297 -0.19480194 -1.4666722e-20)
(1.1219982 -0.19380146 -1.3816231e-20)
(1.1787751 -0.16260685 -1.4105365e-20)
(1.2203702 -0.1062473 0)
(1.2266484 -0.038635577 -1.8151943e-20)
(1.2011838 0.018013953 4.0168244e-21)
(1.1606944 0.047909302 1.1359028e-20)
(1.1241995 0.054692518 -1.2580992e-21)
(1.097943 0.050137708 -1.649476e-21)
(1.0804041 0.042087244 5.5812591e-22)
(1.068803 0.033685207 1.4840043e-21)
(1.060926 0.025967667 -2.8104962e-21)
(1.0554576 0.019191556 -1.1321895e-21)
(1.0514024 0.013081662 -2.1664855e-21)
(1.0483295 0.0077110602 -8.9736533e-22)
(1.0457809 0.0022579778 -6.2802204e-22)
(0.95199796 -0.13507829 4.3781903e-23)
(0.99293974 -0.19629619 3.5028562e-21)
(1.0446887 -0.21558156 -3.8859006e-22)
(1.1165277 -0.22407292 -1.1888348e-20)
(1.1868294 -0.19793867 2.5349377e-21)
(1.2455396 -0.13785191 5.1390813e-21)
(1.2638173 -0.054975241 3.8539262e-20)
(1.2375019 0.020820857 3.4461578e-20)
(1.1864807 0.062912904 5.9095609e-21)
(1.1390508 0.072141842 -4.8329422e-21)
(1.1056699 0.065418135 -2.8174216e-22)
(1.0842861 0.054396896 -3.1379271e-21)
(1.0707006 0.043408439 -2.8993766e-22)
(1.0618863 0.03379131 5.1500137e-22)
(1.0558698 0.025623192 7.0557026e-22)
(1.0516069 0.018737625 3.2577104e-22)
(1.0483304 0.012666567 -5.7140543e-22)
(1.045728 0.0074122402 -6.7134833e-23)
(1.043507 0.0021720744 -4.3484899e-22)
(0.93857965 -0.13825295 3.7494928e-22)
(0.97602751 -0.20807412 -2.4879515e-21)
(1.029053 -0.2355072 2.6426178e-20)
(1.1065848 -0.25500948 9.80481e-21)
(1.1896776 -0.23655791 -6.1704152e-22)
(1.2689258 -0.17602031 4.118346e-21)
(1.3055597 -0.077612683 -7.9073259e-21)
(1.2820609 0.022752097 -1.3485097e-20)
(1.2184541 0.08216245 3.5782722e-21)
(1.1561332 0.094911798 1.0627625e-20)
(1.1134162 0.084860841 -7.4152528e-21)
(1.0874064 0.069516155 1.4345103e-21)
(1.0717487 0.054996931 1.631484e-21)
(1.0620562 0.042771629 -1.354966e-22)
(1.0557674 0.032844884 6.6474929e-22)
(1.0513729 0.024713575 9.1176672e-22)
(1.0481447 0.017985109 3.5886894e-22)
(1.0455399 0.012108498 9.2665184e-22)
(1.0433511 0.0070539118 2.3722276e-22)
(1.041425 0.0020777599 3.6415899e-22)
(0.92495062 -0.14038025 -4.0929508e-22)
(0.95805564 -0.21823457 -4.6877213e-21)
(1.010719 -0.2538632 -1.0703825e-20)
(1.0916217 -0.28506064 -1.2524429e-20)
(1.1846537 -0.275155 1.504045e-20)
(1.2809135 -0.21555555 2.4425196e-20)
(1.3415661 -0.10376324 -8.0874083e-20)
(1.3301949 0.024028914 -1.0453172e-19)
(1.2567147 0.10629313 1.2792251e-20)
(1.1761517 0.12429695 0)
(1.1206755 0.10953574 6.2578812e-21)
(1.089096 0.088016296 2.2779023e-21)
(1.0713273 0.068670492 -1.4427605e-21)
(1.0610225 0.053072797 -1.4054685e-21)
(1.0546972 0.040832934 -1.0563518e-21)
(1.0505131 0.031217045 8.4240884e-22)
(1.0474521 0.023444052 8.3913345e-22)
(1.0450759 0.017045293 5.4675983e-23)
(1.0430321 0.011463913 2.1429721e-22)
(1.0411982 0.0066617359 9.5316503e-23)
(1.0395309 0.0019771027 2.3514103e-22)
(0.91127068 -0.14156935 -1.624693e-21)
(0.93957317 -0.22673452 -3.1923293e-21)
(0.99076645 -0.27021691 -1.2676972e-20)
(1.0714673 -0.31267412 1.7057955e-20)
(1.169963 -0.31078478 3.7093162e-20)
(1.2779157 -0.25176631 5.0317906e-21)
(1.3518193 -0.12943859 0)
(1.3645835 0.030067657 -6.7760597e-21)
(1.2899636 0.13923468 1.3945653e-20)
(1.1968454 0.16251924 2.5645751e-20)
(1.1269654 0.14068018 4.1116721e-21)
(1.0884247 0.11043096 8.5478509e-22)
(1.0687166 0.084641943 -5.819644e-22)
(1.0581991 0.064691225 1.0657943e-21)
(1.0522902 0.049621205 3.4978474e-22)
(1.0486322 0.038136005 -3.172371e-22)
(1.0460936 0.029200724 -9.2878347e-23)
(1.0440801 0.021973084 2.6970598e-22)
(1.0423826 0.016003555 4.6462765e-22)
(1.0407959 0.010775895 7.8261173e-23)
(1.0392601 0.0062553501 8.7886362e-23)
(1.0378156 0.0018742687 0)
(0.89767398 -0.14196067 -1.0379813e-21)
(0.92108445 -0.23364467 1.6591385e-21)
(0.9699259 -0.28424841 1.7395282e-21)
(1.047182 -0.33656131 2.9112781e-20)
(1.1450688 -0.34115407 4.1327739e-20)
(1.2562019 -0.28353609 -2.7930217e-20)
(1.3438985 -0.14995072 -1.0264074e-20)
(1.3695121 0.042705342 -9.2648413e-20)
(1.3023682 0.18713003 -1.9607947e-20)
(1.2028767 0.21347439 -1.4988094e-21)
(1.1295712 0.18049713 -1.0742077e-22)
(1.0842911 0.13731329 -3.1790615e-21)
(1.0629938 0.1029489 -3.9564451e-22)
(1.0529624 0.077572746 6.6541275e-21)
(1.0480569 0.05904703 2.2954287e-21)
(1.0454365 0.045415593 6.8882512e-22)
(1.0437452 0.035084649 -5.7436843e-22)
(1.0424273 0.027009983 -2.3736122e-22)
(1.0412064 0.020415758 1.3137683e-22)
(1.0400353 0.014922438 2.4944706e-23)
(1.0388126 0.01007623 0)
(1.0375225 0.0058495495 -6.6465201e-23)
(1.0362667 0.0017739173 -1.4869999e-23)
(0.88424161 -0.14170732 1.1370717e-21)
(0.90300662 -0.23906013 -2.2631248e-21)
(0.94865277 -0.29586925 -8.8736396e-21)
(1.0195135 -0.355709 -1.7904409e-21)
(1.110621 -0.36530733 4.3996802e-20)
(1.2195932 -0.30945672 0)
(1.3158443 -0.1638447 -3.3469687e-21)
(1.3458706 0.063448379 -3.9473306e-20)
(1.2854405 0.25066024 -4.7040547e-20)
(1.1778627 0.27425259 -1.0637389e-20)
(1.1175705 0.22962426 1.073717e-20)
(1.0750632 0.16946956 6.5999659e-22)
(1.0531009 0.12345305 8.3404206e-22)
(1.0446019 0.091446932 1.2833718e-21)
(1.041529 0.068887472 -2.3344792e-22)
(1.0405588 0.052797965 -2.4519163e-21)
(1.0401981 0.040992285 -2.6046502e-21)
(1.039865 0.0319543 4.7330031e-24)
(1.0394118 0.024790278 -9.3090668e-22)
(1.0387717 0.018851333 8.3133898e-22)
(1.0379991 0.013845938 2.7254066e-22)
(1.0370603 0.0093876595 -2.3224599e-22)
(1.0359695 0.0054553493 1.133639e-22)
(1.0348716 0.0016782854 -5.7075875e-24)
(0.87102845 -0.1409587 1.309689e-21)
(0.88567797 -0.24314792 4.9573607e-22)
(0.92737441 -0.30498954 1.0967206e-20)
(0.98960067 -0.37003199 4.4838524e-20)
(1.0692833 -0.38272218 -1.6171416e-20)
(1.1695483 -0.32887866 7.540614e-20)
(1.2687492 -0.17340041 -4.2200043e-21)
(1.3028472 0.089342401 1.3552624e-19)
(1.2411707 0.31609009 -2.8494644e-20)
(1.1378815 0.34787441 -1.634245e-20)
(1.0794654 0.28073517 1.4630966e-20)
(1.0556067 0.20627693 2.8371065e-21)
(1.0381079 0.14590205 2.0279272e-21)
(1.0323604 0.1058477 -5.4429815e-22)
(1.0322314 0.078713962 -3.318161e-21)
(1.0337 0.059974535 3.6515592e-22)
(1.0352089 0.046623271 -5.1350102e-22)
(1.0362662 0.036686804 1.7362839e-22)
(1.0368104 0.028915571 0)
(1.0369437 0.022633294 -8.2630003e-23)
(1.0367168 0.017331539 -1.1388415e-23)
(1.0362384 0.012803767 7.0032285e-24)
(1.035516 0.0087258786 9.7211157e-23)
(1.0345842 0.005080471 -1.4565856e-22)
(1.0336162 0.0015951028 -4.9422935e-23)
(0.8580325 -0.13982649 1.604669e-22)
(0.86929779 -0.24606091 -1.7806512e-21)
(0.90654119 -0.31180139 -2.9732013e-21)
(0.95844691 -0.37933121 -5.1812711e-21)
(1.0237381 -0.39323431 -7.7310066e-20)
(1.1101304 -0.34164539 -2.6624683e-20)
(1.2066319 -0.17830583 -5.5038181e-21)
(1.2500273 0.11413695 -9.0372298e-21)
(1.200141 0.37042463 -7.8778565e-20)
(1.1145525 0.41687304 2.2356176e-20)
(1.0318238 0.33298541 -1.2300362e-20)
(1.0175689 0.24041039 -8.4995296e-22)
(1.0164429 0.16961392 -3.1058072e-21)
(1.0155885 0.12010922 -1.1024946e-21)
(1.0197162 0.087967852 -2.1255136e-21)
(1.0245956 0.066460902 3.8096044e-21)
(1.0286335 0.051647827 7.1937865e-21)
(1.0314972 0.040903192 -5.0615702e-22)
(1.0333455 0.032681033 -8.9775679e-22)
(1.0344149 0.026061913 8.8238805e-23)
(1.034929 0.02059177 7.1492961e-22)
(1.0349868 0.015888189 5.4422705e-22)
(1.034719 0.011815074 -5.9267624e-22)
(1.0341573 0.0081011511 3.6943015e-22)
(1.0333488 0.0047295455 -1.7271836e-22)
(1.0324852 0.0015096737 3.1725727e-24)
(0.84520462 -0.13853999 -1.7454149e-23)
(0.85400403 -0.24797975 2.9241407e-21)
(0.88612453 -0.31635361 -4.0340304e-21)
(0.92712712 -0.38409736 -1.1122969e-20)
(0.97652086 -0.3981847 1.5774872e-20)
(1.0459298 -0.34781069 -5.2644201e-20)
(1.1342748 -0.17692515 -5.5856205e-20)
(1.1803028 0.13664212 -9.3445604e-20)
(1.1497086 0.41728965 1.0820641e-19)
(1.0904396 0.47267417 2.8277359e-20)
(1.0086187 0.38917177 -6.1813172e-21)
(0.96209289 0.26873388 1.0245136e-20)
(0.98401603 0.19058624 -3.5585437e-22)
(0.99389496 0.13352173 -3.8574923e-21)
(1.0036084 0.095920763 -4.7120662e-22)
(1.0130423 0.071703869 1.488909e-21)
(1.0203786 0.055599234 -1.932668e-21)
(1.0255391 0.044299322 2.0236858e-21)
(1.0289712 0.035804434 -1.0790685e-21)
(1.0311842 0.029050764 5.7274136e-22)
(1.0325386 0.02343462 0)
(1.0332875 0.018692282 5.1883027e-22)
(1.0335333 0.01453939 -1.6285488e-22)
(1.0334097 0.010891481 0)
(1.0329623 0.0075197788 -4.7730428e-22)
(1.0322463 0.0044050393 1.9008556e-23)
(1.0314663 0.0014332111 9.6157404e-23)
(0.83250353 -0.13741768 -5.6474062e-22)
(0.83988363 -0.24910985 -5.4298764e-22)
(0.86662178 -0.31887024 -8.6630346e-21)
(0.89563095 -0.38502476 4.2516176e-21)
(0.92970027 -0.39825156 1.4503717e-20)
(0.98087512 -0.34843155 3.3423986e-20)
(1.0536282 -0.17257333 2.7799351e-21)
(1.0955772 0.15871128 7.5753081e-20)
(1.0799027 0.45940401 1.0220512e-21)
(1.0476613 0.52087963 -5.8356814e-20)
(0.99189872 0.44703933 1.1014856e-20)
(0.91424856 0.30164496 -5.7763477e-21)
(0.93517324 0.20317037 -2.6395705e-21)
(0.96656196 0.14469336 -9.2368257e-22)
(0.98370746 0.101792 -4.5469385e-21)
(0.99893901 0.075044471 -9.6207321e-23)
(1.0104257 0.057987651 -6.4820236e-21)
(1.0184245 0.046470875 2.1015421e-21)
(1.0237595 0.038039403 2.2595593e-22)
(1.027267 0.031355589 -2.7178185e-21)
(1.0295837 0.025805599 9.1247121e-22)
(1.0310704 0.021043082 3.74943e-22)
(1.0319533 0.01694515 -1.7347155e-23)
(1.0323146 0.013294249 0)
(1.0322823 0.010039428 0)
(1.031911 0.0069855514 3.3243239e-23)
(1.0312616 0.0041083035 -3.1740595e-22)
(1.030546 0.0013641503 -2.0408174e-22)
(0.81987244 -0.13656606 0)
(0.8270885 -0.24963825 1.9158379e-21)
(0.84828638 -0.31974322 1.1106349e-20)
(0.86607827 -0.3832452 -7.7282602e-21)
(0.88676088 -0.39527215 -2.9167428e-21)
(0.91817355 -0.34369275 -1.7823684e-20)
(0.97204965 -0.16315534 1.4070406e-20)
(1.0035335 0.18088092 9.2008851e-20)
(0.99765379 0.49586549 -1.1139691e-19)
(0.98847182 0.5625629 3.4274046e-20)
(0.95802929 0.49758488 -1.8138274e-21)
(0.88723652 0.34742421 -9.7463224e-21)
(0.87257796 0.20982278 -3.2589507e-22)
(0.93154247 0.14999411 -1.9585803e-21)
(0.96020953 0.10485686 1.5009264e-22)
(0.98230087 0.075762019 -4.2435704e-21)
(0.99887446 0.058253935 3.6764847e-22)
(1.010273 0.047025577 -2.4974372e-21)
(1.0178264 0.039064388 3.6999146e-21)
(1.0227936 0.03280598 -2.4954566e-21)
(1.0261152 0.027506229 8.8505284e-22)
(1.0283974 0.022919507 5.0694558e-22)
(1.0299257 0.018879587 8.8526308e-23)
(1.0308735 0.015351433 -1.8510934e-21)
(1.0312953 0.012156212 -1.7824965e-22)
(1.0313116 0.0092617664 -4.5233067e-23)
(1.0309846 0.0065000761 5.8483317e-22)
(1.0303801 0.0038397138 -2.2237774e-22)
(1.0297127 0.0013037953 3.1220403e-22)
(0.80751003 -0.13615704 3.5045158e-21)
(0.81547938 -0.24963933 0)
(0.8311623 -0.31926532 0)
(0.83931509 -0.37944091 0)
(0.84679174 -0.38921045 -5.8098616e-21)
(0.86008097 -0.33527642 3.0744823e-20)
(0.89592833 -0.14978089 -1.0333494e-20)
(0.91436529 0.20311422 2.7268058e-21)
(0.91300999 0.52524858 -1.0221721e-19)
(0.9249947 0.59490374 8.7932375e-20)
(0.9127622 0.5395608 -5.4590979e-20)
(0.86336751 0.3961159 9.4744675e-21)
(0.81935277 0.2207858 1.0479868e-21)
(0.88378509 0.14517171 3.4057055e-21)
(0.93360358 0.10406521 7.6709634e-21)
(0.96331177 0.073149033 7.4197347e-22)
(0.98595296 0.055829758 -4.2113343e-21)
(1.0013201 0.045512879 -1.3521492e-21)
(1.0113908 0.038597116 2.7947318e-21)
(1.0179282 0.033168792 6.8799955e-22)
(1.0222923 0.02844613 -1.1624492e-21)
(1.0253324 0.024170183 -5.1384874e-22)
(1.0275226 0.020352033 1.5876385e-21)
(1.0290415 0.016929164 -1.2076508e-21)
(1.0300056 0.013907488 2.1047139e-22)
(1.0304451 0.0111253 -3.5016884e-22)
(1.0304756 0.0085589614 8.3505571e-22)
(1.0301666 0.0060633642 -1.4869212e-23)
(1.0295891 0.0035990352 8.6878618e-22)
(1.0289556 0.0012533783 1.7799371e-22)
(0.79432233 -0.13567385 -4.608668e-22)
(0.80518272 -0.24959723 3.4966054e-21)
(0.815472 -0.31766045 0)
(0.81490379 -0.37415222 0)
(0.81114291 -0.38128377 0)
(0.80784931 -0.32368586 0)
(0.82391751 -0.13632708 0)
(0.83624853 0.217595 0)
(0.83509814 0.5459157 4.9751004e-20)
(0.86183924 0.61965187 -7.9389188e-20)
(0.86284103 0.57199836 7.3616294e-21)
(0.83350941 0.4359433 -3.7673966e-20)
(0.78598448 0.24125943 1.5559341e-20)
(0.82693661 0.13120701 2.5658624e-21)
(0.90380324 0.097011193 -6.1332342e-22)
(0.94253175 0.066727164 2.9722459e-21)
(0.97197056 0.050145869 -3.4093477e-21)
(0.99190856 0.041521657 1.8352499e-21)
(1.0047766 0.036302581 5.0834551e-22)
(1.0129517 0.032271973 3.5807045e-22)
(1.0182997 0.028478976 1.6796508e-22)
(1.0220389 0.024776779 -6.7754375e-23)
(1.0248045 0.021254537 -6.6133385e-23)
(1.0268905 0.018061442 -6.3060326e-22)
(1.0283711 0.015175417 -1.6504187e-22)
(1.0293152 0.012607674 1.8034668e-21)
(1.0297379 0.01019948 3.6461617e-22)
(1.0297544 0.0079298998 -3.6722449e-22)
(1.0294419 0.0056743576 1.3544528e-24)
(1.0288769 0.00338561 -6.1555547e-22)
(1.0282639 0.0012157367 -1.1254058e-22)
(0.78002497 -0.13565322 -3.5246225e-21)
(0.79510082 -0.24873475 -2.6918342e-21)
(0.80098908 -0.31557645 1.1821683e-20)
(0.79386972 -0.36811534 2.3173204e-20)
(0.77900379 -0.37173569 0)
(0.76267799 -0.31033605 0)
(0.75834086 -0.11979197 -7.247992e-21)
(0.76131907 0.22603732 1.2674077e-20)
(0.7632049 0.55956953 4.0914507e-20)
(0.79838977 0.63871781 -8.8144829e-20)
(0.80914485 0.59720836 -2.0085498e-20)
(0.79724485 0.46644307 3.1572707e-20)
(0.76237095 0.26485834 1.9998184e-21)
(0.77826492 0.11665209 2.4599008e-22)
(0.86686751 0.080183474 -2.8110774e-21)
(0.92110097 0.056266796 1.6010454e-22)
(0.95728325 0.040714369 7.3653311e-21)
(0.98244876 0.03466629 -3.4979344e-22)
(0.99838667 0.031918785 -4.5981133e-21)
(1.0082333 0.029905437 4.988321e-21)
(1.0144406 0.02753569 -2.4504608e-21)
(1.0186999 0.024672636 -9.974964e-22)
(1.0219202 0.021625576 3.0610604e-21)
(1.0244669 0.018676551 3.5532996e-22)
(1.0264561 0.016011623 -1.0316944e-21)
(1.0278792 0.013603474 1.2011881e-21)
(1.0287739 0.011445741 5.1720233e-22)
(1.0291512 0.0093753721 3.6638907e-22)
(1.0291308 0.0073722805 -5.0544218e-22)
(1.0287971 0.0053312117 3.3140118e-25)
(1.0282336 0.0031985382 -2.6116332e-22)
(1.0276267 0.001194401 -1.1109681e-23)
(0.7655359 -0.1360063 9.6899566e-22)
(0.78488878 -0.24753194 -2.4592495e-21)
(0.78720097 -0.31187939 -1.9756284e-20)
(0.77436603 -0.36145136 -5.3789582e-20)
(0.75214866 -0.36191907 0)
(0.72284658 -0.29549432 0)
(0.70248361 -0.10373709 0)
(0.6928777 0.24518009 -6.5718512e-21)
(0.69773101 0.57014398 5.4224829e-20)
(0.73802889 0.65271928 -3.0530228e-20)
(0.75598018 0.61582488 -2.2995834e-20)
(0.75799393 0.48868719 7.571734e-21)
(0.74057055 0.28630391 -3.7736343e-20)
(0.74362884 0.10714447 1.384455e-20)
(0.82586628 0.053409077 -3.1151235e-22)
(0.90018096 0.04117829 0)
(0.94245047 0.027386571 1.8151581e-21)
(0.97336969 0.024626848 -1.4759568e-21)
(0.99265717 0.025189385 8.1390013e-22)
(1.0042002 0.025949722 6.1760014e-22)
(1.0110869 0.025532513 -1.8548306e-21)
(1.0156038 0.02387788 1.0082215e-21)
(1.0190326 0.021464458 -1.4278672e-21)
(1.0218926 0.018852656 -2.0423939e-21)
(1.0242872 0.016371369 1.1710936e-21)
(1.0261896 0.014174809 -1.0034447e-22)
(1.0275382 0.012201006 3.0202964e-23)
(1.0283575 0.010415409 4.0559091e-23)
(1.0286654 0.0086487882 -9.0958363e-22)
(1.0285894 0.0068829633 -4.1386878e-22)
(1.0282203 0.0050314906 3.0266406e-23)
(1.0276509 0.0030370501 6.4543782e-22)
(1.0270384 0.0011882353 -1.0743234e-22)
(0.75116241 -0.13675247 4.2621807e-22)
(0.77475955 -0.24643667 1.744853e-21)
(0.77363408 -0.30726454 -4.066001e-20)
(0.75777842 -0.35398716 -1.0541795e-19)
(0.72714577 -0.35084038 4.3734945e-20)
(0.6903872 -0.28110924 -7.1724743e-21)
(0.65472784 -0.087296396 2.501173e-19)
(0.63546362 0.25537057 -9.7408703e-20)
(0.64146338 0.57780617 -2.8182693e-20)
(0.68374961 0.66238653 6.3308134e-20)
(0.70710635 0.62853449 -6.3860347e-20)
(0.71885242 0.5035639 -5.9871226e-20)
(0.71722727 0.30233379 4.3790424e-21)
(0.71831395 0.1009847 7.6151862e-21)
(0.78979229 0.025077321 3.3760292e-21)
(0.87749293 0.017401697 -2.9847537e-22)
(0.92852815 0.010483491 6.6662728e-22)
(0.96509721 0.011228394 3.6286661e-21)
(0.98804316 0.015950403 -5.0954391e-22)
(1.001315 0.02026625 -3.0250182e-22)
(1.0086591 0.022483941 1.4190407e-21)
(1.0130904 0.022419456 -3.3380687e-21)
(1.0163922 0.020862105 -4.6873239e-22)
(1.0192987 0.018638565 1.9908758e-21)
(1.021953 0.016357596 -2.7488476e-21)
(1.0242507 0.014294055 -1.0093689e-21)
(1.0260696 0.012531739 -9.7363345e-22)
(1.0273246 0.01095813 1.7444646e-23)
(1.0280452 0.0095104114 -6.2375505e-22)
(1.0282632 0.0080149535 8.5471131e-23)
(1.0281168 0.0064582139 -2.3265961e-22)
(1.0277014 0.0047722882 -2.6205505e-23)
(1.0271224 0.0028997171 -2.2454046e-22)
(1.0264945 0.0011829429 1.0338112e-22)
(0.7372108 -0.13780351 -8.9600486e-22)
(0.76448159 -0.24566321 -2.1254144e-21)
(0.76100955 -0.3022637 5.4408394e-20)
(0.74212195 -0.34564325 6.8167099e-20)
(0.70734432 -0.34072423 -1.7186613e-19)
(0.6600992 -0.26481653 -2.7867291e-19)
(0.61573984 -0.07180819 -3.6774457e-20)
(0.58653031 0.26541073 0)
(0.59369632 0.58264484 -5.3410264e-20)
(0.63632767 0.66858636 2.6077396e-20)
(0.66248652 0.63670903 -3.3409787e-20)
(0.68118648 0.51270709 2.5036476e-20)
(0.6921668 0.31275639 0)
(0.69841342 0.097459638 3.1183082e-21)
(0.75874735 -0.0064321941 -1.3083091e-20)
(0.85519148 -0.0082304385 0)
(0.91632458 -0.010169272 -3.5072029e-21)
(0.95788464 -0.0057071499 0)
(0.98502215 0.0041363633 -7.5625047e-23)
(1.0000345 0.012804919 1.05596e-21)
(1.0076344 0.018372759 -3.3942474e-21)
(1.0115573 0.020437197 1.3923706e-21)
(1.0142869 0.019934028 0)
(1.0168843 0.018172907 -2.7294179e-21)
(1.0195464 0.016050851 1.6738611e-21)
(1.0221172 0.014076214 -1.268172e-22)
(1.0243513 0.012418027 -1.034513e-21)
(1.0260784 0.011070169 1.1291101e-21)
(1.0272181 0.0098668476 4.2535276e-24)
(1.0278185 0.0087243263 -1.9159561e-21)
(1.0279295 0.0074686096 1.8859613e-21)
(1.0277011 0.0060938884 6.4516208e-22)
(1.0272315 0.004550245 0)
(1.0266417 0.0027821118 8.3468894e-24)
(1.0259806 0.0011526284 -6.9769379e-25)
(0.72394939 -0.13905854 -2.8719728e-22)
(0.75379792 -0.24530989 -6.1551894e-21)
(0.7495185 -0.29702421 6.2421982e-20)
(0.72787296 -0.33683532 2.1348666e-20)
(0.6896503 -0.32978085 -6.0091588e-20)
(0.63780794 -0.25271864 -1.1963806e-20)
(0.58105769 -0.054547583 -3.006417e-19)
(0.5460933 0.27510348 -1.6407862e-21)
(0.55352035 0.58564183 0)
(0.59576495 0.67224952 -6.7029872e-21)
(0.62277877 0.6414711 5.5063657e-20)
(0.64622383 0.517672 -1.7146023e-20)
(0.66617871 0.31848908 2.357429e-20)
(0.68024721 0.093827545 -2.0140223e-20)
(0.73264357 -0.033689054 -5.0666968e-21)
(0.83355072 -0.043691207 -4.5319832e-21)
(0.90610702 -0.033959288 3.6468966e-22)
(0.95204734 -0.025693233 6.0538665e-22)
(0.98390017 -0.010420313 4.6476511e-21)
(1.0008152 0.0035449683 -4.7142925e-21)
(1.0084504 0.013338152 3.958002e-21)
(1.0113758 0.018000621 -3.3430359e-21)
(1.0130396 0.0189095 0)
(1.0148556 0.017638294 -7.0907719e-22)
(1.0171979 0.015614097 3.8252734e-22)
(1.0198381 0.013611899 1.5142697e-21)
(1.0224065 0.011974631 -3.1557054e-23)
(1.0245837 0.010730876 -1.7583225e-23)
(1.0261988 0.0097824533 9.0593908e-22)
(1.0271997 0.0089204147 0)
(1.0276604 0.0080504847 1.5560009e-21)
(1.0276509 0.0070040625 2.0690932e-21)
(1.027332 0.0057855416 -1.2083951e-21)
(1.026803 0.0043615948 1.1151721e-22)
(1.0261995 0.0026779481 -2.6704267e-23)
(1.0254964 0.001085439 3.7090445e-23)
(0.71166358 -0.14019962 4.1711526e-22)
(0.74249292 -0.24544206 -5.688112e-22)
(0.73929029 -0.29166248 -2.0833172e-20)
(0.71504625 -0.32783093 7.0145735e-22)
(0.67412346 -0.31831054 2.2273049e-19)
(0.6183046 -0.24170482 2.9075966e-19)
(0.55671583 -0.044811282 -3.9894535e-21)
(0.51478539 0.2842232 -2.1453187e-19)
(0.52150704 0.58769837 -9.2341206e-21)
(0.56155716 0.67417619 3.3773065e-21)
(0.58837554 0.64367157 4.7078009e-21)
(0.61467153 0.51975028 -3.0299861e-20)
(0.64037926 0.32058664 3.1718905e-21)
(0.66156636 0.089587097 -2.5817524e-20)
(0.71127281 -0.059711806 5.9784387e-20)
(0.81158664 -0.079427258 8.4628611e-23)
(0.89690739 -0.061500583 -3.4471064e-21)
(0.94825745 -0.048768925 1.7638367e-22)
(0.98484132 -0.027797842 -8.5743669e-22)
(1.0040621 -0.0075664378 -6.2589596e-22)
(1.011565 0.0073927856 2.0972212e-21)
(1.012982 0.015597261 -3.8619019e-21)
(1.0127131 0.017938909 3.4590219e-21)
(1.013369 0.017318464 0)
(1.0150022 0.015304464 9.3889847e-22)
(1.0174661 0.013087082 2.8938653e-21)
(1.0202388 0.011285734 -1.6123777e-21)
(1.0228374 0.010044229 2.8186457e-21)
(1.0249395 0.0092287714 5.3934513e-24)
(1.0264138 0.0086631942 -1.0464005e-21)
(1.0272518 0.0081125878 -1.8390211e-21)
(1.0275562 0.0074821065 8.9053328e-22)
(1.0274159 0.0066153043 -5.7438477e-23)
(1.0270005 0.0055285235 -1.0981592e-21)
(1.0264083 0.0042026537 -1.2070992e-22)
(1.0257848 0.0025848384 -7.6325523e-24)
(1.0250544 0.0010071324 4.2138647e-23)
(0.70084214 -0.14168835 -3.1047969e-22)
(0.7308298 -0.24634393 4.1445999e-21)
(0.73045232 -0.28634887 -3.0493846e-20)
(0.70363759 -0.31872202 -1.7712127e-20)
(0.66084374 -0.3063397 -1.9129201e-21)
(0.6017256 -0.22961477 5.3821602e-21)
(0.53581631 -0.041782909 -2.1053238e-19)
(0.4913212 0.28618687 8.4819673e-20)
(0.4965961 0.58811111 0)
(0.53282181 0.67473029 7.9381749e-22)
(0.55917367 0.64402767 0)
(0.58673239 0.51999171 0)
(0.61555006 0.32028829 -3.3255103e-20)
(0.64216328 0.084090101 2.7437279e-21)
(0.69318039 -0.084090941 1.260904e-20)
(0.79233017 -0.11625545 1.1731236e-20)
(0.88701297 -0.093205851 -5.7685467e-21)
(0.94655194 -0.073862292 -7.9506952e-21)
(0.9878648 -0.047885178 -2.0433626e-21)
(1.0101118 -0.020570421 1.5709607e-24)
(1.0174428 0.00057871262 -3.0964135e-21)
(1.0168664 0.013137924 1.4403452e-21)
(1.0139145 0.017813895 3.4839917e-22)
(1.0124356 0.017622229 -1.951154e-21)
(1.0129955 0.015408422 -2.5809649e-22)
(1.0150069 0.012761421 7.3062642e-22)
(1.0178371 0.010544263 1.0155158e-22)
(1.020804 0.0090801004 -1.7141809e-21)
(1.0234156 0.0082926112 -1.1540012e-22)
(1.0254054 0.0079116035 -3.0318311e-21)
(1.0267058 0.0077076349 -1.9955793e-22)
(1.027358 0.0074366121 1.0436858e-23)
(1.0274926 0.0070123959 -1.5419892e-21)
(1.0272142 0.0062962152 -1.1139419e-21)
(1.0266989 0.005318165 2.081836e-21)
(1.0260406 0.0040705403 2.6852895e-22)
(1.0253901 0.0025057804 2.9459739e-23)
(1.0246484 0.00094496394 0)
(0.69197616 -0.14311745 4.6326086e-21)
(0.71897826 -0.24754332 -3.4621999e-22)
(0.72271317 -0.28129333 -9.5636655e-21)
(0.69366843 -0.30956486 -1.9153865e-20)
(0.64982299 -0.29409053 -1.2413423e-19)
(0.58828237 -0.21643541 -1.3450466e-19)
(0.51879984 -0.035312712 -1.4591642e-20)
(0.47089971 0.27304208 5.412716e-19)
(0.47695063 0.58321007 8.7455746e-21)
(0.50906656 0.6739059 6.5174957e-21)
(0.53463468 0.6431915 7.8597315e-21)
(0.56242654 0.51860999 0)
(0.59202311 0.31848673 0)
(0.62278377 0.077397856 3.0223058e-20)
(0.67686166 -0.1076194 -5.8018701e-20)
(0.77600947 -0.15328143 -2.6497477e-20)
(0.87791572 -0.12764274 6.0592362e-21)
(0.94639486 -0.10158566 3.5459923e-21)
(0.99300104 -0.070633489 -1.8660459e-21)
(1.0191531 -0.035544824 -3.2230383e-21)
(1.0264917 -0.0070406525 -9.3247639e-23)
(1.0234035 0.010937575 2.1694045e-22)
(1.0171614 0.018404108 -3.1478902e-21)
(1.0124437 0.018733261 8.8330387e-22)
(1.0113393 0.016381344 1.3950279e-21)
(1.0124366 0.012874816 4.8611499e-22)
(1.0151495 0.0099507884 -3.0457662e-21)
(1.018429 0.0080092578 5.7785895e-23)