/*--------------------------------*- C++ -*----------------------------------*\
| =========                 |                                                 |
| \\      /  F ield         | OpenFOAM: The Open Source CFD Toolbox           |
|  \\    /   O peration     | Version:  5.0                                   |
|   \\  /    A nd           | Web:      www.OpenFOAM.org                      |
|    \\/     M anipulation  |                                                 |
\*---------------------------------------------------------------------------*/
FoamFile
{
    version     2.0;
    format      ascii;
    class       volVectorField;
    location    "100";
    object      U_0;
}
// * * * * * * * * * * * * * * * * * * * * * * * * * * * * * * * * * * * * * //

dimensions      [0 1 -1 0 0 0 0];

internalField   nonuniform List<vector> 
9200
(
(1.0467335 -0.00247893 7.7414505e-24)
(1.0470014 -0.0088684226 4.2293902e-22)
(1.0553773 -0.0023951858 0)
(1.0473373 -0.014288702 -1.8926757e-22)
(1.0563278 -0.0088040924 8.8542791e-22)
(1.0587719 -0.0021528437 0)
(1.0476591 -0.020608929 -1.4726819e-23)
(1.0575187 -0.014346744 1.1318891e-22)
(1.0601044 -0.008084573 0)
(1.0632917 -0.0017587306 0)
(1.0479494 -0.027068221 3.3936708e-22)
(1.0591625 -0.021043967 2.7234832e-22)
(1.0619008 -0.013218953 3.8362212e-22)
(1.065128 -0.0068255695 2.8691822e-23)
(1.0661854 -0.0012739178 -8.1251225e-25)
(1.0475758 -0.034160178 3.6222119e-22)
(1.0608394 -0.028090261 -2.2602942e-22)
(1.0645125 -0.019581742 1.1170997e-21)
(1.0676799 -0.011189827 3.6942276e-22)
(1.0683889 -0.0052042358 -7.4809505e-23)
(1.068306 -0.00070379923 -1.4140217e-21)
(1.0465447 -0.04167314 -2.9815251e-22)
(1.0625754 -0.036246858 1.1007267e-21)
(1.0675251 -0.026441052 -7.3142097e-22)
(1.0715353 -0.01677672 -7.3969587e-24)
(1.0715447 -0.0085219111 6.2188563e-22)
(1.0707977 -0.0032558954 5.979846e-22)
(1.0692758 -0.00012248074 7.5574013e-23)
(1.044962 -0.049625882 -8.7426983e-22)
(1.0639268 -0.045350854 2.5881507e-22)
(1.0708199 -0.034544273 4.430623e-22)
(1.0761973 -0.022942067 -3.6123052e-22)
(1.0764055 -0.012913035 -1.1875821e-21)
(1.0744068 -0.0052870158 -5.6845326e-22)
(1.071969 -0.00116729 -1.0305264e-21)
(1.0692286 0.00033796218 1.5667425e-21)
(1.0426406 -0.057984812 4.8485266e-22)
(1.0646446 -0.055620844 1.0826799e-21)
(1.0741664 -0.043842684 -4.7689726e-22)
(1.0817106 -0.030476862 4.9498222e-22)
(1.0824198 -0.017867971 -8.0310569e-22)
(1.0800526 -0.0081310057 -2.4939974e-21)
(1.075811 -0.0017748177 1.0373886e-21)
(1.0719584 0.0008605832 -1.8123553e-21)
(1.0684679 0.0007304161 -3.2951626e-21)
(1.03859 -0.066878596 -5.8796612e-22)
(1.0645335 -0.067007983 -1.6397491e-21)
(1.0772873 -0.054634142 1.5922293e-22)
(1.0878275 -0.03942292 1.8187075e-21)
(1.0897831 -0.024126003 -5.9290107e-24)
(1.0872799 -0.011268377 -1.1935516e-21)
(1.0818554 -0.0028614137 1.0005441e-21)
(1.0758239 0.0017023341 1.9154141e-21)
(1.0709021 0.0026429709 1.0008987e-21)
(1.0669931 0.0012070265 2.6025022e-22)
(1.0327976 -0.07606625 5.8047834e-22)
(1.0634001 -0.079470759 -1.5544106e-21)
(1.0798646 -0.067015634 9.13519e-22)
(1.0943628 -0.050195545 6.701248e-24)
(1.0983583 -0.031776283 3.1895796e-21)
(1.0963666 -0.015403824 -4.0941244e-21)
(1.0896746 -0.0039545998 -3.2474797e-22)
(1.0818954 0.0024608243 3.6848511e-21)
(1.0745481 0.0048318863 -1.6549011e-21)
(1.0690523 0.0042518179 3.180005e-21)
(1.0648996 0.0016585008 -4.4450915e-22)
(1.02628 -0.085155517 1.5112453e-22)
(1.0608689 -0.092943092 2.9614389e-21)
(1.0815712 -0.081055846 9.8263157e-22)
(1.1010501 -0.063034818 0)
(1.108104 -0.041325434 -1.3589141e-22)
(1.1073396 -0.02061054 2.0516617e-21)
(1.0996927 -0.0055726986 -9.799129e-22)
(1.089735 0.0035836158 -2.1578672e-21)
(1.0802435 0.007323998 1.7068479e-22)
(1.0722723 0.0075297891 -2.0342154e-21)
(1.066596 0.0056447589 -1.2516624e-21)
(1.0623758 0.0019960314 2.8535049e-22)
(1.0185921 -0.094041015 -9.1498014e-25)
(1.0566548 -0.10725074 -1.3401168e-21)
(1.0821157 -0.096730022 0)
(1.1075649 -0.078211809 0)
(1.1188553 -0.053148419 -1.5122325e-21)
(1.1203728 -0.027451286 4.958718e-21)
(1.11205 -0.0076844516 -4.0705089e-21)
(1.0998959 0.0048956422 2.6620665e-21)
(1.0875025 0.010507508 1.8235613e-22)
(1.0772498 0.011455995 2.0081976e-24)
(1.0692743 0.0097618735 2.2215094e-21)
(1.0637318 0.0067026823 -1.9698582e-21)
(1.0595999 0.0022122509 3.9820582e-21)
(1.0096731 -0.10253091 -4.147545e-22)
(1.0506154 -0.1221286 1.776979e-22)
(1.0811377 -0.11394737 -1.6673181e-21)
(1.113353 -0.095941133 2.4784687e-21)
(1.1303909 -0.067737377 -2.7940842e-21)
(1.1355422 -0.036390594 2.0325737e-21)
(1.1271868 -0.010676877 7.2275413e-22)
(1.112553 0.0065724647 -1.0165919e-22)
(1.0968422 0.014485945 2.4292593e-21)
(1.0834698 0.016344312 2.1932039e-21)
(1.0733335 0.014739283 7.0411581e-22)
(1.0658264 0.011439959 1.7799768e-21)
(1.0606411 0.0074057328 1.1048766e-21)
(1.0567236 0.0023336518 -1.0316863e-21)
(0.99968904 -0.11042102 3.3745546e-21)
(1.0426267 -0.13728495 6.125057e-21)
(1.0782502 -0.13251945 1.4500053e-21)
(1.1179086 -0.11633413 -5.8380413e-22)
(1.1424085 -0.085551552 5.656744e-22)
(1.152958 -0.048089324 -3.4803272e-21)
(1.1454995 -0.014861793 7.8387518e-22)
(1.1282869 0.0084734249 -1.1937883e-21)
(1.108378 0.019626031 3.5046663e-22)
(1.0913286 0.022446702 -2.6805688e-22)
(1.0782876 0.020759065 -4.8946942e-23)
(1.0689209 0.017080451 -4.4740488e-22)
(1.0621733 0.012531823 -2.0285432e-21)
(1.0574735 0.0078034649 8.3452878e-22)
(1.053855 0.0023840274 -6.7979475e-22)
(0.98880211 -0.1175339 -5.704414e-22)
(1.0326368 -0.15238747 -1.6225791e-21)
(1.0731256 -0.15215489 3.2942577e-21)
(1.1207301 -0.13939929 -3.4573864e-21)
(1.1543968 -0.10708588 4.2409307e-21)
(1.1725453 -0.063324846 -4.4666564e-21)
(1.1675281 -0.020833556 9.7968692e-21)
(1.147682 0.010647351 -4.476464e-22)
(1.122618 0.026244751 -1.160103e-21)
(1.1007398 0.030283768 1.1607213e-22)
(1.0843181 0.028205917 -6.3276254e-21)
(1.0725747 0.023710542 7.9873354e-22)
(1.0643798 0.018488587 6.7995047e-22)
(1.058505 0.013096333 4.3335053e-22)
(1.0543446 0.0079503123 2.4218416e-22)
(1.051073 0.0023775261 6.9609571e-22)
(0.9770565 -0.12373367 0)
(1.020709 -0.16709456 -4.5435333e-21)
(1.0655485 -0.17245646 -3.1882031e-21)
(1.1212407 -0.16494305 0)
(1.1656191 -0.13273545 0)
(1.1941081 -0.082965173 0)
(1.1938197 -0.02934797 -1.5075743e-21)
(1.1715744 0.012974753 3.8909404e-21)
(1.1400542 0.034837314 -3.4975571e-21)
(1.1119462 0.04040234 3.0825882e-21)
(1.0911403 0.037592447 2.3117839e-22)
(1.0767341 0.031805769 1.2905884e-21)
(1.0667963 0.025332472 1.1253867e-22)
(1.0599345 0.019116485 -7.4598546e-22)
(1.0549669 0.013235772 -3.4805039e-22)
(1.0513512 0.0078989759 -3.4122229e-22)
(1.048438 0.0023296681 0)
(0.9646163 -0.12891852 9.0402782e-22)
(1.006969 -0.18106004 3.5543454e-21)
(1.0553869 -0.19304385 -1.4214873e-20)
(1.1189857 -0.19277144 -1.3502909e-20)
(1.1753484 -0.16277539 -1.375426e-20)
(1.2172624 -0.10795113 0)
(1.2248484 -0.041409642 -1.7975307e-20)
(1.20094 0.015209084 4.0900026e-21)
(1.1613881 0.045907289 1.15055e-20)
(1.1250807 0.053549297 -1.3988364e-21)
(1.0987049 0.049513399 -1.6665672e-21)
(1.0809987 0.041748669 5.4894129e-22)
(1.0692567 0.033499929 1.5252501e-21)
(1.0612765 0.025867242 -2.8576433e-21)
(1.0557383 0.019139666 -1.1406517e-21)
(1.0516372 0.013060078 -2.2199998e-21)
(1.0485397 0.0077052805 -9.1666831e-22)
(1.0459753 0.0022580255 -6.447402e-22)
(0.95165957 -0.13302451 4.5389903e-23)
(0.99160513 -0.19395421 3.4216758e-21)
(1.0425256 -0.21338164 -4.1013937e-22)
(1.1132455 -0.22250897 -1.1562239e-20)
(1.1827715 -0.19768069 2.4679664e-21)
(1.2414849 -0.13956772 5.1659751e-21)
(1.2612674 -0.058409902 3.8320441e-20)
(1.2370985 0.017071683 3.4883979e-20)
(1.1874952 0.060212972 6.0756925e-21)
(1.1403367 0.070686712 -4.8433715e-21)
(1.1067452 0.064688057 -2.5845247e-22)
(1.0850947 0.054034404 -3.1932099e-21)
(1.0712962 0.043226919 -2.6218839e-22)
(1.0623314 0.033699525 5.1604097e-22)
(1.056213 0.025578684 7.090256e-22)
(1.0518834 0.018719163 3.3521536e-22)
(1.0485632 0.012663695 -5.8884209e-22)
(1.0459365 0.0074159366 -6.6831361e-23)
(1.0436992 0.0021739367 -4.4982435e-22)
(0.93834597 -0.136045 3.9183443e-22)
(0.9748352 -0.20545794 -2.4369585e-21)
(1.026963 -0.23286415 2.5409678e-20)
(1.1031576 -0.25289855 9.5025101e-21)
(1.1852391 -0.23595296 -6.0049608e-22)
(1.2641071 -0.17783355 4.1129274e-21)
(1.3022272 -0.081916817 -7.799185e-21)
(1.2814645 0.017760489 -1.3318096e-20)
(1.219887 0.078540663 3.6735038e-21)
(1.1579865 0.093068757 1.0992108e-20)
(1.1149242 0.084037442 -7.5258345e-21)
(1.0884968 0.069163606 1.4366592e-21)
(1.0725242 0.054850802 1.6526613e-21)
(1.0626172 0.042714168 -1.3691821e-22)
(1.0561875 0.032825818 6.6654609e-22)
(1.0517005 0.024712664 9.4742248e-22)
(1.0484122 0.017993023 3.5312823e-22)
(1.0457671 0.012120495 9.5525423e-22)
(1.0435552 0.0070652311 2.441388e-22)
(1.0416131 0.0020814148 3.7905641e-22)
(0.92482122 -0.13803409 -3.9276192e-22)
(0.95702794 -0.21537612 -4.5565497e-21)
(1.0087846 -0.25081489 -1.0432153e-20)
(1.088246 -0.28249163 -1.2159786e-20)
(1.1801444 -0.27437091 1.4525446e-20)
(1.2761134 -0.21773641 2.3604153e-20)
(1.338194 -0.10930887 -8.0025458e-20)
(1.3299318 0.017232696 -1.0666167e-19)
(1.2589244 0.10139718 1.2655707e-20)
(1.1788043 0.12198213 0)
(1.122774 0.10865592 6.3641333e-21)
(1.0905507 0.087731766 2.2292635e-21)
(1.0723238 0.068608915 -1.515597e-21)
(1.0617206 0.05308621 -1.3738224e-21)
(1.0552054 0.040865625 -1.0762076e-21)
(1.0509003 0.031251281 8.7511005e-22)
(1.0477598 0.023475776 8.4466732e-22)
(1.0453313 0.017073467 4.5737694e-23)
(1.0432515 0.011487551 2.296155e-22)
(1.0413961 0.0066791152 9.7024233e-23)
(1.0397135 0.0019823391 2.4818143e-22)
(0.91123629 -0.13910024 -1.6257206e-21)
(0.93871439 -0.22366994 -3.0656199e-21)
(0.98896955 -0.26678527 -1.2127177e-20)
(1.0683348 -0.30979897 1.6827142e-20)
(1.166024 -0.31012246 3.5393278e-20)
(1.2732695 -0.2547466 5.1036203e-21)
(1.3497619 -0.13618645 0)
(1.3650506 0.020510101 -5.8024052e-21)
(1.294068 0.13239938 1.4459516e-20)
(1.2008338 0.15950115 2.630921e-20)
(1.1298862 0.139802 4.1304013e-21)
(1.0903426 0.1103094 8.1791608e-22)
(1.0699754 0.084737087 -5.7900234e-22)
(1.0590519 0.064826716 1.0905184e-21)
(1.0528941 0.049740707 3.2926138e-22)
(1.0490823 0.038229293 -3.0242343e-22)
(1.0464456 0.029272007 -9.6825519e-23)
(1.0443665 0.022028464 2.896608e-22)
(1.0426245 0.016046967 4.7046532e-22)
(1.0410061 0.010808509 7.9300154e-23)
(1.0394506 0.0062774609 9.5372649e-23)
(1.0379917 0.0018806171 0)
(0.89771996 -0.13938313 -1.0182544e-21)
(0.9203955 -0.23041333 1.5770389e-21)
(0.96833693 -0.28052664 1.7037649e-21)
(1.044587 -0.33357167 2.8627305e-20)
(1.1418262 -0.34071318 4.0069168e-20)
(1.2526386 -0.28700254 -2.748575e-20)
(1.3427014 -0.15825784 -1.1785696e-20)
(1.3703043 0.029513472 -9.3133317e-20)
(1.3097187 0.17825996 -1.9826307e-20)
(1.2089546 0.20981042 -1.6023653e-21)
(1.1336315 0.17970773 -9.744506e-23)
(1.0867883 0.13749941 -3.0909014e-21)
(1.0645499 0.10330335 -4.0727733e-22)
(1.0539794 0.077898795 6.7073735e-21)
(1.0487562 0.059298791 2.3507759e-21)
(1.0459469 0.045597779 7.2485243e-22)
(1.0441392 0.035215333 -5.8051917e-22)
(1.0427455 0.027105762 -2.7323965e-22)
(1.0414717 0.020487844 1.3099831e-22)
(1.0402633 0.014977126 3.4048445e-23)
(1.0390129 0.010115672 0)
(1.037705 0.0058752687 -8.1621854e-23)
(1.0364356 0.0017812178 -1.5202479e-23)
(0.88434662 -0.1390355 1.2339288e-21)
(0.90248038 -0.23570518 -2.3313981e-21)
(0.94731852 -0.29195428 -8.6473388e-21)
(1.0175473 -0.35274268 -2.0186713e-21)
(1.1081291 -0.36512339 4.2683866e-20)
(1.2170446 -0.31351438 0)
(1.3150327 -0.17392488 -3.7141553e-21)
(1.3496749 0.047293827 -3.8803514e-20)
(1.295263 0.23968695 -4.8306221e-20)
(1.1858343 0.27045139 -1.2014258e-20)
(1.1228691 0.22935552 1.110139e-20)
(1.0782299 0.17019068 7.9427757e-22)
(1.0549734 0.12420715 7.5410868e-22)
(1.0457771 0.092051112 1.3519799e-21)
(1.0423113 0.069328015 -2.9919163e-22)
(1.0411175 0.053105013 -2.5401493e-21)
(1.0406254 0.041205409 -2.6148258e-21)
(1.0402095 0.032105721 -9.4831933e-24)
(1.0396993 0.024901504 -9.0046848e-22)
(1.0390171 0.018934981 8.2841007e-22)
(1.0382133 0.013908863 2.5616843e-22)
(1.0372503 0.0094322114 -2.1918368e-22)
(1.0361435 0.0054837457 1.0548301e-22)
(1.0350327 0.0016864381 -4.752932e-24)
(0.87116618 -0.13820544 1.2471854e-21)
(0.88529362 -0.23970881 2.8901093e-22)
(0.92634458 -0.30093997 1.0860618e-20)
(0.98829021 -0.36723411 4.3505068e-20)
(1.0678072 -0.38288381 -1.539651e-20)
(1.1681869 -0.33351037 7.4075116e-20)
(1.2685722 -0.18491122 -4.5990909e-21)
(1.3074237 0.071026128 1.3599248e-19)
(1.2492632 0.30413385 -2.8471367e-20)
(1.1455806 0.34476823 -1.6921963e-20)
(1.0853706 0.28154334 1.4988092e-20)
(1.0593314 0.20791116 2.6125014e-21)
(1.0402868 0.1472414 2.1149727e-21)
(1.0336647 0.10683477 -5.4596441e-22)
(1.0330677 0.079409618 -3.3961524e-21)
(1.0342819 0.060447911 3.6180431e-22)
(1.0356509 0.046944369 -5.1597419e-22)
(1.0366249 0.036909947 1.5099691e-22)
(1.037113 0.029076772 0)
(1.0372043 0.022753843 -8.6808356e-23)
(1.0369437 0.017423069 -1.2415672e-23)
(1.0364391 0.012872633 8.6993102e-24)
(1.0356957 0.0087741801 9.8121666e-23)
(1.0347496 0.0051108274 -1.3420479e-22)
(1.0337701 0.0016034844 -4.4598271e-23)
(0.85817813 -0.13699987 1.0585842e-22)
(0.8690376 -0.24258103 -1.6841188e-21)
(0.90585959 -0.30770079 -3.3763999e-21)
(0.9578961 -0.37695394 -4.6025913e-21)
(1.0234517 -0.39377172 -7.6064613e-20)
(1.1098485 -0.34682466 -2.6619519e-20)
(1.2071428 -0.19098656 -5.9606049e-21)
(1.2548449 0.094137714 -9.0945218e-21)
(1.2066634 0.35845304 -8.0012691e-20)
(1.1205252 0.41488971 2.240942e-20)
(1.0372256 0.33535178 -1.2883237e-20)
(1.0213549 0.24326816 -8.3558149e-22)
(1.0188181 0.17176546 -3.0644004e-21)
(1.0169688 0.12159799 -1.134906e-21)
(1.0205565 0.088990302 -2.1429973e-21)
(1.0251603 0.067144655 3.90702e-21)
(1.0290597 0.05210334 7.3229392e-21)
(1.0318493 0.041213837 -4.7448768e-22)
(1.0336506 0.032902088 -8.6069329e-22)
(1.0346834 0.026226399 8.9494501e-23)
(1.0351662 0.020717738 6.8361717e-22)
(1.0351967 0.015985024 5.422618e-22)
(1.0349068 0.011888156 -5.83275e-22)
(1.0343267 0.0081521192 3.6024256e-22)
(1.0335055 0.0047613083 -1.6579631e-22)
(1.0326313 0.0015183914 2.7495042e-24)
(0.84533192 -0.13565515 -1.6926757e-23)
(0.85384593 -0.24449164 2.7257805e-21)
(0.88584591 -0.31232765 -2.1317962e-21)
(0.92731649 -0.38214665 -8.0118535e-21)
(0.97726635 -0.39886073 1.7841789e-20)
(1.0466782 -0.35344552 -5.2410166e-20)
(1.1348611 -0.19151088 -6.2568555e-20)
(1.1856709 0.11528025 -9.361347e-20)
(1.1560856 0.40530382 1.0943368e-19)
(1.0957738 0.4709166 2.9222184e-20)
(1.0136049 0.39244397 -6.3101788e-21)
(0.96569378 0.27288043 1.0908591e-20)
(0.98622852 0.19364485 -6.2282489e-22)
(0.99526761 0.13564162 -3.8606637e-21)
(1.0043792 0.097341647 -4.9817063e-22)
(1.0135322 0.072640656 1.5064165e-21)
(1.0207461 0.056212982 -1.932563e-21)
(1.0258542 0.044710516 2.0264049e-21)
(1.0292588 0.03609287 -1.0715394e-21)
(1.0314488 0.029264099 5.7758741e-22)
(1.0327794 0.023599072 0)
(1.0335043 0.018821315 5.0922212e-22)
(1.0337276 0.014639736 -1.6653342e-22)
(1.0335851 0.010967463 0)
(1.0331218 0.007572547 -4.6671221e-22)
(1.0323945 0.0044377537 2.0006706e-23)
(1.0316049 0.0014421231 9.3558001e-23)
(0.83258143 -0.13450023 -5.5094725e-22)
(0.83981886 -0.24563612 -5.6113031e-22)
(0.86673449 -0.31498976 -7.0219362e-21)
(0.89649524 -0.38342835 4.2964753e-21)
(0.93130614 -0.39932771 1.4797759e-20)
(0.98250457 -0.35458956 3.3755281e-20)
(1.0554013 -0.18742529 3.2869526e-21)
(1.1015259 0.13630232 7.600078e-20)
(1.086366 0.44734231 6.2366177e-22)
(1.0529534 0.51916973 -5.9802307e-20)
(0.99684571 0.45041531 1.1634866e-20)
(0.91839632 0.30703972 -5.7771267e-21)
(0.93673483 0.20707069 -2.5513384e-21)
(0.96773027 0.14751404 -9.7868381e-22)
(0.98431666 0.10368283 -4.585772e-21)
(0.99927697 0.07627159 -1.1990554e-22)
(1.0106777 0.058777679 -6.574866e-21)
(1.0186629 0.046989975 2.0392049e-21)
(1.0240025 0.03839738 2.0355467e-22)
(1.0275109 0.03161893 -2.7609104e-21)
(1.0298183 0.026009865 9.0000835e-22)
(1.0312885 0.021206204 3.8196641e-22)
(1.0321521 0.017075873 -1.6163809e-23)
(1.0324944 0.013396832 0)
(1.0324459 0.010117289 0)
(1.0320607 0.0070394215 3.2327239e-23)
(1.0314013 0.0041415925 -3.126988e-22)
(1.0306772 0.00137307 -2.0078895e-22)
(0.81987441 -0.13363896 0)
(0.82711939 -0.24620684 1.7834972e-21)
(0.84873419 -0.31604337 1.0494749e-20)
(0.86749862 -0.38198574 -6.7640358e-21)
(0.88897742 -0.39653631 -4.6173827e-21)
(0.9205268 -0.35028116 -1.8021296e-20)
(0.97515141 -0.17825889 1.5089428e-20)
(1.0097564 0.1578593 9.1169938e-20)
(1.0035422 0.48413394 -1.1447017e-19)
(0.99323711 0.56106754 3.4680924e-20)
(0.96272084 0.50109893 -1.8677986e-21)
(0.89230115 0.354161 -1.0138546e-20)
(0.87365696 0.21483402 1.0283112e-22)
(0.93209365 0.15341191 -2.0771045e-21)
(0.96054586 0.10727926 1.1125316e-22)
(0.98238928 0.077308065 -4.3013396e-21)
(0.99893952 0.059230874 3.5581052e-22)
(1.0103839 0.047651839 -2.5191762e-21)
(1.0179916 0.039486912 3.7036712e-21)
(1.0229953 0.033113673 -2.5210025e-21)
(1.0263308 0.027747085 8.767365e-22)
(1.0286095 0.023115808 5.0064242e-22)
(1.0301248 0.019041205 9.0481651e-23)
(1.0310561 0.015483032 -1.8349716e-21)
(1.0314616 0.012260081 -1.7009756e-22)
(1.031464 0.0093406898 -4.7648725e-23)
(1.031125 0.0065544806 5.7968528e-22)
(1.0305118 0.0038732558 -2.207561e-22)
(1.0298368 0.0013124969 3.1034538e-22)
(0.80741564 -0.13323801 3.486665e-21)
(0.81560655 -0.24627388 0)
(0.83189867 -0.31584147 0)
(0.84117123 -0.37851144 0)
(0.8495382 -0.39084013 -5.2204437e-21)
(0.86315807 -0.34222911 2.8741454e-20)
(0.89973611 -0.16516178 -1.0823338e-20)
(0.92122005 0.17901315 2.6684055e-21)
(0.9174531 0.5141709 -1.0923083e-19)
(0.9287067 0.59378909 9.0117578e-20)
(0.9167255 0.54334479 -5.5759582e-20)
(0.86822325 0.4036251 9.9142227e-21)
(0.82078254 0.22754431 1.012446e-21)
(0.88309584 0.14907164 3.6068371e-21)
(0.93349129 0.10700709 7.7027994e-21)
(0.96304299 0.07503377 7.1581431e-22)
(0.98574561 0.056992302 -4.2835422e-21)
(1.001242 0.046236924 -1.3374546e-21)
(1.0114366 0.039070158 2.8410766e-21)
(1.0180623 0.033507419 7.1381258e-22)
(1.0224741 0.028713353 -1.1555584e-21)
(1.02553 0.024393936 -5.2337144e-22)
(1.0277172 0.020542543 1.5782571e-21)
(1.0292239 0.017089573 -1.2044933e-21)
(1.0301734 0.014039415 2.1419567e-22)
(1.0305986 0.011229695 -3.4845205e-22)
(1.0306172 0.008638268 8.3204811e-22)
(1.0302981 0.0061178357 -1.8727644e-23)
(1.029713 0.0036325435 8.6600909e-22)
(1.0290729 0.0012614294 1.7879898e-22)
(0.79411351 -0.13279099 -4.1875125e-22)
(0.80540775 -0.2463181 3.3969743e-21)
(0.81642174 -0.31450025 0)
(0.81712953 -0.37346705 0)
(0.81431495 -0.38320448 0)
(0.8115672 -0.33094801 0)
(0.82814517 -0.15186402 0)
(0.84363967 0.19500142 0)
(0.83839343 0.53514445 5.1164987e-20)
(0.86476722 0.61888516 -7.9708206e-20)
(0.86634731 0.57599134 7.5292933e-21)
(0.83763257 0.44396888 -3.9005356e-20)
(0.78801361 0.25005616 1.6292828e-20)
(0.8251641 0.13585318 2.4607481e-21)
(0.90289419 0.10028184 -6.1750661e-22)
(0.94180909 0.068961515 2.9746632e-21)
(0.97139387 0.051477509 -3.4127398e-21)
(0.99157191 0.042321578 1.8707387e-21)
(1.0046542 0.036802012 4.7936662e-22)
(1.0129881 0.032618884 3.4946008e-22)
(1.0184308 0.028754451 1.6748922e-22)
(1.0222136 0.025016081 -8.6471567e-23)
(1.0249898 0.021467325 -6.7530023e-23)
(1.0270701 0.018248466 -6.2714266e-22)
(1.0285383 0.015334967 -1.7410097e-22)
(1.029469 0.012739459 1.7945552e-21)
(1.0298793 0.010303754 3.6140046e-22)
(1.0298859 0.0080090155 -3.6600234e-22)
(1.0295648 0.0057285062 9.5626138e-25)
(1.0289933 0.0034188256 -6.1641704e-22)
(1.028375 0.0012223904 -1.1370227e-22)
(0.77968835 -0.13281503 -3.4769927e-21)
(0.79540616 -0.24557049 -2.6410273e-21)
(0.80212728 -0.31269158 1.2956942e-20)
(0.79633942 -0.36765991 1.9843146e-20)
(0.78252145 -0.37394291 0)
(0.76686022 -0.31786267 0)
(0.76299466 -0.1354392 -7.5765906e-21)
(0.76780475 0.20398287 1.8097215e-20)
(0.7659692 0.54847466 4.1561355e-20)
(0.80092331 0.63821036 -8.7094233e-20)
(0.81239403 0.60134163 -2.0556312e-20)
(0.80043252 0.47484272 3.2007361e-20)
(0.76453563 0.27539152 2.1005043e-21)
(0.77622009 0.12264036 2.6010757e-22)
(0.86455122 0.083459004 -2.7034728e-21)
(0.91984002 0.058814526 1.479144e-22)
(0.95623859 0.042188147 7.5282149e-21)
(0.98177941 0.035507433 -3.5481616e-22)
(0.99804295 0.032407924 -4.6896038e-21)
(1.0081381 0.030226478 5.0025941e-21)
(1.0145029 0.027792424 -2.4913633e-21)
(1.018843 0.024908227 -9.9338372e-22)
(1.0220932 0.021849224 3.0628298e-21)
(1.0246421 0.018883956 3.3983713e-22)
(1.0266218 0.016197043 -1.0412038e-21)
(1.028032 0.013762338 1.198053e-21)
(1.0289145 0.011576909 5.1451724e-22)
(1.0292812 0.0094789456 3.6825603e-22)
(1.0292526 0.0074507157 -5.0575487e-22)
(1.0289119 0.0053847167 1.8357568e-24)
(1.0283427 0.0032311921 -2.6399704e-22)
(1.0277321 0.0011989921 -1.1249105e-23)
(0.76507576 -0.13323338 9.2845355e-22)
(0.7852395 -0.24451462 -2.2766909e-21)
(0.78846592 -0.30923808 -2.0175109e-20)
(0.7770557 -0.36123267 -4.9360661e-20)
(0.75590285 -0.36437715 0)
(0.72735006 -0.30324341 0)
(0.70743164 -0.11935712 0)
(0.69792498 0.22338862 -7.9557799e-21)
(0.69974156 0.55891154 5.4807352e-20)
(0.73998311 0.65248278 -2.8672087e-20)
(0.75856229 0.6202223 -2.3511865e-20)
(0.76028202 0.49754071 7.6145295e-21)
(0.74245136 0.29806576 -3.9342529e-20)
(0.74184336 0.11480538 1.4338285e-20)
(0.82237874 0.056816645 -5.7448541e-22)
(0.89819045 0.043853038 0)
(0.9408622 0.028977461 1.8621842e-21)
(0.97228959 0.025460777 -1.5184901e-21)
(0.99203595 0.025621137 7.934646e-22)
(1.0039384 0.026198556 6.2892723e-22)
(1.0110628 0.025732469 -1.8561287e-21)
(1.0157086 0.024082661 1.0249358e-21)
(1.019192 0.021681343 -1.4198334e-21)
(1.0220645 0.019070845 -2.0354239e-21)
(1.0244521 0.016577684 1.1753691e-21)
(1.0263415 0.014359805 -1.0512315e-22)
(1.0276769 0.012359092 3.2831576e-23)
(1.0284854 0.010545435 4.0840212e-23)
(1.0287846 0.0087511278 -9.1360065e-22)
(1.0287022 0.006960299 -4.1273031e-22)
(1.0283275 0.005084098 2.8472963e-23)
(1.0277529 0.0030688579 6.5683386e-22)
(1.0271384 0.0011916156 -1.1101537e-22)
(0.7506047 -0.13403251 3.7007219e-22)
(0.77510287 -0.2435986 1.7131591e-21)
(0.77502908 -0.30485867 -3.8514405e-20)
(0.76056922 -0.35394811 -9.765413e-20)
(0.73111105 -0.35357872 4.1940466e-20)
(0.69511451 -0.28902988 -7.3416588e-21)
(0.65982602 -0.10280544 2.4661771e-19)
(0.64000513 0.23399118 -9.9691206e-20)
(0.64276717 0.56672715 -2.8015255e-20)
(0.68509154 0.66241978 5.9321961e-20)
(0.70904253 0.63319659 -6.4183277e-20)
(0.72036531 0.51285269 -6.0009015e-20)
(0.71850353 0.31488297 4.5415996e-21)
(0.71689192 0.11045208 7.884461e-21)
(0.78533666 0.028726846 4.0691252e-21)
(0.87438108 0.019888463 -2.6793085e-22)
(0.9263864 0.012164491 6.700786e-22)
(0.96352654 0.011996219 3.6365158e-21)
(0.98708765 0.016268987 -5.2067109e-22)
(1.0008473 0.020385542 -3.0351707e-22)
(1.0085313 0.022576839 1.4416223e-21)
(1.0131532 0.022557158 -3.3459513e-21)
(1.0165398 0.021048487 -4.7680648e-22)
(1.0194712 0.018852892 2.0081702e-21)
(1.0221212 0.016577647 -2.7392843e-21)
(1.024404 0.01450195 -1.0071332e-21)
(1.0262073 0.012716702 -9.7282496e-22)
(1.0274497 0.01111507 2.341e-23)
(1.0281611 0.0096387406 -6.2439245e-22)
(1.0283723 0.0081155683 8.6583898e-23)
(1.0282209 0.0065340926 -2.3423753e-22)
(1.0278013 0.004823818 -2.5843723e-23)
(1.0272174 0.002930665 -2.3034428e-22)
(1.0265896 0.0011883395 1.201078e-22)
(0.73660068 -0.13512546 -7.8116023e-22)
(0.76474861 -0.24303818 -2.0932231e-21)
(0.76252994 -0.30008405 5.052645e-20)
(0.74494802 -0.34578679 6.4684161e-20)
(0.71141418 -0.34360876 -1.6584492e-19)
(0.66498849 -0.27291508 -2.7114875e-19)
(0.62096647 -0.087196783 -3.6383981e-20)
(0.59068035 0.24469855 0)
(0.59458442 0.57178327 -5.6012448e-20)
(0.63713794 0.66883366 1.9489218e-20)
(0.66389441 0.64160181 -3.4271756e-20)
(0.68206548 0.5223716 2.5131369e-20)
(0.69281267 0.32586273 0)
(0.69720154 0.10849384 3.2694088e-21)
(0.75383443 -0.0019458035 -1.3632777e-20)
(0.85094247 -0.0059624386 0)
(0.91361375 -0.0085443416 -3.5223193e-21)
(0.95575773 -0.0050526206 0)
(0.98367669 0.0042803084 -4.3027754e-23)
(0.99932219 0.012727012 1.0887226e-21)
(1.0073851 0.018298278 -3.430453e-21)
(1.0115754 0.020459546 1.4066583e-21)
(1.0144291 0.020058351 0)
(1.0170659 0.018365488 -2.7289977e-21)
(1.0197253 0.016274173 1.6820272e-21)
(1.0222774 0.014302739 -1.2760213e-22)
(1.0244909 0.012628521 -1.0282721e-21)
(1.0262014 0.011254797 1.1288031e-21)
(1.0273297 0.01002203 3.4919143e-24)
(1.0279227 0.008850407 -1.9251084e-21)
(1.028029 0.0075670623 1.8962283e-21)
(1.0277972 0.0061680105 6.4819741e-22)
(1.0273247 0.0046006105 0)
(1.02673 0.0028127516 8.6027366e-24)
(1.0260715 0.0011635149 1.2806778e-24)
(0.72334521 -0.13639601 -1.5179454e-22)
(0.7539104 -0.24292725 -5.5997898e-21)
(0.75114631 -0.29508288 5.8861206e-20)
(0.7307007 -0.33716383 2.025133e-20)
(0.69374901 -0.33280916 -5.8749719e-20)
(0.64275122 -0.26083278 -1.1135108e-20)
(0.58619473 -0.06972852 -2.9782978e-19)
(0.54978447 0.25500402 -9.7759193e-22)
(0.55391248 0.57503269 0)
(0.59614169 0.67265111 -4.1692438e-21)
(0.62373537 0.64657067 5.3939878e-20)
(0.64657651 0.52766145 -1.7417724e-20)
(0.66628677 0.33199292 2.394122e-20)
(0.67900281 0.10621675 -2.0506483e-20)
(0.72768695 -0.028172633 -5.1651549e-21)
(0.82829866 -0.041876197 -4.9131889e-21)
(0.9027629 -0.03234477 1.463958e-22)
(0.94934102 -0.025164625 4.9623701e-22)
(0.98210162 -0.010523028 4.7378925e-21)
(0.99982093 0.0031955857 -4.8182264e-21)
(1.0080663 0.01300854 4.0133689e-21)
(1.0113707 0.017855052 -3.3636653e-21)
(1.013195 0.018934146 0)
(1.015065 0.017782613 -7.0932569e-22)
(1.0174026 0.015828089 3.841588e-22)
(1.0200153 0.013851736 1.5124124e-21)
(1.0225539 0.012209517 -3.9947304e-23)
(1.0247075 0.010943628 -2.2033122e-23)
(1.0263069 0.0099659424 9.075798e-22)
(1.0272983 0.0090730344 0)
(1.0277538 0.008173776 1.5623212e-21)
(1.0277415 0.007099982 2.0806237e-21)
(1.0274206 0.00585767 -1.22918e-21)
(1.0268898 0.0044107927 1.181376e-22)
(1.0262822 0.0027088521 -2.704618e-23)
(1.0255819 0.0011017519 2.6232151e-23)
(0.71112154 -0.13752545 2.5847329e-22)
(0.74242723 -0.24332241 -5.602192e-22)
(0.74099986 -0.28996632 -1.9795789e-20)
(0.71785196 -0.32833736 7.1082127e-22)
(0.67819872 -0.32147687 2.1800059e-19)
(0.62325055 -0.2496938 2.842244e-19)
(0.5618135 -0.0597582 -4.1165696e-21)
(0.51793381 0.26482562 -2.1698448e-19)
(0.52148325 0.57732537 -9.0207742e-21)
(0.56164182 0.67473633 8.7448319e-22)
(0.58895176 0.64893931 4.7860135e-21)
(0.61462622 0.53000761 -3.0145579e-20)
(0.64007189 0.3344081 3.3250078e-21)
(0.66013087 0.10311602 -2.6163472e-20)
(0.7063509 -0.053047938 6.140618e-20)
(0.80545789 -0.077691168 -1.473611e-22)
(0.8928024 -0.060218777 -3.3735006e-21)
(0.94498798 -0.048393229 2.9582018e-22)
(0.98251855 -0.028207253 -9.8627873e-22)
(1.0027397 -0.0082648494 -6.5040763e-22)
(1.0110299 0.0067285225 2.1438622e-21)
(1.0129629 0.015181827 -3.8917921e-21)
(1.0129425 0.017808588 3.4619071e-21)
(1.0136455 0.017380111 0)
(1.0152601 0.015487795 9.1756203e-22)
(1.0176785 0.013332272 2.8834091e-21)
(1.0204048 0.011544397 -1.615517e-21)
(1.0229675 0.010286822 2.8179729e-21)
(1.0250461 0.0094425332 4.3474936e-24)
(1.0265069 0.0088444299 -1.0488214e-21)
(1.0273379 0.0082617699 -1.8514532e-21)
(1.0276394 0.0076020591 9.0608461e-22)
(1.0274981 0.0067083807 -5.7029046e-23)
(1.0270823 0.0055984793 -1.120568e-21)
(1.0264893 0.0042506699 -1.1865041e-22)
(1.0258631 0.0026157145 -6.9758799e-24)
(1.0251333 0.0010237652 3.6138266e-23)
(0.70043378 -0.13894078 -3.0315957e-22)
(0.7305481 -0.24448811 3.5276529e-21)
(0.73216008 -0.28490697 -2.9015045e-20)
(0.70640233 -0.31939856 -1.6833099e-20)
(0.66484472 -0.30965806 -1.9053175e-21)
(0.60662284 -0.23751793 5.3923458e-21)
(0.54088614 -0.056072743 -2.0763665e-19)
(0.4941668 0.26755529 8.604752e-20)
(0.49640577 0.57800584 0)
(0.53269343 0.67540923 1.4977662e-21)
(0.55945048 0.64941772 0)
(0.58641595 0.530461 0)
(0.6149386 0.33438844 -3.3464978e-20)
(0.64045045 0.098612082 2.7324898e-21)
(0.68818697 -0.076232818 1.2857493e-20)
(0.78554024 -0.11444744 1.187911e-20)
(0.88191254 -0.092400539 -6.2447126e-21)
(0.94272235 -0.073611559 -7.7671799e-21)
(0.98495476 -0.04864504 -1.9108026e-21)
(1.0084105 -0.021700954 3.5433455e-23)
(1.0167384 -0.00051892143 -3.1754861e-21)
(1.0168364 0.012378638 1.3885647e-21)
(1.0142418 0.017469179 3.5365356e-22)
(1.0127975 0.017545757 -1.9559113e-21)
(1.0133428 0.01554459 -2.6223568e-22)
(1.0152814 0.013005699 7.2999308e-22)
(1.0180389 0.010825533 1.1055604e-22)
(1.0209499 0.0093555379 -1.7126184e-21)
(1.023525 0.0085404727 -1.1461788e-22)
(1.0254939 0.0081246055 -3.0376875e-21)
(1.026784 0.0078853365 -1.9091577e-22)
(1.0274322 0.0075815741 1.5242277e-23)
(1.0275663 0.0071284856 -1.5456906e-21)
(1.0272888 0.0063861891 -1.1344901e-21)
(1.0267743 0.0053858043 2.1269004e-21)
(1.0261165 0.0041172481 2.745925e-22)
(1.0254647 0.0025356779 3.5504978e-23)
(1.0247218 0.00095942065 0)
(0.69178436 -0.14027925 4.7580788e-21)
(0.71842858 -0.24596963 -3.468514e-22)
(0.72437405 -0.28012013 -9.0327275e-21)
(0.69637812 -0.31040389 -1.8354137e-20)
(0.65369746 -0.29756578 -1.2100635e-19)
(0.5930748 -0.22428228 -1.3132529e-19)
(0.5237572 -0.049164554 -1.480474e-20)
(0.47346862 0.25482596 5.4379005e-19)
(0.47674193 0.57316796 8.5525746e-21)
(0.5087725 0.67457482 1.6619679e-20)
(0.53466748 0.64874533 7.9793224e-21)
(0.56195529 0.52926857 0)
(0.59120086 0.33284724 0)
(0.62074755 0.09282598 3.0196542e-20)
(0.67165461 -0.098585246 -5.9217309e-20)
(0.76869577 -0.15123269 -2.6948101e-20)
(0.87200502 -0.12715877 6.1474063e-21)
(0.94192035 -0.10153761 3.460259e-21)
(0.9894595 -0.071736691 -1.6267951e-21)
(1.0169994 -0.03718621 -3.3249542e-21)
(1.0255907 -0.0086808578 -9.9161039e-23)
(1.0233894 0.0097261929 1.8370124e-22)
(1.0176096 0.017763087 -3.121034e-21)
(1.0129665 0.01855493 8.7596376e-22)
(1.0117972 0.016454512 1.4096829e-21)
(1.0128043 0.013118025 4.9633451e-22)
(1.0154097 0.010260846 -3.0353838e-21)
(1.0186048 0.0083231864 6.3449582e-23)
(1.0216837 0.0073134574 -8.3294117e-24)