/*--------------------------------*- C++ -*----------------------------------*\
| =========                 |                                                 |
| \\      /  F ield         | OpenFOAM: The Open Source CFD Toolbox           |
|  \\    /   O peration     | Version:  5.0                                   |
|   \\  /    A nd           | Web:      www.OpenFOAM.org                      |
|    \\/     M anipulation  |                                                 |
\*---------------------------------------------------------------------------*/
FoamFile
{
    version     2.0;
    format      ascii;
    class       volVectorField;
    location    "100";
    object      UMean;
}
// * * * * * * * * * * * * * * * * * * * * * * * * * * * * * * * * * * * * * //

dimensions      [0 1 -1 0 0 0 0];

internalField   nonuniform List<vector> 
9200
(
(1.0051108 -0.00070926086 -1.5349793e-24)
(1.0051906 -0.0023107644 -4.3556167e-22)
(1.0073086 -0.00076102403 0)
(1.0053249 -0.0035654384 2.2050632e-22)
(1.0073706 -0.0025098652 -3.7849166e-22)
(1.0083804 -0.00078868863 0)
(1.0054315 -0.0049145527 2.2874035e-23)
(1.007472 -0.0038749851 -3.27527e-23)
(1.0084417 -0.0026198129 0)
(1.0100178 -0.00082640315 0)
(1.0055673 -0.0059859682 -3.9839461e-22)
(1.0075361 -0.0053705206 -2.1143999e-22)
(1.0085422 -0.0040457764 -2.1896874e-22)
(1.0100859 -0.0027785524 -1.4900742e-23)
(1.0113783 -0.00085366581 2.1133801e-25)
(1.0056788 -0.0070551857 -3.7103076e-22)
(1.0076029 -0.0065749327 5.4435416e-23)
(1.0086058 -0.0056239435 -6.8840926e-22)
(1.0101857 -0.0042904731 -2.5247104e-22)
(1.0114562 -0.0028996986 2.3042965e-23)
(1.0129225 -0.00088150367 7.4951364e-22)
(1.0057796 -0.0079365596 -2.8582593e-22)
(1.0076411 -0.007802188 -4.5239181e-22)
(1.0086695 -0.0069080383 4.24493e-22)
(1.0102553 -0.0059881965 1.9891361e-23)
(1.0115634 -0.004474883 -3.2429227e-22)
(1.0130188 -0.0030319688 -3.200359e-22)
(1.0143464 -0.00090048032 -4.3944185e-23)
(1.0058462 -0.0087436642 -4.3464644e-23)
(1.007638 -0.0088481164 -2.6507895e-22)
(1.008701 -0.0082286225 -4.2292168e-22)
(1.0103201 -0.0073864924 5.5981469e-23)
(1.0116499 -0.0062622113 6.9995507e-22)
(1.0131436 -0.0046757883 3.1438635e-22)
(1.0144603 -0.0031334661 5.1756865e-22)
(1.0158547 -0.00091799369 -8.3609695e-22)
(1.0058735 -0.0094161793 3.0580935e-22)
(1.0075801 -0.009836265 -3.7344269e-22)
(1.0086892 -0.0093779922 5.3151266e-23)
(1.0103543 -0.0088422982 -2.4927826e-22)
(1.0117321 -0.0077462092 1.3073497e-22)
(1.0132653 -0.0065605859 1.1980703e-21)
(1.0146015 -0.0048264028 -4.6030204e-22)
(1.0159937 -0.0032341633 9.2808434e-22)
(1.0172684 -0.00092888439 1.8966775e-21)
(1.0058494 -0.0099886961 -1.846192e-22)
(1.0074561 -0.010699516 2.5872914e-22)
(1.0086176 -0.010483665 -2.0324e-24)
(1.0103394 -0.010139822 -1.8903898e-22)
(1.0117912 -0.0093031536 7.0589933e-23)
(1.0133873 -0.0081360825 2.2728842e-22)
(1.0147562 -0.0067824253 -4.4203408e-22)
(1.0161595 -0.0049750198 -8.8171265e-22)
(1.0174288 -0.0033081036 -4.7847033e-22)
(1.0187265 -0.000936982 -1.3042778e-22)
(1.0057856 -0.010444456 9.2536459e-23)
(1.0072617 -0.011467877 8.3713229e-23)
(1.0084743 -0.011480736 -3.3135221e-22)
(1.0102589 -0.011410467 2.9176857e-22)
(1.0118076 -0.010714114 -6.6510327e-22)
(1.0134983 -0.0098001152 1.3200771e-21)
(1.014918 -0.0084219444 7.7934155e-23)
(1.0163597 -0.0070013225 -1.5417767e-21)
(1.0176158 -0.005079764 8.2758158e-22)
(1.0189117 -0.0033775261 -1.738711e-21)
(1.0200964 -0.000937607 3.3073703e-22)
(1.005676 -0.01078536 -2.3518491e-23)
(1.0069916 -0.012130555 -1.0053957e-22)
(1.0082491 -0.012403968 1.9346607e-22)
(1.0100997 -0.012591458 0)
(1.0117688 -0.01211936 2.646502e-24)
(1.0135751 -0.011328253 -2.0243244e-22)
(1.0150837 -0.010160042 2.8928124e-22)
(1.0165734 -0.0087018775 7.6244346e-22)
(1.0178557 -0.0071535925 -2.6533959e-22)
(1.0191245 -0.005177923 1.0787448e-21)
(1.0203033 -0.0034231221 7.9290009e-22)
(1.0214805 -0.00093416811 -1.7459628e-22)
(1.0055172 -0.011016779 -7.7335004e-24)
(1.0066345 -0.012696642 9.52875e-23)
(1.0079337 -0.013235424 0)
(1.0098492 -0.013717059 0)
(1.0116579 -0.013459408 2.2232115e-22)
(1.0136043 -0.012863525 -5.0689861e-22)
(1.0152298 -0.011767808 7.8313567e-22)
(1.0168082 -0.0105029 -7.6543778e-22)
(1.0181136 -0.0088922068 -5.0493282e-23)
(1.0194096 -0.0072973192 3.1542646e-24)
(1.0205384 -0.0052398497 -1.4923315e-21)
(1.0217136 -0.0034602923 1.84685e-21)
(1.0227805 -0.00092472289 -3.4247472e-21)
(1.0053008 -0.011141958 9.0742137e-23)
(1.0061936 -0.013154176 -1.4925986e-23)
(1.0075207 -0.013975203 2.0288513e-22)
(1.0094953 -0.014775727 -2.3796779e-22)
(1.0114602 -0.014772868 2.5989028e-22)
(1.0135722 -0.014352394 -1.3003328e-22)
(1.0153557 -0.013392058 -1.6783595e-22)
(1.0170368 -0.012171081 1.9043324e-23)
(1.0184062 -0.010730827 -5.9278701e-22)
(1.0197141 -0.0090724722 -5.3433969e-22)
(1.0208626 -0.0073895466 -3.6800303e-22)
(1.0219758 -0.0052912126 -1.0473967e-21)
(1.0230385 -0.0034768312 -7.5575588e-22)
(1.0240702 -0.00091125799 9.9252294e-22)
(1.0050509 -0.011159563 -5.9171892e-23)
(1.0056807 -0.013504901 -3.9910387e-22)
(1.0070087 -0.014623702 2.4861605e-23)
(1.0090301 -0.015775761 1.6003321e-23)
(1.0111608 -0.01605078 -1.2792938e-23)
(1.0134673 -0.015837954 1.3937028e-22)
(1.015448 -0.014982917 -1.5540748e-22)
(1.0172604 -0.013854003 2.1743518e-22)
(1.0187038 -0.012430146 -1.3216782e-22)
(1.0200636 -0.01094214 3.1616814e-23)
(1.0212056 -0.0091886735 2.1752344e-23)
(1.022344 -0.0074710504 -1.0674074e-22)
(1.023326 -0.0053120108 1.649736e-21)
(1.024359 -0.0034821566 -9.1771968e-22)
(1.025282 -0.00089257206 8.2459567e-22)
(1.0047665 -0.011082121 -1.5995858e-22)
(1.0050967 -0.013749941 2.4458435e-22)
(1.0063988 -0.015179323 -1.6481869e-22)
(1.0084422 -0.016710429 2.289398e-22)
(1.0107435 -0.017299071 -2.4455295e-22)
(1.0132763 -0.017319941 5.1913391e-22)
(1.0154993 -0.016588171 -6.3061549e-22)
(1.0174737 -0.015501176 3.7326026e-23)
(1.0190196 -0.014129262 2.0003137e-22)
(1.0204206 -0.012660404 -4.0549268e-22)
(1.0215984 -0.011078885 2.3159232e-21)
(1.0227286 -0.009298596 -1.0869456e-21)
(1.0237361 -0.0075120136 -5.5072072e-22)
(1.0246793 -0.005318066 -1.6505462e-22)
(1.0256006 -0.003468285 5.7570361e-23)
(1.0264616 -0.00086935986 -9.5086158e-22)
(1.0044511 -0.010915373 0)
(1.0044507 -0.013888687 3.005423e-22)
(1.0056957 -0.015636928 -6.1235131e-23)
(1.0077293 -0.01757293 0)
(1.0101959 -0.018518569 0)
(1.0129851 -0.01881581 0)
(1.015499 -0.01821569 2.059845e-23)
(1.0176811 -0.017159439 -3.741529e-22)
(1.0193499 -0.01577518 5.3477584e-22)
(1.0207983 -0.014360908 -5.6545261e-22)
(1.021995 -0.012809893 1.5301974e-22)
(1.0231636 -0.011216038 -5.0060976e-22)
(1.02416 -0.0093627956 1.1922746e-22)
(1.0251403 -0.0075371382 6.342987e-22)
(1.0259533 -0.0052958547 8.8107163e-23)
(1.0268164 -0.0034394468 4.8480356e-22)
(1.0275688 -0.00084110027 0)
(1.0041128 -0.010659786 -2.3298883e-22)
(1.003751 -0.013924174 -4.6549196e-22)
(1.0049058 -0.01599511 6.4651843e-22)
(1.0068923 -0.018357646 2.347951e-22)
(1.0095045 -0.019706119 2.591778e-22)
(1.0125752 -0.020332167 0)
(1.0154355 -0.019889571 2.5218897e-22)
(1.0178838 -0.018839506 -8.8242946e-23)
(1.019706 -0.017409334 -1.0087758e-21)
(1.0211957 -0.015981991 7.6658566e-22)
(1.0224114 -0.014502548 3.4362958e-22)
(1.0235919 -0.012968509 1.9736859e-22)
(1.0246326 -0.011306182 -1.4217026e-21)
(1.0256123 -0.0094155163 1.9937458e-21)
(1.0264664 -0.0075248439 2.6241574e-22)
(1.0272116 -0.0052525037 3.4788476e-21)
(1.0279597 -0.0033912582 1.3069154e-21)
(1.0286256 -0.00080787962 1.2861286e-21)
(1.0037441 -0.01033171 2.4342195e-23)
(1.0030062 -0.013862195 -2.651994e-22)
(1.0040385 -0.016251574 -1.1243023e-22)
(1.0059337 -0.019056462 3.2557727e-22)
(1.0086647 -0.020856696 -2.5076711e-23)
(1.0120273 -0.021876491 3.0915478e-22)
(1.0152947 -0.021630452 2.7450055e-22)
(1.0180861 -0.020571501 -4.4324045e-22)
(1.0200994 -0.01903629 -3.0193967e-22)
(1.0216293 -0.017550525 3.752172e-22)
(1.0228412 -0.016088851 -2.0051074e-22)
(1.0240238 -0.014670537 1.0062063e-21)
(1.0250851 -0.013087616 -8.8210953e-22)
(1.0261307 -0.011394565 5.0112208e-23)
(1.0269901 -0.0094264042 8.0833077e-24)
(1.0277897 -0.0074863011 -5.6838576e-22)
(1.0283976 -0.0051798922 1.223112e-21)
(1.0290578 -0.003324941 -7.7479215e-23)
(1.0296128 -0.00076959225 1.2429253e-21)
(1.0033583 -0.0099367406 1.8970361e-22)
(1.0022262 -0.013706727 3.2112438e-22)
(1.0031051 -0.016404272 -1.4153766e-21)
(1.0048573 -0.019658657 -1.0932867e-22)
(1.0076652 -0.021958061 1.8787616e-22)
(1.0113169 -0.023448934 1.6191687e-22)
(1.0150579 -0.023461856 -2.3824996e-23)
(1.0182892 -0.022386398 3.1888942e-22)
(1.0205483 -0.020678631 -7.6235629e-23)
(1.022117 -0.019058137 -1.0911138e-21)
(1.0232974 -0.017583273 9.0161488e-22)
(1.0244458 -0.016248097 2.1893968e-23)
(1.0255245 -0.01481416 -3.465845e-22)
(1.0266139 -0.013221773 2.4757745e-23)
(1.0275597 -0.01144099 1.2729725e-22)
(1.0283796 -0.0094109344 -2.0154471e-21)
(1.0290423 -0.0074077219 6.729202e-22)
(1.029548 -0.0050800858 -2.0399168e-21)
(1.0300866 -0.0032386939 -5.1919589e-22)
(1.0305374 -0.00072628873 -1.3138556e-21)
(1.0029537 -0.0094844377 3.7713357e-23)
(1.0014217 -0.013465768 5.2424163e-22)
(1.0021166 -0.01645464 6.0120427e-23)
(1.0036715 -0.02015239 3.1900382e-22)
(1.0064914 -0.022978937 1.7248777e-22)
(1.0103859 -0.025012628 -2.8948903e-23)
(1.0146567 -0.025381807 -4.9849046e-22)
(1.0184637 -0.024319603 -8.8909511e-22)
(1.0210706 -0.022363985 -4.2666371e-22)
(1.0226879 -0.020511801 0)
(1.023794 -0.01896422 -5.1750493e-22)
(1.0248653 -0.017704453 6.9216321e-22)
(1.0259272 -0.016408631 1.3255853e-21)
(1.0270629 -0.014998826 -1.3992203e-21)
(1.0280818 -0.013321068 5.3930191e-22)
(1.0290175 -0.011465422 -1.5948612e-21)
(1.0297046 -0.0093481527 9.1206434e-23)
(1.0302741 -0.0072921725 8.2136758e-22)
(1.0306301 -0.0049494234 -1.3384457e-21)
(1.031056 -0.0031328508 -9.0936004e-23)
(1.0313921 -0.00067813682 -1.2488261e-21)
(1.0025278 -0.0089855053 -2.028466e-22)
(1.0006022 -0.013146727 4.6556533e-22)
(1.0010883 -0.016405257 7.0796951e-22)
(1.0023874 -0.020524998 -7.2461475e-22)
(1.0051396 -0.023884356 -2.1537601e-22)
(1.0091731 -0.026499936 2.2250519e-22)
(1.0139046 -0.027318777 0)
(1.0184413 -0.026351444 6.2739632e-22)
(1.0216033 -0.024115566 4.7375376e-22)
(1.0233651 -0.02192309 -4.8006747e-22)
(1.0243572 -0.020221296 -4.7735654e-23)
(1.0252875 -0.019008766 3.7865457e-22)
(1.026291 -0.017868824 -1.4136292e-22)
(1.0274427 -0.016650061 -3.9541292e-22)
(1.028552 -0.015165289 9.7234456e-22)
(1.0295977 -0.013409465 -9.7624233e-22)
(1.0304216 -0.011437773 2.1207176e-22)
(1.0310266 -0.0092418497 -1.4251511e-21)
(1.0314389 -0.0071329323 -1.5171596e-22)
(1.0316597 -0.0047881655 -2.9455634e-23)
(1.031956 -0.0030073651 -7.2943777e-22)
(1.0321778 -0.00062539179 0)
(1.0020686 -0.0084465866 -2.5346078e-23)
(0.99977722 -0.012760186 -2.6436824e-22)
(1.0000387 -0.016262058 2.43087e-24)
(1.0010303 -0.020767447 -6.6716261e-22)
(1.0036126 -0.024640055 1.49106e-23)
(1.0076507 -0.027846638 -2.9829466e-23)
(1.0127041 -0.029172839 -8.5132051e-22)
(1.0178607 -0.02842044 -1.1962738e-21)
(1.02191 -0.025868632 -1.0011742e-22)
(1.0240273 -0.023277689 -4.7479012e-23)
(1.0250075 -0.021342777 -9.2757091e-24)
(1.0257275 -0.020137279 -7.3770449e-22)
(1.0266106 -0.019160259 9.2194649e-23)
(1.0277439 -0.018168634 6.4000823e-22)
(1.0289256 -0.01689986 -9.6944471e-22)
(1.0301102 -0.015339303 -1.3621057e-21)
(1.0310766 -0.013445609 -7.382029e-25)
(1.0318436 -0.011362332 2.5098159e-21)
(1.0322863 -0.0090807643 1.4588089e-22)
(1.0325628 -0.0069299502 -8.5072453e-22)
(1.0326209 -0.00459574 0)
(1.0327881 -0.0028628924 1.6252182e-21)
(1.0328924 -0.00056838313 2.397921e-23)
(1.0015402 -0.0078763113 4.5678974e-22)
(0.99895097 -0.012314718 -6.8648428e-22)
(0.99898556 -0.016034106 7.5021533e-22)
(0.99962648 -0.020876024 4.0131807e-22)
(1.0019336 -0.025219737 -5.7337154e-22)
(1.0058107 -0.028998541 0)
(1.0110147 -0.030852215 -2.3481572e-22)
(1.0166555 -0.030372219 -5.7177071e-23)
(1.0215005 -0.027563272 -1.3328688e-21)
(1.0243044 -0.024544349 -1.39768e-21)
(1.0256031 -0.02229399 -1.2409206e-22)
(1.0262039 -0.02106387 -4.5934321e-22)
(1.026887 -0.020253752 9.182814e-22)
(1.0279519 -0.019518717 -9.0513635e-22)
(1.0291851 -0.018517113 1.8125586e-21)
(1.0305011 -0.01718542 2.3158079e-21)
(1.0316554 -0.015466563 -1.248541e-21)
(1.0325985 -0.013433637 9.8483782e-22)
(1.033214 -0.011221365 -3.2715815e-21)
(1.0335224 -0.0088635748 1.0674508e-21)
(1.0336195 -0.0066814989 1.9020085e-21)
(1.0335176 -0.0043728257 -1.6748769e-21)
(1.0335492 -0.0027004406 1.0453659e-21)
(1.033536 -0.00050738921 2.0815557e-23)
(1.0008256 -0.0072892684 -8.015997e-23)
(0.99810878 -0.011826035 -5.5734058e-22)
(0.99794121 -0.015731202 -9.9363648e-23)
(0.99819899 -0.020856274 -1.8270142e-21)
(1.0001409 -0.025607159 5.1959375e-22)
(1.0036793 -0.029912446 -1.5065399e-22)
(1.0088107 -0.032300576 -2.6016763e-22)
(1.0147639 -0.032072984 2.1467895e-21)
(1.0200683 -0.029112313 1.2769428e-23)
(1.0238122 -0.025593705 -6.7203102e-22)
(1.025681 -0.023109183 -4.0063975e-23)
(1.0266131 -0.021751067 3.9523405e-22)
(1.0271309 -0.021121698 -3.6382968e-22)
(1.0280574 -0.020672131 -1.1358786e-22)
(1.0293074 -0.019982957 4.9718e-22)
(1.0307462 -0.018940341 3.2911388e-22)
(1.0320958 -0.017436946 -2.4865722e-22)
(1.0332733 -0.01554967 1.5738147e-21)
(1.0340867 -0.013346874 0)
(1.0345813 -0.011011654 2.7429714e-22)
(1.0346934 -0.0085870288 8.3921045e-23)
(1.0346181 -0.0063878608 -1.626898e-22)
(1.0343435 -0.0041207803 2.9231809e-23)
(1.0342389 -0.0025212984 -1.5092665e-21)
(1.0341089 -0.00044254898 -6.8489362e-22)
(0.99967742 -0.0067037931 -3.3626235e-22)
(0.99716344 -0.011322566 2.8041474e-22)
(0.99689575 -0.015363355 2.1890451e-22)
(0.99677017 -0.020713182 2.2137925e-22)
(0.99827831 -0.025800173 1.1633258e-21)
(1.0013292 -0.030567162 -3.8668327e-22)
(1.0061582 -0.033463419 -3.1131136e-22)
(1.0121713 -0.033534127 -1.2204528e-22)
(1.0178436 -0.030423482 -2.3081133e-21)
(1.022236 -0.026462856 -3.0021421e-22)
(1.0248892 -0.02367119 -6.408629e-22)
(1.0264872 -0.022259498 2.7646213e-23)
(1.0273009 -0.021725622 -4.1817676e-22)
(1.0280585 -0.021602114 1.0036186e-22)
(1.0292754 -0.021270138 -4.8607319e-22)
(1.0308153 -0.020572855 -7.6018972e-22)
(1.0323672 -0.01935039 -2.8596892e-22)
(1.0337983 -0.017653851 -2.2554207e-21)
(1.0348839 -0.015550607 -3.4576385e-21)
(1.0355963 -0.013179926 -1.0712359e-23)
(1.0358898 -0.010727256 3.5380129e-21)
(1.0358183 -0.0082496672 8.0144143e-22)
(1.0355459 -0.0060505218 -1.670478e-21)
(1.0350982 -0.0038414361 1.4971551e-21)
(1.034857 -0.0023270896 -1.0562529e-21)
(1.034612 -0.00037524865 5.8769239e-23)
(0.99779864 -0.0061560954 1.2576072e-23)
(0.99594951 -0.010828194 1.856321e-22)
(0.99578644 -0.014948794 -7.4626969e-22)
(0.99535421 -0.02046026 1.3378493e-21)
(0.9963893 -0.025811122 -1.4573474e-21)
(0.99884074 -0.030952559 1.1155474e-22)
(1.0031538 -0.034307824 -1.5371625e-21)
(1.0089463 -0.034705314 -6.9307072e-22)
(1.014877 -0.031514367 3.7329448e-21)
(1.0197392 -0.027249346 1.5354467e-21)
(1.0231699 -0.023963115 8.3215656e-23)
(1.0252748 -0.022636855 1.0518176e-21)
(1.0270336 -0.022101222 4.3786812e-22)
(1.0279546 -0.022274891 -6.2777346e-22)
(1.0290761 -0.022355126 2.2275902e-22)
(1.0306869 -0.02205586 3.7893198e-22)
(1.0324335 -0.021179069 -1.420525e-21)
(1.0341384 -0.019741175 1.6835435e-21)
(1.0355294 -0.017783943 -1.5802987e-21)
(1.0365451 -0.015461136 2.4321012e-22)
(1.0370606 -0.012921773 0)
(1.0371691 -0.010363436 1.4652281e-21)
(1.0368725 -0.0078532908 1.626207e-22)
(1.036404 -0.0056714927 0)
(1.0357798 -0.0035373368 -1.8242817e-21)
(1.0354039 -0.0021196684 -7.8024167e-23)
(1.0350469 -0.00030581324 5.1757244e-22)
(0.99500589 -0.0056633538 1.2105368e-22)
(0.99414145 -0.010366534 1.7978394e-23)
(0.99446475 -0.014507639 -5.5158081e-22)
(0.99391842 -0.020112802 1.5216151e-22)
(0.99450991 -0.025660003 -1.2763291e-22)
(0.99629112 -0.031090806 -4.1251777e-22)
(0.99991774 -0.034823178 2.9575152e-23)
(1.0051978 -0.035534062 1.1398374e-21)
(1.0111022 -0.032369347 -7.3340546e-22)
(1.016461 -0.027843231 -2.4290985e-21)
(1.0205404 -0.02416543 2.7244781e-21)
(1.0231333 -0.022670409 7.8053345e-22)
(1.025595 -0.022465261 1.9358283e-22)
(1.0275439 -0.022686316 1.245476e-22)
(1.028714 -0.023208978 -9.3043916e-22)
(1.0303405 -0.023368302 3.8964332e-22)
(1.0322685 -0.022898169 -1.8138746e-21)
(1.0342522 -0.021787707 4.7158175e-21)
(1.0359837 -0.020043946 1.5796645e-21)
(1.0373465 -0.017814975 5.4873874e-23)
(1.0381833 -0.01526241 2.0640064e-21)
(1.0385155 -0.012564472 -1.8360484e-22)
(1.0383783 -0.009923112 -1.3102827e-22)
(1.0378619 -0.0073990075 0)
(1.0371871 -0.0052542469 0)
(1.036388 -0.0032112987 1.4644959e-22)
(1.0358807 -0.0019010053 -1.0905818e-21)
(1.0354152 -0.00023534555 -8.4964899e-22)
(0.9914632 -0.005179135 0)
(0.99145917 -0.0099575511 -1.0100374e-23)
(0.99269572 -0.014076755 4.3069045e-22)
(0.99237227 -0.019702359 5.0600526e-22)
(0.99264354 -0.025368192 1.0910501e-21)
(0.99375276 -0.030997105 -2.8964287e-22)
(0.99656804 -0.035021136 -2.9129752e-22)
(1.0011022 -0.035994657 1.3024244e-21)
(1.0066226 -0.032939763 -2.2321169e-21)
(1.0122418 -0.028272704 4.0951883e-22)
(1.0170216 -0.024262891 -2.3829228e-22)
(1.0203314 -0.022350736 -3.6932017e-22)
(1.0227776 -0.022628736 1.9070188e-21)
(1.0261413 -0.02305737 1.0773888e-22)
(1.0281228 -0.02380705 2.9091645e-22)
(1.0297714 -0.024487139 -1.0919333e-21)
(1.0318475 -0.024487341 5.2464716e-22)
(1.0341089 -0.023770485 -1.4410858e-21)
(1.0362006 -0.022311389 3.850383e-21)
(1.0379585 -0.020240922 -1.2117633e-21)
(1.0391719 -0.01771779 1.7294182e-21)
(1.039835 -0.014943562 1.1533775e-21)
(1.0399066 -0.012110141 -7.0781358e-23)
(1.0395329 -0.0094037863 -3.7905213e-21)
(1.0387739 -0.0068913865 -1.0234244e-21)
(1.0378941 -0.0048024678 1.7967058e-22)
(1.0369232 -0.0028665201 1.4608155e-21)
(1.036289 -0.0016730952 -5.9641225e-22)
(1.0357197 -0.00016499921 9.7438553e-22)
(0.98766534 -0.0046800373 -4.2641294e-22)
(0.98785559 -0.009598763 0)
(0.99017138 -0.013676607 0)
(0.99051435 -0.019257482 0)
(0.99072749 -0.024976634 -3.5170497e-22)
(0.99127878 -0.030712557 1.3869828e-21)
(0.99322762 -0.034935216 -5.0448048e-22)
(0.99684496 -0.036133293 -7.7476253e-22)
(1.0016541 -0.033177067 -2.2933656e-21)
(1.0072151 -0.028512736 4.6436558e-21)
(1.0125135 -0.024246456 -1.9797811e-21)
(1.0166379 -0.021963454 7.0553001e-22)
(1.0193047 -0.022284084 -1.1133759e-21)
(1.0229241 -0.023528804 5.4815611e-23)
(1.0268378 -0.024257592 9.6649567e-22)
(1.0289761 -0.02538682 5.108111e-22)
(1.0311563 -0.025925755 -1.3377999e-21)
(1.0336822 -0.025670221 -1.6372111e-21)
(1.0361451 -0.024565184 8.8524801e-22)
(1.03833 -0.022724885 -8.2484316e-22)
(1.0399816 -0.020290369 -2.0313063e-21)
(1.0410393 -0.017478307 1.5450068e-22)
(1.0414371 -0.014503026 2.814628e-21)
(1.0412557 -0.011552439 -1.7867291e-21)
(1.0406061 -0.0088134917 -9.0552636e-23)
(1.0396088 -0.0063343239 -6.2735771e-22)
(1.0385237 -0.0043206723 1.4840757e-21)
(1.0373861 -0.0025063018 3.4910996e-22)
(1.0366309 -0.0014378874 2.0043169e-21)
(1.0359651 -9.5136154e-05 4.2780692e-22)
(0.98363192 -0.0041186003 7.5542343e-23)
(0.98365073 -0.0092721947 -2.3586759e-22)
(0.98670472 -0.013335261 0)
(0.98801625 -0.018821384 0)
(0.988625 -0.024511491 0)
(0.98884073 -0.030274648 0)
(0.98998413 -0.034616693 0)
(0.99263313 -0.035973902 1.9064636e-22)
(0.99650585 -0.033143697 -3.6212769e-22)
(1.0016219 -0.02851073 -3.5389433e-21)
(1.0071325 -0.024140085 2.6832722e-23)
(1.0119706 -0.0215086 -2.2009738e-21)
(1.0153606 -0.021582628 3.7622674e-21)
(1.0184692 -0.023694395 -1.212482e-21)
(1.0238868 -0.024934859 -1.3049423e-23)
(1.0277289 -0.026081325 8.3771212e-22)
(1.030201 -0.027195425 -1.7988965e-21)
(1.032952 -0.027466977 6.975701e-22)
(1.0357882 -0.026787753 1.7865654e-21)
(1.0384232 -0.025247584 1.019291e-21)
(1.0405577 -0.022971504 2.691091e-22)
(1.0420825 -0.020173931 1.500798e-21)
(1.0428788 -0.017088694 3.8794086e-23)
(1.0430114 -0.013931982 -1.116647e-21)
(1.0425222 -0.010902595 6.4228513e-22)
(1.0416045 -0.0081534982 3.1587154e-21)
(1.0403612 -0.0057339317 7.9887753e-22)
(1.0390757 -0.0038135099 -6.5216844e-22)
(1.0377786 -0.0021339815 3.9245957e-23)
(1.0369093 -0.0011974038 -1.1789642e-21)
(1.0361544 -2.5568735e-05 -2.3080606e-22)
(0.97913342 -0.0034884043 2.1883798e-22)
(0.97901144 -0.0088616636 6.834276e-24)
(0.98243324 -0.013042977 -9.6237445e-24)
(0.98461099 -0.018406105 6.465042e-22)
(0.98603955 -0.024026864 0)
(0.98634042 -0.029728219 0)
(0.98685851 -0.034095734 -3.2961899e-22)
(0.98850927 -0.03564747 2.0688148e-21)
(0.99143673 -0.032872298 -2.0365231e-21)
(0.99577901 -0.028275926 -1.0322934e-21)
(1.0011157 -0.02389758 -3.5630188e-23)
(1.0063526 -0.021037656 3.3413318e-21)
(1.0106185 -0.020801158 -6.1662281e-22)
(1.0138423 -0.02322825 2.6274614e-22)
(1.0188172 -0.025720945 5.2525542e-22)
(1.0252531 -0.02687117 6.9449864e-23)
(1.0289177 -0.028274704 2.2907199e-21)
(1.0319152 -0.029145814 -1.8296136e-22)
(1.0351074 -0.028958939 -1.9941214e-21)
(1.0382058 -0.02779319 6.2608083e-21)
(1.0408593 -0.025744492 -4.2478979e-22)
(1.0429068 -0.023027464 -1.8094034e-21)
(1.0441848 -0.019875534 4.0510638e-21)
(1.0447083 -0.016538258 1.9044657e-21)
(1.0445075 -0.013241825 -4.259006e-22)
(1.0437186 -0.010157718 1.8265058e-21)
(1.0425128 -0.0074340111 9.2755372e-22)
(1.0410304 -0.0050958869 3.2367448e-22)
(1.0395508 -0.0032859112 -7.1846239e-22)
(1.0381029 -0.0017528704 -1.3284821e-22)
(1.0371273 -0.00095382097 -2.9669639e-22)
(1.0362889 4.1208175e-05 -1.2794558e-23)
(0.9739911 -0.0028326416 -2.5135658e-23)
(0.97388845 -0.0082690994 3.9235458e-22)
(0.97741906 -0.012633617 4.0212711e-22)
(0.98025582 -0.018070748 -5.5379999e-22)
(0.98266353 -0.023538321 0)
(0.98352137 -0.029128654 0)
(0.98380267 -0.033441184 0)
(0.98453763 -0.034986848 -7.7340938e-22)
(0.98653733 -0.032592255 1.8303114e-21)
(0.9899629 -0.027883716 7.4694317e-22)
(0.99473865 -0.023468346 4.0492084e-24)
(1.0000416 -0.020541625 5.0760563e-22)
(1.0049248 -0.020018622 -6.3336616e-21)
(1.00883 -0.022464085 3.0435254e-21)
(1.0130689 -0.026025037 -1.3636088e-22)
(1.0203952 -0.028084716 0)
(1.0268239 -0.02928414 5.2934599e-22)
(1.0305772 -0.030682116 -5.9424514e-22)
(1.0340896 -0.031064589 1.3245717e-21)
(1.0376536 -0.030342093 2.8109921e-22)
(1.040851 -0.028595971 -3.0237373e-21)
(1.0434692 -0.02602507 1.3569929e-23)
(1.0452952 -0.022866602 -2.8637818e-21)
(1.0463007 -0.019382228 -3.4672257e-21)
(1.0464702 -0.015835779 1.1226659e-21)
(1.0459382 -0.012427627 3.2331422e-22)
(1.0448171 -0.0093340808 -2.0937777e-22)
(1.0433335 -0.0066597166 2.6870742e-23)
(1.0416153 -0.0044269261 -8.8325805e-22)
(1.0399506 -0.0027427427 -7.2271738e-22)
(1.0383617 -0.0013662028 2.0342777e-22)
(1.0372878 -0.00070910603 3.8342573e-22)
(1.0363694 9.8791885e-05 7.6192611e-23)
(0.96750876 -0.0020634052 -9.0544471e-24)
(0.96804941 -0.0076154939 -2.6233113e-23)
(0.97170463 -0.012078588 1.3635052e-21)
(0.97490507 -0.017615462 -3.0049684e-22)
(0.97830351 -0.023140366 7.3009956e-22)
(0.98008759 -0.028507593 -1.5920727e-22)
(0.98059733 -0.032699313 6.3631471e-21)
(0.98078909 -0.03422799 -3.7594582e-21)
(0.98181709 -0.031878944 2.0329768e-22)
(0.98437619 -0.027410911 -5.4174757e-21)
(0.98833633 -0.022921764 5.0669617e-23)
(0.99328133 -0.01993379 -2.6951285e-21)
(0.99847838 -0.019289855 1.5678385e-22)
(1.0030801 -0.021607624 2.2801336e-21)
(1.0074237 -0.025702022 1.9068969e-21)
(1.0137522 -0.029290027 -3.3131294e-23)
(1.0228228 -0.030708054 1.3085368e-22)
(1.0287253 -0.032083663 1.8643615e-21)
(1.0327476 -0.033082403 -3.2328664e-22)
(1.036748 -0.032879002 -4.1731403e-22)
(1.0405058 -0.031506834 5.8651025e-22)
(1.0437312 -0.029156725 -5.1203523e-21)
(1.0461648 -0.026051582 1.1327936e-22)
(1.0477274 -0.022472939 1.0760923e-21)
(1.0483652 -0.018698544 -4.6302032e-21)
(1.048173 -0.014976097 -1.5200516e-21)
(1.0472667 -0.011508951 -1.3244496e-21)
(1.0458253 -0.0084323396 -5.386194e-22)
(1.0440595 -0.005841156 -7.698991e-22)
(1.0421165 -0.0037334201 1.7351674e-23)
(1.0402773 -0.0021888008 -2.0964504e-22)
(1.0385581 -0.00097703081 -7.336052e-23)
(1.0373942 -0.00046461657 2.7354366e-24)
(1.0364057 0.00015303288 -4.2553626e-22)
(0.95893291 -0.0012181123 1.2113717e-22)
(0.96098039 -0.0068746254 3.1260925e-23)
(0.96538708 -0.011403543 -2.3074919e-21)
(0.96864059 -0.0169963 -1.8172543e-22)
(0.97273375 -0.022620318 -2.3172283e-21)
(0.97569013 -0.027952398 -5.8648634e-21)
(0.97698402 -0.031927407 -8.9490072e-22)
(0.97706129 -0.033362971 0)
(0.97740736 -0.031043932 -4.3203885e-21)
(0.97902826 -0.026765018 -1.0506824e-20)
(0.98215945 -0.0222647 -4.2174537e-23)
(0.98641684 -0.019230764 3.0508404e-22)
(0.99151082 -0.018542549 0)
(0.99656299 -0.020768334 6.7225695e-23)
(1.0014147 -0.025156444 -3.7685441e-21)
(1.00713 -0.029761277 -9.1141853e-23)
(1.0160399 -0.032621157 1.2198528e-22)
(1.0255611 -0.033672886 0)
(1.0310383 -0.03498624 -2.1402538e-23)
(1.0354894 -0.035382875 4.2232729e-22)
(1.039803 -0.034461187 -4.6039695e-21)
(1.0436626 -0.032404057 3.8127986e-22)
(1.0467525 -0.029424331 0)
(1.0489422 -0.025803898 -4.3972462e-21)
(1.0501308 -0.021845304 1.4489321e-21)
(1.0503806 -0.017819143 -8.7055329e-23)
(1.0497731 -0.013979056 -1.9262173e-21)
(1.0485007 -0.010484905 1.4774846e-21)
(1.0467262 -0.0074706405 7.6698202e-23)
(1.0446926 -0.0049851178 -1.7255669e-21)
(1.0425352 -0.0030220113 1.723255e-21)
(1.0405338 -0.0016286308 7.0841299e-22)
(1.0386954 -0.00058809003 0)
(1.0374493 -0.00022147813 -1.8137856e-24)
(1.0364005 0.00020183283 -2.0682172e-22)
(0.94769171 -0.00031700635 4.285659e-23)
(0.95198523 -0.0059945371 4.2625136e-22)
(0.95783645 -0.010633872 -2.6323909e-21)
(0.96173831 -0.016240821 -2.0918726e-22)
(0.96595726 -0.021933587 -6.4041407e-22)
(0.96998357 -0.027302536 -1.984477e-22)
(0.97249224 -0.031184858 -7.1846322e-21)
(0.97313004 -0.032440181 4.1574663e-22)
(0.97315975 -0.030122082 0)
(0.97399321 -0.025857018 5.0862054e-21)
(0.97628015 -0.021650917 -2.7378637e-21)
(0.97973128 -0.018457675 -1.1864367e-23)
(0.98431506 -0.017728224 5.6921799e-22)
(0.98949125 -0.019955798 -1.7852295e-21)
(0.99474362 -0.024500461 -1.1787239e-21)
(1.0006063 -0.029803171 -2.2067108e-21)
(1.0083012 -0.034135268 2.9239895e-21)
(1.0196785 -0.035983619 1.8355422e-23)
(1.0285065 -0.036893627 2.9411296e-21)
(1.0338943 -0.037829299 -4.5770625e-21)
(1.0387314 -0.037437937 4.6901161e-21)
(1.043241 -0.035751016 -2.7969046e-21)
(1.0470253 -0.032967997 0)
(1.0499015 -0.029373142 -1.1985681e-21)
(1.0517203 -0.02527379 3.3356953e-22)
(1.0524999 -0.020977774 2.179444e-21)
(1.052296 -0.016762954 7.9237824e-22)
(1.0512744 -0.012844928 4.0378948e-22)
(1.0496161 -0.0093788996 1.009461e-21)
(1.0475254 -0.0064521678 0)
(1.0452311 -0.0041015046 1.5208663e-21)
(1.0428739 -0.0022989142 1.895294e-21)
(1.0407234 -0.0010664977 -6.6762408e-23)
(1.0387773 -0.00020185138 -3.2421977e-22)
(1.0374563 1.931058e-05 -2.8483522e-23)
(1.0363636 0.00025099882 8.8083708e-22)
(0.93405783 0.0006866314 -4.8578661e-23)
(0.94017958 -0.0050381491 5.9784251e-24)
(0.94833036 -0.0097580266 8.2724511e-22)
(0.9536337 -0.015399045 5.4697168e-24)
(0.95836794 -0.021108124 1.4758604e-21)
(0.96273932 -0.026494197 5.2361567e-21)
(0.9667399 -0.030397214 -1.6066118e-22)
(0.96848697 -0.031550369 -8.3878984e-21)
(0.96887975 -0.029126796 3.0399672e-22)
(0.96924851 -0.024908397 -5.5611823e-21)
(0.97069545 -0.020707836 -4.183118e-23)
(0.97338505 -0.017728165 1.0987419e-21)
(0.97722021 -0.016874446 1.6356735e-22)
(0.98207129 -0.019097592 -1.0886089e-21)
(0.98752062 -0.023825164 6.3647088e-21)
(0.9936592 -0.029593721 -3.076181e-24)
(1.0009766 -0.034979551 -1.6476013e-21)
(1.0113183 -0.038507246 -2.5104206e-22)
(1.0239881 -0.039354024 -1.4988032e-21)
(1.031788 -0.040217138 -8.7348785e-22)
(1.0373057 -0.040416811 2.7099654e-21)
(1.0424493 -0.039175338 -5.0395032e-21)
(1.0469568 -0.03666768 3.8546423e-21)
(1.0505696 -0.033166315 0)
(1.0530883 -0.028986579 3.8787505e-21)
(1.0544847 -0.024453961 4.8007146e-21)
(1.054776 -0.019887387 -1.7044655e-21)
(1.0541101 -0.015531938 3.6294247e-21)
(1.0526472 -0.011599461 1.064002e-22)
(1.0506187 -0.0081932078 -1.1210124e-21)
(1.0482145 -0.0053948742 -1.2734823e-21)
(1.0456775 -0.0031976786 -1.9494095e-22)
(1.0431355 -0.0015701394 -1.1619717e-22)
(1.04085 -0.00050624462 1.968574e-22)
(1.0388083 0.00017965986 -3.4671145e-22)
(1.0374192 0.00025698126 -5.6261957e-23)
(1.0362916 0.00030976836 4.0516305e-22)
(0.9195361 0.0018088129 2.9157886e-23)
(0.92558731 -0.0039685034 -2.7690937e-22)
(0.9360802 -0.0087757231 1.0321603e-21)
(0.9435876 -0.014409037 2.3068943e-22)
(0.94959988 -0.020146239 -1.5624997e-23)
(0.95440821 -0.025561876 9.6843859e-23)
(0.959153 -0.029513477 -5.0789408e-21)
(0.96271094 -0.030642007 3.9446501e-21)
(0.96409456 -0.02818316 0)
(0.96461112 -0.023870349 1.3488238e-21)
(0.96546702 -0.019715269 0)
(0.96735011 -0.016842576 0)
(0.97045694 -0.015993964 8.9386613e-22)
(0.97462809 -0.0181752 -1.6364356e-23)
(0.97991446 -0.023103525 6.6442582e-22)
(0.98618526 -0.0292912 1.6916542e-21)
(0.99364864 -0.035351683 -3.0844193e-21)
(1.002791 -0.040477925 -2.0389088e-21)
(1.0161517 -0.042552906 1.6540404e-22)
(1.0284162 -0.042827347 7.4090517e-22)
(1.0355112 -0.04336387 -4.3564058e-21)
(1.0412868 -0.042657873 1.3725875e-21)
(1.046528 -0.040498136 1.0494388e-21)
(1.050916 -0.037169813 3.5496196e-22)
(1.0541969 -0.032972365 2.0398425e-22)
(1.0562886 -0.028254796 9.3499667e-22)
(1.0571679 -0.023358426 -8.1740444e-22)
(1.0569507 -0.01857771 -2.2691308e-21)
(1.0557868 -0.014153353 -2.2059998e-22)
(1.0538944 -0.010247117 -3.3031218e-21)
(1.0514948 -0.006951697 -1.0566994e-21)
(1.0487988 -0.0043030896 -4.2137271e-22)
(1.0460337 -0.0022825141 -1.7546097e-21)
(1.0433238 -0.00084095597 1.7368659e-22)
(1.0409175 4.8808634e-05 -5.2770528e-22)
(1.0387926 0.00055500771 -2.081885e-23)
(1.0373433 0.00048953431 -3.4227586e-22)
(1.0361913 0.00036769615 0)
(0.90692492 0.0031054118 -1.8702013e-22)
(0.90979121 -0.0027525286 -2.00167e-25)
(0.92095024 -0.007675376 2.8755951e-22)
(0.93077599 -0.013290141 1.9465743e-22)
(0.93884585 -0.019038963 -4.0644733e-22)
(0.94491012 -0.024439256 -1.7067648e-21)
(0.95010888 -0.028517455 -4.3478639e-22)