/*--------------------------------*- C++ -*----------------------------------*\
| =========                 |                                                 |
| \\      /  F ield         | OpenFOAM: The Open Source CFD Toolbox           |
|  \\    /   O peration     | Version:  5.0                                   |
|   \\  /    A nd           | Web:      www.OpenFOAM.org                      |
|    \\/     M anipulation  |                                                 |
\*---------------------------------------------------------------------------*/
FoamFile
{
    version     2.0;
    format      ascii;
    class       volSymmTensorField;
    location    "100";
    object      UPrime2Mean;
}
// * * * * * * * * * * * * * * * * * * * * * * * * * * * * * * * * * * * * * //

dimensions      [0 2 -2 0 0 0 0];

internalField   nonuniform List<symmTensor> 
9200
(
(6.1810114e-05 -3.6584451e-06 1.5294051e-26 2.8534322e-07 -6.0265388e-28 6.398672e-48)
(6.175837e-05 -1.3258273e-05 8.8438827e-25 3.5176767e-06 4.4599506e-26 1.0875977e-43)
(9.009717e-05 -4.9244163e-06 0 3.2521674e-07 0 0)
(6.1364354e-05 -2.1107217e-05 -3.9183496e-25 8.6120118e-06 -3.4607386e-26 2.7333278e-44)
(9.1700002e-05 -1.8253808e-05 1.5312577e-24 4.1914195e-06 -1.0404265e-25 1.1981717e-43)
(0.00010642374 -5.3530898e-06 0 3.2891124e-07 0 0)
(6.0284646e-05 -2.9989044e-05 -3.774628e-26 1.7066099e-05 -3.3951981e-27 2.9633244e-46)
(9.3012639e-05 -2.9377303e-05 2.6985862e-25 1.0408937e-05 -6.0240775e-26 1.7831663e-45)
(0.0001092068 -2.013611e-05 0 4.3232039e-06 0 0)
(0.00013114828 -5.7712985e-06 0 3.2262705e-07 0 0)
(5.8291039e-05 -3.8043632e-05 3.9631783e-25 2.7138037e-05 1.4021372e-25 8.4477639e-44)
(9.4546282e-05 -4.2599363e-05 2.349804e-26 2.1094752e-05 1.816583e-25 2.3158167e-44)
(0.00011256264 -3.2751937e-05 6.3527923e-25 1.0812295e-05 -2.8640032e-26 3.2055186e-44)
(0.00013627351 -2.2251122e-05 5.3375147e-26 4.375097e-06 -7.3361446e-28 1.6064421e-46)
(0.00015279005 -5.7826653e-06 -3.718579e-27 3.0476203e-07 1.0370081e-28 1.6697614e-49)
(5.5116251e-05 -4.5730645e-05 1.8081398e-25 4.0096331e-05 1.8426548e-25 7.0328276e-44)
(9.5177631e-05 -5.5452781e-05 -4.2058493e-25 3.4575093e-05 1.9057845e-25 4.8436773e-45)
(0.00011708853 -4.8212705e-05 1.6252186e-24 2.2136282e-05 -4.1777744e-26 2.9504557e-43)
(0.00014283658 -3.6518277e-05 3.1546926e-25 1.097838e-05 1.1274102e-25 3.5095881e-44)
(0.00016017616 -2.2778884e-05 -3.2074622e-25 4.2077947e-06 3.3501418e-26 1.3303563e-45)
(0.00017506696 -5.4965473e-06 -3.0014087e-24 2.8347947e-07 -5.9713443e-26 4.2522786e-43)
(5.0933188e-05 -5.2057343e-05 -5.0463438e-25 5.4959095e-05 6.5394149e-25 3.4440728e-44)
(9.4807548e-05 -6.9087245e-05 1.2937425e-24 5.2976346e-05 -5.4708721e-25 1.5713641e-43)
(0.00012143401 -6.4085872e-05 -1.0387308e-24 3.6830554e-05 1.4483502e-25 1.1491231e-43)
(0.00015258722 -5.472784e-05 5.7586359e-26 2.2751476e-05 -4.0343072e-26 1.8404493e-46)
(0.00017019801 -3.75723e-05 1.2449783e-24 1.0529722e-05 1.448767e-27 7.6470619e-44)
(0.00018505286 -2.2276415e-05 1.0400854e-24 3.9811752e-06 9.6057939e-26 7.1052169e-44)
(0.00019472311 -4.8836073e-06 -6.4407119e-27 2.6692831e-07 1.1520881e-26 1.1293424e-45)
(4.6030226e-05 -5.6634718e-05 -6.2384404e-25 7.2099365e-05 7.776632e-25 1.0321521e-44)
(9.2525053e-05 -8.2075192e-05 -1.1617633e-25 7.58949e-05 2.6379935e-25 3.4385828e-44)
(0.00012526879 -8.1838119e-05 2.1591437e-25 5.7392581e-05 2.4149016e-25 8.9732986e-44)
(0.00016359024 -7.441493e-05 -1.0322493e-24 3.840896e-05 4.0278941e-25 1.1760719e-44)
(0.00018563981 -5.7055061e-05 -1.7076257e-24 2.1954454e-05 -2.9391896e-25 3.0054788e-43)
(0.0001991125 -3.6815281e-05 -6.99154e-25 9.9010829e-06 -2.0065181e-25 6.1833576e-44)
(0.00020709021 -2.045301e-05 -2.6752426e-24 3.7646016e-06 -1.4200496e-25 2.2802472e-43)
(0.00021172136 -4.0715403e-06 3.7497355e-24 2.6145979e-07 1.5643578e-25 5.7363916e-43)
(4.0462826e-05 -5.8495665e-05 9.4477347e-25 9.1181571e-05 -1.3536991e-24 4.5566762e-44)
(8.8119641e-05 -9.3803781e-05 8.1678057e-25 0.00010457606 -8.2997479e-25 1.0873056e-43)
(0.00012758674 -0.00010034807 -8.8615509e-25 8.3998352e-05 6.5338794e-25 1.1507419e-44)
(0.00017582393 -9.7797937e-05 7.1332662e-25 6.0970816e-05 -1.0228214e-25 4.0317423e-44)
(0.00020426606 -7.8889822e-05 -2.7209775e-24 3.728397e-05 8.7375293e-25 6.5315842e-44)
(0.00022151557 -5.6486443e-05 -4.5306272e-24 2.0689927e-05 -5.8802229e-25 1.021592e-42)
(0.00022482305 -3.3664414e-05 4.6169828e-24 9.2804305e-06 -2.0199508e-25 2.9801436e-43)
(0.00022627956 -1.7714448e-05 -4.7962833e-24 3.6849801e-06 -4.9279078e-25 7.4275163e-43)
(0.00022537431 -3.1637683e-06 -8.2598398e-24 2.6734579e-07 -4.7482228e-25 2.9766783e-42)
(3.4639377e-05 -5.6678428e-05 -9.5343756e-25 0.00011204393 1.8450837e-24 3.5005729e-44)
(8.1550816e-05 -0.00010288445 -1.4934264e-24 0.00013937218 2.2081753e-24 1.1582239e-43)
(0.00012768715 -0.00011917639 2.9246913e-25 0.00011862848 -2.7759276e-25 8.9399663e-46)
(0.00018799587 -0.00012421411 4.3821238e-24 9.1268819e-05 -2.6704282e-24 1.7631288e-43)
(0.00022679883 -0.0001059727 3.0468294e-25 5.9763892e-05 -2.5177941e-25 2.3035928e-45)
(0.00025003906 -7.9012009e-05 -5.1440933e-24 3.5100329e-05 1.2840272e-24 1.9506669e-43)
(0.00025360191 -5.1889556e-05 1.8554126e-24 1.9348019e-05 4.257941e-25 1.4711718e-43)
(0.00024735987 -2.881338e-05 4.2120084e-24 9.0307259e-06 8.4527849e-25 6.43213e-43)
(0.00024148249 -1.4336346e-05 1.7521678e-24 3.7837162e-06 4.6909679e-25 1.8336254e-43)
(0.00023565519 -2.2049269e-06 3.4833594e-25 2.882825e-07 4.6585055e-26 1.3212982e-44)
(3.0169923e-05 -5.0899678e-05 4.5659768e-25 0.00013387877 -1.1654741e-24 1.0743805e-44)
(7.3181529e-05 -0.00010783104 -1.4776895e-24 0.0001807693 2.7920593e-24 6.9107979e-44)
(0.00012494521 -0.00013698814 6.7503296e-25 0.00016263553 -7.1870775e-25 7.5061735e-44)
(0.00019921149 -0.00015388388 9.7193972e-25 0.00013227927 -1.0974145e-24 3.6185313e-44)
(0.0002522482 -0.00013833848 7.895338e-24 9.0623934e-05 -3.1925903e-24 6.846901e-43)
(0.00028648581 -0.00010794919 -9.8023773e-24 5.6402787e-05 8.6923672e-25 1.6630357e-42)
(0.0002913986 -7.2817346e-05 -1.8382262e-24 3.260089e-05 3.3182116e-25 2.2079598e-44)
(0.00028203491 -4.4344737e-05 1.0500693e-23 1.8780048e-05 1.6603816e-24 2.2735283e-42)
(0.00026502082 -2.272174e-05 -4.7734126e-24 9.2886377e-06 -1.0271634e-24 6.255264e-43)
(0.00025267511 -1.0762127e-05 7.4745955e-24 4.0966749e-06 1.9864313e-24 2.5776239e-42)
(0.00024272741 -1.2233471e-06 -1.3963566e-24 3.2520707e-07 -1.1769327e-25 9.3182903e-44)
(2.8320362e-05 -4.0921901e-05 -2.2186269e-26 0.00015586773 -1.0259051e-25 5.9516093e-46)
(6.3802305e-05 -0.00010690586 2.3125842e-24 0.00022902382 -5.8884738e-24 2.141808e-43)
(0.00011909066 -0.00015212389 2.0362825e-24 0.00021768491 -2.8655434e-24 4.0317716e-44)
(0.00020838755 -0.00018610257 0 0.00018679942 0 0)
(0.00028017787 -0.00017732444 -4.2609304e-25 0.00013368119 2.6764684e-25 8.2846852e-46)
(0.00033085311 -0.00014398092 8.0708281e-24 8.5854892e-05 -3.0764509e-24 3.0465748e-43)
(0.00034127414 -0.00010030024 -2.704951e-24 5.2156388e-05 -2.5626164e-26 9.1034287e-44)
(0.00032855222 -6.1764472e-05 -6.4524836e-24 3.1425196e-05 -9.3665081e-25 6.1397348e-43)
(0.00030399373 -3.4560604e-05 4.7129606e-24 1.9324935e-05 -2.4069439e-25 1.8381286e-43)
(0.00027780055 -1.6263373e-05 -5.7770468e-24 1.0155067e-05 -1.8879248e-24 1.0613408e-42)
(0.00026008379 -7.2199176e-06 -3.387931e-24 4.5950036e-06 -1.0623742e-24 5.4296052e-43)
(0.00024683107 -3.1398124e-07 4.944071e-25 3.7491163e-07 7.9449963e-26 2.5120131e-44)
(3.0186169e-05 -2.6429446e-05 -1.3526055e-26 0.00017732557 4.2624872e-26 3.9305627e-47)
(5.479259e-05 -9.8342897e-05 -5.8997867e-25 0.00028386273 2.4908027e-24 3.9813541e-44)
(0.00011040596 -0.00016244423 0 0.00028508172 0 0)
(0.00021440949 -0.00021961578 0 0.0002583224 0 0)
(0.000309583 -0.00022340343 -3.337521e-24 0.00019289582 1.9555634e-24 8.975919e-44)
(0.00038388229 -0.00018957477 1.7187863e-23 0.00012749103 -7.089746e-24 1.2622432e-42)
(0.00040475304 -0.00013526748 -1.506399e-23 7.9030333e-05 2.4657849e-24 1.2701345e-42)
(0.00039169289 -8.449601e-05 6.9154065e-24 4.9910048e-05 1.4756895e-24 6.2710484e-43)
(0.00035669048 -4.7008506e-05 1.0133447e-25 3.2331619e-05 2.1841499e-25 2.4131906e-45)
(0.00031953074 -2.4100581e-05 -5.0035668e-26 2.1247693e-05 1.148897e-27 2.3435991e-47)
(0.00028584283 -9.9380013e-06 8.1327163e-24 1.1525067e-05 3.0366321e-24 2.056813e-42)
(0.00026413273 -4.0388559e-06 -7.8269913e-24 5.2447678e-06 -2.6171495e-24 2.9050649e-42)
(0.00024858612 4.7718468e-07 1.0067563e-23 4.2968964e-07 1.5986046e-24 9.5706509e-42)
(3.7087954e-05 -7.5604432e-06 1.3608009e-25 0.00019735512 3.3424452e-26 8.9880606e-45)
(4.8416724e-05 -8.0501692e-05 3.5320047e-26 0.0003444983 -3.1683045e-25 6.3117161e-46)
(9.9635932e-05 -0.00016533851 -1.1104699e-24 0.00036564602 2.6630164e-24 6.6894733e-44)
(0.0002159244 -0.00025220423 3.8743669e-24 0.00035075435 -4.6430188e-24 1.5615755e-43)
(0.00033925027 -0.00027682326 -6.4343702e-24 0.00027372447 4.725978e-24 2.264378e-43)
(0.00044606508 -0.00024702455 7.1359014e-24 0.00018599231 -3.557e-24 1.6389085e-43)
(0.00048553484 -0.0001809919 1.2203735e-24 0.00011705432 3.6405989e-25 2.5810155e-44)
(0.00047452956 -0.00011319339 -7.4494421e-25 7.4918682e-05 1.283481e-25 1.9654375e-45)
(0.00042902887 -6.2828845e-05 2.5843759e-24 5.1333537e-05 3.1613843e-24 3.6912858e-43)
(0.00037604024 -3.1077072e-05 1.7066334e-24 3.5874494e-05 3.0201867e-24 3.4155512e-43)
(0.00032859093 -1.3932001e-05 2.3344755e-24 2.4284291e-05 1.2050481e-24 1.353061e-43)
(0.000289814 -4.3517115e-06 4.4479842e-24 1.3295429e-05 2.8095101e-24 1.0059603e-42)
(0.00026555139 -1.3394349e-06 2.2795415e-24 5.953146e-06 1.3951032e-24 4.9357604e-43)
(0.00024843265 1.1077283e-06 -2.2877883e-24 4.8342957e-07 -5.0043052e-25 7.8867002e-43)
(5.0636879e-05 1.5005968e-05 -1.0324429e-24 0.00021530208 -4.789712e-24 1.4759169e-43)
(4.7565613e-05 -5.2179247e-05 3.5097488e-25 0.00040977126 -1.1960696e-23 6.4776141e-43)
(8.837529e-05 -0.00015793124 1.3899374e-24 0.00045977646 -4.213095e-24 4.2663656e-44)
(0.00021246284 -0.00028081029 -1.0021897e-24 0.00046801551 1.5221712e-24 7.0806159e-45)
(0.00036761694 -0.00033701268 1.4885487e-24 0.00038269307 -1.4083359e-24 7.8147334e-45)
(0.0005178792 -0.00031903253 -1.2214014e-23 0.00026816775 7.0878344e-24 3.7956559e-43)
(0.0005871632 -0.00024088388 9.9889217e-25 0.00017064599 6.1015025e-25 2.2796873e-44)
(0.00058307167 -0.00015090224 -2.3037848e-24 0.00010986416 -9.9839501e-25 5.8328774e-44)
(0.00052522259 -8.182445e-05 4.8047983e-24 7.700874e-05 -4.7085899e-25 8.043882e-44)
(0.00045408507 -3.8948411e-05 2.9372235e-25 5.7452142e-05 -4.4606065e-25 3.9100386e-45)
(0.00038623593 -1.5759731e-05 -1.7960355e-25 4.1510712e-05 -9.8805186e-26 5.3544782e-46)
(0.00033230571 -5.1416813e-06 1.4682066e-24 2.8169091e-05 -1.9240701e-25 3.4553669e-44)
(0.0002906058 2.9884649e-07 -6.5031791e-24 1.5216042e-05 -4.6297082e-24 2.4011975e-42)
(0.00026492063 7.3828249e-07 2.5050618e-24 6.6574126e-06 1.6580144e-24 6.8140888e-43)
(0.00024703895 1.5920304e-06 -1.4927334e-24 5.3104625e-07 -4.2685023e-25 5.3100983e-43)
(7.2296117e-05 4.0367727e-05 7.9172304e-25 0.00023062176 2.147744e-24 5.4958027e-44)
(5.5450653e-05 -1.2635958e-05 8.9479638e-26 0.00047809397 1.3633045e-24 6.6297312e-44)
(7.9216524e-05 -0.00013733463 1.8067563e-24 0.00056700573 -7.5700414e-24 1.7226147e-43)
(0.00020423139 -0.0003013529 -4.6711929e-24 0.00061335746 7.8132138e-24 2.1590352e-43)
(0.00039257184 -0.00040220613 9.3370064e-24 0.0005273574 -9.1604962e-24 3.5000634e-43)
(0.00059897085 -0.00040839311 -9.1477909e-24 0.00038312506 2.7346781e-24 4.2792489e-43)
(0.0007143981 -0.0003198106 3.8618801e-23 0.00024661276 -1.280888e-23 3.0002333e-42)
(0.00072504209 -0.00020077164 -3.0151997e-24 0.00015850391 6.7589743e-25 1.7380052e-44)
(0.00065420583 -0.00010548494 -4.4090817e-24 0.0001128175 -1.0140009e-24 8.1271594e-44)
(0.00055817821 -4.6425678e-05 1.2813084e-23 8.7085818e-05 -5.5450393e-25 6.2084165e-43)
(0.00046559273 -1.6434363e-05 -2.5796678e-23 6.723226e-05 -1.4604302e-23 7.1743791e-42)
(0.00038924567 -2.8244709e-06 9.8246723e-24 4.8646596e-05 4.2567805e-24 1.3216334e-42)
(0.00033190401 1.9484493e-06 2.8144785e-24 3.231707e-05 2.291816e-24 2.875264e-43)
(0.00028907959 3.7713428e-06 2.8670784e-25 1.7114672e-05 7.1428029e-25 3.3154913e-44)
(0.00026297148 2.2603953e-06 -3.7204024e-25 7.2844926e-06 5.0346733e-26 8.545256e-45)
(0.00024470262 1.9369209e-06 1.0770864e-24 5.6963647e-07 5.0984724e-25 6.913245e-43)
(0.00010335822 6.7428872e-05 0 0.00024308866 0 0)
(7.5588418e-05 3.8155851e-05 1.0146889e-24 0.000547655 8.7955672e-24 3.0271618e-43)
(7.5709273e-05 -0.00010096092 -1.4161552e-24 0.000685874 1.1263543e-23 1.9735129e-43)
(0.00019240976 -0.00030873532 0 0.00078909371 0 0)
(0.00041180853 -0.00046914682 0 0.00071629401 0 0)
(0.00068819965 -0.00051759141 0 0.00054272568 0 0)
(0.00087222474 -0.00042400363 -7.5595962e-24 0.00035449262 3.6172186e-24 7.688648e-44)
(0.00091155346 -0.00026767463 9.740425e-24 0.00022674501 2.4026816e-24 3.4042338e-43)
(0.00082676319 -0.0001350504 -4.0636021e-23 0.00016264149 5.0890876e-24 2.923532e-42)
(0.00069773192 -5.3523756e-05 1.2391479e-23 0.00012910385 5.4891252e-24 6.9005703e-43)
(0.00057077855 -1.3955553e-05 -3.9951896e-24 0.00010327429 8.3699945e-26 7.2332329e-44)
(0.0004670868 2.1240181e-06 4.8936477e-24 7.9496546e-05 4.0414973e-24 3.3898062e-43)
(0.00038676103 7.21364e-06 -1.0583237e-24 5.6162339e-05 -2.9694318e-25 1.6624872e-44)
(0.00032875331 6.9789867e-06 -2.5163872e-24 3.6359731e-05 -2.9898904e-24 3.7423372e-43)
(0.00028609976 6.2182888e-06 3.5727645e-26 1.8789653e-05 -5.291509e-25 1.620233e-44)
(0.00026011152 3.2523178e-06 -6.2419328e-25 7.7981225e-06 -9.7648223e-25 1.8147906e-43)
(0.00024195897 2.1752035e-06 0 5.9739961e-07 0 0)
(0.0001447528 9.487327e-05 9.1104459e-25 0.00025291061 1.291266e-25 9.6592778e-44)
(0.00011147141 9.9430636e-05 4.9731284e-25 0.00061655056 -3.0121295e-24 3.1546146e-43)
(8.2175245e-05 -4.6927387e-05 -3.2032693e-24 0.00081408826 3.5665647e-23 2.7016392e-42)
(0.00017962654 -0.00029733291 -1.6504261e-23 0.00099608342 4.6235697e-23 2.8405097e-42)
(0.00042331679 -0.00053245872 -3.1166197e-23 0.00095794264 4.3763116e-23 2.9750838e-42)
(0.00078260218 -0.00064789292 0 0.00076179245 0 0)
(0.0010658693 -0.00056130616 -8.2185733e-23 0.00050756381 3.9898157e-23 7.3211841e-42)
(0.0011566528 -0.00035845407 2.970834e-23 0.00032290616 -8.8708036e-24 9.0140229e-43)
(0.0010589364 -0.00017273231 7.8174234e-23 0.00023252296 1.3487041e-25 8.2831465e-42)
(0.00088476538 -5.9071532e-05 -4.90789e-23 0.00018871955 2.7541619e-24 4.4545493e-42)
(0.00071118573 -6.8544315e-06 -7.300763e-24 0.00015533602 -4.6912724e-24 2.6835717e-43)
(0.00056925998 1.2192599e-05 -4.1644462e-24 0.00012327782 1.6311578e-25 1.0302224e-43)
(0.0004610234 1.5842331e-05 1.3474202e-23 9.2200846e-05 1.0096779e-23 2.3831936e-42)
(0.00038091513 1.3904361e-05 -1.0212809e-23 6.3388858e-05 -1.3629662e-23 4.2238357e-42)
(0.00032395824 1.0275222e-05 3.2834693e-26 3.9870293e-05 -2.4971074e-24 1.7020513e-43)
(0.0002822833 7.6890003e-06 -5.6573933e-24 2.0149837e-05 -1.1254035e-23 9.5376854e-42)
(0.00025690119 3.8493188e-06 -6.1624476e-25 8.1691291e-06 -2.7824232e-24 1.3131109e-42)
(0.00023888128 2.3323069e-06 4.3275154e-26 6.1406181e-07 -6.9110771e-25 1.2147605e-42)
(0.00019757384 0.0001212378 -3.6315748e-25 0.00026040032 -2.4184434e-25 1.9054076e-45)
(0.00016637711 0.00016973689 -1.0212077e-24 0.00068303255 -6.5049599e-24 1.8630241e-43)
(0.00010338614 2.5820166e-05 6.4157013e-25 0.00094853264 4.3002886e-24 2.7755833e-44)
(0.00016983818 -0.00026132528 -1.1788347e-23 0.0012336085 3.9754194e-23 1.8984827e-42)
(0.00042631808 -0.00058510333 5.3711096e-24 0.0012606499 -8.9923288e-24 8.776449e-44)
(0.00087803712 -0.00079902348 2.4407767e-23 0.0010584024 -2.9155176e-23 8.4631875e-43)
(0.0013002354 -0.00074143896 2.0043563e-22 0.00072428519 -1.1941346e-22 3.3802038e-41)
(0.0014792684 -0.00048275102 2.2934189e-22 0.00045881693 -6.4997124e-23 4.0288144e-41)
(0.0013726666 -0.00022117103 6.3215196e-23 0.00033118857 -7.7585031e-24 3.5608316e-42)
(0.0011370582 -6.1498893e-05 -1.2712124e-23 0.00027443414 -1.1934134e-23 7.5055288e-43)
(0.00089798354 7.5731147e-06 1.0098523e-23 0.00023067913 -2.7549362e-25 2.202591e-43)
(0.000703873 2.9244659e-05 -2.0665123e-23 0.00018700008 -1.4533076e-23 2.1294552e-42)
(0.00055726152 3.0268373e-05 1.2520477e-23 0.00014351543 5.2801847e-24 1.0919674e-42)
(0.00045083903 2.427741e-05 -8.1793539e-25 0.00010416867 7.998729e-25 2.1700901e-44)
(0.00037321926 1.7831638e-05 -6.32881e-25 6.9552297e-05 1.265258e-24 4.3004792e-44)
(0.0003184728 1.1939166e-05 1.2236429e-24 4.2679102e-05 2.7313324e-24 2.651029e-43)
(0.00027820733 8.4661584e-06 -1.0816768e-24 2.112043e-05 -3.9724514e-24 1.1316917e-42)
(0.00025344255 4.1476884e-06 1.5401219e-25 8.3918399e-06 8.4636342e-26 5.5598106e-45)
(0.0002357975 2.4380374e-06 5.5566224e-25 6.2036391e-07 -6.474136e-25 1.1234723e-42)
(0.0002625458 0.00014529096 -3.6337224e-24 0.00026647363 -1.711526e-24 1.3554017e-43)
(0.00024290684 0.00024688343 -8.9396805e-25 0.00074554136 3.1669689e-24 1.8740158e-43)
(0.00014427767 0.00011720642 9.1200255e-25 0.0010853395 -5.9510887e-23 7.7538431e-42)
(0.0001681868 -0.0001943823 7.2258509e-24 0.0014971517 -3.9074475e-23 1.2651261e-42)
(0.00041882232 -0.00061550389 -1.2790699e-24 0.0016292904 -1.565438e-24 4.0849159e-44)
(0.00096615723 -0.00096675302 1.7125738e-23 0.0014534634 -2.2061227e-23 3.6725957e-43)
(0.0015772903 -0.00097616406 -3.7340695e-23 0.0010302103 2.2479842e-23 9.5781356e-43)
(0.0019033182 -0.00065457601 -5.128537e-23 0.00065124382 9.2253678e-25 2.1862028e-42)
(0.0017992848 -0.00028397116 4.0307081e-23 0.00047097877 -5.3913786e-24 1.0353078e-42)
(0.0014791698 -5.8042754e-05 1.5487824e-22 0.0003990663 8.9665331e-24 2.0996658e-41)
(0.0011475457 3.2986738e-05 -4.5224542e-23 0.0003412768 -2.7688635e-23 4.2851872e-42)
(0.00088048039 5.6339876e-05 -2.5088449e-24 0.00027963605 4.4654799e-24 1.2370126e-43)
(0.00068259598 5.2341762e-05 5.3844619e-24 0.00021804934 8.0912464e-24 3.4748207e-43)
(0.00054032115 4.0302265e-05 -1.7615177e-25 0.00016206365 -5.8026713e-25 2.1985196e-45)
(0.000438671 2.8438148e-05 -1.3569467e-24 0.00011412013 7.6750224e-25 4.861748e-44)
(0.0003651123 1.9233198e-05 6.0032389e-24 7.439001e-05 1.2843006e-23 3.4979676e-42)
(0.00031290056 1.2511562e-05 -1.6555178e-24 4.4629315e-05 -2.1902048e-24 3.3891964e-43)
(0.00027407348 8.7107358e-06 1.2983676e-26 2.1693867e-05 6.8460917e-24 3.097818e-42)
(0.00025008791 4.266615e-06 -4.0548234e-25 8.4703095e-06 1.0904759e-24 1.9578458e-43)
(0.00023267686 2.5152315e-06 -1.2319461e-24 6.1755539e-07 6.6787411e-25 1.2456184e-42)
(0.0003403258 0.00016582306 3.8381924e-25 0.00027231646 4.7847131e-25 2.298977e-45)
(0.00034304813 0.00032829638 -3.8783668e-25 0.00080303708 8.3995867e-24 5.7479799e-43)
(0.00020954175 0.00022610144 8.0683228e-24 0.0012202481 4.1397638e-23 1.5756422e-42)
(0.00018160655 -9.1320753e-05 -7.0832274e-24 0.0017784908 4.7264457e-23 1.843433e-42)
(0.00039932623 -0.00060546821 2.4978671e-23 0.0020572763 -6.841946e-23 2.5921939e-42)
(0.0010179889 -0.001125938 7.0635275e-23 0.0019565653 -8.3671097e-23 5.5717812e-42)
(0.0018680555 -0.0012659498 -4.0197456e-22 0.001455077 2.667359e-22 9.2765111e-41)
(0.0024422831 -0.0008937781 -8.2351745e-22 0.00092442638 2.8277748e-22 2.9457899e-40)
(0.0023812986 -0.00036752687 7.9798722e-24 0.0006688214 3.8377224e-23 2.7594595e-42)
(0.0019468943 -4.3961067e-05 0 0.00058178985 0 0)
(0.0014820419 7.4721404e-05 4.1671849e-23 0.00050551205 2.7399016e-23 2.6186824e-42)
(0.0011131638 9.7312017e-05 -3.8881998e-23 0.00041575736 1.4637392e-24 2.7959229e-42)
(0.00084489868 8.4726762e-05 -3.4745348e-23 0.00032570316 -2.1666987e-23 3.945593e-42)
(0.0006554437 6.3478785e-05 2.1836845e-23 0.00024545971 1.0076375e-23 2.8332752e-42)
(0.0005214428 4.3922749e-05 -3.6771093e-24 0.00017698154 -8.3388855e-24 4.7305102e-43)
(0.00042661249 2.8856907e-05 6.2908244e-24 0.00012171073 1.4096083e-23 2.4610228e-42)
(0.00035727951 1.9024323e-05 -1.2880595e-24 7.7640507e-05 1.3991025e-24 9.1387004e-44)
(0.00030766484 1.2235049e-05 -7.5980424e-25 4.5722824e-05 -3.4041195e-24 4.7518394e-43)
(0.00027023185 8.6627386e-06 -4.2091186e-25 2.1882626e-05 4.1061672e-24 1.2511886e-42)
(0.00024677847 4.299388e-06 -2.7257156e-25 8.4177191e-06 2.3435073e-25 7.7799138e-45)
(0.00022962973 2.5838722e-06 -1.6072488e-24 6.071263e-07 6.0975925e-25 1.1361518e-42)
(0.00043171478 0.00018183635 9.0716357e-24 0.00027930677 2.7902398e-24 3.7949429e-43)
(0.00046787208 0.00041094446 -3.0605427e-24 0.00085533679 4.1850508e-24 4.3432474e-43)
(0.00030308584 0.00034931137 9.7364565e-25 0.0013491513 2.9057717e-23 1.7777899e-42)
(0.00021832241 5.1081891e-05 9.0493565e-24 0.0020658112 -6.2495102e-23 3.713484e-42)
(0.00037253839 -0.00053654949 5.2413167e-23 0.0025272865 -1.590232e-22 1.3232471e-41)
(0.0010037546 -0.0012318872 2.0726726e-23 0.002553637 -3.6972764e-23 5.8015877e-43)
(0.0020552428 -0.0015642562 0 0.0020121824 0 0)
(0.0030108029 -0.0012050955 8.3750912e-23 0.0013112635 -7.9154027e-23 5.4461676e-42)
(0.0031290284 -0.00048801605 2.686784e-22 0.00095193467 -6.6505437e-23 2.565545e-41)
(0.0025870993 -1.4831446e-05 3.2325956e-22 0.00085012854 4.866771e-23 4.6734136e-41)
(0.0019337048 0.00014089396 -1.0114615e-23 0.00075160537 2.1996506e-23 8.9597565e-43)
(0.0014205622 0.00015679868 -3.2219923e-23 0.00061723253 -1.7243704e-24 1.2032993e-42)
(0.0010559875 0.00013024672 5.9227989e-24 0.0004820769 -5.8902056e-25 8.6303146e-44)
(0.00080265904 9.5595226e-05 7.6294933e-24 0.00036432562 1.0871217e-23 4.2203377e-43)
(0.00062687443 6.5264834e-05 -1.1343199e-23 0.00026653656 -1.0369323e-23 1.1525021e-42)
(0.00050359347 4.2255101e-05 6.1866827e-24 0.00018792546 8.4223977e-24 8.9361115e-43)
(0.00041547186 2.6993223e-05 -4.7687532e-25 0.00012657549 -1.9258596e-24 4.1402185e-44)
(0.00035040977 1.7575961e-05 9.3929077e-25 7.9351756e-05 9.0373422e-24 1.5456662e-42)
(0.00030300728 1.1566738e-05 -9.875619e-25 4.5992532e-05 1.5222845e-24 6.9234442e-44)
(0.00026659491 8.4806653e-06 -2.119551e-25 2.1726278e-05 1.842902e-25 2.4877706e-45)
(0.00024363941 4.3252045e-06 -9.9397498e-25 8.253208e-06 1.3601065e-24 3.7151784e-43)
(0.0002266103 2.6572404e-06 0 5.9062827e-07 0 0)
(0.00053846527 0.00019240643 4.1112834e-24 0.00028887846 1.2578917e-24 5.6266852e-44)
(0.00061729492 0.00049172416 3.1881958e-24 0.00090304589 -1.3612958e-24 1.602363e-43)
(0.00042726273 0.00048221548 -2.8787669e-24 0.0014695121 -7.8671436e-24 4.5543251e-44)
(0.00028785983 0.00022980794 2.465946e-25 0.0023461213 -1.354018e-22 1.0881659e-41)
(0.00034897176 -0.00039283136 4.5085061e-23 0.0030129715 -2.0244591e-22 1.6810938e-41)
(0.00091609442 -0.0012404289 -7.9091624e-23 0.0032134457 1.329592e-22 8.2754585e-42)
(0.0020690209 -0.0017978263 -1.4728276e-22 0.0026848459 1.736384e-22 1.3012402e-41)
(0.0033482054 -0.0015525613 -7.7967642e-22 0.0018361828 3.1903277e-22 1.9161247e-40)
(0.0039266596 -0.00065331184 -1.7213711e-22 0.0013759735 -3.844926e-24 8.6485526e-42)
(0.003395278 1.436528e-05 -5.1854838e-23 0.0012560825 2.4756645e-24 8.6549802e-43)
(0.0025455194 0.00024010063 7.6930535e-24 0.0011226344 -8.1317529e-25 3.1022709e-44)
(0.0018294573 0.00024093827 1.0995044e-22 0.00091754783 -2.6727576e-24 1.0080273e-41)
(0.0013318363 0.00019153538 -5.206758e-24 0.0007096146 -4.888892e-24 5.3042275e-44)
(0.00099233556 0.00013835336 -2.2874055e-23 0.00053396468 2.8521697e-23 4.5561949e-42)
(0.00076047683 9.3536369e-05 1.3458813e-23 0.00039228265 2.8939547e-23 2.5435312e-42)
(0.0006007862 5.9937093e-05 1.0322251e-23 0.00028118231 2.1279417e-23 2.4064729e-42)
(0.0004877389 3.7489224e-05 8.7166768e-25 0.00019448147 -2.361672e-24 4.8174667e-44)
(0.00040622761 2.3430202e-05 -2.8308018e-24 0.00012888454 -2.0742484e-23 5.0463883e-42)
(0.00034455359 1.5662173e-05 -2.6991119e-25 7.9600544e-05 -5.2484194e-25 1.5177301e-44)
(0.00029889296 1.0733123e-05 -8.6287383e-25 4.5531282e-05 3.7390285e-24 4.8145253e-43)
(0.00026330151 8.3149457e-06 0 2.1277451e-05 0 0)
(0.00024058537 4.4008167e-06 2.7348608e-24 7.9982547e-06 -2.9041531e-24 1.8613869e-42)
(0.00022360831 2.7454578e-06 1.2122904e-25 5.6979045e-07 -1.160279e-26 4.553003e-46)
(0.00066611557 0.00019632248 -1.0367452e-23 0.00030269124 -1.0123594e-24 8.679595e-43)
(0.00079070033 0.00056770627 3.2991913e-23 0.00094759619 2.1435632e-23 2.1916967e-42)
(0.00058254578 0.00062013129 -2.8579764e-24 0.0015804763 1.6959068e-23 1.2832618e-42)
(0.00039720799 0.00043838998 -5.5630447e-24 0.0026072225 4.4683725e-24 3.0083423e-43)
(0.00034717897 -0.00016926202 3.7393048e-23 0.0034845099 -2.1319442e-22 1.8571224e-41)
(0.00077156099 -0.0011152251 0 0.0038934099 0 0)
(0.0018917352 -0.0018974743 -4.1614715e-23 0.0034325114 5.7766188e-23 1.1476673e-42)
(0.003388279 -0.0018410698 -2.035336e-22 0.0024947486 4.7229609e-23 1.6666565e-41)
(0.0044198043 -0.00087390037 -7.5369493e-22 0.0020029718 1.339269e-22 1.3334761e-40)
(0.0042135376 -2.590824e-05 -8.3559088e-22 0.0018779893 9.5350978e-23 1.8102345e-40)
(0.0033206675 0.00035091184 1.904494e-22 0.0016930548 8.3301891e-23 1.3910296e-41)
(0.0023790882 0.00035628169 1.2871759e-22 0.0013673053 2.7652334e-23 8.5494993e-42)
(0.001695454 0.00027117991 -8.8263134e-23 0.0010416414 -2.7277505e-23 6.9026177e-42)
(0.0012386829 0.00019270582 3.8904463e-23 0.00077547144 3.7406167e-23 3.3240029e-42)
(0.00093152529 0.00012949088 -4.0085975e-23 0.00056846681 -4.3214547e-23 6.7628034e-42)
(0.00072296493 8.2383536e-05 -2.285105e-23 0.00041020262 -5.7126955e-23 1.0247505e-41)
(0.00057837271 5.060296e-05 1.1080558e-23 0.0002891052 2.8141143e-24 1.721854e-42)
(0.00047512468 3.0547185e-05 -1.7830689e-24 0.00019709226 -1.0380839e-23 8.3662546e-43)
(0.0003987142 1.9370017e-05 1.8671401e-24 0.00012880357 2.2956416e-23 7.3463206e-42)
(0.00033985171 1.3571722e-05 -1.0343422e-24 7.8567698e-05 -4.1006825e-24 7.6838231e-43)
(0.00029539554 1.0012278e-05 2.4658282e-24 4.44564e-05 -7.6498824e-24 2.3000373e-42)
(0.00026019264 8.2639378e-06 -2.4384671e-24 2.059491e-05 4.4539894e-24 1.9134373e-42)
(0.00023759947 4.5659189e-06 1.64762e-24 7.6756877e-06 -1.7322352e-24 8.5063416e-43)
(0.00022057597 2.855231e-06 1.066902e-25 5.4658828e-07 -8.3136193e-27 2.8339662e-46)
(0.00082661453 0.00018851542 -2.0543137e-24 0.00032157768 -7.7753465e-25 1.7053897e-44)
(0.00098867652 0.00063584427 2.5909951e-23 0.0009905827 1.230479e-23 1.6445534e-42)
(0.00076816936 0.00075854142 -2.4983428e-23 0.0016817335 -5.1523809e-23 1.7777124e-42)
(0.00055063101 0.00066849681 -2.4140348e-23 0.0028419408 -2.4278942e-22 3.2549886e-41)
(0.0003886513 0.00012686156 -1.1338969e-23 0.0039139194 7.6068108e-23 2.7357876e-42)
(0.00061285534 -0.00083992372 1.6325226e-22 0.0045456285 -4.7921072e-22 7.4019688e-41)
(0.0015480091 -0.0018091114 -4.2618805e-23 0.0042089023 7.3778857e-23 1.5423605e-42)
(0.0030983804 -0.0019908858 1.0884862e-21 0.0032436118 -6.3783704e-22 4.1091454e-40)
(0.0043737428 -0.0011437645 -1.2540405e-22 0.0028470983 -8.8409632e-23 1.0261339e-41)
(0.0047840799 -0.00017744714 -4.1260644e-22 0.0028556584 -2.5522352e-23 3.7366215e-41)
(0.0041215233 0.00034316337 1.0862355e-22 0.0025360132 1.4137805e-22 1.0052588e-41)
(0.003095779 0.00048365275 -3.7648683e-22 0.0020466609 -3.1408267e-23 5.3435604e-41)
(0.0021822671 0.00037128398 5.785927e-23 0.0015263756 4.724698e-23 2.798541e-42)
(0.0015626577 0.00025842367 8.1255958e-24 0.0011188295 -1.095329e-24 8.6898498e-44)
(0.0011529431 0.00017294713 -1.2182029e-23 0.00081391368 -5.0139173e-23 3.3615146e-42)
(0.00087852194 0.00010972923 -5.7611879e-24 0.00058787015 -4.8138037e-24 1.5873966e-43)
(0.00069158629 6.6375425e-05 2.8708479e-24 0.00041831101 7.8215967e-25 7.3612529e-44)
(0.00056104589 3.8686463e-05 -4.4369057e-24 0.00029126786 -2.1030587e-23 2.3583818e-42)
(0.00046534724 2.3151042e-05 0 0.00019607644 0 0)
(0.00039324684 1.5190435e-05 6.8242196e-25 0.00012666328 -2.497287e-24 6.287745e-44)
(0.00033610871 1.1788421e-05 2.2802463e-25 7.6478551e-05 -5.2318813e-25 4.8587013e-45)
(0.0002922699 9.5469177e-06 -4.4370872e-25 4.2893501e-05 6.9639682e-25 1.6535425e-44)
(0.00025724454 8.3982834e-06 -3.5941941e-25 1.9739937e-05 2.5848188e-26 9.4449048e-45)
(0.00023461009 4.8417132e-06 -3.1712746e-24 7.3072861e-06 2.4480336e-24 1.7302314e-42)
(0.00021747841 2.9899116e-06 -1.3874164e-24 5.2377897e-07 2.7786442e-25 4.4161686e-43)
(0.0010422567 0.00015699175 -3.0984498e-24 0.00034496508 -2.293182e-24 1.8208991e-43)
(0.0012154299 0.00069007499 -1.1712333e-23 0.0010331111 -3.2332624e-24 7.4534231e-43)
(0.00098353649 0.00089241169 6.9001292e-24 0.0017743441 1.6271091e-23 2.8481811e-43)
(0.00074964671 0.00091054493 4.4424484e-24 0.0030433531 2.6131776e-23 3.5857973e-43)
(0.00049138221 0.00047868996 6.063939e-24 0.0042817673 4.9379279e-22 7.7001367e-41)
(0.00049951405 -0.0004291079 -3.760805e-23 0.0051307495 2.246022e-22 1.20702e-41)
(0.0011367197 -0.0015142299 -4.2186189e-23 0.0049570294 9.8286218e-23 2.340109e-42)
(0.0025287489 -0.0019640734 -5.96068e-23 0.0040437906 4.0880984e-23 1.5856955e-42)
(0.0039530355 -0.0013553072 -1.0825953e-21 0.0038408398 2.1808155e-22 3.1861161e-40)
(0.0048050897 -0.00046032381 -7.1069751e-23 0.0042004705 2.2195824e-22 1.3216215e-41)
(0.004768584 0.00011401674 -4.5548242e-22 0.003794708 -1.3003934e-22 4.861937e-41)
(0.0039024516 0.00048508345 7.494309e-23 0.0030198027 -1.5531419e-24 1.6313968e-42)
(0.0028360616 0.0004820111 1.625941e-22 0.0022376686 8.2762483e-24 1.1663921e-41)
(0.0019962162 0.00033422835 -9.1839686e-24 0.0016060666 -2.437071e-23 4.1219012e-43)
(0.001444137 0.00022251985 2.650404e-23 0.0011546953 -6.3801769e-24 1.1827325e-42)
(0.0010793275 0.00014123939 8.7289194e-24 0.0008305653 7.26077e-23 7.0379034e-42)
(0.00083496972 8.4607505e-05 -1.6298601e-23 0.00059361201 8.0002944e-23 1.4504367e-41)
(0.00066769562 4.7560516e-05 9.6820665e-24 0.00041845343 3.8128299e-23 5.4869727e-42)
(0.00054815477 2.6475303e-05 3.3903949e-24 0.00028824112 4.2769191e-23 9.9643126e-42)
(0.0004588213 1.5802988e-05 -3.5125147e-25 0.00019201381 5.5646685e-25 2.7802942e-45)