# Force coefficients
# liftDir    : (0.000000e+00 1.000000e+00 0.000000e+00)
# dragDir    : (1.000000e+00 0.000000e+00 0.000000e+00)
# pitchAxis  : (0.000000e+00 0.000000e+00 1.000000e+00)
# magUInf    : 1.000000e+00
# lRef       : 1.000000e+00
# Aref       : 2.000000e+00
# CofR       : (0.000000e+00 0.000000e+00 0.000000e+00)
# Time       	Cm           	Cd           	Cl           	Cl(f)        	Cl(r)        	Cm	Cd	Cl	Cl(f)	Cl(r)
1.305824e-04	-7.531896e-07	2.414926e+04	2.538930e-02	1.269389e-02	1.269540e-02
2.872772e-04	-1.031223e-06	-1.202762e+04	-7.533974e-03	-3.768018e-03	-3.765956e-03
4.752991e-04	-9.154721e-07	5.980921e+03	1.612832e-03	8.055004e-04	8.073314e-04
7.008746e-04	-7.760544e-07	-2.963081e+03	-7.156670e-04	-3.586096e-04	-3.570575e-04
9.715406e-04	-6.519193e-07	1.469560e+03	-1.126254e-04	-5.696461e-05	-5.566077e-05
1.296322e-03	-5.259378e-07	-7.280151e+02	7.906901e-05	3.900857e-05	4.006044e-05
1.685984e-03	-4.098483e-07	3.593496e+02	-3.589502e-04	-1.798850e-04	-1.790653e-04
2.153360e-03	-3.083841e-07	-1.755228e+02	-4.067797e-05	-2.064737e-05	-2.003060e-05
2.713948e-03	-2.209761e-07	8.899253e+01	-1.509274e-04	-7.568469e-05	-7.524274e-05
3.386427e-03	-1.503301e-07	-4.209330e+01	-1.017629e-05	-5.238474e-06	-4.937813e-06
4.192748e-03	-9.678823e-08	2.218018e+01	-6.135342e-05	-3.077350e-05	-3.057992e-05
5.159551e-03	-5.934233e-08	-1.006511e+01	-1.989792e-05	-1.000830e-05	-9.889616e-06
6.319039e-03	-3.565658e-08	5.567581e+00	-3.072401e-05	-1.539766e-05	-1.532635e-05
7.708803e-03	-2.218339e-08	-2.398300e+00	-1.964184e-05	-9.843103e-06	-9.798736e-06
9.373721e-03	-1.549866e-08	1.433616e+00	-2.050680e-05	-1.026890e-05	-1.023790e-05
1.137095e-02	-1.264322e-08	-5.299929e-01	-1.684204e-05	-8.433661e-06	-8.408375e-06
1.376473e-02	-1.155522e-08	4.114214e-01	-1.604617e-05	-8.034639e-06	-8.011528e-06
1.663169e-02	-1.110313e-08	-7.082074e-02	-1.411811e-05	-7.070160e-06	-7.047954e-06
2.007004e-02	-1.079393e-08	1.607258e-01	-1.221021e-05	-6.115899e-06	-6.094311e-06
2.418739e-02	-1.047301e-08	4.155159e-02	-1.126391e-05	-5.642427e-06	-5.621481e-06
2.911574e-02	-1.010614e-08	9.736931e-02	-8.892097e-06	-4.456155e-06	-4.435943e-06
3.499989e-02	-9.670712e-09	6.622445e-02	-9.369721e-06	-4.694531e-06	-4.675190e-06
4.204368e-02	-9.206063e-09	7.763736e-02	-7.710821e-06	-3.864617e-06	-3.846204e-06
5.044681e-02	-8.654581e-09	6.710388e-02	-9.090296e-06	-4.553803e-06	-4.536494e-06
6.044210e-02	-8.063810e-09	6.691407e-02	-6.091273e-06	-3.053700e-06	-3.037573e-06
7.233524e-02	-7.393763e-09	6.108105e-02	-7.397924e-06	-3.706356e-06	-3.691568e-06
8.639077e-02	-6.691553e-09	5.692069e-02	-6.248290e-06	-3.130836e-06	-3.117453e-06
1.030018e-01	-5.922327e-09	5.109119e-02	-6.764571e-06	-3.388208e-06	-3.376363e-06
1.225018e-01	-5.129464e-09	4.623346e-02	-5.872450e-06	-2.941355e-06	-2.931096e-06
1.450018e-01	-4.190231e-09	4.176009e-02	-6.878740e-06	-3.443560e-06	-3.435180e-06
1.701488e-01	-2.452852e-09	3.783446e-02	-4.793854e-06	-2.399380e-06	-2.394474e-06
1.978105e-01	-5.662584e-10	3.433591e-02	-6.153249e-06	-3.077191e-06	-3.076058e-06
2.275212e-01	-2.415696e-10	3.149456e-02	-4.825328e-06	-2.412906e-06	-2.412423e-06
2.584204e-01	-2.505640e-10	2.917944e-02	-5.437233e-06	-2.718867e-06	-2.718366e-06
2.893195e-01	-6.033710e-11	2.743752e-02	-4.897345e-06	-2.448733e-06	-2.448612e-06
3.202187e-01	3.848299e-11	2.619723e-02	-5.115663e-06	-2.557793e-06	-2.557870e-06
3.511178e-01	1.140932e-10	2.542062e-02	-5.086814e-06	-2.543293e-06	-2.543521e-06
3.820170e-01	3.661736e-10	2.509393e-02	-4.830782e-06	-2.415025e-06	-2.415757e-06
4.129161e-01	1.204521e-09	2.518620e-02	-4.462589e-06	-2.230090e-06	-2.232499e-06
4.438153e-01	3.857502e-09	2.576308e-02	-4.144570e-06	-2.068427e-06	-2.076142e-06
4.747144e-01	1.037907e-08	2.714703e-02	-4.052723e-06	-2.015982e-06	-2.036740e-06
5.056136e-01	2.311993e-08	2.994031e-02	-2.712249e-06	-1.333005e-06	-1.379245e-06
5.365127e-01	5.697783e-08	3.607406e-02	-4.939872e-06	-2.412958e-06	-2.526914e-06
5.674119e-01	4.493799e-08	4.603845e-02	-1.618583e-06	-7.643534e-07	-8.542294e-07
5.983110e-01	1.090819e-08	5.136693e-02	-3.793592e-06	-1.885888e-06	-1.907704e-06
6.292102e-01	-7.467984e-09	5.470330e-02	-3.619999e-06	-1.817468e-06	-1.802532e-06
6.601093e-01	-1.310931e-08	5.723980e-02	-1.750906e-06	-8.885621e-07	-8.623435e-07
6.910085e-01	-1.221314e-08	5.806564e-02	-2.871378e-06	-1.447902e-06	-1.423476e-06
7.219076e-01	-1.093198e-08	5.869701e-02	-2.249540e-06	-1.135702e-06	-1.113838e-06
7.528068e-01	-1.067465e-08	5.874609e-02	-1.495488e-06	-7.584188e-07	-7.370695e-07
7.837059e-01	-9.749807e-09	5.874882e-02	-2.136119e-06	-1.077809e-06	-1.058310e-06
8.146051e-01	-7.872853e-09	5.862215e-02	-1.628234e-06	-8.219897e-07	-8.062440e-07
8.455042e-01	-8.974856e-09	5.871100e-02	-1.513533e-06	-7.657412e-07	-7.477915e-07
8.764034e-01	-7.360951e-09	5.888418e-02	-1.673696e-06	-8.442087e-07	-8.294868e-07
9.073025e-01	-4.726558e-09	5.914495e-02	-1.284865e-06	-6.471590e-07	-6.377059e-07
9.382017e-01	-7.359249e-09	5.926972e-02	-1.059527e-06	-5.371228e-07	-5.224043e-07
9.691008e-01	-7.392190e-09	5.967751e-02	-1.093093e-06	-5.539387e-07	-5.391543e-07
1.000000e+00	-5.657924e-09	6.002842e-02	-9.889415e-07	-5.001287e-07	-4.888128e-07
1.032258e+00	-2.555843e-09	6.035286e-02	-7.126772e-07	-3.588945e-07	-3.537828e-07
1.064516e+00	-5.149275e-09	6.083967e-02	-8.337029e-07	-4.220007e-07	-4.117022e-07
1.096774e+00	-6.529183e-09	6.150477e-02	-5.906541e-07	-3.018562e-07	-2.887979e-07
1.129032e+00	-7.624525e-09	6.228480e-02	-5.136519e-07	-2.644505e-07	-2.492014e-07
1.161290e+00	-5.905744e-09	6.317379e-02	-4.364092e-07	-2.241104e-07	-2.122989e-07
1.193548e+00	-4.060056e-09	6.408459e-02	-3.986460e-07	-2.033830e-07	-1.952629e-07
1.225806e+00	-3.559872e-09	6.504919e-02	-3.095543e-07	-1.583370e-07	-1.512173e-07
1.258065e+00	-4.370190e-09	6.615606e-02	-2.038824e-07	-1.063114e-07	-9.757102e-08
1.290323e+00	-5.063774e-09	6.739566e-02	-1.608181e-07	-8.547282e-08	-7.534527e-08
1.322581e+00	-6.420041e-09	6.891796e-02	-9.397021e-08	-5.340514e-08	-4.056506e-08
1.354839e+00	-6.024927e-09	7.054511e-02	-2.661483e-10	-6.158001e-09	5.891853e-09
1.387097e+00	-6.765696e-09	7.234549e-02	-4.894265e-08	-3.123702e-08	-1.770563e-08
1.419355e+00	-4.020753e-09	7.427002e-02	1.326428e-07	6.230064e-08	7.034215e-08
1.451613e+00	-3.035140e-09	7.648824e-02	6.775637e-08	3.084305e-08	3.691333e-08
1.483871e+00	-2.698459e-09	7.857061e-02	1.453736e-07	6.998834e-08	7.538525e-08
1.516129e+00	-2.286126e-09	8.038464e-02	2.232093e-07	1.093185e-07	1.138908e-07
1.548387e+00	-2.978312e-09	8.265310e-02	2.334827e-07	1.137630e-07	1.197197e-07
1.580645e+00	-3.650560e-09	8.539182e-02	2.972277e-07	1.449633e-07	1.522644e-07
1.612903e+00	-4.502647e-09	8.776413e-02	3.191211e-07	1.550579e-07	1.640632e-07
1.645161e+00	-5.177894e-09	9.079009e-02	3.311995e-07	1.604218e-07	1.707776e-07
1.677419e+00	-5.608107e-09	9.380380e-02	4.773489e-07	2.330663e-07	2.442826e-07
1.709677e+00	-5.700992e-09	9.723132e-02	4.243162e-07	2.064571e-07	2.178591e-07
1.741935e+00	-5.536629e-09	1.008004e-01	4.984075e-07	2.436671e-07	2.547404e-07
1.774194e+00	-5.142097e-09	1.049181e-01	5.096303e-07	2.496730e-07	2.599572e-07
1.806452e+00	-4.682952e-09	1.083854e-01	5.619675e-07	2.763008e-07	2.856667e-07
1.838710e+00	-4.185536e-09	1.122839e-01	7.366835e-07	3.641562e-07	3.725273e-07
1.870968e+00	-3.664501e-09	1.156557e-01	5.026554e-07	2.476632e-07	2.549922e-07
1.903226e+00	-3.326657e-09	1.192180e-01	7.277670e-07	3.605568e-07	3.672101e-07
1.935484e+00	-2.947937e-09	1.235776e-01	6.252453e-07	3.096747e-07	3.155706e-07
1.967742e+00	-2.857259e-09	1.282314e-01	7.440287e-07	3.691571e-07	3.748716e-07
2.000000e+00	-2.593321e-09	1.330510e-01	7.520243e-07	3.734188e-07	3.786055e-07
2.035714e+00	-2.903070e-09	1.372486e-01	8.999143e-07	4.470541e-07	4.528602e-07
2.071429e+00	-2.533746e-09	1.425919e-01	7.567812e-07	3.758569e-07	3.809244e-07
2.107143e+00	-3.535184e-09	1.487765e-01	8.094407e-07	4.011852e-07	4.082555e-07
2.142857e+00	-2.558080e-09	1.549197e-01	7.989303e-07	3.969071e-07	4.020232e-07
2.178571e+00	-4.855409e-09	1.626436e-01	9.168913e-07	4.535902e-07	4.633011e-07
2.214286e+00	-2.397514e-09	1.679330e-01	8.617333e-07	4.284691e-07	4.332642e-07
2.250000e+00	-6.984121e-09	1.747892e-01	9.145548e-07	4.502933e-07	4.642615e-07
2.285714e+00	-3.373252e-09	1.809644e-01	9.889298e-07	4.910917e-07	4.978382e-07
2.321429e+00	-8.131940e-09	1.894463e-01	8.665305e-07	4.251333e-07	4.413972e-07
2.357143e+00	-1.068944e-08	1.959022e-01	1.029309e-06	5.039652e-07	5.253441e-07
2.392857e+00	-6.630183e-09	2.042695e-01	9.426602e-07	4.646999e-07	4.779603e-07
2.428571e+00	-5.889363e-09	2.118059e-01	1.079027e-06	5.336241e-07	5.454029e-07
2.464286e+00	-4.777668e-09	2.213803e-01	9.482235e-07	4.693341e-07	4.788894e-07
2.500000e+00	-4.533180e-09	2.297753e-01	1.096867e-06	5.439005e-07	5.529669e-07
2.535714e+00	-4.704223e-09	2.383834e-01	1.007012e-06	4.988018e-07	5.082102e-07
2.571429e+00	-5.413334e-09	2.469119e-01	1.115992e-06	5.525827e-07	5.634094e-07
2.607143e+00	-5.346976e-09	2.559967e-01	1.057598e-06	5.234521e-07	5.341460e-07
2.642857e+00	-5.806183e-09	2.648203e-01	1.148304e-06	5.683459e-07	5.799582e-07
2.678571e+00	-5.693577e-09	2.753077e-01	1.127347e-06	5.579800e-07	5.693671e-07
2.714286e+00	-5.980170e-09	2.858856e-01	1.181341e-06	5.846904e-07	5.966507e-07
2.750000e+00	-5.935715e-09	2.932602e-01	1.177567e-06	5.828476e-07	5.947190e-07
2.785714e+00	-6.246810e-09	3.050103e-01	1.357763e-06	6.726347e-07	6.851283e-07
2.821429e+00	-6.346204e-09	3.132233e-01	1.159122e-06	5.732147e-07	5.859071e-07
2.857143e+00	-6.704345e-09	3.246818e-01	1.235496e-06	6.110438e-07	6.244525e-07
2.892857e+00	-6.984252e-09	3.350950e-01	1.127069e-06	5.565504e-07	5.705189e-07
2.928571e+00	-7.267834e-09	3.454997e-01	1.368394e-06	6.769294e-07	6.914650e-07
2.964286e+00	-7.601066e-09	3.592894e-01	1.210417e-06	5.976076e-07	6.128097e-07
3.000000e+00	-7.877760e-09	3.675394e-01	1.336828e-06	6.605362e-07	6.762918e-07
3.037037e+00	-8.227366e-09	3.791715e-01	1.280314e-06	6.319295e-07	6.483842e-07
3.074074e+00	-8.412255e-09	3.903652e-01	1.269252e-06	6.262138e-07	6.430383e-07
3.111111e+00	-8.633018e-09	4.028299e-01	1.452871e-06	7.178026e-07	7.350686e-07
3.148148e+00	-8.704622e-09	4.126905e-01	1.355506e-06	6.690485e-07	6.864577e-07
3.185185e+00	-8.786757e-09	4.247306e-01	1.324598e-06	6.535123e-07	6.710858e-07
3.222222e+00	-8.791028e-09	4.363622e-01	1.575367e-06	7.788924e-07	7.964744e-07
3.259259e+00	-8.776328e-09	4.519809e-01	1.437178e-06	7.098127e-07	7.273654e-07
3.296296e+00	-8.612723e-09	4.616508e-01	1.481315e-06	7.320449e-07	7.492703e-07
3.333333e+00	-8.481626e-09	4.757367e-01	1.463699e-06	7.233677e-07	7.403310e-07
3.370370e+00	-8.116133e-09	4.875165e-01	1.354557e-06	6.691625e-07	6.853948e-07
3.407407e+00	-7.754867e-09	4.993873e-01	1.723682e-06	8.540859e-07	8.695957e-07
3.444444e+00	-7.380781e-09	5.128092e-01	1.432483e-06	7.088609e-07	7.236225e-07
3.481481e+00	-6.730455e-09	5.240891e-01	1.593395e-06	7.899671e-07	8.034280e-07
3.518519e+00	-6.256580e-09	5.372294e-01	1.528754e-06	7.581204e-07	7.706335e-07
3.555556e+00	-5.741025e-09	5.480065e-01	1.649639e-06	8.190782e-07	8.305603e-07
3.592593e+00	-5.408018e-09	5.608531e-01	1.487832e-06	7.385082e-07	7.493242e-07
3.629630e+00	-5.171746e-09	5.707970e-01	1.711124e-06	8.503903e-07	8.607338e-07
3.666667e+00	-5.095099e-09	5.829958e-01	1.568584e-06	7.791969e-07	7.893871e-07
3.703704e+00	-5.028861e-09	5.938584e-01	1.643462e-06	8.167020e-07	8.267597e-07
3.740741e+00	-5.094603e-09	6.026455e-01	1.494759e-06	7.422851e-07	7.524743e-07
3.777778e+00	-5.087425e-09	6.143103e-01	2.102432e-06	1.046128e-06	1.056303e-06
3.814815e+00	-5.234373e-09	6.230960e-01	1.485579e-06	7.375551e-07	7.480238e-07
3.851852e+00	-5.197544e-09	6.325541e-01	1.827769e-06	9.086871e-07	9.190822e-07
3.888889e+00	-5.297267e-09	6.414938e-01	1.805361e-06	8.973834e-07	9.079779e-07
3.925926e+00	-5.344858e-09	6.461912e-01	1.695745e-06	8.425276e-07	8.532173e-07
3.962963e+00	-5.375546e-09	6.561554e-01	1.827751e-06	9.085002e-07	9.192513e-07
4.000000e+00	-5.692418e-09	6.596634e-01	2.061487e-06	1.025051e-06	1.036436e-06
4.037037e+00	-5.534242e-09	6.631687e-01	1.473263e-06	7.310973e-07	7.421658e-07
4.074074e+00	-5.916221e-09	6.695042e-01	1.949506e-06	9.688367e-07	9.806692e-07
4.111111e+00	-5.527614e-09	6.727118e-01	1.788636e-06	8.887905e-07	8.998457e-07
4.148148e+00	-5.383063e-09	6.777964e-01	1.851787e-06	9.205103e-07	9.312765e-07
4.185185e+00	-5.151810e-09	6.803083e-01	1.706054e-06	8.478750e-07	8.581786e-07
4.222222e+00	-4.996908e-09	6.877064e-01	2.460614e-06	1.225310e-06	1.235304e-06
4.259259e+00	-4.888756e-09	6.836197e-01	1.318353e-06	6.542875e-07	6.640650e-07
4.296296e+00	-4.816618e-09	6.863838e-01	2.236883e-06	1.113625e-06	1.123258e-06
4.333333e+00	-4.764800e-09	6.860265e-01	1.792545e-06	8.915077e-07	9.010373e-07
4.370370e+00	-4.730237e-09	6.853075e-01	2.049546e-06	1.020043e-06	1.029503e-06
4.407407e+00	-4.662751e-09	6.843586e-01	1.732805e-06	8.617397e-07	8.710653e-07
4.444444e+00	-4.603374e-09	6.812359e-01	2.158394e-06	1.074593e-06	1.083800e-06
4.481481e+00	-4.552898e-09	6.804227e-01	1.906407e-06	9.486505e-07	9.577563e-07
4.518519e+00	-4.488408e-09	6.776541e-01	2.179609e-06	1.085316e-06	1.094293e-06
4.555556e+00	-4.519303e-09	6.751134e-01	1.820172e-06	9.055669e-07	9.146055e-07
4.592593e+00	-4.317432e-09	6.678143e-01	1.975937e-06	9.836511e-07	9.922860e-07
4.629630e+00	-4.523496e-09	6.645079e-01	2.198185e-06	1.094569e-06	1.103616e-06
4.666667e+00	-4.090077e-09	6.597951e-01	1.987595e-06	9.897072e-07	9.978874e-07
4.703704e+00	-4.386535e-09	6.544852e-01	2.410737e-06	1.200982e-06	1.209755e-06
4.740741e+00	-4.630230e-09	6.508393e-01	2.058518e-06	1.024629e-06	1.033889e-06
4.777778e+00	-4.445114e-09	6.457749e-01	2.208942e-06	1.100026e-06	1.108916e-06
4.814815e+00	-4.584256e-09	6.454940e-01	2.178090e-06	1.084461e-06	1.093629e-06
4.851852e+00	-4.609416e-09	6.401402e-01	2.161792e-06	1.076286e-06	1.085505e-06
4.888889e+00	-4.691804e-09	6.386143e-01	2.286804e-06	1.138710e-06	1.148094e-06
4.925926e+00	-4.734773e-09	6.345452e-01	2.093228e-06	1.041879e-06	1.051349e-06
4.962963e+00	-4.776906e-09	6.311504e-01	1.696432e-06	8.434390e-07	8.529928e-07
5.000000e+00	-4.828326e-09	6.260072e-01	2.676092e-06	1.333218e-06	1.342874e-06
5.038462e+00	-4.882844e-09	6.245716e-01	2.135650e-06	1.062942e-06	1.072708e-06
5.076923e+00	-4.955412e-09	6.198180e-01	2.214056e-06	1.102073e-06	1.111984e-06
5.115385e+00	-5.025508e-09	6.174147e-01	2.659688e-06	1.324819e-06	1.334870e-06
5.153846e+00	-5.102335e-09	6.155901e-01	2.028712e-06	1.009254e-06	1.019458e-06
5.192308e+00	-5.102718e-09	6.126320e-01	2.743988e-06	1.366891e-06	1.377097e-06
5.230769e+00	-5.181730e-09	6.115267e-01	2.222712e-06	1.106174e-06	1.116538e-06
5.269231e+00	-5.266445e-09	6.088090e-01	1.804768e-06	8.971175e-07	9.076504e-07
5.307692e+00	-5.267271e-09	6.072228e-01	3.295498e-06	1.642482e-06	1.653016e-06
5.346154e+00	-5.336331e-09	6.057464e-01	2.054821e-06	1.022074e-06	1.032747e-06
5.384615e+00	-5.332690e-09	6.051781e-01	2.742728e-06	1.366031e-06	1.376697e-06
5.423077e+00	-5.389405e-09	6.039847e-01	2.220883e-06	1.105052e-06	1.115831e-06
5.461538e+00	-5.363725e-09	6.026842e-01	1.903505e-06	9.463888e-07	9.571163e-07
5.500000e+00	-5.361758e-09	6.030194e-01	2.664668e-06	1.326972e-06	1.337696e-06
5.538462e+00	-5.319523e-09	6.021607e-01	2.692782e-06	1.341071e-06	1.351710e-06
5.576923e+00	-5.332813e-09	6.021495e-01	2.056403e-06	1.022869e-06	1.033534e-06
5.615385e+00	-5.262314e-09	6.025662e-01	3.299072e-06	1.644274e-06	1.654798e-06
5.653846e+00	-5.317035e-09	6.046940e-01	2.326598e-06	1.157982e-06	1.168616e-06
5.692308e+00	-5.281830e-09	6.043718e-01	2.439620e-06	1.214528e-06	1.225092e-06
5.730769e+00	-5.299372e-09	6.036475e-01	3.060588e-06	1.524995e-06	1.535593e-06
5.769231e+00	-5.242670e-09	6.046971e-01	2.195869e-06	1.092692e-06	1.103177e-06
5.807692e+00	-5.242706e-09	6.050862e-01	3.154320e-06	1.571917e-06	1.582402e-06
5.846154e+00	-5.195906e-09	6.060968e-01	2.423897e-06	1.206753e-06	1.217144e-06
5.884615e+00	-5.191041e-09	6.068667e-01	2.832351e-06	1.410984e-06	1.421366e-06
5.923077e+00	-5.103690e-09	6.067666e-01	2.452364e-06	1.221078e-06	1.231286e-06
5.961538e+00	-5.122665e-09	6.078605e-01	3.105861e-06	1.547808e-06	1.558053e-06
6.000000e+00	-5.043317e-09	6.087876e-01	2.723865e-06	1.356889e-06	1.366976e-06
6.038462e+00	-5.075199e-09	6.086844e-01	2.805900e-06	1.397875e-06	1.408025e-06
6.076923e+00	-4.995643e-09	6.085192e-01	2.810029e-06	1.400019e-06	1.410010e-06
6.115385e+00	-5.000585e-09	6.079772e-01	2.689361e-06	1.339680e-06	1.349681e-06
6.153846e+00	-4.914506e-09	6.074168e-01	2.950584e-06	1.470378e-06	1.480207e-06
6.192308e+00	-4.942282e-09	6.063866e-01	2.830977e-06	1.410546e-06	1.420431e-06
6.230769e+00	-4.863036e-09	6.051439e-01	2.904880e-06	1.447577e-06	1.457303e-06
6.269231e+00	-4.912111e-09	6.034188e-01	3.157215e-06	1.573695e-06	1.583520e-06
6.307692e+00	-4.848362e-09	6.032659e-01	2.653235e-06	1.321769e-06	1.331466e-06
6.346154e+00	-4.876769e-09	6.005058e-01	2.998128e-06	1.494187e-06	1.503941e-06
6.384615e+00	-4.780576e-09	5.989375e-01	2.835340e-06	1.412890e-06	1.422451e-06
6.423077e+00	-4.779523e-09	5.961189e-01	3.075414e-06	1.532928e-06	1.542487e-06
6.461538e+00	-4.700142e-09	5.934222e-01	2.943544e-06	1.467072e-06	1.476472e-06
6.500000e+00	-4.719491e-09	5.904491e-01	3.014922e-06	1.502742e-06	1.512181e-06
6.538462e+00	-4.650093e-09	5.873071e-01	3.004849e-06	1.497775e-06	1.507075e-06
6.576923e+00	-4.655422e-09	5.843838e-01	2.964597e-06	1.477643e-06	1.486954e-06
6.615385e+00	-4.583406e-09	5.804796e-01	3.047091e-06	1.518962e-06	1.528129e-06
6.653846e+00	-4.562176e-09	5.763749e-01	2.994131e-06	1.492503e-06	1.501627e-06
6.692308e+00	-4.510158e-09	5.724532e-01	3.425718e-06	1.708349e-06	1.717369e-06
6.730769e+00	-4.447154e-09	5.678293e-01	2.796867e-06	1.393987e-06	1.402881e-06
6.769231e+00	-4.378132e-09	5.631297e-01	3.065900e-06	1.528572e-06	1.537328e-06
6.807692e+00	-4.221296e-09	5.582972e-01	3.148916e-06	1.570237e-06	1.578679e-06
6.846154e+00	-4.237691e-09	5.549836e-01	3.423128e-06	1.707326e-06	1.715802e-06
6.884615e+00	-3.997095e-09	5.498556e-01	2.804234e-06	1.398120e-06	1.406114e-06
6.923077e+00	-4.090822e-09	5.457104e-01	3.190110e-06	1.590964e-06	1.599146e-06
6.961538e+00	-3.738727e-09	5.412549e-01	3.037565e-06	1.515044e-06	1.522521e-06
7.000000e+00	-4.001806e-09	5.369999e-01	3.102584e-06	1.547290e-06	1.555294e-06
7.040000e+00	-3.515362e-09	5.326348e-01	3.143801e-06	1.568385e-06	1.575416e-06
7.080000e+00	-4.005246e-09	5.283691e-01	3.097790e-06	1.544890e-06	1.552900e-06
7.120000e+00	-3.243446e-09	5.243659e-01	3.132452e-06	1.562982e-06	1.569469e-06
7.160000e+00	-4.073942e-09	5.204118e-01	3.114557e-06	1.553204e-06	1.561352e-06
7.200000e+00	-2.869545e-09	5.164992e-01	3.108348e-06	1.551305e-06	1.557044e-06
7.240000e+00	-4.324689e-09	5.138395e-01	3.043443e-06	1.517397e-06	1.526046e-06
7.280000e+00	-2.381275e-09	5.105727e-01	3.366795e-06	1.681016e-06	1.685779e-06
7.320000e+00	-4.809857e-09	5.080371e-01	3.199642e-06	1.595011e-06	1.604631e-06
7.360000e+00	-1.609574e-09	5.059413e-01	3.038091e-06	1.517436e-06	1.520655e-06
7.400000e+00	-5.422282e-09	5.033896e-01	3.220409e-06	1.604782e-06	1.615627e-06
7.440000e+00	-1.312459e-09	5.005269e-01	3.217530e-06	1.607452e-06	1.610077e-06
7.480000e+00	-5.666032e-09	4.990345e-01	2.971935e-06	1.480301e-06	1.491633e-06
7.520000e+00	-2.343799e-09	4.988111e-01	3.150964e-06	1.573138e-06	1.577826e-06
7.560000e+00	-4.945133e-09	4.962562e-01	3.078397e-06	1.534253e-06	1.544143e-06
7.600000e+00	-3.151593e-09	4.967764e-01	3.204964e-06	1.599330e-06	1.605634e-06
7.640000e+00	-3.805375e-09	4.964884e-01	3.011379e-06	1.501884e-06	1.509495e-06
7.680000e+00	-3.798630e-09	4.967664e-01	3.463750e-06	1.728076e-06	1.735673e-06
7.720000e+00	-3.203580e-09	4.974050e-01	2.706697e-06	1.350145e-06	1.356552e-06
7.760000e+00	-3.909020e-09	4.979195e-01	3.320868e-06	1.656525e-06	1.664343e-06
7.800000e+00	-3.177455e-09	4.990096e-01	2.984529e-06	1.489087e-06	1.495442e-06
7.840000e+00	-3.769204e-09	5.002177e-01	3.301621e-06	1.647041e-06	1.654580e-06
7.880000e+00	-3.435129e-09	5.015394e-01	2.884400e-06	1.438765e-06	1.445635e-06
7.920000e+00	-3.661547e-09	5.031300e-01	3.270140e-06	1.631408e-06	1.638732e-06
7.960000e+00	-3.681438e-09	5.059664e-01	3.004977e-06	1.498807e-06	1.506170e-06
8.000000e+00	-3.648148e-09	5.078876e-01	3.092877e-06	1.542790e-06	1.550086e-06
8.040000e+00	-3.825174e-09	5.106582e-01	3.170644e-06	1.581497e-06	1.589147e-06
8.080000e+00	-3.729470e-09	5.130998e-01	2.931037e-06	1.461789e-06	1.469248e-06
8.120000e+00	-3.806504e-09	5.141429e-01	3.103143e-06	1.547765e-06	1.555378e-06
8.160000e+00	-3.760982e-09	5.188577e-01	3.210452e-06	1.601465e-06	1.608987e-06
8.200000e+00	-3.793261e-09	5.211149e-01	2.892363e-06	1.442388e-06	1.449975e-06
8.240000e+00	-3.852455e-09	5.243152e-01	2.972470e-06	1.482383e-06	1.490088e-06
8.280000e+00	-3.790351e-09	5.271453e-01	3.050996e-06	1.521708e-06	1.529288e-06
8.320000e+00	-3.900819e-09	5.302179e-01	2.965106e-06	1.478652e-06	1.486454e-06
8.360000e+00	-3.848100e-09	5.331259e-01	2.972621e-06	1.482462e-06	1.490159e-06
8.400000e+00	-3.984564e-09	5.359955e-01	2.931823e-06	1.461927e-06	1.469896e-06
8.440000e+00	-3.930130e-09	5.386603e-01	2.916577e-06	1.454359e-06	1.462219e-06
8.480000e+00	-4.002047e-09	5.412349e-01	2.866761e-06	1.429379e-06	1.437383e-06
8.520000e+00	-3.929631e-09	5.434668e-01	2.849576e-06	1.420858e-06	1.428718e-06
8.560000e+00	-4.001818e-09	5.453679e-01	2.742297e-06	1.367147e-06	1.375150e-06
8.600000e+00	-3.913628e-09	5.477161e-01	2.855102e-06	1.423637e-06	1.431464e-06
8.640000e+00	-3.960179e-09	5.510032e-01	3.324479e-06	1.658279e-06	1.666200e-06
8.680000e+00	-3.935015e-09	5.535648e-01	2.740360e-06	1.366245e-06	1.374115e-06
8.720000e+00	-4.034291e-09	5.558057e-01	2.517591e-06	1.254761e-06	1.262830e-06
8.760000e+00	-3.906369e-09	5.565475e-01	2.533153e-06	1.262670e-06	1.270483e-06
8.800000e+00	-3.966702e-09	5.567115e-01	2.843485e-06	1.417776e-06	1.425709e-06
8.840000e+00	-3.830834e-09	5.562688e-01	2.828403e-06	1.410371e-06	1.418032e-06
8.880000e+00	-3.884837e-09	5.570763e-01	2.316934e-06	1.154582e-06	1.162352e-06
8.920000e+00	-3.713353e-09	5.576225e-01	2.389828e-06	1.191201e-06	1.198628e-06
8.960000e+00	-3.736901e-09	5.579331e-01	2.360433e-06	1.176480e-06	1.183953e-06
9.000000e+00	-3.624301e-09	5.573511e-01	2.579530e-06	1.286141e-06	1.293389e-06
9.040000e+00	-3.684983e-09	5.560325e-01	2.173932e-06	1.083281e-06	1.090651e-06
9.080000e+00	-3.571659e-09	5.537537e-01	2.465784e-06	1.229320e-06	1.236463e-06
9.120000e+00	-3.598793e-09	5.515259e-01	2.110367e-06	1.051585e-06	1.058782e-06
9.160000e+00	-3.463529e-09	5.495168e-01	2.156727e-06	1.074900e-06	1.081827e-06
9.200000e+00	-3.489019e-09	5.470460e-01	1.985479e-06	9.892503e-07	9.962283e-07
9.240000e+00	-3.344101e-09	5.445621e-01	1.983963e-06	9.886372e-07	9.953254e-07
9.280000e+00	-3.342738e-09	5.416605e-01	1.854209e-06	9.237619e-07	9.304474e-07
9.320000e+00	-3.161280e-09	5.383940e-01	1.786530e-06	8.901038e-07	8.964264e-07
9.360000e+00	-3.107458e-09	5.345908e-01	1.697716e-06	8.457504e-07	8.519653e-07
9.400000e+00	-2.901586e-09	5.309887e-01	1.678809e-06	8.365029e-07	8.423061e-07
9.440000e+00	-2.824435e-09	5.271686e-01	1.560562e-06	7.774564e-07	7.831053e-07
9.480000e+00	-2.609396e-09	5.231691e-01	1.493892e-06	7.443364e-07	7.495552e-07
9.520000e+00	-2.527857e-09	5.187064e-01	1.387111e-06	6.910275e-07	6.960832e-07
9.560000e+00	-2.317245e-09	5.146420e-01	1.334362e-06	6.648636e-07	6.694981e-07
9.600000e+00	-2.245284e-09	5.103713e-01	1.221042e-06	6.082759e-07	6.127664e-07
9.640000e+00	-2.029661e-09	5.061255e-01	1.152238e-06	5.740892e-07	5.781486e-07
9.680000e+00	-1.962916e-09	5.015117e-01	1.054294e-06	5.251842e-07	5.291100e-07
9.720000e+00	-1.755266e-09	4.973981e-01	9.506330e-07	4.735612e-07	4.770718e-07
9.760000e+00	-1.709974e-09	4.930918e-01	8.955478e-07	4.460639e-07	4.494839e-07
9.800000e+00	-1.499213e-09	4.889442e-01	7.973245e-07	3.971630e-07	4.001614e-07
9.840000e+00	-1.499549e-09	4.847791e-01	7.175653e-07	3.572831e-07	3.602822e-07
9.880000e+00	-1.306497e-09	4.809981e-01	6.155371e-07	3.064620e-07	3.090750e-07
9.920000e+00	-1.264125e-09	4.776384e-01	5.002767e-07	2.488742e-07	2.514025e-07
9.960000e+00	-1.126166e-09	4.735596e-01	4.327022e-07	2.152249e-07	2.174773e-07
1.000000e+01	-1.112226e-09	4.704123e-01	3.490498e-07	1.734127e-07	1.756371e-07
1.004000e+01	-9.829416e-10	4.672456e-01	1.700935e-07	8.406381e-08	8.602970e-08
1.008000e+01	-9.655303e-10	4.644722e-01	2.463781e-07	1.222235e-07	1.241546e-07
1.012000e+01	-8.775147e-10	4.613006e-01	2.857401e-07	1.419925e-07	1.437476e-07
1.016000e+01	-8.911086e-10	4.593971e-01	-7.187004e-08	-3.682613e-08	-3.504391e-08
1.020000e+01	-8.201643e-10	4.573292e-01	-4.316431e-08	-2.240232e-08	-2.076199e-08
1.024000e+01	-8.675931e-10	4.556807e-01	-1.749419e-07	-8.833855e-08	-8.660336e-08
1.028000e+01	-7.732193e-10	4.542092e-01	-3.599183e-07	-1.807324e-07	-1.791859e-07
1.032000e+01	-8.211670e-10	4.530839e-01	-3.097996e-07	-1.557210e-07	-1.540786e-07
1.036000e+01	-7.383390e-10	4.521090e-01	-4.118410e-07	-2.066588e-07	-2.051822e-07
1.040000e+01	-7.842226e-10	4.515434e-01	-5.557034e-07	-2.786359e-07	-2.770675e-07
1.044000e+01	-6.853382e-10	4.511156e-01	-7.401231e-07	-3.707469e-07	-3.693762e-07
1.048000e+01	-7.149603e-10	4.509854e-01	-6.223539e-07	-3.118919e-07	-3.104620e-07
1.052000e+01	-6.523162e-10	4.508551e-01	-9.176314e-07	-4.594680e-07	-4.581634e-07
1.056000e+01	-7.029028e-10	4.511493e-01	-8.599881e-07	-4.306970e-07	-4.292912e-07
1.060000e+01	-6.396964e-10	4.522410e-01	-9.448043e-07	-4.730419e-07	-4.717625e-07
1.064000e+01	-6.837436e-10	4.525223e-01	-1.016656e-06	-5.090116e-07	-5.076441e-07
1.068000e+01	-6.387267e-10	4.535720e-01	-1.118064e-06	-5.596709e-07	-5.583935e-07
1.072000e+01	-6.803207e-10	4.545267e-01	-1.197339e-06	-5.993500e-07	-5.979894e-07
1.076000e+01	-6.482053e-10	4.557336e-01	-1.281409e-06	-6.413527e-07	-6.400563e-07
1.080000e+01	-6.900377e-10	4.570329e-01	-1.365753e-06	-6.835665e-07	-6.821864e-07
1.084000e+01	-6.767063e-10	4.584331e-01	-1.451724e-06	-7.265388e-07	-7.251854e-07
1.088000e+01	-7.198487e-10	4.599317e-01	-1.675234e-06	-8.383370e-07	-8.368973e-07
1.092000e+01	-7.090219e-10	4.614815e-01	-1.590394e-06	-7.959059e-07	-7.944878e-07
1.096000e+01	-7.483957e-10	4.631129e-01	-1.763116e-06	-8.823063e-07	-8.808096e-07
1.100000e+01	-7.509799e-10	4.647027e-01	-2.293004e-06	-1.147253e-06	-1.145751e-06
1.104000e+01	-7.816451e-10	4.662861e-01	-1.519600e-06	-7.605818e-07	-7.590186e-07
1.108000e+01	-8.027604e-10	4.677140e-01	-2.170802e-06	-1.086204e-06	-1.084598e-06
1.112000e+01	-8.058347e-10	4.700684e-01	-1.974768e-06	-9.881896e-07	-9.865780e-07
1.116000e+01	-8.284405e-10	4.713956e-01	-2.330526e-06	-1.166091e-06	-1.164434e-06
1.120000e+01	-8.438738e-10	4.731866e-01	-2.255845e-06	-1.128766e-06	-1.127078e-06
1.124000e+01	-8.594293e-10	4.742331e-01	-2.347670e-06	-1.174694e-06	-1.172976e-06
1.128000e+01	-8.452719e-10	4.755826e-01	-2.503272e-06	-1.252481e-06	-1.250791e-06
1.132000e+01	-8.572997e-10	4.764458e-01	-2.495993e-06	-1.248854e-06	-1.247139e-06
1.136000e+01	-8.059369e-10	4.780214e-01	-2.813051e-06	-1.407332e-06	-1.405720e-06
1.140000e+01	-8.129481e-10	4.790883e-01	-2.720395e-06	-1.361010e-06	-1.359385e-06
1.144000e+01	-7.511555e-10	4.799146e-01	-2.938515e-06	-1.470009e-06	-1.468506e-06
1.148000e+01	-7.429179e-10	4.807438e-01	-2.944273e-06	-1.472879e-06	-1.471394e-06
1.152000e+01	-6.729665e-10	4.813159e-01	-3.117755e-06	-1.559550e-06	-1.558204e-06
1.156000e+01	-6.658100e-10	4.817703e-01	-3.204964e-06	-1.603148e-06	-1.601816e-06
1.160000e+01	-5.682850e-10	4.819969e-01	-3.290000e-06	-1.645568e-06	-1.644431e-06
1.164000e+01	-5.499775e-10	4.822471e-01	-3.383152e-06	-1.692126e-06	-1.691026e-06
1.168000e+01	-4.273697e-10	4.822854e-01	-3.875830e-06	-1.938342e-06	-1.937488e-06
1.172000e+01	-3.853420e-10	4.821898e-01	-3.533190e-06	-1.766980e-06	-1.766210e-06
1.176000e+01	-2.349922e-10	4.819601e-01	-3.816068e-06	-1.908269e-06	-1.907799e-06
1.180000e+01	-1.912743e-10	4.816016e-01	-3.810542e-06	-1.905462e-06	-1.905080e-06
1.184000e+01	-1.352519e-11	4.811993e-01	-3.981812e-06	-1.990919e-06	-1.990892e-06
1.188000e+01	6.396499e-11	4.805757e-01	-4.070353e-06	-2.035112e-06	-2.035240e-06
1.192000e+01	2.887330e-10	4.799018e-01	-4.184582e-06	-2.092002e-06	-2.092580e-06
1.196000e+01	3.734010e-10	4.791001e-01	-4.818796e-06	-2.409024e-06	-2.409771e-06
1.200000e+01	6.195069e-10	4.781845e-01	-4.171434e-06	-2.085098e-06	-2.086337e-06
1.204167e+01	7.003434e-10	4.771515e-01	-4.595789e-06	-2.297194e-06	-2.298595e-06
1.208333e+01	9.596396e-10	4.760582e-01	-4.556601e-06	-2.277341e-06	-2.279260e-06
1.212500e+01	1.040300e-09	4.750197e-01	-4.761150e-06	-2.379535e-06	-2.381616e-06
1.216667e+01	1.315533e-09	4.736765e-01	-4.848698e-06	-2.423033e-06	-2.425664e-06
1.220833e+01	1.390808e-09	4.722891e-01	-4.994444e-06	-2.495831e-06	-2.498613e-06
1.225000e+01	1.687967e-09	4.709677e-01	-5.084048e-06	-2.540336e-06	-2.543712e-06
1.229167e+01	1.762476e-09	4.696842e-01	-5.246275e-06	-2.621375e-06	-2.624900e-06
1.233333e+01	2.079244e-09	4.683849e-01	-5.480301e-06	-2.738071e-06	-2.742230e-06
1.237500e+01	2.157052e-09	4.668370e-01	-5.417292e-06	-2.706489e-06	-2.710803e-06
1.241667e+01	2.455657e-09	4.661285e-01	-3.618587e-06	-1.806838e-06	-1.811749e-06
1.245833e+01	2.434901e-09	4.646611e-01	-7.043831e-06	-3.519481e-06	-3.524351e-06
1.250000e+01	2.796796e-09	4.637130e-01	-5.291222e-06	-2.642814e-06	-2.648408e-06
1.254167e+01	2.826582e-09	4.626983e-01	-6.022162e-06	-3.008255e-06	-3.013908e-06
1.258333e+01	3.144113e-09	4.615764e-01	-5.714867e-06	-2.854289e-06	-2.860577e-06
1.262500e+01	3.153475e-09	4.607157e-01	-5.998688e-06	-2.996191e-06	-3.002498e-06
1.266667e+01	3.470914e-09	4.598146e-01	-5.705780e-06	-2.849419e-06	-2.856361e-06
1.270833e+01	3.441252e-09	4.591484e-01	-6.690644e-06	-3.341881e-06	-3.348763e-06
1.275000e+01	3.778070e-09	4.585968e-01	-6.013903e-06	-3.003173e-06	-3.010730e-06
1.279167e+01	3.748732e-09	4.581010e-01	-6.944129e-06	-3.468316e-06	-3.475813e-06
1.283333e+01	4.102044e-09	4.577445e-01	-5.996621e-06	-2.994208e-06	-3.002412e-06
1.287500e+01	4.078284e-09	4.574575e-01	-6.642365e-06	-3.317104e-06	-3.325261e-06