/*--------------------------------*- C++ -*----------------------------------*\
| =========                 |                                                 |
| \\      /  F ield         | OpenFOAM: The Open Source CFD Toolbox           |
|  \\    /   O peration     | Version:  5.0                                   |
|   \\  /    A nd           | Web:      www.OpenFOAM.org                      |
|    \\/     M anipulation  |                                                 |
\*---------------------------------------------------------------------------*/
FoamFile
{
    version     2.0;
    format      ascii;
    class       volScalarField;
    location    "75";
    object      p;
}
// * * * * * * * * * * * * * * * * * * * * * * * * * * * * * * * * * * * * * //

dimensions      [0 2 -2 0 0 0 0];

internalField   nonuniform List<scalar> 
9200
(
-0.00042665733
-0.00041934156
-0.00097615984
-0.00041158064
-0.00096254923
-0.0016656735
-0.00040021501
-0.00094176813
-0.0016426337
-0.0022933536
-0.00038557203
-0.00091232554
-0.0016082919
-0.0022640072
-0.0029457689
-0.00036927143
-0.00087446888
-0.0015601621
-0.002217538
-0.0029105347
-0.003583996
-0.00035062226
-0.00083160934
-0.0014982109
-0.0021530409
-0.0028530454
-0.0035450062
-0.0042235855
-0.0003309982
-0.00078255562
-0.0014275443
-0.0020694271
-0.0027738481
-0.0034787004
-0.0041824554
-0.0048566902
-0.00031047304
-0.00072975088
-0.0013469562
-0.0019734175
-0.002670229
-0.0033880782
-0.0041095095
-0.0048155431
-0.0054861929
-0.00028996013
-0.00067327566
-0.001260064
-0.001863452
-0.0025505314
-0.0032679237
-0.0040106452
-0.0047385178
-0.0054473002
-0.0061070267
-0.00027012633
-0.00061440843
-0.0011675403
-0.0017440918
-0.0024126712
-0.0031281838
-0.0038773512
-0.0046351559
-0.0053692843
-0.0060729478
-0.0067197236
-0.00025202471
-0.00055374713
-0.001071606
-0.0016163046
-0.0022621476
-0.002965812
-0.0037211172
-0.0044927725
-0.0052659263
-0.0059972965
-0.0066930785
-0.0073193259
-0.00023675567
-0.00049210834
-0.00097370852
-0.0014829271
-0.0021002719
-0.0027870429
-0.0035375927
-0.0043243584
-0.0051194586
-0.0058988448
-0.0066234785
-0.0073029048
-0.0079042364
-0.00022556346
-0.00042998868
-0.0008756169
-0.0013457831
-0.0019307043
-0.0025931996
-0.0033336186
-0.0041238284
-0.0049442723
-0.0057538209
-0.0065353366
-0.0072432416
-0.0079009153
-0.0084696478
-0.00021968934
-0.00036780459
-0.00077879838
-0.001206957
-0.0017559148
-0.0023884941
-0.0031104514
-0.0038984266
-0.0047321319
-0.0055779235
-0.0063979794
-0.0071711394
-0.00785531
-0.008482301
-0.009013191
-0.00021993636
-0.00030601342
-0.00068466094
-0.0010680771
-0.0015786493
-0.0021759194
-0.0028728207
-0.0036490772
-0.0044904583
-0.0053603061
-0.0062282572
-0.0070481843
-0.0078052639
-0.0084550396
-0.0090442932
-0.0095307893
-0.00022615527
-0.00024520034
-0.00059447743
-0.00093064865
-0.0014011485
-0.0019588541
-0.0026241794
-0.0033809044
-0.0042195876
-0.0051083071
-0.0060122754
-0.0068922272
-0.0077038978
-0.0084332526
-0.009039601
-0.0095829729
-0.010018973
-0.00023670435
-0.00018628656
-0.00050916921
-0.00079606016
-0.001225488
-0.0017400951
-0.0023685535
-0.0030976801
-0.0039248458
-0.0048213578
-0.0057570197
-0.0066858701
-0.007569898
-0.0083609994
-0.0090523648
-0.0096045438
-0.010094918
-0.010474125
-0.00024812063
-0.00013068214
-0.00042917218
-0.00066560164
-0.0010534451
-0.0015222276
-0.0021094311
-0.0028039684
-0.0036101789
-0.0045047491
-0.0054606978
-0.0064354473
-0.0073819518
-0.0082577057
-0.0090169342
-0.0096579941
-0.010146561
-0.010575921
-0.010893301
-0.00025528858
-8.0300096e-05
-0.00035434805
-0.00054058588
-0.00088643613
-0.0013074579
-0.0018500883
-0.0025038864
-0.0032806407
-0.004162403
-0.0051283134
-0.006137588
-0.0071454297
-0.0080977524
-0.0089534186
-0.0096671548
-0.010246371
-0.010661599
-0.011022812
-0.011273824
-0.00025217673
-3.7454639e-05
-0.00028401496
-0.00042237115
-0.00072556672
-0.0010975956
-0.0015933365
-0.0022014103
-0.0029409814
-0.0037997419
-0.0047635498
-0.0057967054
-0.0068550245
-0.0078852205
-0.0088315885
-0.0096527224
-0.010307742
-0.010812986
-0.011145788
-0.011432568
-0.011613404
-0.00023291603
-4.6146183e-06
-0.00021712824
-0.00031221825
-0.00057176712
-0.00089414048
-0.0013415315
-0.0019000251
-0.0025959248
-0.0034220748
-0.0043720367
-0.0054159865
-0.0065142407
-0.0076124857
-0.0086539318
-0.0095796382
-0.010351676
-0.010933833
-0.011353731
-0.01159551
-0.011802547
-0.011910203
-0.00019284844
1.6042021e-05
-0.00015249548
-0.00021115841
-0.00042590641
-0.00069852588
-0.0010965069
-0.001602733
-0.002249732
-0.0030348662
-0.0039595135
-0.0050010637
-0.0061254862
-0.0072818036
-0.0084101433
-0.0094485179
-0.010338153
-0.011045231
-0.011540823
-0.011864555
-0.012007714
-0.01213052
-0.012162929
-0.00012924911
2.3197875e-05
-8.8953863e-05
-0.00011984522
-0.00028870786
-0.00051237661
-0.00085952803
-0.0013120694
-0.0019061586
-0.0026432445
-0.0035320999
-0.0045579508
-0.0056941484
-0.0068944559
-0.0081008652
-0.0092460242
-0.010265708
-0.011102117
-0.011728356
-0.012123862
-0.012341586
-0.012379645
-0.012414767
-0.012370876
-4.169769e-05
1.6794038e-05
-2.5523017e-05
-3.8483101e-05
-0.00016051592
-0.0003370708
-0.000631589
-0.0010301097
-0.0015683796
-0.0022518914
-0.0030957593
-0.0040933453
-0.0052262985
-0.0064552849
-0.0077258818
-0.0089708214
-0.01011767
-0.011100804
-0.011866244
-0.012395536
-0.012678304
-0.012781063
-0.012709003
-0.012654145
-0.012533858
6.7768384e-05
-2.1126421e-06
3.8398745e-05
3.3123095e-05
-4.1150058e-05
-0.00017325166
-0.00041405984
-0.00075843446
-0.0012390294
-0.0018648872
-0.0026561284
-0.0036140255
-0.0047290487
-0.005970177
-0.0072891536
-0.0086207864
-0.0098903592
-0.011021046
-0.011948528
-0.012624523
-0.013041291
-0.013199618
-0.013179834
-0.012994008
-0.012848078
-0.012652097
0.00019527301
-3.2111267e-05
0.00010294005
9.5465485e-05
6.9832599e-05
-2.0987312e-05
-0.00020866427
-0.0004983079
-0.0009202564
-0.0014856555
-0.002218306
-0.0031266052
-0.0042098644
-0.0054464698
-0.0067960783
-0.0081986074
-0.0095793383
-0.010856495
-0.01195123
-0.012802601
-0.013370729
-0.013660059
-0.013683641
-0.013535228
-0.013233421
-0.012996469
-0.012726148
0.00033605766
-7.2108226e-05
0.0001688007
0.00014893101
0.00017314299
0.00011978655
-1.6671564e-05
-0.00025109824
-0.00061383513
-0.0011169975
-0.0017867315
-0.0026372426
-0.0036762931
-0.0048921823
-0.0062539638
-0.0077088273
-0.0091855985
-0.010599998
-0.011865062
-0.012902009
-0.01365624
-0.014098296
-0.014246517
-0.014126566
-0.013845084
-0.013426529
-0.013099587
-0.012756992
0.00048321042
-0.00011778441
0.00023779003
0.00019364507
0.00027040108
0.00024871231
0.00016168501
-1.8340221e-05
-0.00032142058
-0.00076121324
-0.0013651328
-0.0021514613
-0.0031355943
-0.0043156903
-0.0056711704
-0.0071584087
-0.0087124084
-0.010250397
-0.011679787
-0.012910328
-0.013866336
-0.014502
-0.014800698
-0.014795545
-0.014525087
-0.014107852
-0.013573103
-0.013158066
-0.012746119
0.00062856936
-0.00016191424
0.00031046073
0.00022999932
0.00036302979
0.00036550616
0.00032713584
0.00019860487
-4.4691274e-05
-0.00042035166
-0.00095656974
-0.0016740511
-0.0025944898
-0.003725306
-0.0050567494
-0.0065557926
-0.0081659976
-0.0098092176
-0.011391653
-0.012813923
-0.013985368
-0.014836134
-0.015332214
-0.015471398
-0.015302478
-0.014876419
-0.014322601
-0.013673417
-0.013173026
-0.012695258
0.00077109549
-0.00020028741
0.00038424917
0.00025975516
0.00045098749
0.00047064814
0.00048008279
0.00039887573
0.00021497369
-9.6530878e-05
-0.00056362517
-0.0012090545
-0.0020589801
-0.0031289557
-0.0044199609
-0.0059105065
-0.0075545515
-0.0092814965
-0.010999941
-0.012606028
-0.01399608
-0.015081837
-0.015802774
-0.016138921
-0.016104201
-0.015763078
-0.015178371
-0.014488766
-0.013728255
-0.013146137
-0.012605737
0.00092005474
-0.00023887572
0.00045191106
0.00029459419
0.00053342063
0.00056452112
0.00062041809
0.00058235684
0.00045656334
0.00020806603
-0.00018867884
-0.00075987966
-0.0015342722
-0.0025339377
-0.0037699032
-0.0052326111
-0.0068877966
-0.0086747496
-0.010507986
-0.012283174
-0.013888323
-0.015218107
-0.01619044
-0.016756976
-0.016914303
-0.01669322
-0.016173734
-0.015429274
-0.014606196
-0.013738839
-0.013079205
-0.012478836
0.0010693885
-0.00028354451
0.00051032792
0.00033614264
0.00060986573
0.00064754971
0.0007478007
0.00074932683
0.00067933209
0.00049171273
0.00016592347
-0.00032959092
-0.0010248109
-0.0019467707
-0.0031152055
-0.0045322794
-0.0061763866
-0.0079985471
-0.0099221388
-0.011846443
-0.013655403
-0.015231132
-0.016470467
-0.01730081
-0.017689315
-0.017650665
-0.017233167
-0.016531418
-0.015628092
-0.014675285
-0.013706307
-0.012973444
-0.012318108
0.0012138219
-0.00032904299
0.00056618777
0.0003642049
0.00068284954
0.00072782764
0.00086208563
0.00089973074
0.0008827521
0.00075342144
0.00049795021
7.8822208e-05
-0.00053446142
-0.0013731614
-0.0024638114
-0.0038194294
-0.0054314223
-0.0072638568
-0.0092513759
-0.011300464
-0.013295586
-0.015110571
-0.016625211
-0.017742068
-0.018402045
-0.018590215
-0.018340814
-0.017719348
-0.016833827
-0.01577438
-0.014696775
-0.013631917
-0.012830494
-0.012126255
0.0013485422
-0.00037361453
0.00062167996
0.00038249909
0.00074088207
0.00081221888
0.00096971161
0.0010336983
0.0010661122
0.00099266897
0.00080558624
0.00046253753
-6.6788164e-05
-0.00081811424
-0.0018228683
-0.0031034597
-0.004664026
-0.0064824957
-0.0085066073
-0.010653092
-0.012811177
-0.014851338
-0.016640352
-0.018059237
-0.019020813
-0.019482731
-0.019450409
-0.018978088
-0.018147847
-0.017079333
-0.015868244
-0.014671919
-0.013517608
-0.012653591
-0.011905602
0.0014691383
-0.00041593482
0.00067350455
0.00040078676
0.0007910424
0.00087412048
0.0010731374
0.0011604758
0.0012293241
0.001208604
0.0010875133
0.00081924175
0.00037477525
-0.00028617935
-0.0011987421
-0.0023930688
-0.0038850222
-0.0056666473
-0.0077000805
-0.0099147095
-0.012208308
-0.014452796
-0.016506974
-0.018233811
-0.019520343
-0.020293622
-0.020531451
-0.020261014
-0.019556603
-0.018515508
-0.017267013
-0.01591032
-0.01460237
-0.013365756
-0.012445142
-0.011658214
0.0015714263
-0.00045434799
0.00071979861
0.00041787004
0.00084083962
0.00092061752
0.0011490656
0.0012826487
0.0013835581
0.001400989
0.0013422062
0.0011471718
0.00078712791
0.00021837311
-0.00059717362
-0.0016962
-0.0031047105
-0.0048284727
-0.0068448257
-0.0090976116
-0.011496277
-0.0139187
-0.016220907
-0.018252668
-0.019877885
-0.020994119
-0.021546992
-0.021536928
-0.021013856
-0.02007129
-0.018820004
-0.017396604
-0.015901756
-0.014490121
-0.013178733
-0.012207613
-0.011386134
0.0016516781
-0.00048722743
0.00075978136
0.00043242994
0.0008886704
0.00096865101
0.0012133398
0.0013744242
0.0015304587
0.0015834255
0.0015691057
0.001444229
0.0011676662
0.00069166802
-2.348237e-05
-0.0010201084
-0.0023327413
-0.0039798444
-0.005954201
-0.0082153723
-0.010686927
-0.013256614
-0.015782854
-0.018107569
-0.020075861
-0.021557331
-0.022465194
-0.022767189
-0.022488419
-0.02170156
-0.020518011
-0.019059815
-0.017468496
-0.015844119
-0.014337391
-0.012959022
-0.011943345
-0.011091663
0.0017068542
-0.00051314546
0.00079275145
0.00044457794
0.00093144621
0.0010154074
0.0012775668
0.0014544122
0.001636347
0.0017573553
0.0017847943
0.001709296
0.0015134109
0.0011303382
0.00051745452
-0.00037150491
-0.0015781011
-0.0031321704
-0.0050415647
-0.0072823281
-0.0097939748
-0.012477327
-0.015197935
-0.017795511
-0.020101535
-0.021961132
-0.023255299
-0.023917462
-0.023940718
-0.023375886
-0.022317743
-0.020893571
-0.019234238
-0.017483664
-0.015739367
-0.014146605
-0.012709115
-0.011654703
-0.010777025
0.0017349163
-0.00053111708
0.00081804574
0.00045445998
0.00096834483
0.0010567863
0.0013399231
0.0015298337
0.0017279408
0.0018781731
0.001990777
0.0019619683
0.0018224898
0.0015304885
0.001021264
0.0002434685
-0.00084917658
-0.0022963294
-0.0041200648
-0.0063131705
-0.0088324181
-0.011594174
-0.014475191
-0.01731844
-0.019947615
-0.02218801
-0.023890727
-0.024953576
-0.025334622
-0.025054579
-0.024190262
-0.022857079
-0.02119578
-0.019343366
-0.017443627
-0.015589798
-0.013920322
-0.012431528
-0.011344015
-0.010444468
-0.00054032622
0.0017349164
0.00083484379
0.00046207602
0.00099883681
0.0010921598
0.0013953116
0.0016022615
0.0018149247
0.0019848032
0.0021289847
0.0022041556
0.0021177934
0.0018892722
0.0014829096
0.00081926027
-0.00015369964
-0.0014826556
-0.0032025277
-0.005322699
-0.0078180545
-0.010622376
-0.013626922
-0.016682876
-0.019612152
-0.022225897
-0.024349067
-0.025844774
-0.026633166
-0.026700515
-0.026096621
-0.024923602
-0.023315416
-0.021423458
-0.019388036
-0.017350412
-0.015397973
-0.013661194
-0.012128771
-0.011013599
-0.010096159
0.00084292991
-0.00054032627
0.0017068543
0.00046696079
0.0010223335
0.0011212295
0.0014429106
0.0016663848
0.0019002206
0.0020888274
0.002252132
0.0023630556
0.0024016515
0.0022329585
0.001898298
0.0013495357
0.00050128803
-0.00070081377
-0.0023014018
-0.0043256741
-0.006767171
-0.0095785005
-0.012668014
-0.015899332
-0.019098351
-0.022068307
-0.024613155
-0.026563824
-0.027801883
-0.028274701
-0.027999579
-0.027055792
-0.025569268
-0.023689831
-0.02157642
-0.019369773
-0.017206471
-0.015166646
-0.013371934
-0.011803341
-0.010665724
-0.0097341964
0.00046913884
0.00084292987
-0.00053111725
0.0016516783
0.001037722
0.0011435693
0.0014822715
0.001721325
0.0019761096
0.0021907989
0.002373713
0.0025074627
0.0025848668
0.0025645059
0.0022972185
0.001828688
0.0011078672
4.0310748e-05
-0.0014285585
-0.0033367425
-0.0056963719
-0.00848007
-0.01161533
-0.014981658
-0.018414107
-0.021714351
-0.024671432
-0.027088315
-0.028809002
-0.029739608
-0.029858994
-0.029217202
-0.027922412
-0.026122048
-0.02397866
-0.021655381
-0.019290722
-0.017014584
-0.014898718
-0.013055285
-0.011457699
-0.010302595
-0.0093605796
0.0010447904
0.00046913877
0.00083484365
-0.00051314575
0.0015714265
0.0011581469
0.0015127718
0.0017664959
0.0020412334
0.0022809164
0.0024935288
0.0026515372
0.0027547603
0.0027768241
0.0026833925
0.0022901033
0.0016585622
0.00073088635
-0.0005950906
-0.0023701866
-0.0046224865
-0.0073453597
-0.010487263
-0.0139464
-0.017571419
-0.021168447
-0.024518216
-0.027401254
-0.029626929
-0.031059418
-0.031635085
-0.031367507
-0.030340112
-0.028688381
-0.026578241
-0.024181422
-0.021661899
-0.019153548
-0.016777802
-0.014597197
-0.012713988
-0.011094246
-0.0099263303
-0.0089771877
0.0011649875
0.0010447904
0.00046696059
0.00081804549
-0.00048722785
0.0014691385
0.0015329687
0.0018010906
0.0020948676
0.0023579448
0.0025994789
0.0027937962
0.002924352
0.002978775
0.0029300929
0.002738505
0.0021903885
0.00136115
0.00018686631
-0.0014396224
-0.0035623095
-0.0061932891
-0.0093034767
-0.012812308
-0.016585763
-0.020439849
-0.024153608
-0.027491582
-0.030233062
-0.032201634
-0.033288673
-0.033465613
-0.032782867
-0.031356688
-0.029347332
-0.02693564
-0.024298702
-0.021598282
-0.01896135
-0.016499394
-0.014265141
-0.012350724
-0.010715281
-0.0095389327
-0.0085857411
0.0015425751
0.0011649875
0.0010377218
0.00046207568
0.00079275111
-0.00045434853
0.0013485424
0.0018233078
0.0021361248
0.002421239
0.0026898849
0.0029192185
0.0030920589
0.0031797724
0.0031715157
0.0030259622
0.0027094128
0.0019717129
0.00090472769
-0.00055987624
-0.0025322019
-0.0050431723
-0.0080847936
-0.011600018
-0.015475566
-0.019542082
-0.023583198
-0.027354331
-0.03061056
-0.033138097
-0.034782868
-0.03546984
-0.035209302
-0.034089304
-0.032257211
-0.029894683
-0.027193415
-0.024332103
-0.021467504
-0.0187176
-0.016182754
-0.013905558
-0.011968084
-0.010323024
-0.0091422861
-0.0081878556
0.0018329611
0.0015425751
0.0011581468
0.0010223332
0.00045445952
0.00075978092
-0.00041593551
0.0012138221
0.0021630278
0.0024698516
0.0027641533
0.003025962
0.0032399081
0.0033783381
0.0034101163
0.003316312
0.0030449379
0.002570391
0.001602532
0.00025306881
-0.0015500124
-0.0039142492
-0.0068529528
-0.010331946
-0.014261873
-0.018492431
-0.022817602
-0.026990534
-0.030748769
-0.033845992
-0.03608424
-0.037339625
-0.037576241
-0.036845662
-0.035273031
-0.033034002
-0.030327584
-0.027352014
-0.024284197
-0.021273115
-0.018426004
-0.015831253
-0.013521394
-0.011568643
-0.0099196256
-0.008738147
-0.0077851626
0.0021753894
0.0018329611
0.0015329687
0.0011435691
0.00099883648
0.00044457737
0.00071979808
-0.00037361534
0.0010693886
0.0025015623
0.0028211793
0.0031135678
0.003365851
0.0035535277
0.0036452648
0.0036005948
0.0033954627
0.0029624856
0.0022903917
0.001046407
-0.00063570849
-0.00282763
-0.0056301081
-0.0090320465
-0.01296821
-0.0173116
-0.021872018
-0.026406921
-0.030643363
-0.03430854
-0.037164046
-0.039036799
-0.039840358
-0.039582193
-0.038356126
-0.036322491
-0.033681452
-0.030644811
-0.027413185
-0.024158403
-0.021019055
-0.0180903
-0.015448254
-0.013115701
-0.011154999
-0.0095070133
-0.0083280609
-0.0073789291
0.0025161993
0.0021753894
0.0018233079
0.0015127719
0.0011212292
0.00096834446
0.00043242929
0.00067350394
-0.00032904393
0.00092005473
0.0028584273
0.0031807706
0.003469154
0.0037026827
0.0038531017
0.0038795871
0.003734907
0.0033868234
0.00274871
0.0018331455
0.00026068186
-0.0018078097
-0.0044407638
-0.007725309
-0.011620402
-0.016023585
-0.020765903
-0.02561558
-0.030296251
-0.03451541
-0.037999173
-0.040526985
-0.041959496
-0.042253871
-0.041463703
-0.039724448
-0.037228491
-0.034195992
-0.030846766
-0.027379904
-0.023958743
-0.020709387
-0.01771431
-0.015037419
-0.012691649
-0.010729246
-0.0090865239
-0.0079132937
-0.0069690933
0.0028757259
0.0025161995
0.002163028
0.0018010908
0.0014822715
0.0010921594
0.00093144576
0.00041786933
0.0006216793
-0.00028354553
0.00077109536
0.0032247147
0.0035483395
0.0038247245
0.0040296737
0.0041264004
0.0040662506
0.0037929263
0.0032629332
0.0023684906
0.0011558239
-0.0008024675
-0.0033144073
-0.0064396498
-0.010246045
-0.014655529
-0.019522888
-0.024633697
-0.029715372
-0.03446285
-0.038572831
-0.041780784
-0.043894199
-0.044815509
-0.044550211
-0.043199044
-0.040936972
-0.037984281
-0.034576067
-0.030935492
-0.027256018
-0.023689489
-0.0203484
-0.01730242
-0.014602637
-0.012251484
-0.010292305
-0.0086595473
-0.0074953201
-0.0065567953
0.0032452597
0.0028757261
0.0025015627
0.0021361253
0.0017664962
0.0014429108
0.0010567859
0.00088866992
0.000400786
0.00056618706
-0.00023887681
0.00062856909
0.0036001972
0.0039181652
0.004173841
0.0043356749
0.0043595145
0.0041869391
0.0037491657
0.0029913992
0.0017802597
0.00020957068
-0.0021968269
-0.0052098967
-0.0088763513
-0.013237244
-0.018170689
-0.023483535
-0.028914553
-0.034153678
-0.038874935
-0.042774728
-0.045609089
-0.04722336
-0.047568554
-0.046701445
-0.044769194
-0.041982829
-0.038585623
-0.034822175
-0.030914291
-0.027045812
-0.023355348
-0.019941307
-0.016859377
-0.014146269
-0.011795555
-0.0098460953
-0.008229957
-0.0070765334
-0.0061317737
0.003624622
0.0032452599
0.0028584278
0.0024698523
0.0020948682
0.0017213254
0.0013953118
0.0010154071
0.00084083912
0.00038249829
0.0005103272
-0.00020028848
0.00048321001
0.0039794493
0.0042841016
0.0045063868
0.0046079861
0.0045358246
0.0042179385
0.0035734345
0.0025337559
0.00093590613
-0.0010613435
-0.0039804036
-0.007551695
-0.011802934
-0.016740717
-0.02219243
-0.027913565
-0.033597261
-0.03890232
-0.043491942
-0.047074074
-0.049436638
-0.050471687
-0.050183888
-0.048682312
-0.046158191
-0.04285417
-0.039030756
-0.034936525
-0.030787147
-0.026754284
-0.022962426
-0.019493864
-0.016387625
-0.013667885
-0.011326654
-0.0093986725
-0.0078015249
-0.0066344171
-0.0056897952
0.0040085338
0.0036246223
0.0032247155
0.0028211803
0.0024212399
0.0020412343
0.0016663854
0.0013399234
0.00096865071
0.00079104195
0.0003642041
0.00045191029
-0.00016191524
0.00033605715
0.0043565218
0.0046367324
0.0048105642
0.0048313606
0.0046331953
0.0041309379
0.0032298971
0.001844828
-0.00021991442
-0.0027179162
-0.0062154384
-0.010398547
-0.015269638
-0.020792536
-0.02673823
-0.032809702
-0.038658874
-0.043922597
-0.048265284
-0.051418954
-0.053214232
-0.053597192
-0.052629205
-0.050470765
-0.047353525
-0.043546214
-0.039320077
-0.034922345
-0.030559117
-0.026388439
-0.022517626
-0.019008548
-0.015885742
-0.013171606
-0.010858227
-0.008954872
-0.0073322893
-0.0061757803
-0.005235985
0.0043911442
0.0040085342
0.0036001982
0.0031807719
0.0027641546
0.0023579461
0.0019761106
0.0016022621
0.0012775673
0.00092061734
0.00074088169
0.00033614195
0.00038424836
-0.00011778531
0.00019527245
0.0047224286
0.0049648382
0.0050716925
0.0049846975
0.0046249165
0.0038925351
0.0026759224
0.00087201319
-0.0017484106
-0.0048266875
-0.0089668184
-0.013808752
-0.019322192
-0.025420358
-0.031814047
-0.038155862
-0.044064215
-0.049165771
-0.053139512
-0.055754092
-0.056892405
-0.056559841
-0.054875412
-0.052048552
-0.048346376
-0.044056719
-0.039455434
-0.034784392
-0.030238037
-0.025956427
-0.022023386
-0.018482662
-0.015359573
-0.012677975
-0.01039609
-0.008438917
-0.0068507172
-0.0057035529
-0.0047730703
0.0047636797
0.0043911447
0.0039794505
0.0035483411
0.0031135697
0.0026898868
0.002280918
0.001900222
0.0015298346
0.0012133405
0.00087412054
0.00068284927
0.00029459364
0.00031046
-7.2109013e-05
6.7767879e-05
0.0050663298
0.0052541408
0.0052696087
0.0050426506
0.004479774
0.0034624784
0.0018613788
-0.00044359277
-0.0037170366
-0.0074583319
-0.01230041
-0.017837516
-0.023998885
-0.030640478
-0.037412234
-0.043922151
-0.049766018
-0.054574071
-0.058053893
-0.060022549
-0.060422874
-0.059322597
-0.056897418
-0.053401658
-0.049131037
-0.044385298
-0.039440753
-0.034531162
-0.029833356
-0.025460523
-0.021475414
-0.017924241
-0.014838505
-0.01219352
-0.0098213984
-0.0079150011
-0.0063527517
-0.0052215933
-0.0043000402
0.0051155033
0.0047636802
0.0043565233
0.0039181672
0.0034691562
0.0030259643
0.0025994812
0.002190801
0.0018149264
0.0014544134
0.0011490667
0.00081221913
0.00060986566
0.00025975477
0.00023778956
-3.2111897e-05
-4.1698068e-05
0.0053742293
0.005485408
0.0053804572
0.0049759103
0.0041596983
0.0027930252
0.00072955434
-0.0021677502
-0.0061982818
-0.010686126
-0.016280494
-0.022533862
-0.029327172
-0.036455108
-0.043509952
-0.050064557
-0.055705644
-0.060082216
-0.06294429
-0.064167474
-0.063759886
-0.061852476
-0.058674824
-0.054519839
-0.049703916
-0.044534338
-0.039284894
-0.034173387
-0.02934697
-0.024894417
-0.020884412
-0.017373564
-0.014329649
-0.011542444
-0.0092455691
-0.007371435
-0.0058450692
-0.0047286011
-0.0038179316
0.0054327467
0.0051155039
0.0047224302
0.0042841039
0.0038247271
0.0033658538
0.0029192215
0.0024935317
0.0020888299
0.0017279429
0.0013744258
0.0010731389
0.00072782812
0.00053342086
0.00022999917
0.00016880057
-2.1130356e-06
-0.00012924928
0.0056273965
0.0056359117
0.005376292
0.0047488137
0.0036191267
0.0018296173
-0.00078343987
-0.0043722963
-0.0092682029
-0.014583596
-0.020966602
-0.027936871
-0.035320285
-0.042850156
-0.050068336
-0.056525276
-0.061814459
-0.065619401
-0.06774518
-0.068133777
-0.066861579
-0.064121516
-0.060191621
-0.055395329
-0.050064895
-0.04451258
-0.038999752
-0.033712245
-0.028769961
-0.024272015
-0.020303749
-0.016838297
-0.013586554
-0.010897911
-0.0086450391
-0.0068182589
-0.0053257052
-0.0042259366
-0.0033267952
0.0056968366
0.0054327474
0.0050663313
0.0046367349
0.0041738443
0.0037026862
0.0032399116
0.0027937997
0.0023737164
0.0019848063
0.0016363496
0.0012826507
0.00096971349
0.00064755059
0.00045098812
0.00019364527
0.0001029403
1.6793923e-05
-0.00019284836
0.0058038343
0.0056786994
0.0052232903
0.0043174275
0.002805503
0.00051033946
-0.0027482376
-0.0071339264
-0.013004356
-0.019221414
-0.026409473
-0.034071584
-0.041974336
-0.049793841
-0.057032307
-0.0632338
-0.068015834
-0.07111159
-0.072391696
-0.071869849
-0.069691308
-0.066106685
-0.0614348
-0.056024405
-0.050221944
-0.044332864
-0.038585305
-0.033135404
-0.028120024
-0.023662442
-0.019741866
-0.015983571
-0.012859533
-0.01022187
-0.0080356493
-0.0062533792
-0.004796441
-0.0037136882
-0.0028272114
0.0058862633
0.0056968371
0.0053742309
0.0049648408
0.0045063904
0.0040296777
0.0035535317
0.0030920629
0.0026515413
0.002252136
0.0018781767
0.0015304617
0.0011604782
0.00086208794
0.00056452246
0.00036303083
0.00014893165
3.8399415e-05
2.3198088e-05
-0.00023291568
0.0058773698
0.0055805353
0.0048786142
0.0036304663
0.001658917
-0.0012339632
-0.0052411505
-0.010532632
-0.017482872
-0.024663243
-0.032646134
-0.04094542
-0.049266441
-0.057235845
-0.064331213
-0.070108801
-0.074227618
-0.076483883
-0.076821742
-0.075329308
-0.072217802
-0.067788414
-0.062395839
-0.056413379
-0.050188475
-0.043993298
-0.038024713
-0.032464966
-0.027485254
-0.023075121
-0.018755047
-0.01515595
-0.012091817
-0.0095387534
-0.0074146467
-0.0056788145
-0.0042572322
-0.0031926237
-0.0023195367
0.0059754034
0.0058862637
0.0056273983
0.0052541435
0.0048105677
0.0043356792
0.0038531066
0.0033783429
0.0029243567
0.0025074673
0.0021289892
0.0017573594
0.0013835616
0.0010337012
0.00074780346
0.00047064999
0.00027040262
9.5466616e-05
-2.552195e-05
1.6042544e-05
-0.00025217614
0.0058150379
0.0052997483
0.0042923159
0.0026300102
0.00011178557
-0.0034788432
-0.0083429492
-0.014649098
-0.022774837
-0.030959633
-0.039695584
-0.048546028
-0.057153052
-0.065107341
-0.071880463
-0.077060716
-0.080364854
-0.081663077
-0.080978231
-0.078471495
-0.074413603
-0.069152281
-0.063078307
-0.056575681
-0.049959859
-0.043471099
-0.037345113
-0.031811926
-0.026876322
-0.021932591
-0.017808154
-0.014276554
-0.011319051
-0.0088447988
-0.0067842188
-0.0050944452
-0.0037090096
-0.002663282
-0.0018042452
0.0059312419
0.005975404
0.0058038362
0.0054854108
0.005071696
0.0046079906
0.0041264056
0.0036452703
0.0031797777
0.0027547655
0.0023630611
0.0019907821
0.0015834301
0.0012293281
0.00089973415
0.00062042129
0.00036550846
0.00017314494
3.3124695e-05
-8.8952428e-05
-4.6138072e-06
-0.00025528782
0.0055760205
0.0047878782
0.0034080491
0.0012501682
-0.0019104113
-0.0063053412
-0.012136311
-0.019561665
-0.028939622
-0.038142626
-0.047556914
-0.05683863
-0.065569164
-0.073322224
-0.079584088
-0.083994752
-0.08634276
-0.086580498
-0.084810047
-0.081259792
-0.076256984
-0.070197903
-0.063494981
-0.056502853
-0.049505495
-0.042798965
-0.036685223
-0.031188409
-0.025551962
-0.020845279
-0.01679547
-0.013395224
-0.010536806
-0.008142024
-0.0061443045
-0.0045012739
-0.0031524424
-0.0021264236
-0.0012816887
0.0057132787
0.0059312426
0.0058773713
0.0056359143
0.0052696126
0.0048313652
0.0043595196
0.0038795929
0.0034101226
0.0029787811
0.0025848728
0.0022041615
0.0017847999
0.0014009942
0.0010661167
0.00074933073
0.00048008635
0.00024871503
6.9834934e-05
-3.848112e-05
-0.00015249379
-3.7453634e-05
-0.00024811978
0.0051127759
0.0039894761
0.0021614642
-0.00058235571
-0.0044885859
-0.0097976834
-0.016702896
-0.025342198
-0.036017146
-0.046225411
-0.056205293
-0.065764137
-0.074429023
-0.081779509
-0.087337984
-0.090814247
-0.092080236
-0.091173585
-0.088270227
-0.083663721
-0.077742641
-0.070936691
-0.06363231
-0.056154149
-0.048864062
-0.042149134
-0.036058631
-0.029652947
-0.024301179
-0.019674277
-0.015785208
-0.012505844
-0.009746668
-0.0074305553
-0.0054959018
-0.0039001237
-0.0025885019
-0.0015821056
-0.00075252074
0.005274512
0.0057132791
0.0058150392
0.0056787021
0.005380461
0.0049847021
0.0045358297
0.0040662566
0.0036006014
0.0031715226
0.0027768307
0.0024016581
0.0019619748
0.0015691119
0.0012086096
0.00088275702
0.00058236117
0.0003271397
0.00011978953
-4.1147522e-05
-0.00011984299
-0.00021712639
-8.0298978e-05
-0.0002367035
0.0043704993
0.0028415362
0.00048048828
-0.0029479563
-0.0077079766
-0.01404054
-0.022120583
-0.032048852
-0.044029821
-0.055196429
-0.065588605
-0.075239317
-0.083628186
-0.090366724
-0.095033604
-0.097424843
-0.09750234
-0.095383939
-0.091318089
-0.085672021
-0.078879932
-0.071348686
-0.063436611
-0.055574481
-0.048248011
-0.041536873
-0.034279763
-0.02821341
-0.022943828
-0.018511506
-0.014768507
-0.011609996
-0.0089487231
-0.0067110266
-0.0048400428
-0.003292201
-0.0020166129
-0.0010311326
-0.00021725215
0.0045604835
0.0052745122
0.005576022
0.0055805379
0.0053762953
0.005042655
0.0046332008
0.0041869452
0.0037349136
0.0033163191
0.0029301006
0.0025645133
0.0021178006
0.001709303
0.0013422128
0.00099267501
0.00067933736
0.00039888034
0.00016168896
-2.0984203e-05
-0.00016051329
-0.00021115611
-0.00028401312
-0.00013068104
-0.0002261545
0.0032868445
0.0012729142
-0.0017145751
-0.0059321835
-0.011655801
-0.019115427
-0.028458526
-0.039718445
-0.052977307
-0.06501358
-0.075627226
-0.085158347
-0.093046972
-0.098963871
-0.10256262
-0.1037382
-0.10253829
-0.09915921
-0.093935184
-0.08729145
-0.079641031
-0.071363737
-0.062958953
-0.055024413
-0.047674893
-0.039479375
-0.032624248
-0.02663805
-0.021602245
-0.017344341
-0.013747212
-0.010707467
-0.0081436551
-0.0059848435
-0.0041781416
-0.0026757701
-0.0014385787
-0.00047396459
0.00032356737
0.0035091467
0.004560484
0.0051127773
0.0052997505
0.0052232934
0.0049759146
0.0046249219
0.0042179446
0.0037929329
0.00339547
0.0030259702
0.0026834008
0.0022329662
0.0018224973
0.0014442365
0.0010875202
0.00075342767
0.00045656868
0.00019860959
-1.6667615e-05
-0.00017324863
-0.00028870535
-0.00031221605
-0.00035434633
-0.00018628555
-0.00021993571
0.0017913284
-0.00079546043
-0.0045090979
-0.0096235516
-0.016417754
-0.025097566
-0.035768776
-0.048371881
-0.062826916
-0.075604154
-0.086214868
-0.095396198
-0.10255473
-0.10744831
-0.10982211
-0.10967042
-0.1071225
-0.10247253
-0.096125883
-0.088484843
-0.079934893
-0.071038338
-0.062517156
-0.054524545
-0.04530111
-0.037579039
-0.030795479
-0.025088134
-0.020258731
-0.016174953
-0.012720662
-0.0097989678
-0.0073331157
-0.0052535636
-0.0035069801
-0.0020534748
-0.0008549405
8.8517327e-05
0.00086938369
0.0020503276
0.0035091469
0.0043705
0.0047878798
0.0048786172
0.0047488178
0.0044797788
0.0041309436
0.0037491726
0.0033868308
0.0030449458
0.0027385135
0.0022972274
0.0018892804
0.0015134188
0.0011471795
0.00080559324
0.00049171902
0.00021497907
-1.8335595e-05
-0.00020866057
-0.000337068
-0.00042590412
-0.00042236919
-0.00042917072
-0.00024519953
-0.00021968883
-0.00019441848
-0.003448534
-0.0079918758
-0.014110406
-0.022074218