/*--------------------------------*- C++ -*----------------------------------*\
| =========                 |                                                 |
| \\      /  F ield         | OpenFOAM: The Open Source CFD Toolbox           |
|  \\    /   O peration     | Version:  5.0                                   |
|   \\  /    A nd           | Web:      www.OpenFOAM.org                      |
|    \\/     M anipulation  |                                                 |
\*---------------------------------------------------------------------------*/
FoamFile
{
    version     2.0;
    format      ascii;
    class       surfaceScalarField;
    location    "75";
    object      phi;
}
// * * * * * * * * * * * * * * * * * * * * * * * * * * * * * * * * * * * * * //

dimensions      [0 3 -1 0 0 0 0];

internalField   nonuniform List<scalar> 
18180
(
0.00094675794
-1.3686699
0.0018282503
-1.2801783
0.00093301375
-1.3696029
0.0026393451
-1.1974655
0.0017992076
-1.2810445
0.00091606868
-1.3705189
0.0033771347
-1.1201266
0.0025975226
-1.1982638
0.0017686425
-1.2818971
0.00091119496
-1.3714301
0.0040440244
-1.0478314
0.0033237232
-1.1208528
0.0025539978
-1.1990491
0.0017592752
-1.2827451
0.0009062073
-1.3723363
0.0046433696
-0.9802173
0.0039804146
-1.0484881
0.0032691643
-1.121568
0.0025420414
-1.1998319
0.0017506575
-1.2835896
0.00090605684
-1.3732424
0.0051786473
-0.91696472
0.0045699931
-0.98080688
0.0039168209
-1.0491357
0.0032567191
-1.1222827
0.002531479
-1.2006127
0.0017515037
-1.284435
0.00090519527
-1.3741476
0.0056546924
-0.85777349
0.0050957653
-0.91749049
0.0044988735
-0.98138893
0.0039058023
-1.0497848
0.0032464827
-1.1229977
0.0025356354
-1.2013969
0.001751289
-1.2852811
0.00090528279
-1.3750529
0.0060766599
-0.80237064
0.0055616809
-0.85823941
0.0050184865
-0.9180101
0.0044908354
-0.98197396
0.0038980443
-1.0504364
0.0032569642
-1.123719
0.002538494
-1.2021841
0.0017533796
-1.2861292
0.0009030849
-1.375956
0.0064505908
-0.75050119
0.0059722139
-0.80278118
0.0054791698
-0.85870009
0.0050144455
-0.91853371
0.0044873207
-0.98256324
0.0039177242
-1.0510971
0.0032660904
-1.1244466
0.0025456827
-1.2029764
0.0017513047
-1.2869774
0.00089918379
-1.3768551
0.0067831919
-0.70193344
0.0063323846
-0.75086137
0.0058851435
-0.80318715
0.0054795653
-0.85916521
0.0050164516
-0.91906284
0.0045187236
-0.98316424
0.0039361833
-1.0517672
0.0032825607
-1.1251835
0.0025472029
-1.2037723
0.0017463229
-1.2878246
0.00089162349
-1.3777468
0.0070821623
-0.65644838
0.006647691
-0.70224875
0.0062411728
-0.75121739
0.0058897648
-0.80359735
0.0054878222
-0.85963658
0.0050614781
-0.9196056
0.0045491998
-0.98377726
0.0039660117
-1.0524507
0.0032922922
-1.1259286
0.0025452378
-1.2045712
0.0017344806
-1.2886674
0.00088046047
-1.3786272
0.0073563806
-0.61384191
0.0069242328
-0.65672492
0.006552605
-0.70256018
0.0062491065
-0.75157674
0.0059045382
-0.80401407
0.0055476165
-0.86012272
0.005106056
-0.92016246
0.0045961698
-0.98440741
0.0039885357
-1.0531469
0.0032988358
-1.1266822
0.0025336828
-1.2053704
0.0017159221
-1.2895029
0.0008647472
-1.379492
0.007616346
-0.57391889
0.007169022
-0.6140867
0.0068254183
-0.65699773
0.0065621732
-0.70287325
0.0062700675
-0.75194227
0.0059793232
-0.80444577
0.0056077036
-0.86062437
0.0051732879
-0.92073957
0.0046357963
-0.98505467
0.004009083
-1.0538572
0.0032936114
-1.1274421
0.0025128424
-1.2061673
0.0016886601
-1.2903268
0.00084438308
-1.3803364
0.0078745901
-0.53648857
0.0073907931
-0.57414066
0.0070664136
-0.61432769
0.0068341104
-0.65726967
0.0065885594
-0.70319174
0.0063593142
-0.75232226
0.0060557045
-0.80489377
0.0056975277
-0.86114861
0.0052336975
-0.92133748
0.0046756459
-0.98572124
0.0040163364
-1.0545799
0.0032772488
-1.1282065
0.0024795731
-1.2069582
0.0016525134
-1.2911349
0.00081904425
-1.3811554
0.0081455594
-0.50136068
0.0076011241
-0.5366989
0.0072837138
-0.57435796
0.007070785
-0.61456437
0.0068648171
-0.65754593
0.0066910821
-0.7035235
0.0064522902
-0.75271884
0.00616955
-0.8053658
0.0057816207
-0.86169653
0.0052974849
-0.92195931
0.0047014156
-0.98640632
0.0040113885
-1.055314
0.0032452193
-1.1289722
0.0024335638
-1.2077393
0.0016068002
-1.2919227
0.00078893495
-1.3819443
0.0084443709
-0.46834131
0.0078155149
-0.50157507
0.007487467
-0.53690265
0.0072792645
-0.57456644
0.0071043757
-0.61480393
0.0069787383
-0.65783358
0.0068002736
-0.70387149
0.0065905372
-0.75313983
0.00627935
-0.80586353
0.0058731333
-0.86227218
0.0053472264
-0.92260513
0.0047148174
-0.98710975
0.0039881299
-1.0560569
0.0031970831
-1.1297357
0.0023736238
-1.2085061
0.0015515536
-1.2926853
0.00075422337
-1.3826986
0.0087841122
-0.4372364
0.008053436
-0.46857923
0.00769062
-0.50177822
0.0074686137
-0.537092
0.0073138153
-0.57477588
0.0072271257
-0.61505231
0.00710309
-0.6581364
0.0069623391
-0.70424329
0.006727172
-0.75358765
0.0064013686
-0.80639176
0.0059515172
-0.86287647
0.0053853656
-0.92327567
0.0047079867
-0.9878296
0.003945977
-1.0568058
0.003130923
-1.130493
0.0022997003
-1.2092542
0.0014870747
-1.2934182
0.000715069
-1.3834136
0.0091721308
-0.40785988
0.0083362633
-0.43751923
0.0079090442
-0.46879765
0.0076510019
-0.50196061
0.0075013392
-0.53727953
0.0074420921
-0.57499085
0.0073649863
-0.61531421
0.0072875723
-0.65846163
0.0071261046
-0.70464222
0.0068814085
-0.75406769
0.0065121022
-0.80695235
0.0060200106
-0.86351111
0.0054022034
-0.92396989
0.0046801939
-0.98856382
0.0038820927
-1.057557
0.0030464737
-1.1312398
0.0022118539
-1.209979
0.0014138802
-1.294117
0.00067187232
-1.3840855
0.0096065843
-0.38004863
0.0086827973
-0.40820642
0.0081601285
-0.43777031
0.0078424464
-0.4689891
0.0076776485
-0.50213692
0.0076310075
-0.53746844
0.0075912032
-0.57521706
0.0075697255
-0.61559636
0.0074779719
-0.6588135
0.0073132006
-0.70507402
0.0070271461
-0.75458274
0.0066155499
-0.80754789
0.0060670959
-0.86417601
0.0053968554
-0.92468655
0.0046274921
-0.98930922
0.0037959079
-1.0583064
0.0029435205
-1.1319714
0.0021106817
-1.2106758
0.0013325653
-1.2947777
0.00062512175
-1.3847106
0.010074674
-0.35367603
0.0091035461
-0.38046938
0.0084595246
-0.40850581
0.0080620867
-0.43798995
0.0078567384
-0.46916819
0.0078035529
-0.50230947
0.0077884243
-0.53766566
0.0078132836
-0.57546062
0.0077855032
-0.61590389
0.0076975644
-0.65919787
0.0074955224
-0.70554239
0.0071690049
-0.75513619
0.0066985129
-0.8081793
0.0060917024
-0.86487085
0.0053641222
-0.92542318
0.0045489124
-0.99006222
0.0036866894
-1.0590496
0.0028225702
-1.1326833
0.0019971213
-1.2113404
0.0012439802
-1.2953965
0.00057537029
-1.385286
0.010553411
-0.32866066
0.009595972
-0.35416845
0.0088166888
-0.38082655
0.0083291477
-0.40877287
0.0080557775
-0.43818899
0.0079725578
-0.46933719
0.007965555
-0.5024866
0.0080241149
-0.53787649
0.008052441
-0.57572756
0.0080363049
-0.61624263
0.0079170068
-0.65961935
0.0076780589
-0.70605145
0.0072923781
-0.75573006
0.0067596927
-0.80884729
0.0060873145
-0.86559405
0.0053025458
-0.92617682
0.004442993
-0.99081853
0.0035547097
-1.0597817
0.0026845137
-1.1333707
0.0018723358
-1.2119687
0.0011491489
-1.2959703
0.00052321503
-1.3858092
0.011012798
-0.30496522
0.010142567
-0.32920725
0.009230907
-0.35458267
0.0086577774
-0.38115518
0.00829284
-0.40900994
0.0081543882
-0.43837082
0.0081345237
-0.46950616
0.0082101912
-0.50267267
0.0082838557
-0.53810791
0.0083323068
-0.57602356
0.008292403
-0.61661803
0.0081413056
-0.6600826
0.0078451831
-0.70660425
0.0073956699
-0.75636603
0.0067912807
-0.80955126
0.0060519095
-0.86634341
0.0052097388
-0.92694356
0.0043096281
-0.99157345
0.0034006697
-1.0604979
0.0025306287
-1.134029
0.0017377109
-1.2125573
0.0010492008
-1.2964963
0.00046927804
-1.3862785
0.011420515
-0.28258619
0.010712476
-0.30553513
0.0096893055
-0.32966565
0.009052075
-0.35497697
0.0085832106
-0.38144555
0.0083679663
-0.40922351
0.0083105819
-0.43854688
0.0083824881
-0.46967846
0.0084867734
-0.50287559
0.0085897906
-0.53836539
0.0086236477
-0.57635481
0.008558427
-0.61703515
0.0083542816
-0.6605917
0.0079948882
-0.70720347
0.0074698811
-0.75704464
0.0067906207
-0.81028997
0.0059820135
-0.86711569
0.0050850663
-0.927719
0.0041491013
-0.99232188
0.0032258638
-1.0611931
0.002362638
-1.1346539
0.0015947645
-1.2131028
0.00094533661
-1.2969724
0.00041419038
-1.3866927
0.011746825
-0.26153864
0.011266146
-0.28313986
0.010167697
-0.30601352
0.0095032182
-0.33011679
0.0089346695
-0.35532843
0.0086312866
-0.38170887
0.0085116418
-0.40942457
0.0085555245
-0.43871992
0.0086710764
-0.46986276
0.0088148512
-0.50310065
0.0089140169
-0.53865576
0.0089303162
-0.57672669
0.0088181266
-0.617499
0.0085533927
-0.6611502
0.0081171855
-0.70785078
0.0075116673
-0.75776568
0.0067530467
-0.81106101
0.0058763203
-0.86790694
0.0049281592
-0.92849806
0.0039624991
-0.99305851
0.0030320619
-1.0618625
0.0021824769
-1.1352416
0.0014452073
-1.2136027
0.00083878448
-1.297397
0.00035857211
-1.3870513
0.011968489
-0.24183922
0.011761793
-0.26203429
0.010634061
-0.28360622
0.0099895208
-0.30649982
0.0093435651
-0.33052569
0.0089557973
-0.35565294
0.0087556403
-0.38195287
0.008746786
-0.40961584
0.0088502223
-0.43889906
0.0090163141
-0.47006422
0.0091685832
-0.50335522
0.0092592534
-0.5389847
0.0092364243
-0.57714499
0.0090683223
-0.61801393
0.0087279346
-0.66176095
0.0082080058
-0.70854711
0.0075151418
-0.75852778
0.0066764632
-0.81186115
0.005733583
-0.86871236
0.0047397014
-0.92927526
0.0037514681
-0.99377792
0.0028213885
-1.0625015
0.0019922541
-1.1357887
0.0012908187
-1.2140548
0.00073075717
-1.2977691
0.00030301765
-1.3873543
0.012070714
-0.22349101
0.0121623
-0.24223973
0.01105307
-0.2624533
0.010479893
-0.2840966
0.0097933222
-0.30694958
0.0093416874
-0.33091158
0.0090560875
-0.35595338
0.0089746186
-0.3821807
0.0090410209
-0.40980663
0.0092065663
-0.43908931
0.0093949987
-0.47029064
0.0095492774
-0.50364524
0.0096103108
-0.53935859
0.0095381139
-0.57761478
0.0092978981
-0.61858389
0.0088730862
-0.66242603
0.008260282
-0.70929225
0.0074773247
-0.75932864
0.0065585475
-0.81268611
0.0055538859
-0.86952655
0.0045209835
-0.93004478
0.0035181539
-0.99447468
0.0025963022
-1.0631055
0.0017942272
-1.1362921
0.0011333825
-1.2144574
0.00062242279
-1.2980885
0.00024808085
-1.3876024
0.012049558
-0.2064776
0.012437102
-0.22376581
0.011390535
-0.24257719
0.010938631
-0.26291204
0.010255632
-0.28455891
0.0097762048
-0.3073841
0.0094169343
-0.33127242
0.0092544516
-0.35623322
0.0092618251
-0.3824015
0.0094016374
-0.4100017
0.0096044054
-0.43929872
0.0098068838
-0.47054824
0.009942671
-0.5039776
0.00996268
-0.53978315
0.009824133
-0.57814102
0.0095012807
-0.61921209
0.0089807194
-0.66314647
0.0082700932
-0.71008502
0.0073946709
-0.76016476
0.0063985987
-0.81353083
0.0053379093
-0.87034347
0.0042739743
-0.9308006
0.0032651932
-0.99514357
0.0023594614
-1.0636707
0.0015907198
-1.1367494
0.00097465003
-1.2148096
0.00051488327
-1.2983553
0.00019425643
-1.3877966
0.011910071
-0.19075597
0.012565917
-0.20660642
0.011622292
-0.22399757
0.011329412
-0.24296798
0.010696052
-0.26335246
0.010234653
-0.28501735
0.0098294432
-0.30779661
0.0095938814
-0.33161185
0.0095290957
-0.35650049
0.009619773
-0.38261964
0.0098117993
-0.4102091
0.010041935
-0.43953377
0.010238771
-0.47084434
0.010343692
-0.50435861
0.010305191
-0.54026421
0.010088203
-0.57872794
0.0096694598
-0.61990083
0.0090459503
-0.66392233
0.0082325821
-0.71092294
0.0072655254
-0.76103169
0.0061964315
-0.81438935
0.005087226
-0.87115672
0.0040012713
-0.93153667
0.0029955083
-0.99577962
0.0021136985
-1.0641937
0.0013840328
-1.1371588
0.00081631075
-1.215111
0.00040915032
-1.2985702
0.00014198478
-1.3879386
0.011661143
-0.17626211
0.012543057
-0.19073311
0.011734151
-0.20671828
0.011622523
-0.22429068
0.011081596
-0.24335352
0.010683773
-0.26380158
0.010272902
-0.28546081
0.0099885413
-0.30819127
0.0098528242
-0.33193558
0.0098782845
-0.356759
0.010035028
-0.38284287
0.010268235
-0.4104354
0.010507136
-0.43980214
0.010685122
-0.47118577
0.010741395
-0.50479482
0.010630966
-0.54080697
0.010320648
-0.57937913
0.0097966055
-0.62065148
0.0090625886
-0.66475233
0.0081450081
-0.71180242
0.0070886066
-0.76192386
0.0059529897
-0.81525511
0.004804145
-0.8719596
0.0037059013
-0.93224707
0.0027123425
-0.99637827
0.001861849
-1.0646715
0.001176428
-1.1375189
0.00065995021
-1.2153618
0.00030614358
-1.2987344
9.1670244e-05
-1.3880303
0.0095603461
-0.19132071
0.012379873
-0.17609892
0.011722806
-0.19072177
0.011798051
-0.2068938
0.01138141
-0.2245905
0.011087726
-0.24375747
0.010717373
-0.26424605
0.010420841
-0.28589311
0.010232197
-0.30857064
0.010189199
-0.3322465
0.010291986
-0.35701596
0.010502921
-0.38307755
0.010760274
-0.41068854
0.010994094
-0.44011111
0.011135326
-0.4715797
0.011128453
-0.5052923
0.010929877
-0.5414162
0.01051475
-0.58009727
0.0098752455
-0.62146414
0.0090267191
-0.66563404
0.0080047961
-0.71271861
0.0068639902
-0.76283486
0.0056700208
-0.81612099
0.0044915968
-0.87274529
0.0033913659
-0.93292609
0.0024189967
-0.99693541
0.0016067845
-1.0651019
0.00097008237
-1.1378291
0.000506948
-1.2155626
0.00020668791
-1.2988494
4.3710456e-05
-1.388074
0.0078253824
-0.18925436
0.010427568
-0.18936841
0.011590392
-0.17596651
0.011843895
-0.19076761
0.011571503
-0.2070839
0.011413987
-0.22491676
0.011127684
-0.24416778
0.010862518
-0.26468773
0.010653578
-0.28631449
0.010554827
-0.30893627
0.010596432
-0.33255094
0.010764074
-0.35727711
0.011014398
-0.38333168
0.011281683
-0.41097612
0.011492624
-0.44046841
0.011581775
-0.47203303
0.011494487
-0.50585692
0.011194423
-0.54209588
0.010661869
-0.5808839
0.0099002524
-0.62233767
0.0089343305
-0.66656358
0.0078109324
-0.71366555
0.006592583
-0.76375743
0.0053501194
-0.81697951
0.0041531413
-0.87350707
0.0030613392
-0.93356843
0.0021189204
-0.99744755
0.0013512283
-1.065483
0.00076697013
-1.1380891
0.00035854012
-1.2157145
0.00011159148
-1.2989173
-1.4198907e-06
-1.3880726
0.0063869183
-0.18715164
0.0088027606
-0.18762955
0.0097399974
-0.18751801
0.011755961
-0.17587858
0.011638618
-0.19083473
0.011637189
-0.2073071
0.011469297
-0.22525837
0.011279419
-0.24458468
0.011091644
-0.26512579
0.010965027
-0.28672469
0.010953479
-0.30929332
0.011066745
-0.33285361
0.011287475
-0.35755019
0.011562954
-0.38361295
0.011822849
-0.41130635
0.011995009
-0.44088164
0.012014003
-0.47255254
0.011831359
-0.50649385
0.011414963
-0.54284897
0.01075568
-0.58173932
0.009866097
-0.62326944
0.0087831288
-0.66753578
0.0075632093
-0.71463618
0.0062763706
-0.76468368
0.0049966583
-0.81782303
0.0037926804
-0.87423841
0.0027197775
-0.93416929
0.0018154321
-0.99791175
0.0010977745
-1.0658138
0.00056883229
-1.1382994
0.00021596132
-1.2158189
2.1380734e-05
-1.2989401
-4.3374908e-05
-1.3880292
0.0051779546
-0.18507469
0.0074245909
-0.18577347
0.0082093758
-0.18609893
0.009999343
-0.1857614
0.011582533
-0.17582249
0.011740685
-0.19093823
0.011713334
-0.20755114
0.011636916
-0.22561587
0.011513343
-0.24500638
0.011397514
-0.26555828
0.011356313
-0.28712753
0.011418435
-0.30964501
0.01159552
-0.33316166
0.011855395
-0.35784263
0.012139736
-0.38392983
0.012376089
-0.41168743
0.012490837
-0.44135847
0.012423412
-0.47314459
0.012128617
-0.5072075
0.011584044
-0.54367733
0.010789128
-0.58266236
0.0097690612
-0.62425537
0.0085715433
-0.66854411
0.0072627171
-0.71562252
0.0059182577
-0.76560528
0.0046135652
-0.81864391
0.003414556
-0.87493319
0.0023705867
-0.93472444
0.0015117907
-0.99832577
0.00084877983
-1.0660938
0.00037724141
-1.1384607
7.9947459e-05
-1.2158774
-6.3675399e-05
-1.2989198
-8.36113e-05
-1.3879456
0.0041383759
-0.18309474
0.006220101
-0.1838702
0.0069203189
-0.18448441
0.0085405744
-0.18464016
0.0099157341
-0.1840946
0.011716224
-0.17579803
0.011840038
-0.19106493
0.011904795
-0.20781902
0.01188333
-0.22598585
0.011821131
-0.24543
0.01178562
-0.26598759
0.011815465
-0.28752456
0.011948056
-0.30999754
0.01217556
-0.33348182
0.012460031
-0.35816292
0.012737252
-0.384291
0.012931191
-0.41212778
0.012971241
-0.4419063
0.012798947
-0.47381492
0.012377799
-0.50800126
0.01169314
-0.54458135
0.010756983
-0.58365028
0.0096060067
-0.62528984
0.0082994863
-0.66958088
0.0069115839
-0.71661585
0.0055219401
-0.76651365
0.0042053904
-0.81943474
0.0030231944
-0.8755858
0.002017699
-0.93523035
0.0012110224
-0.99868801
0.0006063763
-1.0663229
0.0001934906
-1.1385742
-4.8844593e-05
-1.2158923
-0.00014354212
-1.2988599
-0.00012080487
-1.3878248
0.0032164463
-0.18128705
0.0051260639
-0.1820007
0.0058004759
-0.18275036
0.0072989271
-0.18324276
0.0085331816
-0.18325761
0.010128307
-0.18250668
0.011840216
-0.17579821
0.01206057
-0.19122071
0.012169321
-0.20810501
0.012200907
-0.22636563
0.012212107
-0.24585649
0.012241682
-0.2664138
0.012344159
-0.28792066
0.012534592
-0.31035657
0.01280047
-0.33382226
0.013094215
-0.35851988
0.013345654
-0.38470546
0.013479211
-0.41263575
0.013424768
-0.44253212
0.013131294
-0.47456842
0.012569032
-0.50887715
0.011735487
-0.54555985
0.01065439
-0.58469866
0.0093754081
-0.62636576
0.0079679914
-0.67063729
0.0065129725
-0.71760688
0.0050919426
-0.7674002
0.0037769524
-0.8201885
0.0026231685
-0.87619126
0.0016648607
-0.93568419
0.00091593214
-0.99899757
0.00037240997
-1.0665018
1.8649997e-05
-1.1386417
-0.00016991508
-1.2158659
-0.00021779491
-1.2987629
-0.00015507958
-1.3876697
0.0023701133
-0.17972678
0.0040913724
-0.18025236
0.0047864184
-0.18098665
0.0061994567
-0.18165089
0.0073525235
-0.18206211
0.0088077953
-0.1819371
0.010322262
-0.18098873
0.012091
-0.17582864
0.012346262
-0.19139765
0.012503452
-0.20840755
0.012601213
-0.22675473
0.01267014
-0.24628495
0.012770568
-0.26684021
0.012934046
-0.28832011
0.013173431
-0.31072953
0.013463513
-0.33419156
0.013748673
-0.3589229
0.013956109
-0.38518236
0.0140085
-0.41321949
0.01384144
-0.44324227
0.013409402
-0.47540879
0.012694057
-0.50983572
0.011704438
-0.5466099
0.010478171
-0.58580142
0.0090768962
-0.62747466
0.0075793577
-0.67170367
0.0060710931
-0.71858603
0.0046332807
-0.76825653
0.0033333773
-0.82089871
0.0022189581
-0.87674536
0.0013156252
-0.93608388
0.00062901841
-0.99925417
0.00014846137
-1.0666317
-0.00014642471
-1.1386652
-0.00028283845
-1.2158008
-0.0002863508
-1.2986316
-0.00018631933
-1.3874834
0.0015669251
-0.17848324
0.0030789646
-0.17871437
0.0038273408
-0.17929328
0.0051775196
-0.17996471
0.0062972495
-0.18059561
0.007669766
-0.18092408
0.0090581729
-0.18067301
0.010640707
-0.17953843
0.012398688
-0.17588106
0.012701399
-0.19159559
0.012918544
-0.20872488
0.013067264
-0.22715186
0.013202655
-0.24671703
0.01336346
-0.26726963
0.013582557
-0.28872924
0.013858332
-0.31112435
0.014156252
-0.33459914
0.014414888
-0.35938168
0.01455699
-0.38573085
0.014508627
-0.41388667
0.014209232
-0.4440421
0.013623618
-0.47633835
0.012744425
-0.51087571
0.011594995
-0.54772672
0.010226273
-0.5869508
0.0087115638
-0.62860687
0.0071371477
-0.67276972
0.005590901
-0.71954365
0.0041514846
-0.76907464
0.0028798423
-0.82155959
0.0018149139
-0.87724465
0.00097324211
-0.93642811
0.00035247602
-0.99945819
-6.4174923e-05
-1.0667139
-0.00030107654
-1.1386469
-0.00038737236
-1.2156998
-0.00034910861
-1.2984688
-0.00021459186
-1.3872688
0.00078286699
-0.17761451
0.0020654586
-0.17746973
0.0028859838
-0.17777301
0.0041821122
-0.17829787
0.0053008523
-0.17896831
0.0066350547
-0.1795609
0.0079606879
-0.17982659
0.0094266217
-0.17945892
0.011005507
-0.17814525
0.012776073
-0.17595574
0.013134693
-0.19181174
0.013398151
-0.20905577
0.013608028
-0.22755723
0.01380065
-0.24715422
0.014019883
-0.26770695
0.014284021
-0.28915493
0.01458199
-0.31155009
0.014870693
-0.33505494
0.015081483
-0.35990617
0.015137627
-0.38635985
0.014966817
-0.41464426
0.014517248
-0.44493573
0.013763756
-0.47735768
0.012713232
-0.51199394
0.011403198
-0.54890365
0.0098982515
-0.58813749
0.008281964
-0.62975168
0.0066459391
-0.67382476
0.0050781107
-0.72047028
0.003652329
-0.76984712
0.0024215027
-0.82216618
0.0014151199
-0.87768653
0.00064063838
-0.93671627
8.8160374e-05
-0.99961052
-0.00026447654
-1.0667505
-0.00044485472
-1.1385895
-0.00048338323
-1.2155655
-0.0004061028
-1.2982773
-0.0002399571
-1.3870288
-0.1771626
1.0551585e-08
0.0010397535
-0.17658881
0.0019395615
-0.17652331
0.0031782226
-0.17676912
0.0043115738
-0.1773086
0.0056355091
-0.17796877
0.0069470435
-0.17854726
0.0083603045
-0.17876027
0.0098356627
-0.17828908
0.011434527
-0.17680371
0.013228387
-0.17604943
0.013631623
-0.19204521
0.013951617
-0.20939936
0.014214702
-0.22797128
0.014465541
-0.24759988
0.01473484
-0.26815777
0.015032529
-0.28960547
0.015337134
-0.31201653
0.015595973
-0.33556944
0.015737793
-0.36050634
0.01568475
-0.38707778
0.015371125
-0.41549813
0.014753693
-0.44592567
0.013820985
-0.47846543
0.01259444
-0.51318519
0.011126758
-0.55013216
0.0094952774
-0.5893508
0.007791933
-0.63089768
0.0061113444
-0.674858
0.0045389263
-0.72135687
0.003141728
-0.77056735
0.0019633292
-0.82271439
0.0010233463
-0.87806924
0.00032036251
-0.93694847
-0.00016240787
-0.99971259
-0.00045168737
-1.0667437
-0.00057749008
-1.1384954
-0.00057087063
-1.2154008
-0.00045742547
-1.2980598
-0.00026251989
-1.3867663
-0.17612285
1.2498322e-08
-0.1771626
-0.00078284596
0.00097785882
-0.1756271
0.0021471973
-0.17549228
0.003295161
-0.17575271
0.0046183794
-0.17629147
0.0059465046
-0.17696823
0.0073573849
-0.17754434
0.0087966443
-0.17772126
0.010303493
-0.17715805
0.011930939
-0.17550626
0.013743759
-0.17616157
0.01420087
-0.19229447
0.014570747
-0.2097554
0.014890181
-0.22839592
0.015193108
-0.24805815
0.015503973
-0.26862921
0.015821717
-0.29009005
0.016113705
-0.31253426
0.01632169
-0.33615333
0.016370314
-0.3611919
0.016185588
-0.38789224
0.015708327
-0.41645277
0.014907857
-0.44701254
0.013787093
-0.47965809
0.012383665
-0.51444209
0.010765108
-0.55140199
0.0090200521
-0.59057892
0.0072466336
-0.63203297
0.005539755
-0.67585882
0.0039799072
-0.72219505
0.0026255439
-0.77122956
0.0015100256
-0.82320107
0.00064296778
-0.87839184
1.457574e-05
-0.93712545
-0.00039804287
-0.99976624
-0.00062529634
-1.0666959
-0.00069888639
-1.1383673
-0.00064993705
-1.2152083
-0.00050323577
-1.2978191
-0.00028239793
-1.3864839
-0.17514501
1.2879258e-08
-0.17612285
-0.0010397286
-0.17761451
-0.0015669044
0.0010852741
-0.17456518
0.0022353967
-0.17443252
0.0035501589
-0.17468449
0.0049051527
-0.17525011
0.0063441587
-0.175955
0.007800622
-0.17654831
0.0092873011
-0.17670506
0.010832033
-0.17605914
0.012486241
-0.17424874
0.014329641
-0.17629034
0.014835188
-0.19255891
0.015259392
-0.21012462
0.0156311
-0.22883391
0.015980576
-0.24853475
0.016321994
-0.26912949
0.016642623
-0.29061897
0.016901841
-0.31311441
0.0170344
-0.33681742
0.016965712
-0.36197203
0.016625714
-0.38880963
0.015965953
-0.41751086
0.01496934
-0.44819479
0.013655415
-0.48092984
0.012078272
-0.51575526
0.010319407
-0.55270134
0.0084768912
-0.59180918
0.00665233
-0.63314554
0.0049381868
-0.6768171
0.0034077522
-0.72297726
0.0021094686
-0.77182901
0.0010659156
-0.82362402
0.00027693528
-0.8786542
-0.00027496304
-0.93724853
-0.00061787623
-0.99977366
-0.00078502487
-1.0666097
-0.0008090981
-1.1382082
-0.00072077713
-1.2149907
-0.00054373788
-1.2975578
-0.00029972513
-1.3861842
-0.17405975
1.3594314e-08
-0.17514501
-0.00097783313
-0.17658881
-0.0020654341
-0.17848324
-0.0023700928
0.0011327468
-0.17346253
0.0024178148
-0.17330018
0.0037897912
-0.17356913
0.0052648771
-0.17417083
0.0067704932
-0.17492487
0.0082936306
-0.17555464
0.0098327029
-0.17570573
0.011415175
-0.17498807
0.013105505
-0.1730246
0.014979843
-0.17643499
0.01553887
-0.19283839
0.016015067
-0.21050858
0.016436136
-0.22928947
0.016823832
-0.24903659
0.01718129
-0.26966816
0.017486206
-0.29120333
0.017688481
-0.3137685
0.0177205
-0.3375722
0.017508626
-0.36285494
0.016991075
-0.38983475
0.016131469
-0.41867299
0.014929082
-0.44946845
0.013420976
-0.48227254
0.011677489
-0.51711334
0.0097926968
-0.55401715
0.007871553
-0.5930284
0.0060162279
-0.63422358
0.0043140484
-0.6777234
0.0028291441
-0.72369694
0.0015988719
-0.77236196
0.00063488547
-0.82398197
-7.225701e-05
-0.87885691
-0.00054688639
-0.93731952
-0.00082133404
-0.99973735
-0.00093080146
-1.066488
-0.00090831056
-1.1380206
-0.0007836595
-1.2147508
-0.00057917265
-1.2972783
-0.00031464461
-1.3858695
-0.17292701
1.3608093e-08
-0.17405975
-0.0010852471
-0.1756271
-0.0019395361
-0.17746973
-0.0030789405
-0.17972678
-0.0032164263
0.0012274151
-0.17227213
0.002590251
-0.17210064
0.0040870344
-0.17239129
0.0056486123
-0.17304895
0.0072418495
-0.17387309
0.0088357306
-0.17455767
0.010428452
-0.17471901
0.012056533
-0.1739391
0.013784129
-0.17182889
0.01569876
-0.17659488
0.016310286
-0.1931336
0.016837659
-0.21091011
0.017302378
-0.22976802
0.017716788
-0.24957209
0.018073911
-0.27025586
0.018340134
-0.29185498
0.018460074
-0.31450807
0.018363996
-0.33842757
0.017983647
-0.36384751
0.017267134
-0.39097042
0.016193386
-0.41993729
0.014779557
-0.45082704
0.01308071
-0.48367576
0.011182645
-0.51850329
0.009189799
-0.55533539
0.0072110902
-0.59422326
0.0053462386
-0.63525577
0.0036749504
-0.67856921
0.0022505553
-0.72434862
0.0010987094
-0.77282579
0.00022032909
-0.82427456
-0.0004025797
-0.87900121
-0.00080019589
-0.93734066
-0.0010081197
-0.99966003
-0.0010627369
-1.0663336
-0.00099681907
-1.1378075
-0.00083891234
-1.2144911
-0.00060980634
-1.2969832
-0.00032730612
-1.3855422
-0.17169961
1.3466161e-08
-0.17292701
-0.0011327197
-0.17456518
-0.0021471705
-0.17652331
-0.0028859589
-0.17871437
-0.0040913489
-0.18128705
-0.0041383564
0.0013176029
-0.17099948
0.0028031274
-0.17081673
0.0044022746
-0.17114495
0.0060714645
-0.17187857
0.0077564237
-0.17279378
0.0094244618
-0.17355368
0.011077114
-0.17373959
0.012752627
-0.1729076
0.01452562
-0.17065575
0.016485504
-0.1767701
0.017150228
-0.19344617
0.017725376
-0.2113331
0.018225313
-0.23027655
0.018652798
-0.25015097
0.018988579
-0.27090431
0.019191257
-0.29258617
0.019200347
-0.31534442
0.018948411
-0.33939234
0.018374431
-0.36495481
0.017440014
-0.39221704
0.016141501
-0.42129924
0.014515105
-0.45226143
0.012633808
-0.48512693
0.010597159
-0.51991065
0.0085172034
-0.55664151
0.0065036277
-0.59538065
0.0046507612
-0.63623158
0.0030284689
-0.67934712
0.0016781156
-0.72492802
0.00061343359
-0.77321889
-0.00017488411
-0.82450225
-0.00071246087
-0.87908895
-0.0010342435
-0.93731454
-0.0011781819
-0.99954458
-0.0011810987
-1.0661493
-0.001075009
-1.1375714
-0.00088690849
-1.214214
-0.00063592283
-1.2966746
-0.00033786292
-1.3852044
-0.17038202
1.3128379e-08
-0.17169961
-0.0012273883
-0.17346253
-0.0022353699
-0.17549228
-0.0031781964
-0.17777301
-0.0038273165
-0.18025236
-0.0051260411
-0.18309474
-0.0051779356
0.0014293981
-0.16962575
0.0030270258
-0.16944148
0.0047495868
-0.16982307
0.0065311699
-0.17065331
0.0083130282
-0.17168235
0.010060786
-0.17253735
0.011776203
-0.17276317
0.013506316
-0.1718883
0.01533014
-0.16950038
0.017341505
-0.17696138
0.018057862
-0.19377866
0.018675209
-0.211783
0.019199723
-0.23082347
0.01962193
-0.25078432
0.019912918
-0.27162597
0.020023409
-0.29340923
0.019892087
-0.3162881
0.019455854
-0.34047376
0.018664838
-0.36617963
0.017496787
-0.39357233
0.015967315
-0.42275145
0.01413238
-0.45376
0.012081812
-0.48661158
0.0099264949
-0.52131994
0.0077828783
-0.55792076
0.005758129
-0.59648802
0.0039384063
-0.63714152
0.0023819677
-0.68005097
0.0011174806
-0.72543207
0.00014693539
-0.77354071
-0.00054842425
-0.82466629
-0.0010007535
-0.87912244
-0.0012487058
-0.93724401
-0.001331686
-0.999394
-0.0012862855
-1.065938
-0.0011433361
-1.137315
-0.00092805182
-1.2139218
-0.00065781556
-1.2963546
-0.00034646846
-1.3848579
-0.16895264
1.2796923e-08
-0.17038202
-0.0013175767
-0.17227213
-0.0024177883
-0.17443252
-0.0032951347
-0.17676912
-0.0041820866
-0.17929328
-0.0047863948
-0.1820007
-0.0062200789
-0.18507469
-0.0063868999
0.001545134
-0.16814386
0.0032742554
-0.16796615
0.0051260997
-0.168418
0.0070270251
-0.16936731
0.0089117311
-0.17053329
0.010743587
-0.17150474
0.01252822
-0.17178507
0.014318244
-0.1708764
0.016198842
-0.16835772
0.018266668
-0.17717018
0.019031501
-0.19413495
0.019683358
-0.21226663
0.020217206
-0.23141875
0.02061292
-0.25148433
0.020831279
-0.27243384
0.020819029
-0.29433617
0.020516177
-0.31734842
0.01986812
-0.34167704
0.01883925
-0.3675221
0.017425956
-0.39503097
0.015664607
-0.42428367
0.013630579
-0.45530877
0.011428655
-0.48811374
0.0091780231
-0.52271508
0.0069960423
-0.55915867
0.0049840895
-0.5975337
0.003217773
-0.63797733
0.0017424195
-0.68067591
0.00057373695
-0.72585887
-0.00029749958
-0.77379163
-0.00089848662
-0.82476855
-0.0012667223
-0.87910442
-0.001443548
-0.93713215
-0.001468982
-0.9992113
-0.001378802
-1.0657026
-0.0012023064
-1.1370407
-0.00096276375
-1.2136169
-0.00067578215
-1.2960253
-0.00035327444
-1.3845046
-0.16740752
1.2311817e-08
-0.16895264
-0.0014293727
-0.17099948
-0.0025902252
-0.17330017
-0.0035501328
-0.17575271
-0.0043115481
-0.17829787
-0.0051774947
-0.18098664
-0.005800453
-0.1838702
-0.0074245695
-0.18715164
-0.0078253645
0.0016737202
-0.16654333
0.0035418859
-0.16638193
0.0055317494
-0.16692273
0.0075593814
-0.16801496
0.0095529074
-0.16934262
0.0114745
-0.17045102
0.013333989
-0.17080082
0.015189977
-0.16986753
0.017132513
-0.16722357
0.0192604
-0.17739908
0.020068628
-0.19452022
0.020743007
-0.21279243
0.021267888
-0.23207372
0.021611046
-0.25226409
0.021726181
-0.27334099
0.021558161
-0.29537815
0.021052632
-0.31853293
0.020167026
-0.34300482
0.018883098
-0.36897924
0.017218151
-0.39658452
0.015229791
-0.42588289
0.01301159
-0.4568917
0.010680613
-0.48961633
0.0083608243
-0.52407986
0.0061668381
-0.56034142
0.0041912713
-0.5985072
0.0024972169
-0.63873212
0.0011162621
-0.68121844
5.1325914e-05
-0.7262077
-0.00071720695
-0.77397291
-0.0012237571
-0.82481152
-0.0015100091
-0.87903796
-0.0016189879
-0.93698214
-0.0015905732
-0.99899953
-0.0014592303
-1.0654456
-0.0012524561
-1.136751
-0.00099148063
-1.2133012
-0.00069012615
-1.2956884
-0.00035842647
-1.3841462
-0.16573381
1.1744438e-08
-0.16740751
-0.0015451096
-0.16962575
-0.0028031022
-0.17210063
-0.0037897656
-0.17468449
-0.0046183539
-0.17730859
-0.0053008274
-0.17996471
-0.0061994325
-0.18275035
-0.0069202966
-0.18577347
-0.0088027398
-0.18925436
-0.0095603286
0.0018127913
-0.16481423
0.0038300793
-0.16468026