/*--------------------------------*- C++ -*----------------------------------*\
| =========                 |                                                 |
| \\      /  F ield         | OpenFOAM: The Open Source CFD Toolbox           |
|  \\    /   O peration     | Version:  5.0                                   |
|   \\  /    A nd           | Web:      www.OpenFOAM.org                      |
|    \\/     M anipulation  |                                                 |
\*---------------------------------------------------------------------------*/
FoamFile
{
    version     2.0;
    format      ascii;
    class       volScalarField;
    location    "75";
    object      pMean;
}
// * * * * * * * * * * * * * * * * * * * * * * * * * * * * * * * * * * * * * //

dimensions      [0 2 -2 0 0 0 0];

internalField   nonuniform List<scalar> 
9200
(
-0.00043850212
-0.00043261943
-0.00095558789
-0.00042789677
-0.00094808672
-0.0016352771
-0.00042159515
-0.00093495774
-0.0016208747
-0.0022337591
-0.00041361728
-0.00091596563
-0.0015992544
-0.002215979
-0.0028562202
-0.00040468826
-0.00089127126
-0.0015686999
-0.002186833
-0.0028346523
-0.0034526548
-0.00039433291
-0.00086286714
-0.0015290157
-0.0021459329
-0.0027986683
-0.0034290397
-0.004043447
-0.00038323705
-0.00083007512
-0.0014831258
-0.0020923166
-0.002748778
-0.00338767
-0.004018727
-0.0046186449
-0.00037136424
-0.00079432478
-0.0014302186
-0.0020300144
-0.0026827527
-0.0033309038
-0.0039733663
-0.0045943138
-0.0051822383
-0.0003590864
-0.00075571563
-0.001372357
-0.0019579344
-0.0026056967
-0.0032546691
-0.0039118122
-0.00454665
-0.005159802
-0.0057304383
-0.00034652762
-0.00071505883
-0.0013099009
-0.0018787452
-0.0025160934
-0.0031651847
-0.0038276038
-0.0044827901
-0.0051118692
-0.0057116017
-0.0062642723
-0.00033381541
-0.00067280539
-0.0012441182
-0.001792981
-0.0024172041
-0.0030602456
-0.0037280945
-0.0043932788
-0.0050486946
-0.0056655628
-0.0062508247
-0.0067806579
-0.00032087003
-0.0006295473
-0.0011757987
-0.0017023354
-0.0023097216
-0.0029436187
-0.0036101688
-0.0042866052
-0.0049571341
-0.0056062239
-0.0062091353
-0.0067745044
-0.0072789676
-0.00030737866
-0.00058580258
-0.0011058472
-0.0016079431
-0.002195789
-0.0028160253
-0.003478036
-0.0041584371
-0.0048467244
-0.0055161098
-0.0061572231
-0.0067397475
-0.0072820945
-0.0077564557
-0.00029266913
-0.00054216021
-0.0010349693
-0.0015111341
-0.0020768919
-0.0026800039
-0.0033323592
-0.0040133236
-0.0047116655
-0.0054057846
-0.0060726006
-0.0066990268
-0.0072570834
-0.0077708547
-0.0082116582
-0.00027562647
-0.00049929427
-0.00096374008
-0.0014130726
-0.0019547373
-0.0025373808
-0.0031760347
-0.0038517315
-0.0045567318
-0.0052676257
-0.0059667153
-0.0066242096
-0.0072316483
-0.0077584734
-0.0082392702
-0.0086421787
-0.00025467898
-0.00045803817
-0.00089260667
-0.0013148786
-0.0018308104
-0.0023903031
-0.0030111691
-0.0036768486
-0.0043820502
-0.0051064607
-0.0058298302
-0.0065275645
-0.0071713946
-0.007752526
-0.008242476
-0.0086849394
-0.0090460449
-0.00022787293
-0.00041943377
-0.00082187764
-0.0012175837
-0.0017065094
-0.0022406635
-0.0028403024
-0.0034910308
-0.0041910067
-0.0049218844
-0.005666675
-0.0063968671
-0.0070892663
-0.0077118118
-0.0082604093
-0.0087065819
-0.0091058658
-0.0094211132
-0.00019308335
-0.00038468341
-0.00075166055
-0.0011221578
-0.0015830361
-0.0020902625
-0.002665714
-0.0032972113
-0.0039861298
-0.0047173839
-0.0054760946
-0.0062364997
-0.0069702551
-0.0076498647
-0.0082445165
-0.0087527309
-0.0091488294
-0.0094997222
-0.0097655838
-0.00014837096
-0.00035500333
-0.00068197814
-0.0010295839
-0.0014614085
-0.0019407085
-0.0024895738
-0.003098078
-0.0037707226
-0.0044955891
-0.0052615253
-0.0060443571
-0.006818174
-0.0075485269
-0.0082087968
-0.0087670124
-0.0092274754
-0.0095668695
-0.0098645409
-0.010077799
-9.2361984e-05
-0.00033147363
-0.00061287121
-0.00094079618
-0.0013424652
-0.0017933922
-0.0023138088
-0.0028962412
-0.0035478851
-0.0042601387
-0.0050255879
-0.0058236655
-0.0066296988
-0.0074108228
-0.0081316743
-0.0087637845
-0.0092773961
-0.0096820854
-0.0099584903
-0.010198457
-0.010356372
-2.4551273e-05
-0.00031481205
-0.00054440952
-0.00085660516
-0.0012269342
-0.0016494845
-0.0021401021
-0.0026940555
-0.0033206831
-0.0040145409
-0.0047721998
-0.0055768982
-0.0064076399
-0.0072319328
-0.0080151176
-0.0087177879
-0.0093131463
-0.0097729615
-0.010114204
-0.010321522
-0.010499845
-0.010600219
5.4559878e-05
-0.00030521408
-0.00047682694
-0.00077771466
-0.0011154217
-0.0015099701
-0.0019698607
-0.002493598
-0.0030919253
-0.0037623517
-0.0045052545
-0.0053081623
-0.0061541546
-0.0070140231
-0.0078525335
-0.0086297013
-0.0093055622
-0.0098541512
-0.010251231
-0.010521359
-0.010654069
-0.010767339
-0.010808545
0.00014349338
-0.00030240236
-0.00041064194
-0.0007047235
-0.0010084254
-0.0013757742
-0.0018042539
-0.0022966669
-0.0028641353
-0.0035069013
-0.0042288018
-0.00502169
-0.0058734211
-0.0067587219
-0.0076451801
-0.0084908607
-0.0092538117
-0.0098924483
-0.010384306
-0.010709383
-0.010901245
-0.010954419
-0.01099988
-0.010980865
0.00023986459
-0.00030603381
-0.00034662347
-0.00063812264
-0.00090635285
-0.0012477019
-0.0016442842
-0.002104764
-0.0026395024
-0.0032512315
-0.0039467169
-0.0047220299
-0.0055699348
-0.0064701149
-0.0073939152
-0.0083013369
-0.0091468851
-0.0098852924
-0.010476054
-0.010900488
-0.011144724
-0.011251605
-0.011221095
-0.011196712
-0.011117043
0.00034068525
-0.00031642721
-0.00028554004
-0.00057824312
-0.00080956704
-0.0011263835
-0.0014908218
-0.0019191386
-0.002419891
-0.002998024
-0.0036626092
-0.004413642
-0.0052487117
-0.0061528465
-0.007102532
-0.0080609333
-0.0089833634
-0.0098190658
-0.010522052
-0.011053163
-0.011399688
-0.011554478
-0.011570397
-0.011452921
-0.011357386
-0.011217238
0.00044262876
-0.00033409052
-0.00022739262
-0.00052519217
-0.00071847816
-0.001012305
-0.0013445903
-0.001740902
-0.0022068603
-0.0027495799
-0.0033797247
-0.004100766
-0.0049148009
-0.0058123381
-0.0067756691
-0.0077729029
-0.0087616916
-0.0096905608
-0.010505853
-0.011160995
-0.011620541
-0.011878575
-0.011936035
-0.011855842
-0.011649034
-0.011481791
-0.01128179
0.00054207131
-0.00035835738
-0.00017163661
-0.00047890728
-0.00063334175
-0.00090584255
-0.0012061971
-0.0015710528
-0.0020017371
-0.0025078533
-0.0031008999
-0.0037872798
-0.0045731123
-0.005454219
-0.0064190536
-0.0074416729
-0.0084842944
-0.0094965316
-0.010422165
-0.01120453
-0.011798853
-0.012174444
-0.012333939
-0.012286905
-0.012106478
-0.011808902
-0.011570088
-0.011311356
0.00063540021
-0.00038743125
-0.00011857663
-0.00043928179
-0.00055431367
-0.00080755072
-0.001076153
-0.0014103848
-0.001805681
-0.0022744979
-0.0028285533
-0.0034766282
-0.0042282251
-0.0050840995
-0.0060388456
-0.007073126
-0.0081551335
-0.0092382464
-0.010265716
-0.011176125
-0.011912056
-0.01243165
-0.012711099
-0.012762508
-0.01260485
-0.012321188
-0.011932332
-0.011622693
-0.011307128
0.00071852599
-0.00041899152
-6.9606604e-05
-0.00040626388
-0.00048172408
-0.00071789564
-0.0009548532
-0.0012595205
-0.001619651
-0.0020509317
-0.002564731
-0.0031717944
-0.0038842845
-0.0047073246
-0.005641359
-0.0066738616
-0.0077800447
-0.0089188941
-0.010036258
-0.011068147
-0.011949922
-0.01262447
-0.013055192
-0.013226504
-0.013161212
-0.012887883
-0.012499136
-0.012019423
-0.011640401
-0.011270385
0.00079490984
-0.00045098067
-2.5698145e-05
-0.00037928478
-0.00041612139
-0.00063708357
-0.0008426658
-0.0011189205
-0.0014443875
-0.0018384062
-0.0023111871
-0.0028753218
-0.003544939
-0.0043288229
-0.005232749
-0.0062508649
-0.0073659246
-0.0085440011
-0.0097358536
-0.010878453
-0.011902153
-0.012739933
-0.013337396
-0.013664858
-0.013716726
-0.013527123
-0.013134323
-0.012639701
-0.012070539
-0.011624332
-0.011202387
0.0008768563
-0.00047821352
1.0932278e-05
-0.00035612132
-0.00035826936
-0.00056520042
-0.00073984115
-0.00098899792
-0.0012805594
-0.0016379781
-0.0020694334
-0.0025893888
-0.0032133354
-0.0039530146
-0.0048188062
-0.0058111201
-0.0069203504
-0.0081205578
-0.0093693992
-0.010607584
-0.011764323
-0.012764795
-0.013541895
-0.014045791
-0.014255913
-0.014177851
-0.013857609
-0.013342806
-0.012742636
-0.01208637
-0.011575704
-0.011104602
0.00095838729
-0.00050092173
4.0202225e-05
-0.00033854029
-0.00030688996
-0.00050198933
-0.00064694815
-0.00087026941
-0.0011287345
-0.0014504366
-0.0018407381
-0.0023158942
-0.0028921739
-0.0035837732
-0.0044048196
-0.0053613433
-0.0064511192
-0.0076565963
-0.0089437084
-0.010259426
-0.011535032
-0.012691984
-0.013652296
-0.014350639
-0.014744276
-0.014823468
-0.014606178
-0.014150334
-0.013512366
-0.012808087
-0.012067776
-0.011495808
-0.010979042
0.0010359416
-0.00052252982
7.0997629e-05
-0.00032553336
-0.00026086734
-0.00044418347
-0.00056456743
-0.00076323704
-0.00098932652
-0.001276349
-0.0016261547
-0.0020564902
-0.0025837968
-0.0032244536
-0.0039955032
-0.0049077877
-0.0059659084
-0.0071606601
-0.0084670679
-0.0098402769
-0.01121672
-0.012517718
-0.013658543
-0.014559725
-0.015160389
-0.015427087
-0.015362702
-0.014998244
-0.01440336
-0.013642408
-0.012836488
-0.01201587
-0.011386221
-0.010827651
0.0011075116
-0.00054354655
0.00010109326
-0.0003066807
-0.0002230784
-0.00039234389
-0.00048929777
-0.00066804966
-0.00086301179
-0.001116284
-0.00142651
-0.0018125201
-0.0022902483
-0.0028779717
-0.0035949871
-0.0044561315
-0.0054720152
-0.0066413856
-0.0079486392
-0.0093584005
-0.010814765
-0.012242525
-0.013554048
-0.014659736
-0.015481265
-0.01596472
-0.016088326
-0.015868913
-0.015350943
-0.014615146
-0.013732727
-0.012828609
-0.011932076
-0.011248907
-0.010652247
0.0011711735
-0.0005633494
0.00012852758
-0.00028701356
-0.00018412197
-0.00035324949
-0.00042017866
-0.00058014221
-0.00075025793
-0.00097109273
-0.0012424804
-0.0015850146
-0.0020132719
-0.0025468873
-0.0032068802
-0.0040114272
-0.0049761895
-0.0061071685
-0.0073979662
-0.0088233757
-0.010337051
-0.011870386
-0.013336928
-0.014640882
-0.01569014
-0.016410144
-0.016756794
-0.01672202
-0.016337667
-0.015661567
-0.014784589
-0.013783494
-0.012785523
-0.011818039
-0.011085731
-0.01045467
0.0012249573
-0.00058119393
0.00015265734
-0.00026898688
-0.00014690647
-0.00031125639
-0.00036619276
-0.00049892502
-0.00064565406
-0.00084121857
-0.0010750141
-0.0013748155
-0.0017542596
-0.0022334216
-0.0028343602
-0.0035781316
-0.0044845409
-0.0055659292
-0.0068245568
-0.0082455356
-0.009793293
-0.011408375
-0.013009249
-0.014498372
-0.015773681
-0.016743056
-0.017338855
-0.01752945
-0.017322318
-0.016764882
-0.015927877
-0.014911034
-0.013795249
-0.012708566
-0.011675525
-0.010898626
-0.010236811
0.001267061
-0.00059641118
0.00017330373
-0.00025344279
-0.00011240117
-0.00026948727
-0.00031035789
-0.00043735642
-0.0005478555
-0.00072010925
-0.00092474488
-0.0011831161
-0.0015143117
-0.0019393679
-0.0024802207
-0.0031601864
-0.0040025228
-0.0050249705
-0.0062375728
-0.0076354611
-0.0091944158
-0.010865969
-0.012576761
-0.014231804
-0.015723722
-0.016946328
-0.017810696
-0.018259244
-0.018275409
-0.017883596
-0.017146927
-0.016148126
-0.014994278
-0.013768865
-0.012599292
-0.011506424
-0.010689555
-0.010000634
0.001295996
-0.00060839264
0.00019021632
-0.00024035608
-8.1902105e-05
-0.00023013676
-0.00025652283
-0.00037309948
-0.00047360568
-0.0006062346
-0.0007840149
-0.0010107417
-0.0012948074
-0.0016661609
-0.0021468029
-0.0027610852
-0.0035349951
-0.0044909096
-0.0056456231
-0.0070035881
-0.0085519666
-0.010254396
-0.012048243
-0.013845025
-0.015536821
-0.017008004
-0.018151256
-0.018884249
-0.019162724
-0.018987428
-0.018400615
-0.017480691
-0.016321098
-0.015034542
-0.013705529
-0.012459425
-0.011312694
-0.010460506
-0.0097480515
0.0013107298
-0.00061669042
0.00020313565
-0.00022974411
-5.5734893e-05
-0.0001953387
-0.00020574368
-0.00031041192
-0.00039684706
-0.00052147978
-0.00065074962
-0.00084876182
-0.0010968723
-0.0014155318
-0.0018360306
-0.0023838415
-0.0030863011
-0.0039697032
-0.0050566441
-0.0063599217
-0.00787763
-0.0095859784
-0.011434839
-0.013345565
-0.015214305
-0.016921055
-0.01834446
-0.019379463
-0.01995408
-0.020040458
-0.019658484
-0.018868613
-0.017763644
-0.016446104
-0.015032463
-0.013606702
-0.012290848
-0.01109635
-0.010213436
-0.0094808927
-0.000620958
0.0013107297
0.0002117401
-0.00022167254
-3.4226391e-05
-0.00016552759
-0.00016058277
-0.00025081721
-0.0003231376
-0.0004336393
-0.00055269042
-0.00069459622
-0.00091029926
-0.0011889779
-0.0015500569
-0.0020309441
-0.0026602514
-0.0034667151
-0.0044778671
-0.0057138593
-0.0071828573
-0.0088735516
-0.010749354
-0.012743997
-0.014761824
-0.01668364
-0.018379192
-0.019724484
-0.020620681
-0.021009923
-0.020883574
-0.020281937
-0.019283438
-0.017993877
-0.016522987
-0.014989069
-0.013474104
-0.012095572
-0.010859418
-0.0099502411
-0.0092008567
0.00021592537
-0.00062095812
0.001295996
-0.0002163622
-1.7742528e-05
-0.00014104239
-0.00012167856
-0.00019778887
-0.00025282493
-0.00034898936
-0.0004511161
-0.00058306429
-0.00073182647
-0.00097480486
-0.0012907587
-0.0017051005
-0.0022600646
-0.0029867028
-0.0039158657
-0.0050740938
-0.0064786152
-0.0081300048
-0.010005587
-0.012053204
-0.014188785
-0.01629884
-0.018249815
-0.019903708
-0.021137738
-0.021863549
-0.022041125
-0.021683382
-0.020851688
-0.019641605
-0.018170128
-0.016552104
-0.014905759
-0.013309669
-0.011875698
-0.010603897
-0.0096727073
-0.0089095699
-0.00021383615
0.00021592523
-0.00061669054
0.0012670609
-6.8280414e-06
-0.00012225922
-8.9554644e-05
-0.00015216421
-0.00019000262
-0.00026779562
-0.00035377953
-0.00046709578
-0.00060434007
-0.00076906251
-0.0010449603
-0.0014087548
-0.0018891868
-0.0025338106
-0.0033765478
-0.0044486154
-0.0057752285
-0.0073679419
-0.0092177774
-0.011287656
-0.013507637
-0.015774211
-0.017956107
-0.019907101
-0.021484871
-0.022572265
-0.023095856
-0.023036891
-0.022431583
-0.021362323
-0.019940382
-0.018291783
-0.016534324
-0.014784274
-0.013115513
-0.011633344
-0.010331699
-0.0093825435
-0.0086086246
-1.6378113e-06
-0.00021383633
0.00021173961
-0.00060839303
0.0012249572
-0.00010977179
-6.4789647e-05
-0.00011457546
-0.00013575099
-0.00019515428
-0.00026013682
-0.00035586706
-0.00047119187
-0.00062399665
-0.00080788283
-0.0011271528
-0.0015508159
-0.002112354
-0.0028651389
-0.0038446901
-0.0050823114
-0.0065994579
-0.0084001734
-0.010462759
-0.012733105
-0.015121133
-0.017503015
-0.019730422
-0.02164716
-0.023110799
-0.024014714
-0.024304814
-0.02398656
-0.023120479
-0.021809226
-0.020177816
-0.018358891
-0.016471001
-0.014626648
-0.012893841
-0.011370584
-0.010044647
-0.0090814078
-0.0082995824
-0.00010372897
-1.6380163e-06
-0.00021636273
0.00020313488
-0.00059641159
0.0011711733
-4.8260333e-05
-8.5726748e-05
-9.0889371e-05
-0.0001323848
-0.00017617384
-0.00024853369
-0.00034391042
-0.00047137821
-0.00064233373
-0.00085454907
-0.0012284761
-0.0017264773
-0.0023870317
-0.0032688181
-0.0044087173
-0.0058359945
-0.0075667271
-0.0095943303
-0.011881465
-0.014354045
-0.016900107
-0.019375188
-0.021615649
-0.023458974
-0.0247676
-0.025450598
-0.025477368
-0.024879869
-0.023743159
-0.02218868
-0.020352774
-0.018372153
-0.01636394
-0.01443512
-0.012646862
-0.011089395
-0.0097445157
-0.0087709422
-0.0079838798
-4.0272125e-05
-0.00010372922
-6.8286687e-06
-0.00022167343
0.0001902152
-0.00058119457
0.0011075115
-6.6669314e-05
-5.6304554e-05
-8.0456854e-05
-0.00010350011
-0.00015219221
-0.00022088416
-0.00032576091
-0.00046661393
-0.00066569765
-0.00091523703
-0.0013579658
-0.0019475787
-0.002727715
-0.0037624773
-0.0050882308
-0.0067308813
-0.008698201
-0.010969923
-0.01348967
-0.016160863
-0.01884832
-0.0213876
-0.023602521
-0.025328893
-0.026439602
-0.026864631
-0.026600533
-0.025707224
-0.024293668
-0.022497933
-0.020464958
-0.018332917
-0.016215291
-0.014211999
-0.012376715
-0.010791734
-0.0094330924
-0.0084527148
-0.0076628431
-5.7683647e-05
-4.0272421e-05
-0.00010977254
-1.7743578e-05
-0.00022974537
0.00017330232
-0.00056335009
0.0010359413
-3.328831e-05
-4.0421804e-05
-4.3282552e-05
-6.8752126e-05
-0.0001103382
-0.00018486788
-0.00029965968
-0.00046285213
-0.00069927034
-0.00099844571
-0.0015268556
-0.0022282222
-0.0031518339
-0.0043659815
-0.0059053711
-0.0077899343
-0.010016128
-0.0125463
-0.015301883
-0.018161541
-0.020966384
-0.023533651
-0.025678547
-0.027240774
-0.028109662
-0.028241105
-0.027661733
-0.026459953
-0.02476714
-0.02273526
-0.020514939
-0.018243063
-0.016027383
-0.013959554
-0.01208554
-0.010479615
-0.0091121166
-0.0081281653
-0.0073377888
-2.2249463e-05
-5.7683927e-05
-4.8261135e-05
-0.00012226049
-3.4227884e-05
-0.00024035774
0.00015265557
-0.00054354752
0.00095838695
-1.3802297e-05
3.2224528e-06
4.3632021e-07
-1.453242e-05
-5.8190734e-05
-0.00013812223
-0.00027097026
-0.00046406295
-0.00075114172
-0.0011147224
-0.0017487363
-0.0025854443
-0.0036792825
-0.0051020624
-0.0068845333
-0.0090378044
-0.011543226
-0.014342112
-0.017330614
-0.020361048
-0.023251246
-0.025803012
-0.027828023
-0.029176237
-0.029759571
-0.029564309
-0.028649155
-0.027130538
-0.025159914
-0.022900023
-0.020504034
-0.018104776
-0.01580254
-0.013680113
-0.01177566
-0.010155068
-0.0087831147
-0.0077985357
-0.007009817
-1.0623499e-06
-2.2249746e-05
-6.6670238e-05
-6.4791049e-05
-0.00014104416
-5.5736827e-05
-0.00025344485
0.00012852551
-0.00052253086
0.00087685573
3.4221727e-05
5.389448e-05
6.4967946e-05
5.162996e-05
7.227621e-06
-8.5464666e-05
-0.00024291813
-0.00047743271
-0.00083103256
-0.001277008
-0.0020401638
-0.0030389829
-0.0043330815
-0.0059961791
-0.0080523839
-0.010500286
-0.013302178
-0.016374545
-0.019585663
-0.022760681
-0.025695767
-0.02818147
-0.030032179
-0.031115039
-0.031370522
-0.030818974
-0.029552078
-0.02771281
-0.025469637
-0.02299262
-0.020434062
-0.017920319
-0.015543246
-0.013376363
-0.01144948
-0.0098196539
-0.0084472069
-0.0074649529
-0.0066791178
4.9142911e-05
-1.062718e-06
-3.3289289e-05
-8.5728247e-05
-8.9556566e-05
-0.00016552991
-8.1904527e-05
-0.00026898939
0.00010109082
-0.00050092307
0.00079490921
8.9535294e-05
0.0001264464
0.00014278288
0.00013323149
8.1543568e-05
-2.9473652e-05
-0.00022178692
-0.00051122544
-0.00095110574
-0.0015010451
-0.0024205285
-0.0036118826
-0.0051393783
-0.0070766087
-0.0094374167
-0.012203863
-0.01531485
-0.018658544
-0.022073341
-0.025357463
-0.028288357
-0.030650915
-0.032269473
-0.03303557
-0.03292365
-0.031990721
-0.030361207
-0.028202122
-0.025695265
-0.023014132
-0.020307009
-0.017692239
-0.015252587
-0.013051166
-0.011108578
-0.00947419
-0.0081057549
-0.0071289498
-0.0063465931
0.00010669923
4.9142499e-05
-1.3803313e-05
-5.6306099e-05
-0.00011457761
-0.00012168109
-0.00019534154
-0.00011240407
-0.00028701652
7.0994872e-05
-0.00047821491
0.00071852503
0.00016750809
0.000213293
0.00023780623
0.0002262502
0.00016278274
2.4355328e-05
-0.00021474181
-0.00057606433
-0.0011260378
-0.0018054826
-0.0029126661
-0.0043306102
-0.0061276477
-0.0083741285
-0.011069576
-0.014174945
-0.017601478
-0.021205931
-0.024795698
-0.02814357
-0.031012765
-0.033189495
-0.03451606
-0.034915449
-0.034400588
-0.033066507
-0.031068953
-0.028595379
-0.025836698
-0.022965967
-0.020125331
-0.017424012
-0.014933937
-0.012706061
-0.010753323
-0.0091206962
-0.0077620482
-0.0067925617
-0.0060025597
0.00018738679
0.00010669882
3.4220624e-05
-4.0423572e-05
-9.0891635e-05
-0.00015216696
-0.00016058584
-0.00023014015
-0.00014690988
-0.00030668414
4.019912e-05
-0.00045098239
0.00063539919
0.00026042138
0.00031871419
0.00034629662
0.00032925224
0.00024610111
6.9825123e-05
-0.00023117156
-0.00068484784
-0.0013735655
-0.0022127189
-0.0035430743
-0.0052254338
-0.007330514
-0.0099217209
-0.012979552
-0.016439047
-0.020179715
-0.024024491
-0.027749745
-0.031105883
-0.033848037
-0.035771994
-0.036746416
-0.036732206
-0.035784059
-0.034035087
-0.031669518
-0.028890698
-0.025894335
-0.022850224
-0.019892821
-0.017119566
-0.014588712
-0.012340774
-0.010386635
-0.0087656491
-0.0074186861
-0.0064356426
-0.005643834
0.00028329644
0.0001873863
8.9533973e-05
3.2205118e-06
-8.0459281e-05
-0.00013575384
-0.00019779232
-0.00020574737
-0.00026949119
-0.00018412588
-0.00032553727
1.0928875e-05
-0.00041899332
0.00054206998
0.0003728575
0.00043915844
0.00046727275
0.0004379812
0.00032621142
9.8666757e-05
-0.0002825615
-0.00085337573
-0.0017150782
-0.0027491199
-0.0043424844
-0.0063303996
-0.0087835358
-0.011753974
-0.015197977
-0.0190198
-0.023063605
-0.027117009
-0.030926763
-0.034225702
-0.036768723
-0.038370428
-0.038934106
-0.038463993
-0.037058477
-0.034887236
-0.032158513
-0.029086879
-0.025869509
-0.022670867
-0.019613951
-0.016780062
-0.014215777
-0.011959496
-0.010019213
-0.0084117563
-0.0070410283
-0.0060641904
-0.0052750272
0.00039926134
0.00028329581
0.00016750649
5.3892312e-05
-4.3285209e-05
-0.000132388
-0.00019000621
-0.00025082129
-0.00025652707
-0.00031126087
-0.0002230828
-0.00033854464
-2.5701888e-05
-0.00038743335
0.00044262742
0.00050134738
0.00057398679
0.00059693091
0.00054787752
0.00039582317
0.00010064946
-0.00038307854
-0.0011005958
-0.0021759689
-0.0034454099
-0.0053459935
-0.0076831459
-0.010524734
-0.013906325
-0.017754429
-0.021937835
-0.026262462
-0.030480338
-0.034311732
-0.037478719
-0.039745384
-0.040954854
-0.041052626
-0.04009037
-0.038210382
-0.035615335
-0.032532399
-0.029183973
-0.025766086
-0.022432833
-0.019289447
-0.016403211
-0.013820959
-0.011578599
-0.0096539855
-0.0079982002
-0.0066521028
-0.0056812404
-0.0048981442
0.00053178525
0.00039926066
0.0002604196
0.00012644382
4.3320689e-07
-0.00010350363
-0.00019515816
-0.00025282914
-0.00031041674
-0.00031036274
-0.00035325444
-0.0002608722
-0.00035612607
-6.9610571e-05
-0.00035835951
0.00034068374
0.00064551083
0.00071970563
0.00073124625
0.00065244914
0.00044580187
6.3105103e-05
-0.00054984554
-0.0014492714
-0.0027860701
-0.0043369836
-0.0065928626
-0.0093246093
-0.012593915
-0.016414107
-0.02067626
-0.025209538
-0.029779719
-0.034104536
-0.037883013
-0.040835335
-0.042745371
-0.043494329
-0.043076357
-0.041592915
-0.039228108
-0.036212636
-0.032789207
-0.02918531
-0.0255893
-0.022136157
-0.01891549
-0.015996897
-0.013427807
-0.011201022
-0.0091955739
-0.0075763689
-0.0062490737
-0.0052894294
-0.0045124799
0.00068067287
0.00053178451
0.00037285539
0.00021328991
6.4964212e-05
-6.8756127e-05
-0.00017617812
-0.00026780031
-0.00032314258
-0.00037310494
-0.0003661981
-0.00039234934
-0.00030689526
-0.00037928987
-0.00011858081
-0.00033409284
0.00023986317
0.00080202879
0.00087268044
0.00086441338
0.00074354296
0.00046484445
-2.9444298e-05
-0.00080350939
-0.001926531
-0.0035798759
-0.0054641276
-0.0081264704
-0.011298438
-0.01503181
-0.01931134
-0.023987261
-0.02884572
-0.033611787
-0.037972212
-0.041612385
-0.044261344
-0.045733865
-0.045958015
-0.04498139
-0.042955042
-0.040100884
-0.036674203
-0.032931122
-0.029096123
-0.02533813
-0.02177499
-0.018502454
-0.0155937
-0.013039167
-0.010684653
-0.0087331723
-0.0071376118
-0.0058370958
-0.0048879895
-0.0041187464
0.00084264719
0.00068067202
0.000501345
0.00031871067
0.00014277858
-1.4537211e-05
-0.00015219722
-0.00026014202
-0.00034899476
-0.00039685265
-0.00043736256
-0.00042018457
-0.00044418937
-0.00035827503
-0.00040626923
-0.00017164086
-0.00031642952
0.000143492
0.00096750493
0.0010276882
0.00098906109
0.00081104837
0.00043895194
-0.00019575608
-0.0011687856
-0.0025640031
-0.0045970299
-0.006872037
-0.0099937951
-0.013650256
-0.017878867
-0.022629331
-0.027706184
-0.032850229
-0.037747059
-0.042058229
-0.045465553
-0.047718988
-0.04867512
-0.048316238
-0.046745493
-0.044160996
-0.040819737
-0.037000249
-0.03296297
-0.028913826
-0.02500405
-0.021362652
-0.018094049
-0.015196226
-0.012453741
-0.010168504
-0.0082500243
-0.0066899887
-0.0054148279
-0.0044778195
-0.0037170087
0.0010144156
0.00084264631
0.00064550834
0.00043915452
0.00023780119
5.1624261e-05
-0.00011034421
-0.00024853968
-0.00035378557
-0.00043364553
-0.00047361201
-0.00049893173
-0.00048930414
-0.00050199561
-0.00041612733
-0.00043928731
-0.00022739696
-0.00030603617
5.4558649e-05
0.001137143
0.0011780072
0.0010959655
0.00084221333
0.00035102743
-0.00045831955
-0.001674834
-0.0033982775
-0.0058822386
-0.0086103811
-0.012244846
-0.016426508
-0.021173808
-0.026395086
-0.03184514
-0.037218613
-0.04216522
-0.046329911
-0.049403112
-0.051168299
-0.051533743
-0.050540631
-0.048346977
-0.045196761
-0.041381781
-0.037194544
-0.032879887
-0.028626332
-0.024603751
-0.020956432
-0.017692542
-0.01452805
-0.011873181
-0.0096269168
-0.0077585972
-0.0062319161
-0.0049835327
-0.0040590818
-0.0033076942
0.0011914908
0.0010144148
0.00080202622
0.00057398252
0.00034629098
0.00013322494
-5.8197764e-05
-0.00022089134
-0.00035587416
-0.00045112312
-0.00052148673
-0.00054786244
-0.00058014955
-0.00056457427
-0.00056520697
-0.00048173019
-0.00047891286
-0.00028554431
-0.00030240467
-2.4552306e-05
0.0013046776
0.0013149169
0.0011733817
0.00082134487
0.0001806066
-0.00084395192
-0.0023556282
-0.0044710123
-0.0074851786
-0.010732981
-0.014931575
-0.019672988
-0.024951961
-0.03062955
-0.036407979
-0.041937043
-0.046837083
-0.050747832
-0.053381955
-0.054568599
-0.054275055
-0.052602849
-0.049765569
-0.046055126
-0.041788888
-0.037249146
-0.032665069
-0.028254095
-0.024210963
-0.020558185
-0.016927736
-0.013869527
-0.01126117
-0.0090784234
-0.0072567123
-0.0057648931
-0.0045432725
-0.0036323591
-0.0028911267
0.0013678827
0.00119149
0.00096750227
0.0007197012
0.00046726672
0.00022624289
7.2194315e-06
-0.00018487643
-0.00034391895
-0.00046710396
-0.0005526983
-0.00060624235
-0.00064566169
-0.00066805742
-0.00064695529
-0.00063709033
-0.00055431987
-0.00052519775
-0.00034662767
-0.00030521631
-9.236286e-05
0.001461638
0.0014273032
0.0012067103
0.00072967655
-9.6992993e-05
-0.0013841466
-0.003250219
-0.0058291755
-0.0094602465
-0.013296852
-0.018106413
-0.023433139
-0.029243373
-0.03534572
-0.041388817
-0.046981717
-0.051725082
-0.055267191
-0.057356949
-0.057879109
-0.056863658
-0.054475249
-0.050988528
-0.046734945
-0.042029002
-0.037141003
-0.032342994
-0.027890737
-0.023826962
-0.019681253
-0.016177375
-0.013172318
-0.010643953
-0.008519909
-0.0067460921
-0.0052888949
-0.0040947905
-0.0031981667
-0.002467732
0.0015351239
0.0013678818
0.0011371403
0.00087267597
0.00059692466
0.00032924432
8.1534398e-05
-0.00013813206
-0.00032577093
-0.0004712017
-0.00058307365
-0.00065075847
-0.0007201177
-0.00075026609
-0.00076324522
-0.0007398486
-0.00071790252
-0.00063334799
-0.00057824858
-0.00041064595
-0.00031481421
-0.00014837155
0.0015974052
0.0015013822
0.001178572
0.00054437841
-0.00051099441
-0.0021154052
-0.0044029879
-0.0075249116
-0.011865744
-0.016360769
-0.021820547
-0.027746067
-0.034070718
-0.04054684
-0.046771006
-0.052318954
-0.056784497
-0.059839639
-0.061281859
-0.061057403
-0.059263744
-0.056138131
-0.052010579
-0.047218708
-0.042070802
-0.036898544
-0.03203117
-0.027536808
-0.022821433
-0.018823559
-0.015379397
-0.012472239
-0.010017522
-0.0079530911
-0.0062266467
-0.0048047439
-0.0036387487
-0.0027571819
-0.002037856
0.0016828644
0.0015351231
0.0013046751
0.0010276838
0.00073123986
0.00043797294
0.0001627729
-8.5475646e-05
-0.0002996713
-0.00047138989
-0.00060435133
-0.00069460667
-0.00078402459
-0.00084122775
-0.00086302051
-0.00087027787
-0.00084267346
-0.0008075577
-0.00071848436
-0.00063812795
-0.00047683077
-0.00033147556
-0.00019308383
0.0016988256
0.0015210699
0.001067682
0.00023816902
-0.001095512
-0.0030795373
-0.0058636805
-0.0096150938
-0.014762444
-0.019983597
-0.026121853
-0.032644281
-0.03944718
-0.046224943
-0.052526788
-0.057906155
-0.061965358
-0.064414528
-0.065107742
-0.064059154
-0.061447379
-0.057580964
-0.052807195
-0.04746437
-0.041946261
-0.03666794
-0.031729475
-0.026384868
-0.021839983
-0.01790699
-0.014581615
-0.011764086
-0.0093834913
-0.0073779331
-0.0056992425
-0.0043132614
-0.0031759924
-0.0023094948
-0.0016021139
0.0017983352
0.0016828638
0.0014616358
0.001178003
0.00086440713
0.0005478692
0.00024609088
-2.948554e-05
-0.00027098324
-0.00046662731
-0.00062400989
-0.00073183903
-0.00084877342
-0.00092475551
-0.00097110256
-0.00098933572
-0.00098900673
-0.0009548611
-0.00090584959
-0.00080957321
-0.00070472861
-0.00054441309
-0.00035500519
-0.00022787311
0.0017502468
0.001466158
0.0008482644
-0.00022094115
-0.0018899172
-0.0043238122
-0.0076871388
-0.012160499
-0.018211967
-0.024222239
-0.031052459
-0.038151343
-0.045374627
-0.052360074
-0.058617873
-0.063693644
-0.067214043
-0.068937414
-0.068781986
-0.066847279
-0.063397518
-0.058770783
-0.053322522
-0.047506584
-0.041835934
-0.036448727
-0.030412658
-0.025261882
-0.020785155
-0.016994593
-0.013777128
-0.011049313
-0.0087417385
-0.0067951611
-0.0051648604
-0.0038154441
-0.0027060473
-0.0018558547
-0.0011609458
0.0018660875
0.0017983347
0.0015974032
0.001314913
0.00098905524
0.0006524411
0.00032620109
2.4342967e-05
-0.00024293206
-0.00046286704
-0.00064234894
-0.0007690774
-0.00091031319
-0.0010107543
-0.0010750256
-0.0011162945
-0.0011287442
-0.0011189296
-0.0010761611
-0.0010123122
-0.00090635898
-0.00077771959
-0.00061287454
-0.00038468494
-0.00025467913
0.0017322298
0.0013118719
0.00049005971
-0.00087012893
-0.0029390872
-0.0059007852
-0.0099327962
-0.015224068
-0.0222749
-0.029129037
-0.036646179
-0.044279726
-0.051842416
-0.058920431
-0.064997062
-0.069626605
-0.07247206
-0.073348294
-0.07225798
-0.069397254
-0.065071376
-0.059634254
-0.053592421
-0.047566952
-0.041739732
-0.034948482
-0.029129397
-0.024046987
-0.019739511
-0.016077137
-0.012967253
-0.010327593
-0.0080928586
-0.0062059907
-0.0046246305
-0.0033098356
-0.0022305056
-0.0013966444
-0.0007147373
0.0018670078
0.0018660872
0.001698824
0.0014272998
0.0010959601
0.00074353535
0.00039581317
6.9812755e-05
-0.00022180136
-0.00046407898
-0.00066571453
-0.00080789973
-0.00097482123
-0.0010968875
-0.0011831299
-0.0012424928
-0.0012763603
-0.0012805697
-0.00125953
-0.0012062055
-0.0011263908
-0.0010084315
-0.00085660995
-0.00068198129
-0.00041943525
-0.00027562641
0.0016210571
0.0010292257
-4.2297789e-05
-0.0017520185
-0.0042933754
-0.0078679249
-0.012663548
-0.018869503
-0.027008089
-0.034749083
-0.042926101
-0.051029273
-0.05882716
-0.065863639