/*--------------------------------*- C++ -*----------------------------------*\
| =========                 |                                                 |
| \\      /  F ield         | OpenFOAM: The Open Source CFD Toolbox           |
|  \\    /   O peration     | Version:  5.0                                   |
|   \\  /    A nd           | Web:      www.OpenFOAM.org                      |
|    \\/     M anipulation  |                                                 |
\*---------------------------------------------------------------------------*/
FoamFile
{
    version     2.0;
    format      ascii;
    class       volScalarField;
    location    "75";
    object      pPrime2Mean;
}
// * * * * * * * * * * * * * * * * * * * * * * * * * * * * * * * * * * * * * //

dimensions      [0 4 -4 0 0 0 0];

internalField   nonuniform List<scalar> 
9200
(
3.1113091e-09
3.1961858e-09
1.256204e-08
3.3005909e-09
1.316196e-08
3.5888639e-08
3.5739538e-09
1.3594302e-08
3.7438245e-08
6.3712807e-08
3.9056375e-09
1.4569303e-08
3.8919413e-08
6.6374661e-08
9.923839e-08
4.3781137e-09
1.5740851e-08
4.1880561e-08
6.9074778e-08
1.0339015e-07
1.3690032e-07
4.9706996e-09
1.7424633e-08
4.555924e-08
7.429664e-08
1.0785752e-07
1.4266182e-07
1.7682772e-07
5.7252275e-09
1.9517415e-08
5.0661099e-08
8.0858256e-08
1.1626279e-07
1.4901583e-07
1.8438406e-07
2.1672124e-07
6.6665604e-09
2.2101682e-08
5.6990023e-08
8.9853142e-08
1.2685878e-07
1.6083993e-07
1.928598e-07
2.2618974e-07
2.5589283e-07
7.8443913e-09
2.5141229e-08
6.4749729e-08
1.0096003e-07
1.4121868e-07
1.7576635e-07
2.0850814e-07
2.3690432e-07
2.6731414e-07
2.9381747e-07
9.3294788e-09
2.8609802e-08
7.3896719e-08
1.1445646e-07
1.5884881e-07
1.9589136e-07
2.2822587e-07
2.5662538e-07
2.8032104e-07
3.072503e-07
3.3010367e-07
1.1224737e-08
3.2451569e-08
8.4422083e-08
1.3021934e-07
1.8011526e-07
2.2054067e-07
2.5469531e-07
2.814489e-07
3.0425388e-07
3.2259583e-07
3.4554862e-07
3.6491438e-07
1.3683856e-08
3.6583712e-08
9.6265993e-08
1.4816032e-07
2.0479096e-07
2.5021081e-07
2.8699446e-07
3.1471077e-07
3.3429292e-07
3.5088347e-07
3.6323424e-07
3.8240425e-07
3.9838649e-07
1.6913668e-08
4.0920945e-08
1.0931154e-07
1.6808097e-07
2.3269758e-07
2.8455394e-07
3.2575456e-07
3.5519171e-07
3.7445572e-07
3.862948e-07
3.959557e-07
4.0246549e-07
4.1794798e-07
4.3093962e-07
2.116836e-08
4.5370022e-08
1.2340672e-07
1.8965806e-07
2.6348754e-07
3.2326358e-07
3.7051233e-07
4.0363566e-07
4.2320052e-07
4.3359191e-07
4.3683548e-07
4.3976698e-07
4.4046586e-07
4.5261958e-07
4.6310678e-07
2.6702861e-08
4.9863439e-08
1.3834854e-07
2.1248485e-07
2.966551e-07
3.6576629e-07
4.2087706e-07
4.5941444e-07
4.8144977e-07
4.9082481e-07
4.9139788e-07
4.862989e-07
4.825622e-07
4.7771121e-07
4.8690151e-07
4.9549037e-07
3.3657408e-08
5.438548e-08
1.5380329e-07
2.3609382e-07
3.3156599e-07
4.112592e-07
4.7611987e-07
5.2203502e-07
5.4843665e-07
5.5907406e-07
5.5724323e-07
5.4840591e-07
5.3507847e-07
5.2487908e-07
5.1474216e-07
5.2140591e-07
5.2864798e-07
4.1889529e-08
5.8984663e-08
1.693007e-07
2.5998471e-07
3.6741546e-07
4.5882074e-07
5.3521501e-07
5.9059627e-07
6.2361716e-07
6.3739011e-07
6.3563973e-07
6.2312081e-07
6.052229e-07
5.8382542e-07
5.6741076e-07
5.5209889e-07
5.5671697e-07
5.6309725e-07
5.0801149e-08
6.3799193e-08
1.84315e-07
2.8363419e-07
4.0333344e-07
5.073652e-07
5.9697608e-07
6.6386792e-07
7.0597705e-07
7.252057e-07
7.2539826e-07
7.1182546e-07
6.8939173e-07
6.6271162e-07
6.3351196e-07
6.1071052e-07
5.9040984e-07
5.9328918e-07
5.9935771e-07
5.9248061e-08
6.9059777e-08
1.9819038e-07
3.0644969e-07
4.3839936e-07
5.5573289e-07
6.6002821e-07
7.4043774e-07
7.9415348e-07
8.2143511e-07
8.2592157e-07
8.1303966e-07
7.8902601e-07
7.5716237e-07
7.2226343e-07
6.8480741e-07
6.5545284e-07
6.3020087e-07
6.31591e-07
6.3793473e-07
6.5679647e-08
7.5021982e-08
2.1014477e-07
3.2785005e-07
4.71696e-07
6.0281332e-07
7.2287897e-07
8.1865582e-07
8.8659331e-07
9.2463621e-07
9.3606397e-07
9.2611455e-07
9.022052e-07
8.6864614e-07
8.2847795e-07
7.8481961e-07
7.3863471e-07
7.0207951e-07
6.7186528e-07
6.7204072e-07
6.7932712e-07
6.852698e-08
8.1866391e-08
2.1941719e-07
3.4732613e-07
5.0227862e-07
6.4747837e-07
7.8400144e-07
8.967284e-07
9.8148353e-07
1.0331814e-06
1.0543694e-06
1.0498294e-06
1.0281282e-06
9.9461475e-07
9.5355907e-07
9.0475106e-07
8.5174561e-07
7.9544821e-07
7.5097534e-07
7.1567808e-07
7.1504299e-07
7.2397088e-07
6.6714208e-08
8.953597e-08
2.2531344e-07
3.6442602e-07
5.2922455e-07
6.8860226e-07
8.4195419e-07
9.7283265e-07
1.0768172e-06
1.1451435e-06
1.1792349e-06
1.1827486e-06
1.1654083e-06
1.1339559e-06
1.0941201e-06
1.0459053e-06
9.8806234e-07
9.2369873e-07
8.5569823e-07
8.0233771e-07
7.6190867e-07
7.6097051e-07
7.7232535e-07
6.0068229e-08
9.7642721e-08
2.2737981e-07
3.7878807e-07
5.516071e-07
7.2500509e-07
8.9533663e-07
1.0452373e-06
1.1704744e-06
1.2583536e-06
1.3087579e-06
1.3233769e-06
1.3126024e-06
1.284946e-06
1.2485035e-06
1.2038262e-06
1.1488305e-06
1.0796095e-06
1.0013738e-06
9.194244e-07
8.5625243e-07
8.1077256e-07
8.1014325e-07
8.2485906e-07
4.9510671e-08
1.0563783e-07
2.2560348e-07
3.9023629e-07
5.6859824e-07
7.5567929e-07
9.4274841e-07
1.1123967e-06
1.2603685e-06
1.3704745e-06
1.4407611e-06
1.4699563e-06
1.468361e-06
1.4460256e-06
1.4143659e-06
1.3760272e-06
1.3283331e-06
1.2644882e-06
1.1806154e-06
1.0847552e-06
9.8649333e-07
9.1260373e-07
8.6246577e-07
8.6291877e-07
8.819403e-07
3.6957607e-08
1.1353133e-07
2.2055886e-07
3.987469e-07
5.7959555e-07
7.8000822e-07
9.8295341e-07
1.172893e-06
1.3445608e-06
1.4791378e-06
1.5728256e-06
1.6204397e-06
1.6311776e-06
1.6159545e-06
1.5897935e-06
1.5591582e-06
1.5229467e-06
1.4712637e-06
1.3951119e-06
1.2913311e-06
1.1735706e-06
1.056456e-06
9.7119584e-07
9.1712951e-07
9.1964849e-07
9.4388007e-07
2.4995909e-08
1.2192833e-07
2.1242636e-07
4.0425072e-07
5.8454799e-07
7.9755641e-07
1.0149608e-06
1.2253235e-06
1.4212616e-06
1.5821354e-06
1.7023941e-06
1.7724742e-06
1.7993093e-06
1.7935352e-06
1.7734887e-06
1.7505675e-06
1.7278349e-06
1.6949123e-06
1.6365024e-06
1.5416978e-06
1.4115502e-06
1.2669466e-06
1.1287038e-06
1.0318299e-06
9.7489524e-07
9.8058838e-07
1.01101e-06
1.6354302e-08
1.3097044e-07
2.0072168e-07
4.0657762e-07
5.8382638e-07
8.0784149e-07
1.0382164e-06
1.2684073e-06
1.4888105e-06
1.6774947e-06
1.8269466e-06
1.9234502e-06
1.9706896e-06
1.9774727e-06
1.9645103e-06
1.9485652e-06
1.9390687e-06
1.928594e-06
1.8982148e-06
1.8265083e-06
1.7045495e-06
1.5401031e-06
1.3637197e-06
1.2024785e-06
1.0943307e-06
1.035928e-06
1.0459693e-06
1.0836734e-06
1.320994e-08
1.4004903e-07
1.8577629e-07
4.0558435e-07
5.7782063e-07
8.1078664e-07
1.052692e-06
1.3012821e-06
1.5457684e-06
1.7634129e-06
1.9441642e-06
2.0706663e-06
2.1428965e-06
2.1662051e-06
2.1620875e-06
2.1522472e-06
2.1540173e-06
2.1664335e-06
2.1709316e-06
2.1377145e-06
2.0428316e-06
1.8825375e-06
1.6752381e-06
1.4623347e-06
1.2769975e-06
1.1585535e-06
1.1003621e-06
1.1160435e-06
1.1620932e-06
1.6755844e-08
1.479499e-07
1.6911142e-07
4.0111683e-07
5.6678719e-07
8.0712735e-07
1.0587342e-06
1.3234595e-06
1.59116e-06
1.8382495e-06
2.0519044e-06
2.2115424e-06
2.31324e-06
2.3577695e-06
2.3653659e-06
2.3613016e-06
2.371354e-06
2.4040883e-06
2.4460961e-06
2.4632072e-06
2.4172592e-06
2.2850627e-06
2.0734999e-06
1.814439e-06
1.5611157e-06
1.3514866e-06
1.2243659e-06
1.1683579e-06
1.1910894e-06
1.2463969e-06
2.7424449e-08
1.538598e-07
1.5220008e-07
3.9311536e-07
5.511907e-07
7.9792046e-07
1.0565401e-06
1.3347708e-06
1.6246673e-06
1.9005261e-06
2.148145e-06
2.3437012e-06
2.4789773e-06
2.5497933e-06
2.5731487e-06
2.5756874e-06
2.5909281e-06
2.6390609e-06
2.7166928e-06
2.7910641e-06
2.8129166e-06
2.738249e-06
2.5511588e-06
2.2739358e-06
1.9548086e-06
1.658277e-06
1.4252682e-06
1.2917219e-06
1.2401841e-06
1.271387e-06
1.3365097e-06
4.5664904e-08
1.5863524e-07
1.3698862e-07
3.8225531e-07
5.3187944e-07
7.8362289e-07
1.0460794e-06
1.335748e-06
1.6462178e-06
1.9491448e-06
2.2311151e-06
2.464873e-06
2.6374851e-06
2.7396426e-06
2.7837455e-06
2.7952429e-06
2.8134264e-06
2.8707399e-06
2.9779935e-06
3.1105317e-06
3.2140414e-06
3.2248064e-06
3.0997575e-06
2.8369325e-06
2.4794662e-06
2.093092e-06
1.7521587e-06
1.497798e-06
1.3606657e-06
1.3161099e-06
1.3571197e-06
1.4323496e-06
7.0388943e-08
1.6532809e-07
1.241992e-07
3.6949536e-07
5.0936908e-07
7.6442969e-07
1.0281048e-06
1.3279567e-06
1.6559056e-06
1.983666e-06
2.2995418e-06
2.5728706e-06
2.7861942e-06
2.92465e-06
2.9949945e-06
3.0193704e-06
3.039864e-06
3.1001455e-06
3.227905e-06
3.4133198e-06
3.6051316e-06
3.7250661e-06
3.7006465e-06
3.4976983e-06
3.1365139e-06
2.6848686e-06
2.2260502e-06
1.8412784e-06
1.5687423e-06
1.4313008e-06
1.3962533e-06
1.4482177e-06
1.5345652e-06
1.0024139e-07
1.7328859e-07
1.1347344e-07
3.542385e-07
4.8610439e-07
7.4160699e-07
1.0041774e-06
1.3127965e-06
1.6541199e-06
2.0041813e-06
2.3526915e-06
2.6657288e-06
2.9225282e-06
3.102122e-06
3.2044593e-06
3.2468768e-06
3.2710905e-06
3.3293586e-06
3.466947e-06
3.6944037e-06
3.9728529e-06
4.2180461e-06
4.3308013e-06
4.2379147e-06
3.9251472e-06
3.4423513e-06
2.8846012e-06
2.3505913e-06
1.9244979e-06
1.6379885e-06
1.5038351e-06
1.4807351e-06
1.544846e-06
1.6436282e-06
1.3323191e-07
1.8169779e-07
1.0519045e-07
3.3900637e-07
4.6243725e-07
7.1849815e-07
9.7616799e-07
1.2909922e-06
1.6419318e-06
2.011625e-06
2.3902106e-06
2.742027e-06
3.0440295e-06
3.2691674e-06
3.409543e-06
3.476044e-06
3.5074051e-06
3.5608691e-06
3.697734e-06
3.9524261e-06
4.3074216e-06
4.683949e-06
4.9635843e-06
5.0325634e-06
4.8297773e-06
4.3722098e-06
3.7458732e-06
3.0730565e-06
2.4640698e-06
2.0010724e-06
1.7056829e-06
1.5786761e-06
1.5699583e-06
1.6477184e-06
1.7598844e-06
1.6687303e-07
1.9010064e-07
9.9128401e-08
3.2597002e-07
4.4001095e-07
6.9227841e-07
9.4822721e-07
1.264473e-06
1.6208826e-06
2.0076654e-06
2.412248e-06
2.800949e-06
3.1485954e-06
3.4227281e-06
3.6072746e-06
3.7047754e-06
3.7484115e-06
3.796947e-06
3.924238e-06
4.1894149e-06
4.6036425e-06
5.1061879e-06
5.5716926e-06
5.8500317e-06
5.8257012e-06
5.4646371e-06
4.8267454e-06
4.0378897e-06
3.2450555e-06
2.5644266e-06
2.0707485e-06
1.772271e-06
1.656393e-06
1.664534e-06
1.7573541e-06
1.8836707e-06
1.9839169e-07
1.9808764e-07
9.4890066e-08
3.1468573e-07
4.2121656e-07
6.6345116e-07
9.1538371e-07
1.2375181e-06
1.5941348e-06
1.9936473e-06
2.4197345e-06
2.8422287e-06
3.2347048e-06
3.5598601e-06
3.7942032e-06
3.9304103e-06
3.9930803e-06
4.0392092e-06
4.1509392e-06
4.4101065e-06
4.8611048e-06
5.4732493e-06
6.1297713e-06
6.6552318e-06
6.8781407e-06
6.6985468e-06
6.1267536e-06
5.2749011e-06
4.3093442e-06
3.3961543e-06
2.6503762e-06
2.1337964e-06
1.8385115e-06
1.7377569e-06
1.7651658e-06
1.8743327e-06
2.0153926e-06
2.2501419e-07
2.052099e-07
9.2088618e-08
3.0506175e-07
4.055238e-07
6.3842275e-07
8.7958821e-07
1.2033833e-06
1.566264e-06
1.973202e-06
2.4140611e-06
2.8666693e-06
3.3013404e-06
3.6781088e-06
3.9666222e-06
4.1494038e-06
4.2396372e-06
4.2884575e-06
4.3820695e-06
4.6209684e-06
5.0837993e-06
5.7796429e-06
6.6172123e-06
7.4125882e-06
7.9451269e-06
8.0391312e-06
7.6326455e-06
6.7968127e-06
5.702162e-06
4.5518845e-06
3.523008e-06
2.7215018e-06
2.1910353e-06
1.9054701e-06
1.8237385e-06
1.8726193e-06
1.99922e-06
2.1553549e-06
2.4428097e-07
2.1101585e-07
9.0366874e-08
2.9707779e-07
3.92644e-07
6.1696545e-07
8.4970287e-07
1.1643702e-06
1.5274012e-06
1.9504047e-06
2.4007005e-06
2.8756028e-06
3.3479854e-06
3.7755595e-06
4.120998e-06
4.3574299e-06
4.4850435e-06
4.5445532e-06
4.6211094e-06
4.8291512e-06
5.2791958e-06
6.0261218e-06
7.0201014e-06
8.089731e-06
8.9804654e-06
9.4400129e-06
9.3141088e-06
8.6031287e-06
7.4532491e-06
6.0942821e-06
4.7585251e-06
3.6235995e-06
2.7783321e-06
2.2438175e-06
1.9744982e-06
1.9154846e-06
1.987678e-06
2.13243e-06
2.3034991e-06
2.5437833e-07
2.1513882e-07
8.9400459e-08
2.9072349e-07
3.8235415e-07
5.9881333e-07
8.2444224e-07
1.1306271e-06
1.4811852e-06
1.9113021e-06
2.3833961e-06
2.8761864e-06
3.3754898e-06
3.8506135e-06
4.2542599e-06
4.5498399e-06
4.724821e-06
4.8058065e-06
4.8704841e-06
5.0415737e-06
5.4570284e-06
6.2191154e-06
7.3324071e-06
8.6605781e-06
9.9380661e-06
1.0845622e-05
1.1124672e-05
1.0673834e-05
9.5801619e-06
8.0736067e-06
6.4383962e-06
4.9241399e-06
3.6974233e-06
2.822333e-06
2.2939708e-06
2.047175e-06
2.0141486e-06
2.1110537e-06
2.2740653e-06
2.4594258e-06
2.172941e-07
2.5437841e-07
8.8907144e-08
2.8598365e-07
3.7445192e-07
5.8383801e-07
8.0311052e-07
1.1019965e-06
1.4412995e-06
1.8621903e-06
2.3408964e-06
2.8713964e-06
3.3936082e-06
3.9033537e-06
4.3634051e-06
4.722207e-06
4.9534708e-06
5.0683665e-06
5.1309364e-06
5.26426e-06
5.6279966e-06
6.3695835e-06
7.5561626e-06
9.1078333e-06
1.0776107e-05
1.219565e-05
1.3002803e-05
1.2968596e-05
1.2079955e-05
1.0530714e-05
8.6362463e-06
6.7239512e-06
5.0458573e-06
3.7455399e-06
2.8558082e-06
2.3437196e-06
2.1251728e-06
2.1207907e-06
2.2432171e-06
2.4239181e-06
2.6227322e-06
8.8702703e-08
2.1729386e-07
2.4428105e-07
2.8287081e-07
3.6874796e-07
5.7196694e-07
7.855758e-07
1.0778565e-06
1.40784e-06
1.8192974e-06
2.2853285e-06
2.8299781e-06
3.4045814e-06
3.945949e-06
4.4466157e-06
4.8699511e-06
5.165167e-06
5.3264578e-06
5.4004366e-06
5.5016052e-06
5.8026241e-06
6.4915037e-06
7.7007709e-06
9.4243634e-06
1.1461022e-05
1.3429963e-05
1.4875767e-05
1.5425892e-05
1.4926424e-05
1.3486995e-05
1.1420971e-05
9.1219431e-06
6.9435202e-06
5.1232589e-06
3.7704758e-06
2.8817406e-06
2.3955055e-06
2.2101143e-06
2.2362579e-06
2.3842912e-06
2.5817132e-06
2.7934277e-06
2.8137243e-07
8.8702485e-08
2.1513832e-07
2.2501442e-07
3.6507576e-07
5.6313776e-07
7.7177693e-07
1.0580338e-06
1.3795454e-06
1.7836194e-06
2.2381383e-06
2.7721404e-06
3.3635647e-06
3.9800382e-06
4.5189351e-06
4.9891303e-06
5.3535029e-06
5.5730506e-06
5.6739193e-06
5.7549615e-06
5.9902171e-06
6.60025e-06
7.7816028e-06
9.6134837e-06
1.1970526e-05
1.4493997e-05
1.6664579e-05
1.796535e-05
1.8066654e-05
1.6939659e-05
1.4845452e-05
1.2218834e-05
9.5153832e-06
7.0932957e-06
5.1583494e-06
3.7759551e-06
2.9035485e-06
2.4517536e-06
2.303393e-06
2.3610842e-06
2.5341853e-06
2.7473978e-06
2.9720994e-06
3.6332576e-07
2.8137185e-07
8.8906482e-08
2.1101487e-07
1.9839192e-07
5.5730735e-07
7.6164627e-07
1.042398e-06
1.3562269e-06
1.7534804e-06
2.1998381e-06
2.7242773e-06
3.3029483e-06
3.9440619e-06
4.5817878e-06
5.0975509e-06
5.5122306e-06
5.7999047e-06
5.9439304e-06
6.021543e-06
6.1972722e-06
6.7110709e-06
7.8180976e-06
9.6881461e-06
1.2295431e-05
1.5343681e-05
1.8290392e-05
2.0491788e-05
2.1420947e-05
2.0855374e-05
1.8940208e-05
1.6105384e-05
1.2896429e-05
9.8062452e-06
7.1732518e-06
5.1552428e-06
3.7665171e-06
2.924747e-06
2.5146334e-06
2.4060525e-06
2.4954939e-06
2.6928154e-06
2.9213025e-06
3.1595504e-06
5.5448317e-07
3.6332491e-07
2.8286909e-07
8.9399347e-08
2.0520868e-07
1.6687338e-07
7.550704e-07
1.0307965e-06
1.3377944e-06
1.7287247e-06
2.1673777e-06
2.6865096e-06
3.2553699e-06
3.8857242e-06
4.5530225e-06
5.1966077e-06
5.6608284e-06
5.9982924e-06
6.2007828e-06
6.2948027e-06
6.425417e-06
6.8372712e-06
7.8317263e-06
9.6692219e-06
1.2440125e-05
1.5949328e-05
1.9681169e-05
2.2901657e-05
2.4884741e-05
2.5167013e-05
2.3704175e-05
2.0855077e-05
1.7220305e-05
1.3432184e-05
9.9897766e-06
7.1868599e-06
5.1195344e-06
3.7470485e-06
2.9486004e-06
2.5859172e-06
2.5187574e-06
2.6396239e-06
2.8604143e-06
3.1040601e-06
3.3563283e-06
7.5197939e-07
5.5448182e-07
3.6507322e-07
2.8598076e-07
9.0365287e-08
1.9808597e-07
1.3323225e-07
1.0229546e-06
1.3241407e-06
1.7092422e-06
2.140567e-06
2.6543598e-06
3.2197631e-06
3.8427316e-06
4.5005349e-06
5.180245e-06
5.8009085e-06
6.1885258e-06
6.4331207e-06
6.5645069e-06
6.6709728e-06
6.9874201e-06
7.8438056e-06
9.58315e-06
1.2421676e-05
1.6298127e-05
2.077797e-05
2.5090863e-05
2.83338e-05
2.9772264e-05
2.9097851e-05
2.6512501e-05
2.2611941e-05
1.8150728e-05
1.3812209e-05
1.006669e-05
7.1403153e-06
5.0576317e-06
3.7222907e-06
2.9779477e-06
2.6669623e-06
2.6419872e-06
2.7938175e-06
3.0376011e-06
3.2963441e-06
3.5627538e-06
1.0188228e-06
7.5197755e-07
5.5730332e-07
3.6874369e-07
2.9071943e-07
9.208654e-08
1.9009874e-07
1.0024182e-07
1.3149991e-06
1.694905e-06
2.1193838e-06
2.6276884e-06
3.1893123e-06
3.8133137e-06
4.4661982e-06
5.1406545e-06
5.8004799e-06
6.3727224e-06
6.6612376e-06
6.8171508e-06
6.9250933e-06
7.1634664e-06
7.8722881e-06
9.4593677e-06
1.2267759e-05
1.6394986e-05
2.1540094e-05
2.6963236e-05
3.1631977e-05
3.4536003e-05
3.5037653e-05
3.3083018e-05
2.917447e-05
2.4144724e-05
1.8866945e-05
1.4030687e-05
1.0042339e-05
7.0414102e-06
4.9760994e-06
3.6965924e-06
3.0152018e-06
2.7588596e-06
2.7762979e-06
2.9587294e-06
3.2250841e-06
3.4986784e-06
3.7795e-06
1.310407e-06
1.0188204e-06
7.5506492e-07
5.6313101e-07
3.7444591e-07
2.9707251e-07
9.4887459e-08
1.8169548e-07
7.0389362e-08
1.6853132e-06
2.1037205e-06
2.6066533e-06
3.1638769e-06
3.7880173e-06
4.447351e-06
5.1209188e-06
5.7810134e-06
6.3921449e-06
6.8885846e-06
7.0714397e-06
7.1734618e-06
7.3606669e-06
7.9281681e-06
9.3268454e-06
1.2013929e-05
1.6261624e-05
2.1948649e-05
2.8438651e-05
3.4640936e-05
3.9296215e-05
4.1393935e-05
4.052241e-05
3.6976103e-05
3.1586972e-05
2.5398469e-05
1.9350442e-05
1.4089142e-05
9.9252265e-06
6.8986754e-06
4.8813267e-06
3.6739598e-06
3.0625025e-06
2.8626743e-06
2.9225087e-06
3.1351346e-06
3.423455e-06
3.7117848e-06
4.0074727e-06
1.6804874e-06
1.3104039e-06
1.0229473e-06
7.6163705e-07
5.7195745e-07
3.8234635e-07
3.0505525e-07
9.9125249e-08
1.7328608e-07
4.5665387e-08
2.0930679e-06
2.5911796e-06
3.1438054e-06
3.766719e-06
4.4312652e-06
5.118281e-06
5.7826946e-06
6.4015936e-06
6.9298696e-06
7.333416e-06
7.4307922e-06
7.566496e-06
8.0145092e-06
9.2092078e-06
1.1700084e-05
1.5934393e-05
2.2007997e-05
2.9460111e-05
3.7230922e-05
4.3873311e-05
4.7992977e-05
4.8729349e-05
4.6035322e-05
4.0625582e-05
3.3657451e-05
2.6332587e-05
1.9593631e-05
1.3994721e-05
9.7255671e-06
6.7210196e-06
4.7796147e-06
3.6582417e-06
3.1219148e-06
2.9796989e-06
3.0816604e-06
3.3238157e-06
3.6335289e-06
3.9366148e-06
4.2471423e-06
2.0875759e-06
1.6804833e-06
1.3149897e-06
1.0307844e-06
7.71764e-07
5.8382573e-07
3.9263437e-07
3.1467797e-07
1.051867e-07
1.6532522e-07
2.7424876e-08
2.5806194e-06
3.1290171e-06
3.7498905e-06
4.4173661e-06
5.1165733e-06
5.8029869e-06
6.4320986e-06
6.9755084e-06
7.3944226e-06
7.7067017e-06
7.7889488e-06
8.1247186e-06
9.122008e-06
1.1365016e-05
1.546107e-05
2.174534e-05
2.9998899e-05
3.9291626e-05
4.8082169e-05
5.4623534e-05
5.7541509e-05
5.6307342e-05
5.1365745e-05
4.3886284e-05
3.5309963e-05
2.692175e-05
1.9598028e-05
1.3758277e-05
9.4549632e-06
6.5179419e-06
4.6774566e-06
3.6532555e-06
3.1956783e-06
3.1114962e-06
3.2548703e-06
3.5257377e-06
3.8563459e-06
4.1738548e-06
4.4993546e-06
2.5751986e-06
2.0875707e-06
1.6853012e-06
1.324125e-06
1.0423807e-06
7.8555901e-07
5.9879823e-07
4.0551228e-07
3.2596099e-07
1.1346909e-07
1.5863225e-07
1.6756294e-08
3.1186697e-06
3.73755e-06
4.4062145e-06
5.1143051e-06
5.8219125e-06
6.4824168e-06
7.0412098e-06
7.479729e-06
7.7774529e-06
8.0431653e-06
8.2571485e-06
9.0704009e-06
1.1041857e-05
1.4895605e-05
2.1208733e-05
3.0057511e-05
4.0742111e-05
5.1746167e-05
6.1047698e-05
6.6736549e-05
6.7672906e-05
6.3850684e-05
5.6299228e-05
4.6629433e-05
3.6488296e-05
2.7154359e-05
1.9372098e-05
1.3393687e-05
9.1269959e-06
6.2998643e-06
4.5815539e-06
3.6629601e-06
3.2863073e-06
3.2597029e-06
3.4433524e-06
3.7420223e-06
4.0923004e-06
4.4247084e-06
4.7690389e-06
3.1131661e-06
2.5751922e-06
2.0930526e-06
1.6948847e-06
1.3377721e-06
1.0580115e-06
8.0308985e-07
6.1694746e-07
4.2120311e-07
3.3899605e-07
1.2419421e-07
1.5385652e-07
1.3210283e-08
3.7286948e-06
4.3980576e-06
5.1122121e-06
5.8365436e-06
6.5287128e-06
7.1281015e-06
7.5840338e-06
7.8975131e-06
8.1029204e-06
8.4348147e-06
9.039754e-06
1.0754918e-05
1.4292812e-05
2.0463027e-05
2.9670476e-05
4.1538879e-05
5.4712109e-05
6.7016152e-05
7.6038539e-05
7.9931169e-05
7.8042701e-05
7.105937e-05
6.0632719e-05
4.8749273e-05
3.7155561e-05
2.7030293e-05
1.8930489e-05
1.2919115e-05
8.7576766e-06
6.078034e-06
4.4988059e-06
3.6915331e-06
3.3962877e-06
3.4258368e-06
3.6484414e-06
3.9728905e-06
4.3416942e-06
4.6928563e-06
5.057746e-06
3.7239527e-06
3.1131582e-06
2.5806002e-06
2.1036947e-06
1.7092135e-06
1.356198e-06
1.0778289e-06
8.2441751e-07
6.3840182e-07
4.399955e-07
3.5422691e-07
1.3698303e-07
1.479466e-07
1.6354546e-08
4.3916999e-06
5.1107843e-06
5.8478887e-06
6.5661533e-06
7.2084828e-06
7.7115462e-06
8.0372611e-06
8.2367393e-06
8.4451236e-06
9.0621694e-06
1.0472847e-05
1.3704899e-05
1.9585443e-05
2.8902973e-05
4.1681647e-05
5.6864854e-05
7.228691e-05
8.5130927e-05
9.2798009e-05
9.3806286e-05
8.8252779e-05
7.7631848e-05
6.4186255e-05
5.0165103e-05
3.7292292e-05
2.6560672e-05
1.8295715e-05
1.2358087e-05
8.3651538e-06
5.8641557e-06
4.4361806e-06
3.7428282e-06
3.5275765e-06
3.611483e-06
3.8705807e-06
4.2180075e-06
4.6114581e-06
4.979306e-06
5.3621914e-06
4.3880572e-06
3.7239433e-06
3.1186459e-06
2.5911473e-06
2.1193474e-06
1.7286874e-06
1.3795095e-06
1.1019635e-06
8.4967403e-07
6.6342723e-07
4.6241979e-07
3.6948257e-07
1.5219384e-07
1.4004557e-07
2.4995991e-08
5.1086618e-06
5.8563519e-06
6.595735e-06
7.2748928e-06
7.8309522e-06
8.2041164e-06
8.3954996e-06
8.5436831e-06
8.9583796e-06
1.0238039e-05
1.3079501e-05
1.8664821e-05
2.7849214e-05
4.1216935e-05
5.8140411e-05
7.6646783e-05
9.3676123e-05
0.00010591208
0.00011089501
0.00010786156
9.7878619e-05
8.3283461e-05
6.6809023e-05
5.0820667e-05
3.6897156e-05
2.5770639e-05
1.7500466e-05
1.1738828e-05
7.9687375e-06
5.6697662e-06
4.3996735e-06
3.8194669e-06
3.6821293e-06
3.8176948e-06
4.1090337e-06
4.4880732e-06
4.8983269e-06
5.2833755e-06
5.6845361e-06
5.1071458e-06
4.3880466e-06
3.7286666e-06
3.1289773e-06
2.6066074e-06
2.1405194e-06
1.7534341e-06
1.4077969e-06
1.1305884e-06
8.7955508e-07
6.9225146e-07
4.8608493e-07
3.8224144e-07
1.6910455e-07
1.3096705e-07
3.695749e-08
5.8604389e-06
6.617486e-06
7.3273814e-06
7.9313038e-06
8.3635505e-06
8.5894117e-06
8.6831521e-06
8.9299602e-06
9.9242713e-06
1.2467413e-05
1.7622376e-05
2.6640367e-05
4.0241472e-05
5.8537694e-05
7.9933535e-05
0.00010134194
0.00011885024
0.00012894579
0.00012973737
0.000121529
0.0001064959
8.7758419e-05
6.8381502e-05
5.0686604e-05
3.5992387e-05
2.4702994e-05
1.6587139e-05
1.1092328e-05
7.587217e-06
5.5041668e-06
4.392909e-06
3.924157e-06
3.8622959e-06
4.0436448e-06
4.3762604e-06
4.7756435e-06
5.2043791e-06
5.6045837e-06
6.0264058e-06
5.8619634e-06
5.1071341e-06
4.3916676e-06
3.7375023e-06
3.1437487e-06
2.6276286e-06
2.1673187e-06
1.7835636e-06
1.4412488e-06
1.1643257e-06
9.1534624e-07
7.184682e-07
5.0934765e-07
3.9310039e-07
1.8576871e-07
1.2192488e-07
4.9510374e-08
6.6300069e-06
7.365709e-06
8.0106554e-06
8.4997626e-06
8.7812897e-06
8.87345e-06
8.978421e-06
9.6164486e-06
1.18069e-05
1.6512968e-05
2.5163555e-05
3.8927305e-05
5.812954e-05
8.2059527e-05
0.00010783277
0.00013115448
0.0001474836
0.00015357977
0.00014860333
0.00013420823
0.00011370054
9.083645e-05
6.8820996e-05
4.9769947e-05
3.4629996e-05
2.3418748e-05
1.560417e-05
1.0448656e-05
7.2349513e-06
5.3725382e-06
4.4200726e-06
4.0618666e-06
4.0674518e-06
4.3006149e-06
4.6631297e-06
5.0850936e-06
5.5270074e-06
5.9453717e-06
6.3888559e-06
6.6357322e-06
5.8619506e-06
5.108626e-06
4.3980031e-06
3.7498229e-06
3.1638029e-06
2.6542851e-06
2.1997667e-06
1.8192316e-06
1.4811267e-06
1.2033325e-06
9.4818534e-07
7.4157404e-07
5.3185601e-07
4.0110082e-07
2.0071345e-07
1.1352794e-07
6.0067735e-08
7.3885919e-06
8.0688445e-06
8.607831e-06
8.9491999e-06
9.0752983e-06
9.1060568e-06
9.4515178e-06
1.0982242e-05
1.5324195e-05
2.3470804e-05
3.7114597e-05
5.711586e-05
8.3033224e-05
0.00011292827
0.00014236875
0.0001659417
0.0001789235
0.0001789466
0.00016668383
0.00014529656
0.00011912184
9.2343183e-05
6.8097273e-05
4.8126302e-05
3.2894044e-05
2.1991677e-05
1.4598657e-05
9.8298096e-06
6.9195005e-06
5.2818681e-06
4.4908911e-06
4.2326165e-06
4.3021233e-06
4.5825117e-06
4.9759887e-06
5.4121378e-06
5.8690033e-06
6.306787e-06
6.7736582e-06
7.3992659e-06
6.6357188e-06
5.8604006e-06
5.1107241e-06
4.4061368e-06
3.7666301e-06
3.1892196e-06
2.6864193e-06
2.2380538e-06
1.8621138e-06
1.5273341e-06
1.2374613e-06
9.7612177e-07
7.643937e-07
5.5116524e-07
4.0556725e-07
2.1241738e-07
1.0563441e-07
6.6713571e-08
8.1043164e-06
8.687968e-06
9.0840136e-06
9.2597303e-06
9.2717699e-06
9.4140518e-06
1.0410879e-05
1.3634082e-05
2.1528716e-05
3.4844519e-05
5.5266948e-05
8.305352e-05
0.00011651784
0.00015209373
0.00018369644
0.00020514303
0.00021219318
0.00020400788
0.00018312389
0.00015421105
0.00012243961
9.2174784e-05
6.6254814e-05
4.5865941e-05
3.08935e-05
2.0494248e-05
1.360396e-05
9.2470702e-06
6.6530377e-06
5.2500754e-06
4.6067463e-06
4.4248726e-06
4.5715297e-06
4.8951292e-06
5.3090971e-06
5.7594055e-06
6.2314374e-06
6.6911622e-06
7.1827876e-06
8.1214175e-06
7.3992527e-06
6.629967e-06
5.8562868e-06
5.1121259e-06
4.417264e-06
3.7879061e-06
3.2196508e-06
2.7241701e-06
2.28523e-06
1.9112143e-06
1.5661886e-06
1.26441e-06
1.0041267e-06
7.8358383e-07
5.6675963e-07
4.0655944e-07
2.2054922e-07
9.7639281e-08
6.8526248e-08
8.7374937e-06
9.1841349e-06
9.4104864e-06
9.4379579e-06
9.4615902e-06
1.004414e-05
1.2368575e-05
1.8489612e-05
3.1894727e-05
5.2608067e-05
8.1781693e-05
0.00011875124
0.00016003451
0.00020013526
0.00023147312
0.00024774663
0.00024602731
0.00022760558
0.00019705597
0.00016041404
0.00012342088
9.033568e-05
6.3428381e-05
4.3144761e-05
2.8737855e-05
1.8976138e-05
1.2637211e-05
8.7217446e-06
6.467292e-06
5.2806891e-06
4.7256398e-06
4.6691706e-06
4.8764114e-06
5.2323523e-06
5.6649661e-06
6.1279719e-06
6.6171868e-06
7.100741e-06
7.6186569e-06
8.7621076e-06
8.121405e-06
7.3885519e-06
6.617418e-06
5.8477957e-06
5.1141914e-06
4.4311366e-06
3.8131781e-06
3.2552362e-06
2.7720152e-06
2.340783e-06
1.9503055e-06
1.594051e-06
1.290923e-06
1.0280494e-06
7.9787816e-07
5.7779087e-07
4.0423134e-07
2.2559306e-07
8.9532456e-08
6.5678841e-08
9.2461394e-06
9.5220745e-06
9.5786447e-06
9.5458145e-06
9.8393536e-06
1.1424263e-05
1.6122342e-05
2.6874492e-05
4.8399774e-05
7.9233241e-05
0.00011911785
0.00016622426
0.00021471245
0.00025708193
0.00028477097
0.00029229972
0.00027892748
0.00024850872
0.00020763592
0.00016346448
0.00012198
8.6972558e-05
5.9833583e-05
4.0124438e-05
2.6499998e-05
1.7463514e-05
1.1735381e-05
8.3080077e-06
6.3689012e-06
5.2793289e-06
4.9251101e-06
4.9533755e-06
5.2125014e-06
5.596499e-06
6.0446432e-06
6.5209305e-06
7.0288812e-06
7.5381752e-06
8.0836047e-06
9.2773483e-06
8.7620959e-06
8.1042778e-06
7.3656411e-06
6.5956377e-06
5.8364204e-06
5.1164297e-06
4.4471942e-06
3.8425703e-06
3.3027921e-06
2.8298335e-06
2.3832677e-06
1.9730916e-06
1.6207901e-06
1.3127206e-06
1.046019e-06
8.0708164e-07
5.8379427e-07
3.9872626e-07
2.2736864e-07
8.1862706e-08
5.924729e-08
9.5914118e-06
9.6839046e-06
9.6294438e-06
9.7361608e-06
1.0760632e-05
1.4243452e-05
2.2855019e-05
4.0623857e-05
7.3579914e-05
0.00011765389
0.00016988579
0.00022726365
0.0002811208
0.00032225534
0.00034203996
0.0003369547
0.00030922157
0.00026546213
0.00021410972
0.00016310742
0.00011824361
8.2370465e-05
5.570341e-05
3.6910667e-05
2.4219814e-05
1.6020043e-05
1.0988549e-05
8.0167534e-06
6.177719e-06
5.4045092e-06
5.1680149e-06
5.2785308e-06
5.581471e-06
5.9888216e-06
6.4512241e-06
6.941073e-06
7.469531e-06
8.0056835e-06
8.5794631e-06
9.6266346e-06
9.277338e-06
8.7374582e-06
8.068779e-06
7.3272833e-06
6.5660236e-06
5.8217565e-06
5.1181053e-06
4.4660105e-06
3.8855351e-06
3.3633842e-06
2.8712327e-06
2.4005575e-06
1.9935252e-06
1.6418301e-06
1.3278737e-06
1.0564745e-06
8.1073723e-07
5.8451334e-07
3.9021421e-07
2.2530143e-07
7.5018103e-08
5.0800367e-08
9.7499836e-06
9.6957344e-06
9.6839708e-06
1.0305758e-05
1.2819432e-05
1.9551692e-05
3.4245143e-05
6.2176054e-05
0.00011052481
0.00017115234
0.00023661213
0.00030314752
0.00035903072
0.00039416027
0.00040112206
0.00037953407
0.00033512767
0.00027726866
0.00021593727
0.00015938717
0.00011256588
7.6856961e-05
5.1187641e-05
3.3563098e-05
2.2005081e-05
1.4791907e-05
1.04127e-05
7.5343327e-06
6.1853773e-06
5.5748739e-06
5.4661874e-06
5.6450115e-06
5.9846431e-06
6.4121922e-06
6.8874792e-06
7.3914862e-06
7.9413257e-06
8.5046782e-06
9.1070498e-06
9.784042e-06
9.6266271e-06
9.2461088e-06
8.6879067e-06
8.0105599e-06
7.2747616e-06
6.5285479e-06
5.8027947e-06
5.1207077e-06
4.5003146e-06
3.9438434e-06
3.4043769e-06
2.8760037e-06
2.4139026e-06
2.007531e-06
1.6540085e-06
1.3356576e-06
1.0586629e-06
8.0778811e-07
5.7955816e-07
3.7876443e-07
2.1940436e-07
6.9055557e-08
4.1888849e-08
9.7372872e-06
9.655156e-06
9.9937882e-06
1.1770237e-05
1.6947379e-05
2.8876935e-05
5.2579597e-05
9.4635161e-05
0.00016279928
0.00024314279
0.00032141112
0.00039432108
0.0004472107
0.00047043581
0.00045930409
0.00041760955
0.00035485262
0.00028294567
0.00021297329
0.00015270469
0.00010539178
7.0637949e-05
4.6372914e-05
3.0259726e-05
2.0088017e-05
1.3800422e-05
9.492293e-06
7.3624502e-06
6.2376169e-06
5.8215409e-06
5.8176521e-06
6.0540854e-06
6.4247318e-06
6.869439e-06
7.3562865e-06
7.8741123e-06
8.4456076e-06
9.0358484e-06
9.6654794e-06
9.759834e-06
9.7840382e-06
9.5913878e-06
9.1840803e-06
8.6077408e-06
7.9311751e-06
7.2083144e-06
6.4822124e-06
5.7824631e-06
5.140406e-06
4.5527674e-06
3.9797902e-06
3.3933801e-06
2.8754006e-06
2.41956e-06
2.0114775e-06
1.6557837e-06
1.3346723e-06
1.0526147e-06
7.9749869e-07
5.6855793e-07
3.6440066e-07
2.1013105e-07
6.3794677e-08
3.365672e-08
9.6359426e-06
9.7818013e-06
1.1014438e-05
1.4961845e-05
2.4535258e-05
4.4351266e-05
8.0852714e-05
0.00014175943
0.00023426947
0.00033682367
0.00042558724
0.00050008193
0.00054327934
0.00054786438
0.00051340346
0.00044862039
0.00036677336
0.00028198935
0.00020560481
0.00014363712
9.6994492e-05
6.3832815e-05
4.1546341e-05
2.7364254e-05
1.8494275e-05
1.2231351e-05
9.0538383e-06
7.2303922e-06
6.396894e-06
6.1385278e-06
6.2233859e-06
6.5081335e-06
6.904487e-06
7.3630402e-06
7.8590525e-06
8.390288e-06
8.9830514e-06
9.5985503e-06
1.0252234e-05
9.6296212e-06
9.7598329e-06
9.7499685e-06
9.5220307e-06
9.0839316e-06
8.4996384e-06
7.8307846e-06
7.1278912e-06
6.431851e-06
5.7807394e-06
5.1799566e-06
4.5814982e-06
3.9456726e-06
3.3752376e-06
2.8664468e-06
2.4120566e-06
2.00402e-06
1.646085e-06