/*--------------------------------*- C++ -*----------------------------------*\
| =========                 |                                                 |
| \\      /  F ield         | OpenFOAM: The Open Source CFD Toolbox           |
|  \\    /   O peration     | Version:  5.0                                   |
|   \\  /    A nd           | Web:      www.OpenFOAM.org                      |
|    \\/     M anipulation  |                                                 |
\*---------------------------------------------------------------------------*/
FoamFile
{
    version     2.0;
    format      ascii;
    class       volVectorField;
    location    "75";
    object      U;
}
// * * * * * * * * * * * * * * * * * * * * * * * * * * * * * * * * * * * * * //

dimensions      [0 1 -1 0 0 0 0];

internalField   nonuniform List<vector> 
9200
(
(1.0213682 -0.00039866464 -1.6774582e-23)
(1.0216371 -0.0011661915 -6.4187168e-21)
(1.0224735 -0.00040784174 0)
(1.0219608 -0.0018755981 3.2636219e-21)
(1.0227353 -0.0011917869 -5.0116992e-21)
(1.0229939 -0.00041521672 0)
(1.0223205 -0.002529775 3.2880836e-22)
(1.023043 -0.0019138631 -3.5706667e-22)
(1.0232536 -0.0012158261 0)
(1.0237556 -0.00042702767 0)
(1.0227282 -0.0031159845 -5.9895936e-21)
(1.0233744 -0.0025835651 -3.1241837e-21)
(1.0235526 -0.0019511597 -2.7537856e-21)
(1.0240114 -0.0012558581 -1.7533864e-22)
(1.0243935 -0.00043849795 1.7320966e-24)
(1.0231553 -0.0036497545 -5.484569e-21)
(1.0237485 -0.003181123 6.0093109e-22)
(1.0238691 -0.0026364878 -8.6669501e-21)
(1.0243006 -0.0020123382 -3.1231545e-21)
(1.0246466 -0.0012975446 1.8148093e-22)
(1.0250936 -0.0004516981 7.5755358e-21)
(1.0235838 -0.0041245004 -4.7000231e-21)
(1.0241371 -0.0037270519 -5.9019095e-21)
(1.0242257 -0.0032467371 5.2554713e-21)
(1.0245996 -0.0027237548 2.6281219e-22)
(1.0249274 -0.002076372 -3.5741398e-21)
(1.025345 -0.0013479388 -3.4128494e-21)
(1.0257551 -0.00046439076 -4.4943284e-22)
(1.0239889 -0.0045495314 -1.6136148e-21)
(1.0245232 -0.0042109458 -3.6980507e-21)
(1.0245935 -0.0038063171 -5.370179e-21)
(1.0249354 -0.0033561207 4.6956487e-22)
(1.0252112 -0.0028154296 7.8967946e-21)
(1.0256198 -0.0021538985 3.4207421e-21)
(1.0260053 -0.0013993597 4.9674659e-21)
(1.0264431 -0.00047717938 -7.5081284e-21)
(1.0243516 -0.0049258842 5.38142e-21)
(1.0248839 -0.0046437727 -4.6973546e-21)
(1.0249563 -0.0043022531 4.4917466e-22)
(1.0252782 -0.0039394294 -2.8759926e-21)
(1.0255289 -0.0034717672 1.0575261e-21)
(1.0258921 -0.0029275009 1.2627079e-20)
(1.0262751 -0.0022329713 -3.9723712e-21)
(1.0266941 -0.0014545361 8.4449209e-21)
(1.0271106 -0.00048865322 1.6079036e-20)
(1.0246529 -0.0052597859 -3.8039282e-21)
(1.0252015 -0.0050249861 2.7775355e-21)
(1.0252915 -0.0047466441 3.8555228e-23)
(1.0256128 -0.0044569702 -1.6075004e-21)
(1.0258495 -0.0040808321 8.4394358e-22)
(1.0261958 -0.0036148656 1.7632248e-21)
(1.0265371 -0.0030423894 -4.4290264e-21)
(1.0269622 -0.0023180542 -8.2496949e-21)
(1.0273636 -0.001508151 -4.3442586e-21)
(1.0277907 -0.00049886547 -1.0743014e-21)
(1.0248748 -0.0055558589 1.7446893e-21)
(1.0254594 -0.0053607339 4.8668496e-22)
(1.0255821 -0.005138131 -3.7684871e-21)
(1.0259169 -0.0049222344 3.4320422e-21)
(1.0261585 -0.004622331 -6.704953e-21)
(1.0264982 -0.0042579174 1.3385898e-20)
(1.0268279 -0.0037622857 5.7516276e-22)
(1.0272192 -0.003167648 -1.4053557e-20)
(1.0276323 -0.0024007413 7.1355113e-21)
(1.0280479 -0.0015609868 -1.4460319e-20)
(1.0284559 -0.00050685323 2.4594687e-21)
(1.0249977 -0.0058201347 -1.0716095e-22)
(1.0256423 -0.0056545995 -2.5795952e-22)
(1.0258121 -0.0054830844 2.560523e-21)
(1.0261746 -0.0053324989 0)
(1.0264339 -0.0051110023 2.6607735e-24)
(1.0267851 -0.0048321764 -1.6051218e-21)
(1.0271132 -0.0044411444 2.7865267e-21)
(1.027503 -0.0039252099 6.9560087e-21)
(1.0278873 -0.0032907515 -1.6535404e-21)
(1.0283209 -0.0024823626 8.8459764e-21)
(1.028719 -0.0016091232 6.1233854e-21)
(1.0291216 -0.00051237524 -1.2568348e-21)
(1.024997 -0.0060595041 -6.563523e-23)
(1.0257344 -0.0059117168 7.5678185e-22)
(1.0259672 -0.0057848931 0)
(1.0263709 -0.0056941174 0)
(1.0266604 -0.0055428669 2.2270944e-21)
(1.0270345 -0.0053537034 -4.6207999e-21)
(1.0273791 -0.0050502768 7.1907557e-21)
(1.0277772 -0.0046465526 -7.154983e-21)
(1.0281677 -0.0040869102 -4.9919461e-22)
(1.0285796 -0.0034143761 1.792626e-23)
(1.0289994 -0.0025567687 -1.1269426e-20)
(1.0293933 -0.0016520613 1.2935073e-20)
(1.029772 -0.00051482883 -2.2713935e-20)
(1.0248363 -0.0062817823 1.8204525e-22)
(1.0257165 -0.0061376821 -1.2523208e-22)
(1.0260324 -0.0060488061 1.8557002e-21)
(1.0264928 -0.0060097521 -2.2583636e-21)
(1.0268239 -0.0059243378 2.530472e-21)
(1.0272317 -0.0058168734 -1.2004748e-21)
(1.0276034 -0.005606981 -1.6566642e-21)
(1.0280279 -0.0052984157 1.4511597e-22)
(1.0284347 -0.0048524958 -5.7028872e-21)
(1.0288627 -0.0042517867 -5.0769565e-21)
(1.0292667 -0.0035294651 -2.8430413e-21)
(1.0296853 -0.0026231931 -7.7398051e-21)
(1.0300546 -0.0016871196 -5.2735836e-21)
(1.0304121 -0.00051387081 6.1969757e-21)
(1.0244573 -0.006496296 2.0986614e-21)
(1.0255608 -0.0063390563 -2.932761e-21)
(1.0259903 -0.0062804429 4.664745e-22)
(1.0265274 -0.0062842366 1.3141167e-22)
(1.0269124 -0.0062575696 -1.1996605e-22)
(1.0273625 -0.0062275722 1.3736719e-21)
(1.0277716 -0.0061040076 -1.5115255e-21)
(1.028232 -0.0058993574 2.0851394e-21)
(1.028674 -0.0055496944 -9.3580269e-22)
(1.0291292 -0.0050658139 3.7462347e-22)
(1.0295582 -0.0044079167 1.6906608e-22)
(1.0299672 -0.0036353324 -3.9526887e-22)
(1.0303619 -0.0026774259 1.1175523e-20)
(1.0307084 -0.0017131353 -5.7837511e-21)
(1.0310333 -0.00050916051 4.8093136e-21)
(1.023766 -0.0067142123 -3.8019239e-22)
(1.0252216 -0.0065243826 2.1082821e-21)
(1.0258157 -0.00648613 -1.1108874e-21)
(1.0264598 -0.0065225507 2.0154474e-21)
(1.0269143 -0.0065473332 -2.3206141e-21)
(1.0274163 -0.0065872741 4.9202615e-21)
(1.0278709 -0.0065473169 -6.2587196e-21)
(1.0283754 -0.0064402202 3.3603712e-22)
(1.0288619 -0.0061982585 1.7942789e-21)
(1.0293637 -0.0058139129 -2.6263412e-21)
(1.0298306 -0.0052713885 1.8175204e-20)
(1.0302741 -0.004554922 -7.236447e-21)
(1.0306643 -0.0037257566 -3.7069408e-21)
(1.0310354 -0.0027176486 -1.2110243e-21)
(1.0313453 -0.0017283305 1.4848431e-22)
(1.0316344 -0.00050050058 -5.2203376e-21)
(1.0226203 -0.0069480691 0)
(1.0246215 -0.0067052704 2.0145422e-21)
(1.0254679 -0.0066737853 -8.1621883e-22)
(1.0262692 -0.0067303871 0)
(1.0268164 -0.0067983863 0)
(1.0273832 -0.0069004674 0)
(1.0278914 -0.0069376459 3.26634e-22)
(1.0284454 -0.0069264462 -3.5481168e-21)
(1.0289841 -0.0067870931 4.4685768e-21)
(1.0295414 -0.0065169878 -4.9072987e-21)
(1.030067 -0.00607272 8.9571995e-22)
(1.0305603 -0.0054695086 -3.7617536e-21)
(1.0309938 -0.0046845914 6.6285223e-22)
(1.031365 -0.0037983029 4.075272e-21)
(1.0316961 -0.0027410092 6.9642143e-22)
(1.0319656 -0.0017316588 2.7225042e-21)
(1.0322107 -0.00048770943 0)
(1.0208275 -0.0072103672 8.0230841e-22)
(1.0236351 -0.0068970326 -3.2535231e-21)
(1.0248775 -0.0068535439 3.725048e-21)
(1.025922 -0.0069150243 2.1042224e-21)
(1.0266008 -0.007016264 2.8113532e-21)
(1.0272519 -0.0071713176 0)
(1.0278239 -0.0072790158 4.078187e-21)
(1.0284326 -0.0073575253 -1.3323309e-21)
(1.029028 -0.0073211032 -9.6576038e-21)
(1.0296476 -0.0071617995 5.7489789e-21)
(1.0302412 -0.0068339559 2.8492903e-21)
(1.0308067 -0.0063273388 1.0383244e-21)
(1.0313018 -0.0056497841 -9.3530552e-21)
(1.0317247 -0.0047939609 1.3007634e-20)
(1.0320592 -0.0038486989 2.0779977e-21)
(1.032344 -0.0027456424 1.9441643e-20)
(1.0325626 -0.0017221548 7.0166833e-21)
(1.0327594 -0.0004706414 6.1880934e-21)
(1.0181597 -0.0075108768 -3.6834196e-23)
(1.0220797 -0.0071180974 -1.4962497e-21)
(1.0239305 -0.0070384654 -7.6803615e-22)
(1.0253591 -0.0070860581 2.6256705e-21)
(1.0262383 -0.0072078381 -3.4001272e-22)
(1.0270076 -0.0074049893 1.5833827e-21)
(1.0276587 -0.0075750668 -3.0687515e-21)
(1.028329 -0.00773676 -8.9819018e-21)
(1.028985 -0.0077986643 -3.624333e-21)
(1.0296696 -0.0077524764 3.608321e-21)
(1.0303381 -0.0075397354 -1.3280636e-21)
(1.0309856 -0.0071515809 7.5816277e-21)
(1.0315669 -0.0065652054 -5.3156558e-21)
(1.0320636 -0.0058088411 6.5469075e-23)
(1.0324569 -0.0048772701 -3.1368208e-22)
(1.0327471 -0.0038741678 -3.1775004e-21)
(1.0329732 -0.002729889 6.410884e-21)
(1.0331344 -0.0016989918 -2.9230566e-22)
(1.0332772 -0.00044929259 5.5263129e-21)
(1.014389 -0.0078532202 -5.9432069e-23)
(1.0197216 -0.0073872337 1.6048042e-21)
(1.0224564 -0.0072441819 -7.2623054e-21)
(1.02448 -0.0072564669 -1.059139e-21)
(1.0256782 -0.0073819501 1.2575138e-21)
(1.0266258 -0.0076078445 5.9795095e-22)
(1.0273832 -0.0078306953 7.5580883e-22)
(1.0281266 -0.0080670661 3.5438442e-21)
(1.0288477 -0.0082223297 -1.481046e-21)
(1.0295989 -0.0082859649 -1.111213e-20)
(1.0303444 -0.0081933445 8.0245961e-21)
(1.0310807 -0.007924667 -2.4466254e-22)
(1.0317596 -0.0074552352 -2.7210846e-21)
(1.0323572 -0.0067826835 2.0017735e-22)
(1.0328358 -0.005939208 4.1528755e-22)
(1.0331909 -0.0049308699 -1.1173833e-20)
(1.0334224 -0.0038718794 3.1494555e-21)
(1.0335805 -0.0026925278 -1.021495e-20)
(1.0336772 -0.0016615849 -2.4616384e-21)
(1.0337614 -0.00042371555 -5.4371013e-21)
(1.0093336 -0.0082321565 -1.4847331e-22)
(1.0163051 -0.0077185848 2.0243468e-21)
(1.0202295 -0.0074868011 -6.8580543e-24)
(1.0231265 -0.0074429194 2.2865554e-21)
(1.0248317 -0.0075504943 4.9850053e-23)
(1.0260632 -0.0077881535 -2.0798762e-21)
(1.026977 -0.0080518103 5.9293553e-21)
(1.0278153 -0.008352838 1.2251371e-20)
(1.0286095 -0.0085942258 -3.2517611e-21)
(1.0294291 -0.0087636852 0)
(1.0302516 -0.0087902242 -4.9926275e-21)
(1.0310779 -0.0086488559 4.3370188e-21)
(1.0318621 -0.0083001173 8.8547219e-21)
(1.032574 -0.0077411525 -7.8248371e-21)
(1.0331682 -0.0069705523 3.469286e-21)
(1.0336196 -0.0060362872 -8.9254371e-21)
(1.0339199 -0.0049507178 2.5169016e-24)
(1.034082 -0.0038397628 3.8778827e-21)
(1.0341617 -0.002632658 -6.080926e-21)
(1.034188 -0.0016096994 -4.8506138e-22)
(1.0342093 -0.00039403613 -4.7390094e-21)
(1.0029021 -0.0086328101 -2.0642372e-21)
(1.0115985 -0.0081165259 1.2713021e-21)
(1.0169917 -0.0077789545 3.2914097e-21)
(1.0210782 -0.007664514 -4.3481278e-21)
(1.0235555 -0.007728728 -3.4047598e-21)
(1.0252423 -0.0079571411 6.4239467e-22)
(1.026403 -0.008246032 0)
(1.0273784 -0.0085994678 1.8429083e-21)
(1.0282623 -0.008918135 -2.5871393e-21)
(1.0291547 -0.0091867304 -1.0459743e-20)
(1.0300539 -0.0093305442 -5.6932668e-22)
(1.0309687 -0.0093178471 2.7034988e-21)
(1.0318592 -0.0091010845 -7.7328139e-22)
(1.0326941 -0.0086623004 -2.7285361e-21)
(1.0334201 -0.0079983452 5.3796194e-21)
(1.0340019 -0.007123276 -5.1142014e-21)
(1.0344079 -0.006094573 1.1289846e-21)
(1.034641 -0.0049337308 -7.05797e-21)
(1.034721 -0.0037762695 -1.0407344e-21)
(1.0347137 -0.0025497459 -2.0776813e-22)
(1.034664 -0.001543382 -2.8704556e-21)
(1.0346191 -0.00036044304 0)
(0.99512132 -0.0090322919 -1.5466198e-21)
(1.0054459 -0.0085724829 -3.8320479e-22)
(1.0124947 -0.0081256235 3.2711191e-23)
(1.0180694 -0.0079382523 -4.2983686e-21)
(1.0216418 -0.007934499 -2.4128854e-21)
(1.0240328 -0.008129498 2.0280574e-21)
(1.0255933 -0.0084237926 -1.2393816e-21)
(1.0267852 -0.0088141123 7.1066106e-21)
(1.0277925 -0.0091988257 2.4423381e-21)
(1.0287694 -0.0095580038 7.4738981e-22)
(1.0297467 -0.0098141918 -1.9730267e-22)
(1.0307474 -0.009930334 -5.9361832e-21)
(1.0317419 -0.0098499936 7.2397449e-22)
(1.032701 -0.0095463179 1.9597795e-21)
(1.0335693 -0.0089986284 -6.3239299e-21)
(1.0343008 -0.00822038 -7.6055325e-21)
(1.0348509 -0.0072337085 2.4237281e-22)
(1.0351978 -0.0061098458 1.2395147e-20)
(1.0353484 -0.0048773635 5.9165797e-22)
(1.0353357 -0.0036803232 -3.714817e-21)
(1.0352331 -0.0024436805 0)
(1.0351027 -0.0014629031 5.8600453e-21)
(1.0349891 -0.00032318303 1.207166e-22)
(0.98613897 -0.0094033599 9.2642957e-21)
(0.99780605 -0.0090648813 1.7634078e-22)
(1.0065533 -0.0085212223 3.5683783e-21)
(1.0138283 -0.0082739141 1.7248366e-21)
(1.0188253 -0.0081847712 -5.1693194e-21)
(1.0222377 -0.0083223659 0)
(1.0244319 -0.0085995164 -2.1353935e-22)
(1.0259773 -0.0090064822 2.8004891e-21)
(1.0271748 -0.0094428088 5.3417518e-21)
(1.0282627 -0.0098815235 7.1835056e-21)
(1.0293253 -0.010242958 -4.7650524e-21)
(1.0304104 -0.010484709 -5.1560329e-21)
(1.0315045 -0.010543962 6.6866457e-21)
(1.0325847 -0.010383083 -6.0946965e-21)
(1.0335976 -0.0099706154 1.0541744e-20)
(1.0344919 -0.0093018554 1.3386144e-20)
(1.0352094 -0.0083983488 -5.395403e-21)
(1.035713 -0.0072963626 4.8256051e-21)
(1.0359831 -0.0060782998 -1.4840625e-20)
(1.0360378 -0.0047797782 4.1509746e-21)
(1.0359215 -0.0035515863 7.6394847e-21)
(1.0357171 -0.0023147613 -5.9550638e-21)
(1.0355023 -0.0013687696 3.2027716e-21)
(1.0353184 -0.00028255267 9.923708e-23)
(0.97620155 -0.0097189274 2.5992758e-21)
(0.98876965 -0.0095622358 9.7737976e-22)
(0.99908948 -0.0089489566 -4.967203e-22)
(1.0081305 -0.0086700682 -8.6355953e-21)
(1.0148189 -0.0084920984 3.1315307e-21)
(1.0195973 -0.0085557128 -6.6559095e-21)
(1.0227377 -0.0087913208 -1.42252e-22)
(1.0248505 -0.0091899107 -8.1243778e-21)
(1.0263598 -0.0096591783 1.819799e-21)
(1.0276143 -0.010163064 3.3025828e-21)
(1.0287818 -0.0106199 -2.6477334e-21)
(1.0299542 -0.010981428 8.7634722e-21)
(1.0311437 -0.011179637 -3.4613254e-21)
(1.0323392 -0.011167925 -6.2268723e-22)
(1.0334937 -0.01090218 3.9485753e-21)
(1.0345545 -0.01036601 1.6624293e-21)
(1.0354558 -0.0095612886 -1.0875716e-21)
(1.0361441 -0.0085253966 7.6239032e-21)
(1.0365813 -0.0073058933 0)
(1.036759 -0.0059970057 1.2825128e-21)
(1.0367042 -0.0046399543 3.6894123e-22)
(1.036475 -0.003390105 -6.6259021e-22)
(1.0361631 -0.0021637169 -9.2592172e-23)
(1.0358614 -0.0012617015 -4.3949164e-21)
(1.0356063 -0.00023888746 -1.5406472e-21)
(0.96561502 -0.0099555457 -9.8305205e-21)
(0.9785477 -0.01002813 -9.9593681e-22)
(0.99015707 -0.0093827561 1.2181019e-21)
(1.0008505 -0.0091124869 9.1910994e-22)
(1.0093676 -0.0088598388 9.6268011e-21)
(1.0158169 -0.0088464984 7.9387498e-22)
(1.0202602 -0.009018315 -9.340188e-23)
(1.0232369 -0.0093819879 5.2503657e-22)
(1.0252558 -0.0098606517 6.7173452e-21)
(1.0267826 -0.010410895 -6.3676801e-22)
(1.0281001 -0.010949916 4.4714158e-21)
(1.0293733 -0.011422356 -1.0321445e-21)
(1.0306574 -0.011755887 -4.6143711e-21)
(1.0319615 -0.011895538 9.8295164e-22)
(1.0332508 -0.011786788 -2.3322353e-21)
(1.0344758 -0.011398739 -5.4029891e-21)
(1.0355669 -0.010720121 -3.9028455e-21)
(1.0364601 -0.009768678 -1.0761838e-20)
(1.0370978 -0.0085943736 -1.5779407e-20)
(1.037451 -0.0072580261 -8.9562439e-23)
(1.0375195 -0.0058639304 1.4911291e-20)
(1.0373431 -0.0044575541 2.8138291e-21)
(1.0369929 -0.0031965309 -5.6506898e-21)
(1.0365691 -0.0019916116 4.4162335e-21)
(1.0361789 -0.0011426059 -2.6393817e-21)
(1.0358527 -0.00019254788 1.4114724e-22)
(0.95469887 -0.010095665 4.5736236e-22)
(0.9674375 -0.010427087 -1.7032898e-21)
(0.97993866 -0.0097903746 -4.81154e-21)
(0.99199404 -0.0095758563 4.2751478e-21)
(1.0023047 -0.0092785233 -7.337823e-21)
(1.0106156 -0.0092020537 5.8516618e-21)
(1.016698 -0.0092975879 4.5490121e-21)
(1.0208973 -0.0096031879 5.5593475e-21)
(1.0237094 -0.010064151 -9.676008e-21)
(1.025688 -0.010636982 -4.3621503e-21)
(1.027246 -0.011240352 1.0180952e-22)
(1.0286553 -0.011811334 -1.1783653e-20)
(1.0300418 -0.012273085 1.1133421e-20)
(1.0314503 -0.012562971 -4.7230114e-21)
(1.0328658 -0.012617016 1.5604241e-21)
(1.0342476 -0.012391562 1.6383227e-21)
(1.0355277 -0.011858897 -6.6089883e-21)
(1.0366352 -0.011023332 7.427103e-21)
(1.0374981 -0.0099148858 -6.91596e-21)
(1.0380659 -0.0085994116 8.6678942e-22)
(1.0383151 -0.0071493793 0)
(1.0382593 -0.0056778641 5.7959009e-21)
(1.03795 -0.0042329718 8.3632156e-22)
(1.0374723 -0.0029720425 0)
(1.0369336 -0.0017998137 -5.0096192e-21)
(1.0364545 -0.001012539 -3.6612295e-22)
(1.0360579 -0.00014390715 5.6392712e-22)
(0.94373922 -0.010133249 3.5949248e-21)
(0.95577293 -0.010726519 -1.482417e-22)
(0.96872117 -0.010139078 -4.3584364e-21)
(0.98170063 -0.010028018 2.6228092e-22)
(0.99359508 -0.0097258675 -1.6982146e-21)
(1.0037839 -0.0096166424 -6.3165347e-21)
(1.0117463 -0.0096396588 -3.7089091e-22)
(1.0175325 -0.0098729881 -5.5077556e-21)
(1.0214932 -0.010290042 1.091162e-21)
(1.0241918 -0.01085778 6.9018398e-21)
(1.026151 -0.011502131 -8.0072174e-21)
(1.0277729 -0.012154693 -3.4995488e-21)
(1.0292879 -0.012733693 -5.7779654e-21)
(1.0308034 -0.01316888 1.5957562e-21)
(1.0323378 -0.01338786 -5.4619755e-21)
(1.0338664 -0.01333479 2.2602136e-21)
(1.0353286 -0.012967231 -7.2419391e-21)
(1.0366516 -0.01227178 2.1734506e-20)
(1.0377532 -0.011264427 7.0786627e-21)
(1.0385653 -0.0099922613 1.07732e-21)
(1.0390404 -0.0085353969 8.4876977e-21)
(1.0391674 -0.0069775335 -9.6282267e-22)
(1.0389726 -0.0054386141 -5.2215674e-22)
(1.0385209 -0.0039672676 0)
(1.0379106 -0.0027182837 0)
(1.0372554 -0.0015899466 4.0532713e-22)
(1.036688 -0.00087265911 -1.6282228e-21)
(1.0362225 -9.3347093e-05 -3.1110418e-22)
(0.9329562 -0.010069463 0)
(0.94389066 -0.010902973 -1.1776337e-21)
(0.95682201 -0.010401923 4.4689315e-21)
(0.97021822 -0.010433127 1.5870615e-21)
(0.98334693 -0.010170802 5.9045047e-21)
(0.99522947 -0.010070603 8.821461e-22)
(1.00516 -0.010043173 -4.1706914e-21)
(1.0128214 -0.010205017 -8.7531818e-21)
(1.0183119 -0.010559042 9.540652e-21)
(1.02208 -0.011093731 -1.8543908e-21)
(1.0246909 -0.011750832 6.6157613e-22)
(1.0266678 -0.012462324 1.7587468e-21)
(1.0283741 -0.01314275 -1.6194609e-20)
(1.0300148 -0.013714154 2.6944748e-21)
(1.031666 -0.01409596 2.3911383e-21)
(1.0333314 -0.01422116 -5.4235161e-21)
(1.0349649 -0.014033112 2.5874736e-21)
(1.0364976 -0.013501832 -6.0667937e-21)
(1.0378424 -0.012624125 1.6105328e-20)
(1.0389172 -0.01143385 -4.572291e-21)
(1.0396536 -0.0099936176 6.9827602e-21)
(1.0400147 -0.0083983416 4.5590415e-21)
(1.0400009 -0.0067412745 -3.3628505e-22)
(1.0396543 -0.0051467632 -1.3516413e-20)
(1.0390522 -0.0036621912 -3.7557594e-21)
(1.0383061 -0.0024373073 8.0742698e-22)
(1.037534 -0.0013638169 2.8220819e-21)
(1.0368798 -0.00072419176 -4.25854e-22)
(1.0363476 -4.1262232e-05 -9.5690867e-22)
(0.92250599 -0.0099067645 -1.1563959e-20)
(0.93206574 -0.010954508 0)
(0.94456624 -0.010561607 0)
(0.95790192 -0.010758924 0)
(0.97178815 -0.010579672 -1.5217295e-21)
(0.98501024 -0.01053366 5.1217754e-21)
(0.99680805 -0.010493285 -1.0958951e-22)
(1.0064817 -0.010602055 5.1571837e-23)
(1.0138348 -0.010887268 1.3274552e-20)
(1.0190634 -0.011366602 -1.455211e-20)
(1.0226662 -0.012006633 6.0308694e-21)
(1.0252299 -0.012748806 -2.381173e-21)
(1.0272518 -0.013508899 5.447474e-21)
(1.0290679 -0.014202315 -3.4113581e-21)
(1.0308467 -0.014740305 1.1261484e-20)
(1.0326426 -0.015045063 3.1594899e-21)
(1.0344355 -0.01504687 -5.9305276e-21)
(1.0361671 -0.014699159 -7.232537e-21)
(1.0377514 -0.013980209 3.2605683e-21)
(1.0390975 -0.01290443 -3.5207631e-21)
(1.0401191 -0.011522064 -8.0020577e-21)
(1.0407558 -0.0099130517 7.3809304e-22)
(1.0409804 -0.0081855424 1.0598741e-20)
(1.0408092 -0.0064403097 -6.3350529e-21)
(1.0402991 -0.0048038806 -5.657722e-22)
(1.0395407 -0.0033200237 -1.8587693e-21)
(1.0386572 -0.0021315391 3.3599587e-21)
(1.0377693 -0.0011233406 1.4954506e-21)
(1.0370307 -0.000568403 5.630988e-23)
(1.0364346 1.1935179e-05 -1.3022919e-21)
(0.91163942 -0.0096268829 -9.2561522e-22)
(0.92049528 -0.01087411 -1.0784881e-21)
(0.93227719 -0.010606237 0)
(0.94512263 -0.010978394 0)
(0.95923256 -0.010920128 0)
(0.9733354 -0.010970639 0)
(0.98670268 -0.010962834 0)
(0.99833262 -0.011052402 -2.9019498e-23)
(1.0077521 -0.011281149 -5.0899186e-21)
(1.0148039 -0.011694723 1.5624009e-20)
(1.0197974 -0.012292098 -1.3967789e-22)
(1.0232751 -0.013033731 6.7421317e-21)
(1.0258243 -0.013845585 -1.5108233e-20)
(1.0279228 -0.014640514 8.8413594e-21)
(1.0298678 -0.015322608 -9.1084419e-22)
(1.0317986 -0.015803341 6.1978604e-21)
(1.0337408 -0.016000426 -8.9987451e-21)
(1.035658 -0.015851591 2.8779215e-21)
(1.037472 -0.01531616 7.319994e-21)
(1.039089 -0.014388981 3.9955038e-21)
(1.0404095 -0.013100644 1.0282908e-21)
(1.0413518 -0.011520939 5.766547e-21)
(1.0418625 -0.0097459033 1.6161856e-22)
(1.04193 -0.0078954091 -4.0642862e-21)
(1.0415855 -0.0060756148 2.5850598e-21)
(1.0409028 -0.0044121841 1.0240906e-20)
(1.0399841 -0.0029435892 2.4301802e-21)
(1.0389629 -0.001803848 -1.3928024e-21)
(1.0379618 -0.00087054597 1.6211805e-22)
(1.0371418 -0.00040659955 1.1956712e-21)
(1.0364847 6.5782419e-05 1.0635515e-21)
(0.90013781 -0.0091932011 1.2803213e-20)
(0.9084648 -0.010656837 -2.1985171e-22)
(0.92025182 -0.010543429 3.4744394e-21)
(0.93221079 -0.011095132 2.6070836e-21)
(0.94604005 -0.011163708 0)
(0.96051994 -0.011345313 0)
(0.97500328 -0.011416511 1.0333558e-22)
(0.98834 -0.011530779 6.6742303e-21)
(0.99983933 -0.011733168 -1.1149288e-20)
(1.0089661 -0.012087509 1.4096352e-20)
(1.0157436 -0.012627666 2.4240199e-22)
(1.0205346 -0.013340037 -1.0886012e-20)
(1.0239235 -0.014171625 2.3026647e-21)
(1.0264958 -0.015040783 -1.3280519e-21)
(1.0286972 -0.01584825 -8.5526673e-21)
(1.0307908 -0.016495633 6.0996137e-22)
(1.0328809 -0.016888188 1.3451276e-20)
(1.034971 -0.016948392 -7.9974886e-22)
(1.0370009 -0.016617321 -7.958234e-21)
(1.0388809 -0.015869028 2.3521833e-20)
(1.040504 -0.014713528 -1.6991451e-21)
(1.0417715 -0.013202162 -6.6184165e-21)
(1.0426051 -0.011423415 1.4724787e-20)
(1.0429649 -0.0094888247 6.9750806e-21)
(1.0428548 -0.0075278381 -1.2139999e-21)
(1.0423239 -0.005648996 6.0668182e-21)
(1.0414613 -0.0039747221 2.9266871e-21)
(1.0403802 -0.0025360984 4.8635252e-22)
(1.039223 -0.0014570149 -1.0876039e-21)
(1.0381122 -0.00060764445 -6.2493652e-22)
(1.0372147 -0.00024019207 1.6550331e-21)
(1.0364996 0.00011947459 1.4786316e-22)
(0.88879344 -0.0086058677 -4.284223e-21)
(0.895699 -0.010275226 1.4221551e-21)
(0.90773509 -0.010353956 -4.6786479e-21)
(0.9194051 -0.011088174 -2.7141165e-21)
(0.93257169 -0.011292341 0)
(0.94693427 -0.011623851 0)
(0.96199461 -0.011816252 0)
(0.97662766 -0.012002528 -7.0889553e-22)
(0.99000891 -0.012221097 1.1122739e-20)
(1.0012843 -0.012541163 1.1488043e-20)
(1.01015 -0.013026006 1.4657803e-22)
(1.016668 -0.013689786 -1.9504016e-21)
(1.0212936 -0.014509994 2.2618179e-20)
(1.0246342 -0.015420867 -1.3177043e-20)
(1.0272629 -0.016327576 1.8501055e-21)
(1.029594 -0.017125282 0)
(1.0318504 -0.01770741 4.0963894e-21)
(1.0341067 -0.017981305 -3.0971514e-21)
(1.036338 -0.017870204 4.7547612e-21)
(1.0384677 -0.017327533 1.1354344e-21)
(1.0403889 -0.016340656 -1.0643474e-20)
(1.0419906 -0.014940629 2.6189355e-22)
(1.0431732 -0.013199146 -1.0063228e-20)
(1.0438692 -0.011223909 -1.2224141e-20)
(1.0440529 -0.0091401022 3.8635735e-21)
(1.0437473 -0.0070838067 1.2137766e-21)
(1.0430186 -0.005163386 -8.0242732e-22)
(1.0419713 -0.0034950172 4.7318883e-23)
(1.0407278 -0.0021010654 -1.3609983e-21)
(1.0394376 -0.0010938047 -1.4074544e-21)
(1.0382213 -0.00033738667 7.9157171e-22)
(1.0372505 -7.1177605e-05 -6.3081433e-21)
(1.0364835 0.0001703159 3.0184477e-21)
(0.87788674 -0.0078645261 -3.9004533e-21)
(0.88298779 -0.0097119951 1.0931498e-22)
(0.89441906 -0.010002865 -8.168525e-21)
(0.90605556 -0.010911523 -3.9004449e-21)
(0.91916672 -0.011303632 1.7087739e-21)
(0.93295154 -0.011794791 3.072983e-22)
(0.94804178 -0.012125304 9.449248e-21)
(0.96345749 -0.012428542 -5.3480326e-21)
(0.97833494 -0.012711212 -1.1747148e-21)
(0.99162287 -0.013036839 -2.3021944e-20)
(1.002713 -0.013486857 1.0336191e-20)
(1.0113042 -0.014098356 1.6058533e-20)
(1.0175978 -0.014884082 -2.9048682e-22)
(1.0220967 -0.015803435 -9.6991109e-21)
(1.025428 -0.016776945 -1.0350146e-20)
(1.0281474 -0.017700638 -1.8997017e-21)
(1.03063 -0.018459082 1.8629319e-21)
(1.0330625 -0.018944927 8.3009742e-21)
(1.0354842 -0.019063681 -1.4113381e-21)
(1.0378482 -0.01874824 -1.3779958e-21)
(1.0400561 -0.017962861 2.5780408e-21)
(1.0419918 -0.016715185 -1.7330999e-20)
(1.0435387 -0.015057379 1.8876761e-22)
(1.0446041 -0.013083326 4.0326822e-21)
(1.0451325 -0.010918538 -1.5875029e-20)
(1.0451171 -0.0086993831 -5.1623575e-21)
(1.0445998 -0.0065657056 -4.3373223e-21)
(1.0436646 -0.0046223985 -1.9927045e-21)
(1.0424301 -0.0029771574 -2.0127273e-21)
(1.041026 -0.0016421547 -1.5193427e-22)
(1.0396071 -0.00071724594 1.0000437e-22)
(1.0382907 -6.1044679e-05 -1.8068253e-22)
(1.0372513 0.00010010916 3.0798279e-21)
(1.0364357 0.00022599699 -6.4819447e-21)
(0.86772229 -0.0069710815 4.083639e-21)
(0.87065431 -0.0089554407 -1.7516603e-22)
(0.88105385 -0.0094706135 9.2141556e-21)
(0.89181299 -0.010582038 1.5260996e-21)
(0.90514808 -0.011166512 -5.8058084e-21)
(0.91890864 -0.011846277 -7.9067203e-21)
(0.9335377 -0.012329217 -1.1984985e-21)
(0.94918667 -0.012769155 0)
(0.96504431 -0.013162953 -6.464163e-21)
(0.98000875 -0.01354272 -2.5923572e-20)
(0.99324576 -0.013994539 -1.400066e-21)
(1.0041057 -0.014569038 -5.8173401e-21)
(1.0124532 -0.015311885 0)
(1.0185527 -0.016212726 4.5338621e-22)
(1.0229665 -0.017218351 1.8615169e-20)
(1.026329 -0.018236304 2.5052035e-21)
(1.0291692 -0.01914923 -1.5836222e-20)
(1.0318242 -0.019837596 0)
(1.0344389 -0.020189428 1.8555629e-21)
(1.0370231 -0.020117027 3.4802048e-21)
(1.0395023 -0.019561234 -1.4809014e-20)
(1.0417639 -0.01850491 2.1957734e-21)
(1.0436805 -0.016976473 0)
(1.0451378 -0.015052421 -1.4584152e-20)
(1.0460517 -0.012848089 5.1228922e-21)
(1.0463839 -0.010505044 -3.0452811e-22)
(1.0461476 -0.0081680022 -6.4011444e-21)
(1.0454052 -0.0059768988 4.69979e-21)
(1.0442576 -0.0040304861 2.7485257e-22)
(1.0428356 -0.002425506 -3.5143445e-21)
(1.0412746 -0.0011631592 1.8497045e-21)
(1.0397324 -0.00033017459 2.2944333e-22)
(1.0383218 0.00021960951 0)
(1.0372191 0.0002737141 -1.2430637e-22)
(1.0363594 0.00028057623 -2.2068751e-21)
(0.85861659 -0.005933139 2.9941134e-21)
(0.85906285 -0.0080025981 9.8489633e-22)
(0.86800172 -0.0087476156 8.2109064e-21)
(0.87742582 -0.010058237 5.9464571e-22)
(0.89018138 -0.010860757 -1.2866391e-21)
(0.90415186 -0.011727581 -1.120421e-21)
(0.91886343 -0.01240411 -7.4914494e-21)
(0.93421397 -0.013011619 -1.7341149e-22)
(0.9504797 -0.013533002 0)
(0.96663162 -0.014017941 7.986379e-21)
(0.98172269 -0.014519137 -8.6179286e-21)
(0.99483866 -0.015089754 7.4376309e-22)
(1.0054923 -0.01579996 -6.5365322e-21)
(1.013611 -0.016668869 9.9598176e-21)
(1.0195564 -0.017676518 6.4969606e-21)
(1.0239285 -0.018753165 1.4531779e-20)
(1.02736 -0.019790329 -3.2374009e-20)
(1.0303503 -0.020662692 -1.0698081e-20)
(1.033192 -0.021242826 1.3260053e-20)
(1.0359927 -0.021422429 -1.9401581e-20)
(1.0387275 -0.021118639 1.5655573e-20)
(1.041301 -0.020288495 -1.0962372e-20)
(1.0435837 -0.018934287 0)
(1.045445 -0.017109785 -3.8153656e-21)
(1.0467746 -0.014915894 1.1909375e-21)
(1.0475029 -0.012488665 7.201152e-21)
(1.0476113 -0.0099831109 2.4724726e-21)
(1.0471352 -0.0075486136 1.320539e-21)
(1.0461573 -0.0053218934 3.078979e-21)
(1.0447939 -0.0033925861 0)
(1.0431865 -0.0018447251 3.1524034e-21)
(1.0414738 -0.00066783518 1.8347145e-21)
(1.039815 6.470236e-05 5.6044274e-21)
(1.0383168 0.00050301678 -2.8093081e-21)
(1.0371564 0.00044767536 1.4496083e-22)
(1.0362561 0.0003346188 8.1331601e-21)
(0.85087953 -0.0047650242 -2.7930955e-21)
(0.84860161 -0.0068589986 -6.474716e-23)
(0.8556669 -0.0078298275 -2.5448663e-21)
(0.86328243 -0.0093244642 -3.9391023e-23)
(0.87493402 -0.010357056 6.8949243e-21)
(0.88833701 -0.011444401 5.5394638e-21)
(0.90341838 -0.012312479 1.0980918e-22)
(0.9189355 -0.013121697 -5.6501833e-21)
(0.93504656 -0.01380884 -1.5608608e-22)
(0.95181296 -0.014416314 -6.6161845e-21)
(0.96829004 -0.01501953 5.1831769e-23)
(0.98342537 -0.01563319 4.9454698e-21)
(0.99643508 -0.0163395 7.3294629e-22)
(1.0068779 -0.017181532 7.7657949e-21)
(1.014802 -0.018173391 -3.8374408e-20)
(1.0206348 -0.019275929 5.8039196e-22)
(1.0250083 -0.020401697 1.0606086e-20)
(1.0285463 -0.021430174 1.4515101e-20)
(1.0317102 -0.022224269 -1.4766655e-20)
(1.0347505 -0.022656591 -4.6639381e-21)
(1.0377321 -0.022620328 7.9770824e-21)
(1.0406014 -0.022045891 -1.7184168e-20)
(1.0432394 -0.020907514 1.3455415e-20)
(1.0455069 -0.0192327 0)
(1.0472719 -0.017101556 1.0882515e-20)
(1.0484348 -0.014639895 1.5211259e-20)
(1.0489438 -0.012002418 -5.7521962e-21)
(1.0488033 -0.0093541056 1.1800708e-20)
(1.0480713 -0.0068453542 3.3940231e-22)
(1.0468505 -0.0046059718 -3.3208175e-21)
(1.0452709 -0.0027141411 -2.7116676e-21)
(1.0434823 -0.0012395601 -2.362869e-21)
(1.0416245 -0.00015991873 -3.1535803e-22)
(1.0398564 0.00046475555 6.4579805e-21)
(1.0382776 0.00078732392 -1.0527825e-21)
(1.037065 0.00062126203 -3.1371314e-22)
(1.0361284 0.00038753413 3.1380219e-21)
(0.84479372 -0.0034875617 2.8192964e-22)
(0.83965724 -0.0055403973 -8.661627e-22)
(0.84448248 -0.0067211455 -3.3203419e-21)
(0.84983332 -0.0083745902 -4.6914912e-22)
(0.85983728 -0.0096315686 1.2564329e-22)
(0.87212204 -0.0109468 -1.2847893e-22)
(0.88681796 -0.012032159 -3.3489727e-21)
(0.90278906 -0.013060328 1.4918704e-21)
(0.91916812 -0.013948021 0)
(0.93595547 -0.014726987 1.343988e-21)
(0.95324293 -0.015446446 0)
(0.96996532 -0.016158728 0)
(0.9851501 -0.016905748 5.6142072e-21)
(0.99803023 -0.017745271 -8.9356452e-22)
(1.0082867 -0.018721439 -5.8230974e-21)
(1.0160505 -0.019827858 -1.1543555e-20)
(1.0218152 -0.021007517 2.3659109e-20)
(1.0262342 -0.022157325 8.1109377e-21)
(1.0299115 -0.023140817 1.2039678e-20)
(1.0332699 -0.023816603 5.3771531e-21)
(1.036512 -0.024054982 -1.437501e-20)
(1.0396649 -0.023759036 8.2459934e-21)
(1.0426431 -0.022873455 2.555512e-21)
(1.0453108 -0.021396423 -2.2382201e-21)
(1.0475206 -0.01938255 1.4904252e-22)
(1.0491463 -0.016940176 3.0404634e-21)
(1.0501026 -0.014218773 -2.061613e-21)
(1.0503603 -0.011388758 -7.3148589e-21)
(1.0499484 -0.0086212502 -6.8702844e-22)
(1.048948 -0.0060635 -1.0268136e-20)
(1.0474802 -0.0038351939 -3.4131117e-21)
(1.0456866 -0.0020008469 -1.5044356e-21)
(1.0437228 -0.00061481054 -3.8208095e-21)
(1.0417279 0.00035697172 4.2640768e-21)
(1.0398586 0.00086742831 -1.3130595e-20)
(1.0382065 0.0010709945 -2.320718e-21)
(1.0369474 0.00079335661 -2.859113e-21)
(1.0359784 0.00043931161 0)
(0.84059412 -0.0021271921 2.4523829e-21)
(0.83258669 -0.0040727895 -6.5222044e-23)
(0.83488296 -0.0054362927 -8.7932906e-22)