/*--------------------------------*- C++ -*----------------------------------*\
| =========                 |                                                 |
| \\      /  F ield         | OpenFOAM: The Open Source CFD Toolbox           |
|  \\    /   O peration     | Version:  5.0                                   |
|   \\  /    A nd           | Web:      www.OpenFOAM.org                      |
|    \\/     M anipulation  |                                                 |
\*---------------------------------------------------------------------------*/
FoamFile
{
    version     2.0;
    format      ascii;
    class       volVectorField;
    location    "75";
    object      UMean;
}
// * * * * * * * * * * * * * * * * * * * * * * * * * * * * * * * * * * * * * //

dimensions      [0 1 -1 0 0 0 0];

internalField   nonuniform List<vector> 
9200
(
(1.0158387 -0.00046272839 -1.3571086e-23)
(1.0161487 -0.0013457895 -6.5207246e-21)
(1.017117 -0.00046743717 0)
(1.0162202 -0.0021639074 3.3394604e-21)
(1.0174118 -0.0013584786 -4.8678903e-21)
(1.0177043 -0.00047071205 0)
(1.0161419 -0.0029266196 3.3411355e-22)
(1.0174744 -0.0021809164 -2.9455314e-22)
(1.0179937 -0.0013706676 0)
(1.018561 -0.00047666823 0)
(1.0159793 -0.0036308372 -6.2681598e-21)
(1.0173872 -0.0029511448 -3.2978951e-21)
(1.0180522 -0.0022003733 -2.7122009e-21)
(1.0188409 -0.0013923566 -1.6855528e-22)
(1.0192658 -0.00048226151 1.0669199e-24)
(1.0157377 -0.0042887442 -5.7626375e-21)
(1.0172178 -0.0036609743 5.1671365e-22)
(1.0179605 -0.0029798594 -8.6247774e-21)
(1.0188949 -0.0022329099 -3.1447093e-21)
(1.019539 -0.00141505 1.1759163e-22)
(1.0200226 -0.00048875463 7.0657473e-21)
(1.015414 -0.0048982501 -5.2618218e-21)
(1.0169698 -0.0043259992 -5.8443065e-21)
(1.0177878 -0.0036972525 5.2154288e-21)
(1.0187991 -0.0030275799 2.7999606e-22)
(1.0195895 -0.0022675876 -3.401017e-21)
(1.0202893 -0.0014427578 -3.2473863e-21)
(1.0207306 -0.000494697 -4.4537501e-22)
(1.0149931 -0.0054659107 -2.1987677e-21)
(1.0166395 -0.0049416911 -3.8685936e-21)
(1.0175361 -0.0043709732 -5.4979829e-21)
(1.0186243 -0.0037580201 3.0505513e-22)
(1.0194906 -0.0030787034 7.7276472e-21)
(1.0203385 -0.0023096867 3.3249354e-21)
(1.0209919 -0.0014707756 4.4958853e-21)
(1.0214467 -0.0005004817 -6.7859028e-21)
(1.0144602 -0.0059932433 6.2731015e-21)
(1.0162123 -0.005515866 -4.656643e-21)
(1.0172021 -0.0049947486 2.9931121e-22)
(1.0183703 -0.0044466654 -2.8247632e-21)
(1.0193142 -0.0038234988 6.8203022e-22)
(1.0202395 -0.0031411566 1.2030635e-20)
(1.0210404 -0.002352231 -3.2474073e-21)
(1.021704 -0.0015006245 7.5593326e-21)
(1.0221359 -0.00050515905 1.4361712e-20)
(1.0137979 -0.0064843186 -4.6760096e-21)
(1.015674 -0.0060493532 2.4868215e-21)
(1.0167713 -0.0055772256 8.9141924e-23)
(1.0180339 -0.0050846913 -1.0680533e-21)
(1.0190582 -0.0045284263 8.9131725e-22)
(1.0200647 -0.0039042543 1.1316381e-21)
(1.0209416 -0.0032048248 -4.1738527e-21)
(1.0217545 -0.0023975829 -7.544305e-21)
(1.0223903 -0.0015290206 -3.9807285e-21)
(1.0228208 -0.0005087787 -9.7399103e-22)
(1.0129877 -0.0069420096 2.1420994e-21)
(1.015008 -0.0065466385 1.1958734e-22)
(1.0162298 -0.0061187201 -3.7532449e-21)
(1.0176008 -0.0056818137 3.5975302e-21)
(1.0187197 -0.0051821382 -5.982551e-21)
(1.0198103 -0.0046301277 1.2443634e-20)
(1.020769 -0.0039871224 3.6733488e-22)
(1.0216601 -0.003273603 -1.2597549e-20)
(1.022444 -0.0024406155 6.3166411e-21)
(1.0230742 -0.0015562827 -1.2830359e-20)
(1.0234845 -0.00051069704 2.1242026e-21)
(1.012009 -0.0073695994 -8.4052259e-23)
(1.0141965 -0.0070106695 3.9575121e-22)
(1.0155615 -0.0066238621 2.9256446e-21)
(1.0170575 -0.0062375598 0)
(1.0182844 -0.0057953292 -3.3443757e-23)
(1.019473 -0.0053044458 -9.4044474e-22)
(1.0205162 -0.0047351404 2.5432971e-21)
(1.0214939 -0.00407775 6.2314545e-21)
(1.0223554 -0.003340059 -1.0313679e-21)
(1.023134 -0.0024819007 7.7696164e-21)
(1.0237382 -0.0015800389 5.3213348e-21)
(1.0241362 -0.00051076813 -1.0935521e-21)
(1.010838 -0.0077699489 -8.1836274e-23)
(1.0132197 -0.0074452064 5.3661031e-22)
(1.0147493 -0.0070954515 0)
(1.0163885 -0.006756717 0)
(1.0177391 -0.0063667111 2.0281262e-21)
(1.0190384 -0.0059389317 -3.5107633e-21)
(1.0201803 -0.0054314505 6.1155995e-21)
(1.0212473 -0.004851398 -6.5524753e-21)
(1.022197 -0.004166464 -4.8561109e-22)
(1.0230553 -0.0034053944 1.1086638e-23)
(1.023806 -0.0025177352 -9.6475584e-21)
(1.0243923 -0.0015998222 1.0936551e-20)
(1.0247672 -0.00050857498 -1.934115e-20)
(1.009447 -0.0081455366 3.1329858e-22)
(1.0120542 -0.0078537933 -1.0061655e-22)
(1.0137739 -0.0075371975 1.7444793e-21)
(1.0155775 -0.0072418999 -2.0068153e-21)
(1.0170691 -0.0069011459 2.2052374e-21)
(1.0184937 -0.0065312417 -8.3716887e-22)
(1.0197464 -0.0060887899 -1.6023669e-21)
(1.0209169 -0.005573721 9.3751753e-23)
(1.0219581 -0.0049667467 -5.4819375e-21)
(1.0229093 -0.0042553159 -4.8454837e-21)
(1.02374 -0.0034642834 -2.4521627e-21)
(1.0244712 -0.0025474314 -6.6717307e-21)
(1.0250276 -0.0016139736 -4.5118381e-21)
(1.0253799 -0.00050390311 5.2349208e-21)
(1.0078034 -0.0084981674 2.9576648e-21)
(1.0106723 -0.0082400513 -2.0637449e-21)
(1.0126128 -0.0079524456 6.9116027e-22)
(1.0146058 -0.007696905 6.4909259e-23)
(1.0162586 -0.0074009566 -5.1281239e-23)
(1.0178247 -0.0070862002 8.9061297e-22)
(1.0192024 -0.0067037137 -1.4902562e-21)
(1.0204874 -0.0062584291 1.9905176e-21)
(1.0216346 -0.0057165871 -6.0214016e-22)
(1.0226829 -0.005084404 4.0340519e-22)
(1.0236093 -0.0043374588 1.4537566e-22)
(1.0244221 -0.0035159596 -1.8438408e-22)
(1.02512 -0.0025684071 9.4237499e-21)
(1.0256467 -0.0016216453 -4.8481639e-21)
(1.0259699 -0.00049649308 4.0290041e-21)
(1.0058711 -0.0088285542 -1.4562119e-21)
(1.0090402 -0.0086075151 1.9392281e-21)
(1.0112389 -0.008344484 -8.6737071e-22)
(1.0134516 -0.0081251657 1.7718172e-21)
(1.0152898 -0.0078698899 -2.0108624e-21)
(1.0170161 -0.007605698 4.7278992e-21)
(1.0185343 -0.0072809851 -5.1089974e-21)
(1.019947 -0.0069007373 2.2008599e-22)
(1.0212108 -0.0064306353 1.5902971e-21)
(1.0223711 -0.0058646753 -1.6857575e-21)
(1.0233983 -0.0051959563 1.5585254e-20)
(1.0243117 -0.0044122008 -5.8326911e-21)
(1.0250915 -0.0035567256 -3.0951798e-21)
(1.0257559 -0.0025793471 -1.0452832e-21)
(1.026245 -0.0016216696 1.0091448e-22)
(1.0265362 -0.00048617768 -4.3484197e-21)
(1.0036141 -0.0091357985 0)
(1.0071179 -0.0089592656 1.3759833e-21)
(1.0096194 -0.008716348 -1.2072925e-21)
(1.0120886 -0.0085304284 0)
(1.0141419 -0.0083113372 0)
(1.0160512 -0.0080933623 0)
(1.0177278 -0.0078220339 1.5026601e-22)
(1.0192818 -0.0075051635 -3.3747505e-21)
(1.0206751 -0.0071026917 2.9104848e-21)
(1.0219572 -0.0066116723 -4.322373e-21)
(1.0231008 -0.0060080778 5.744249e-22)
(1.0241216 -0.005300928 -3.2009344e-21)
(1.0250053 -0.0044748287 5.0194605e-22)
(1.0257525 -0.0035847753 3.3831921e-21)
(1.0263737 -0.0025784078 5.9849599e-22)
(1.026822 -0.0016132238 2.2550084e-21)
(1.0270762 -0.00047280974 0)
(1.0010042 -0.009416866 -5.3865575e-22)
(1.004862 -0.0092972657 -2.7031248e-21)
(1.0077143 -0.0090705855 3.174968e-21)
(1.0104841 -0.0089163594 1.1538451e-21)
(1.0127896 -0.0087288595 2.0217496e-21)
(1.0149099 -0.0085524395 0)
(1.0167666 -0.0083302586 2.7592943e-21)
(1.0184784 -0.0080724544 -7.4465435e-22)
(1.020014 -0.0077369695 -7.7248503e-21)
(1.0214296 -0.0073176089 3.7330924e-21)
(1.0226997 -0.0067902001 2.4699159e-21)
(1.0238442 -0.0061467323 6.6659772e-22)
(1.0248402 -0.0053936231 -7.5831401e-21)
(1.0256958 -0.0045231147 1.0749099e-20)
(1.0263997 -0.0035974344 1.7793692e-21)
(1.0269732 -0.0025642371 1.5983009e-20)
(1.0273744 -0.0015955277 5.7789434e-21)
(1.0275882 -0.00045628572 5.1108983e-21)
(0.99803123 -0.0096662816 1.9719279e-22)
(1.0022318 -0.0096213755 -9.3717826e-22)
(1.0054787 -0.0094087285 -9.3662162e-22)
(1.0085971 -0.0092862594 1.9766388e-21)
(1.0112006 -0.0091259581 -2.1960852e-22)
(1.0135677 -0.0089865386 1.9963382e-21)
(1.0156319 -0.0088086897 -6.2854304e-22)
(1.0175213 -0.0086056797 -5.9914607e-21)
(1.0192145 -0.0083334613 -2.4554982e-21)
(1.0207751 -0.0079862249 3.442571e-21)
(1.0221829 -0.0075328661 -8.6213333e-22)
(1.0234609 -0.0069668035 6.2962983e-21)
(1.024587 -0.0062740077 -4.0664291e-21)
(1.0255622 -0.0054713946 -1.5879239e-23)
(1.0263773 -0.0045536214 -3.1530069e-22)
(1.0270332 -0.0035926995 -2.5843161e-21)
(1.0275512 -0.0025355645 5.2410375e-21)
(1.0279008 -0.0015679533 -2.4716595e-22)
(1.0280701 -0.00043656099 4.5614091e-21)
(0.99471222 -0.0098763099 1.8079061e-21)
(0.99920015 -0.0099284414 1.0889436e-21)
(1.0028679 -0.009730211 -7.3612725e-21)
(1.0063794 -0.0096424257 -5.2382465e-22)
(1.0093345 -0.0095059712 1.2810266e-21)
(1.0119935 -0.0093993277 8.1381288e-22)
(1.0143001 -0.009260877 4.5575144e-22)
(1.0163926 -0.0091075687 3.2751393e-21)
(1.018262 -0.0088947963 -9.7755649e-22)
(1.019981 -0.008616559 -8.1986036e-21)
(1.0215371 -0.0082392399 6.9103115e-21)
(1.0229593 -0.0077498925 -4.2621621e-22)
(1.024226 -0.0071339179 -2.3291976e-21)
(1.0253397 -0.0063870588 1.729431e-22)
(1.0262802 -0.0055300947 2.6818617e-22)
(1.0270508 -0.004563691 -8.972997e-21)
(1.0276496 -0.0035686007 2.549932e-21)
(1.0281059 -0.0024913751 -8.3022863e-21)
(1.0283989 -0.0015300088 -2.0066919e-21)
(1.0285204 -0.00041364013 -4.4781828e-21)
(0.9910967 -0.010037803 -1.181931e-22)
(0.99576466 -0.010211661 1.0825434e-21)
(0.99984759 -0.010031956 -5.5765911e-22)
(1.00378 -0.0099857503 1.7611266e-21)
(1.0071417 -0.0098716232 5.811082e-22)
(1.010147 -0.0097944938 -1.4786181e-21)
(1.0127411 -0.0096904939 3.6505881e-21)
(1.01507 -0.0095815274 7.4139278e-21)
(1.0171396 -0.0094232885 -3.5792838e-21)
(1.0190338 -0.009210628 0)
(1.0207503 -0.0089072879 -4.3318322e-21)
(1.0223259 -0.0084984189 2.8308336e-21)
(1.0237438 -0.00796028 6.9078965e-21)
(1.0250072 -0.00728878 -5.8741844e-21)
(1.026094 -0.0064809241 2.8020807e-21)
(1.026997 -0.0055662877 -7.0856099e-21)
(1.0277122 -0.0045506879 -1.8864571e-24)
(1.0282471 -0.0035235055 3.1346514e-21)
(1.0286349 -0.0024308786 -4.9480777e-21)
(1.028867 -0.0014813946 -3.8233612e-22)
(1.0289374 -0.0003875769 -3.9077404e-21)
(0.9872642 -0.010141609 -4.5495606e-21)
(0.99195642 -0.010460899 6.3832014e-22)
(0.99640533 -0.010307659 3.5497638e-21)
(1.0007539 -0.01031427 -3.8060223e-21)
(1.004567 -0.010224075 -2.441822e-21)
(1.0079776 -0.010175295 8.1870028e-22)
(1.0109154 -0.010101309 0)
(1.0135245 -0.01003123 2.4981839e-21)
(1.0158261 -0.0099221105 -9.5359679e-22)
(1.0179173 -0.0097701841 -8.0346192e-21)
(1.0198094 -0.0095382815 -9.2036146e-22)
(1.021549 -0.0092090812 1.8368778e-21)
(1.0231266 -0.0087546845 -5.0794294e-22)
(1.0245501 -0.0081615703 -2.2004506e-21)
(1.025796 -0.0074255435 4.1233786e-21)
(1.0268545 -0.0065516544 -3.9675242e-21)
(1.0277077 -0.0055766967 8.8898538e-22)
(1.0283605 -0.0045122543 -5.6020759e-21)
(1.0288231 -0.0034561027 -7.9000387e-22)
(1.0291363 -0.002353516 -1.5569051e-22)
(1.0293033 -0.001421995 -2.3502768e-21)
(1.0293201 -0.00035847153 0)
(0.98331407 -0.010180197 -2.2352325e-21)
(0.98784186 -0.010663874 -1.53892e-22)
(0.99256112 -0.010548071 1.1849463e-22)
(0.99727465 -0.010622533 -3.2521548e-21)
(1.0015574 -0.010562129 -1.4208271e-21)
(1.0054265 -0.010543821 1.4671909e-21)
(1.0087721 -0.01049693 -1.9317802e-21)
(1.011718 -0.010460652 4.84438e-21)
(1.014294 -0.010394817 1.9751963e-21)
(1.0166118 -0.010298027 4.3809439e-22)
(1.0186995 -0.010133263 -1.1031829e-22)
(1.0206161 -0.0098822122 -3.8347265e-21)
(1.0223628 -0.0095124304 5.8233021e-22)
(1.0239542 -0.0090060721 8.0009333e-22)
(1.0253702 -0.0083471187 -5.0177284e-21)
(1.0265983 -0.0075399499 -5.8856629e-21)
(1.0276155 -0.0065950818 1.9588269e-22)
(1.0284122 -0.0055580465 9.6961031e-21)
(1.0289922 -0.0044464677 4.7983791e-22)
(1.0293754 -0.0033653723 -2.9740534e-21)
(1.0296079 -0.0022590067 0)
(1.0297063 -0.0013518594 4.8084515e-21)
(1.0296675 -0.00032646787 9.2016469e-23)
(0.97935062 -0.010148861 1.1278595e-20)
(0.98351516 -0.010808234 -3.7340233e-22)
(0.98837197 -0.010741832 3.8481936e-21)
(0.99334652 -0.010901418 1.7458195e-21)
(0.99807535 -0.010881061 -4.2807093e-21)
(1.0024334 -0.010899648 0)
(1.00625 -0.010880022 -3.8562001e-22)
(1.0095999 -0.010873755 2.4624786e-21)
(1.0125065 -0.010845391 3.3242276e-21)
(1.0150914 -0.01079751 3.6257268e-21)
(1.0174021 -0.01069452 -3.7780185e-21)
(1.0195133 -0.010517949 -3.633833e-21)
(1.0214403 -0.010232756 4.8200375e-21)
(1.0232077 -0.0098160228 -4.6943322e-21)
(1.0248012 -0.0092452947 7.9861179e-21)
(1.0262109 -0.0085125362 1.0295382e-20)
(1.0274087 -0.0076268687 -4.0825673e-21)
(1.0283781 -0.0066072145 3.7175533e-21)
(1.0291063 -0.0055077643 -1.1620812e-20)
(1.0296053 -0.0043516743 3.3795513e-21)
(1.0299014 -0.0032506807 6.1458964e-21)
(1.0300481 -0.002147331 -4.8842767e-21)
(1.030075 -0.0012712071 2.6728712e-21)
(1.029979 -0.00029174414 7.5871594e-23)
(0.97546707 -0.010045973 2.3116445e-21)
(0.97908352 -0.010883391 4.1293991e-22)
(0.98392687 -0.010877049 -8.6692148e-23)
(0.98901015 -0.011138926 -7.1881872e-21)
(0.99411153 -0.011172566 2.8383438e-21)
(0.9989488 -0.011239456 -5.1182172e-21)
(1.0032829 -0.011251245 -3.1622386e-22)
(1.0071071 -0.011273921 -5.5706518e-21)
(1.0104138 -0.011278029 1.7733444e-21)
(1.0133208 -0.011272622 2.1948808e-21)
(1.0158928 -0.011225046 -2.4888724e-21)
(1.0182235 -0.011117882 5.6913015e-21)
(1.0203462 -0.010914708 -2.7043342e-21)
(1.0222988 -0.010589369 -4.1146899e-22)
(1.024077 -0.010112142 3.2170153e-21)
(1.0256758 -0.0094680158 1.228757e-21)
(1.0270674 -0.0086517843 -8.106267e-22)
(1.0282289 -0.0076816555 5.7809366e-21)
(1.0291377 -0.0065845219 0)
(1.0297884 -0.0054232915 9.8078116e-22)
(1.0301966 -0.0042267562 2.8650276e-22)
(1.0303989 -0.0031117505 -5.2303378e-22)
(1.0304553 -0.0020187466 -4.0685528e-23)
(1.0304084 -0.0011804123 -3.6405969e-21)
(1.0302543 -0.00025451094 -1.3016505e-21)
(0.97172836 -0.0098735986 -8.3533121e-21)
(0.97465082 -0.010881096 -6.8644633e-22)
(0.9793328 -0.010943433 1.0596994e-21)
(0.98434273 -0.011321683 7.6076829e-22)
(0.98969506 -0.011425012 7.9012703e-21)
(0.99494818 -0.011555678 2.3553887e-22)
(0.99981106 -0.011607918 -2.8742883e-22)
(1.004168 -0.011662772 3.7793241e-22)
(1.0079518 -0.011696596 4.4891028e-21)
(1.0112516 -0.011727765 -1.0807434e-21)
(1.0141382 -0.011728661 3.1359453e-21)
(1.0167241 -0.011684498 -6.1824414e-22)
(1.0190646 -0.011559 -2.998722e-21)
(1.0212154 -0.011323846 8.2617163e-22)
(1.0231859 -0.010944157 -1.5635243e-21)
(1.02498 -0.010396701 -4.2099437e-21)
(1.0265738 -0.0096674131 -3.0153942e-21)
(1.0279424 -0.0087596582 -8.0284725e-21)
(1.0290545 -0.0076997138 -1.1902694e-20)
(1.0298929 -0.0065235922 -5.7273354e-23)
(1.0304546 -0.0053028796 1.155397e-20)
(1.0307637 -0.0040709584 2.307226e-21)
(1.0308658 -0.0029486618 -4.6150218e-21)
(1.0308282 -0.0018737644 3.6573727e-21)
(1.0307059 -0.0010799867 -2.2091911e-21)
(1.0304934 -0.00021501489 1.1575696e-22)
(0.96816048 -0.0096377274 3.3629193e-22)
(0.97030371 -0.010797394 -8.2347998e-22)
(0.97469445 -0.010935036 -4.2403457e-21)
(0.97944797 -0.011436976 3.9882579e-21)
(0.98489375 -0.01162509 -6.5913481e-21)
(0.9904435 -0.011837071 4.2359281e-21)
(0.99579637 -0.011943415 2.5340917e-21)
(1.0007134 -0.012038774 4.3094246e-21)
(1.0050453 -0.012103614 -6.319706e-21)
(1.0088199 -0.012167318 -2.8654645e-21)
(1.0120915 -0.012209823 3.0125281e-22)
(1.0149834 -0.012221331 -8.1183327e-21)
(1.0175746 -0.012167421 7.8110202e-21)
(1.0199429 -0.012019071 -3.0866002e-21)
(1.0221164 -0.011737576 1.1885895e-21)
(1.024112 -0.011293483 1.1218829e-21)
(1.0259138 -0.010662289 -4.8019613e-21)
(1.0274989 -0.0098378591 5.4900931e-21)
(1.028832 -0.0088304827 -5.1671616e-21)
(1.0298847 -0.0076767103 7.1338021e-22)
(1.0306396 -0.0064217189 0)
(1.0311023 -0.0051449878 4.5184532e-21)
(1.0313037 -0.0038840544 6.0055798e-22)
(1.0313004 -0.0027618558 0)
(1.0311657 -0.0017131223 -4.1441717e-21)
(1.0309673 -0.00097056809 -2.8063832e-22)
(1.0306965 -0.00017355193 5.0987251e-22)
(0.9647485 -0.0093466734 2.3878023e-21)
(0.96609385 -0.010632753 -1.5129874e-22)
(0.97009656 -0.010849225 -3.5072304e-21)
(0.97443891 -0.011474521 3.9978879e-22)
(0.97980468 -0.011759927 -1.194335e-21)
(0.98548796 -0.012069579 -4.5891484e-21)
(0.99123593 -0.012246939 -2.5656743e-22)
(0.99669086 -0.012396194 -3.7922659e-21)
(1.0016166 -0.012498732 4.5298611e-22)
(1.0059471 -0.012594623 4.7958776e-21)
(1.0096894 -0.012673249 -4.7420092e-21)
(1.012957 -0.012732808 -1.800582e-21)
(1.0158467 -0.012743032 -3.6927462e-21)
(1.018462 -0.012675919 1.2365184e-21)
(1.0208549 -0.012490697 -3.6083409e-21)
(1.0230604 -0.012152889 1.6515962e-21)
(1.0250752 -0.011629593 -5.1107597e-21)
(1.0268831 -0.01090304 1.5670797e-20)
(1.0284482 -0.0099726633 5.1131946e-21)
(1.0297358 -0.0088589866 4.2748336e-22)
(1.030715 -0.007608797 6.3876568e-21)
(1.031375 -0.0062764766 -6.3388892e-22)
(1.0317278 -0.0049488604 -3.9801177e-22)
(1.0318142 -0.0036662199 0)
(1.0317009 -0.0025521285 0)
(1.0314673 -0.0015377548 3.3023944e-22)
(1.0311926 -0.00085290593 -1.4287243e-21)
(1.0308642 -0.00013057118 -3.4730383e-22)
(0.96144436 -0.0090110528 0)
(0.96202993 -0.010391392 -7.9475241e-22)
(0.96559629 -0.010686348 3.162592e-21)
(0.96941861 -0.0114284 1.2426161e-21)
(0.97453739 -0.011818581 4.5910601e-21)
(0.98017117 -0.012238131 3.5193826e-22)
(0.98616925 -0.012504658 -3.064579e-21)
(0.99208042 -0.012724935 -5.9138837e-21)
(0.99760036 -0.012877393 6.847189e-21)
(1.0025481 -0.01301049 -1.6075885e-21)
(1.0068517 -0.013123037 4.1526803e-22)
(1.0105827 -0.013223922 1.4853095e-21)
(1.0138388 -0.013290046 -1.0419017e-20)
(1.0167457 -0.013296786 2.1007986e-21)
(1.0193839 -0.013203255 1.7291644e-21)
(1.0218128 -0.012971661 -3.6433408e-21)
(1.0240471 -0.012561976 1.8340576e-21)
(1.0260818 -0.011946601 -4.3617817e-21)
(1.027886 -0.011111397 1.1660391e-20)
(1.029422 -0.010065662 -3.5936143e-21)
(1.0306497 -0.0088400687 5.1622679e-21)
(1.0315427 -0.0074924812 3.4229222e-21)
(1.0320947 -0.0060862354 -2.2404446e-22)
(1.0323282 -0.0047141065 -1.0651212e-20)
(1.0322928 -0.0034181321 -2.9046923e-21)
(1.0320661 -0.0023206134 6.0292853e-22)
(1.0317324 -0.0013487714 2.420305e-21)
(1.0313819 -0.00072789088 -4.2276859e-22)
(1.0309977 -8.6217299e-05 -6.3483463e-22)
(0.95816236 -0.0086371151 -6.3552745e-21)
(0.95807217 -0.010080732 0)
(0.96121444 -0.010450561 0)
(0.96446149 -0.011297418 0)
(0.96919673 -0.011793948 -1.161305e-21)
(0.97460631 -0.01233013 4.0071752e-21)
(0.98067506 -0.012701413 -3.208654e-22)
(0.98690496 -0.013010891 -3.635608e-22)
(0.9929608 -0.013230316 9.1297365e-21)
(0.99854509 -0.013411616 -9.6245358e-21)
(1.0034868 -0.013561162 4.5891129e-21)
(1.0077794 -0.013699419 -1.7275219e-21)
(1.0114906 -0.013813564 3.2689089e-21)
(1.0147541 -0.013885497 -2.6885541e-21)
(1.0176786 -0.013876744 7.3207082e-21)
(1.0203532 -0.013748132 2.2225875e-21)
(1.0228176 -0.013454402 -4.0789112e-21)
(1.0250839 -0.012959174 -5.0385261e-21)
(1.0271312 -0.012236304 2.5379929e-21)
(1.0289241 -0.011280418 -2.3022737e-21)
(1.030417 -0.010110466 -5.8058736e-21)
(1.0315712 -0.0087690292 3.9100235e-22)
(1.0323631 -0.0073249937 8.0491997e-21)
(1.0327953 -0.0058498191 -4.9932773e-21)
(1.0329002 -0.0044410511 -3.4981553e-22)
(1.0327375 -0.0031408517 -1.5206287e-21)
(1.0323948 -0.0020688039 2.8643517e-21)
(1.0319611 -0.0011474888 1.1469119e-21)
(1.031536 -0.00059640084 3.3064494e-22)
(1.0310976 -4.0397154e-05 -9.7403458e-22)
(0.9545716 -0.0081974363 -3.3945444e-22)
(0.95415712 -0.0097062184 -8.055666e-22)
(0.95693083 -0.010150857 0)
(0.9596005 -0.011084346 0)
(0.96386501 -0.011683066 0)
(0.96890756 -0.012336297 0)
(0.97485926 -0.012822974 0)
(0.98123226 -0.013238133 7.3598289e-23)
(0.98770432 -0.013543966 -3.8582976e-21)
(0.99388573 -0.013789603 1.0336008e-20)
(0.99950611 -0.013985683 -2.2251567e-22)
(1.0044508 -0.014162372 5.0243887e-21)
(1.0087211 -0.014318857 -9.9861804e-21)
(1.0124296 -0.014447109 5.3845756e-21)
(1.0157019 -0.014514368 -5.7049148e-22)
(1.0186589 -0.014482637 4.1835026e-21)
(1.0213721 -0.014303543 -6.168065e-21)
(1.023878 -0.013933731 2.0440749e-21)
(1.0261719 -0.013335919 4.9000235e-21)
(1.0282262 -0.012491173 2.7171616e-21)
(1.0299949 -0.011402488 7.3148409e-22)
(1.0314309 -0.010101087 3.9152281e-21)
(1.0324954 -0.0086417369 9.1666786e-23)
(1.0331721 -0.0071040964 -3.093169e-21)
(1.0334725 -0.0055668554 1.811309e-21)
(1.0334408 -0.004130456 8.1815712e-21)
(1.0331463 -0.002835887 1.9492121e-21)
(1.0326864 -0.0017983144 -1.186151e-21)
(1.0321535 -0.0009353252 1.2511817e-22)
(1.0316557 -0.000459153 7.7547501e-22)
(1.0311652 6.2659947e-06 8.1157729e-22)
(0.95068538 -0.0076500538 6.9608303e-21)
(0.94990734 -0.0092535736 -3.9411138e-22)
(0.95267842 -0.0097931715 1.7940172e-21)
(0.9548227 -0.010799177 1.3636156e-21)
(0.95858828 -0.011486311 0)
(0.96316945 -0.012251881 0)
(0.96883645 -0.012858245 -8.6954053e-23)
(0.97516416 -0.013390887 4.7476409e-21)
(0.98188345 -0.013801824 -7.9309532e-21)
(0.9885584 -0.014131256 9.7665262e-21)
(0.99484129 -0.014389491 4.9778111e-22)
(1.0004978 -0.014612247 -6.9762298e-21)
(1.0054303 -0.014809991 1.2240224e-21)
(1.009692 -0.014987274 -8.2445594e-22)
(1.0133989 -0.015120921 -5.4786226e-21)
(1.0166958 -0.015177507 4.2675715e-22)
(1.01969 -0.015108297 9.0128007e-21)
(1.0224506 -0.014865023 -5.4958275e-22)
(1.0249967 -0.01440105 -5.9047917e-21)
(1.0273153 -0.013684341 1.6125546e-20)
(1.0293657 -0.012702516 -1.8387314e-21)
(1.0310971 -0.011470333 -4.6747345e-21)
(1.0324593 -0.010031873 1.0975719e-20)
(1.0334181 -0.0084546321 4.9210911e-21)
(1.0339648 -0.0068283952 -1.2446957e-21)
(1.0341226 -0.0052375335 4.8106238e-21)
(1.0339473 -0.0037836931 2.336614e-21)
(1.0335178 -0.0025050555 4.9492637e-22)
(1.0329405 -0.0015108753 -9.9225994e-22)
(1.0323101 -0.00071359588 -4.8110017e-22)
(1.031742 -0.00031720097 1.2413295e-21)
(1.0312018 5.3473128e-05 1.1470193e-22)
(0.94679142 -0.0070176097 -2.3012355e-21)
(0.94532156 -0.008686364 8.6400821e-22)
(0.94811841 -0.0093534127 -2.4176593e-21)
(0.9500856 -0.010439702 -1.3949043e-21)
(0.95337082 -0.011212547 0)
(0.95745213 -0.012075987 0)
(0.96271034 -0.012799817 0)
(0.96881818 -0.013456194 -6.699093e-22)
(0.97559019 -0.01398698 7.0371895e-21)
(0.98260032 -0.014419919 7.5952108e-21)
(0.98946262 -0.014760122 4.7306412e-22)
(0.99583665 -0.015043251 -1.2797305e-21)
(1.0015102 -0.015287847 1.4476303e-20)
(1.006439 -0.015510932 -8.8581587e-21)
(1.0106912 -0.015702244 1.3857095e-21)
(1.0144121 -0.01583703 0)
(1.0177402 -0.015869826 2.7128868e-21)
(1.0207831 -0.015750204 -2.1495445e-21)
(1.0235932 -0.015424281 2.9392516e-21)
(1.0261798 -0.014848446 8.9511705e-22)
(1.0285147 -0.013994914 -7.1523617e-21)
(1.0305495 -0.012861864 5.7907563e-22)
(1.0322268 -0.011476703 -7.0639906e-21)
(1.0334977 -0.0098977211 -8.9467988e-21)
(1.0343336 -0.0082049766 3.1215119e-21)
(1.0347366 -0.0064971757 8.0242475e-22)
(1.0347416 -0.0048627888 -5.5959261e-22)
(1.0344171 -0.0034025497 5.0274711e-23)
(1.0338508 -0.0021504608 -1.3388683e-21)
(1.033157 -0.0012084233 -1.1967919e-21)
(1.0324316 -0.00048393877 6.188223e-22)
(1.0317961 -0.00017155944 -4.8295533e-21)
(1.0312096 0.00010061751 2.3789736e-21)
(0.94299127 -0.0063016231 -2.0167769e-21)
(0.94069129 -0.0080178718 2.3241939e-22)
(0.94319304 -0.0087949358 -4.3893289e-21)
(0.94500288 -0.0099901531 -2.4525949e-21)
(0.94817474 -0.010869918 1.1935837e-21)
(0.95177257 -0.011819476 3.6034933e-23)
(0.95655505 -0.012644571 6.6848547e-21)
(0.96230543 -0.013425493 -3.7987344e-21)
(0.9689399 -0.014084647 -4.523548e-22)
(0.97609325 -0.014637644 -1.5585283e-20)
(0.9833894 -0.015080794 7.0115934e-21)
(0.99041886 -0.015443752 1.0284964e-20)
(0.9968627 -0.015748141 -3.3613831e-22)
(1.0025551 -0.016020326 -5.9271392e-21)
(1.0074755 -0.016263995 -6.5503349e-21)
(1.011732 -0.016467013 -1.32084e-21)
(1.0154743 -0.016591624 1.218405e-21)
(1.0188473 -0.016588957 5.3858907e-21)
(1.0219443 -0.016400729 -9.8300458e-22)
(1.0248075 -0.015973691 -8.560425e-22)
(1.0274297 -0.015265874 2.2203099e-21)
(1.0297716 -0.014258167 -1.1832148e-20)
(1.0317749 -0.012960402 -1.2731355e-22)
(1.03338 -0.011414803 3.5433968e-21)
(1.0345405 -0.009694255 -1.1686631e-20)
(1.0352366 -0.007890801 -3.9457447e-21)
(1.0354824 -0.0061105927 -3.440108e-21)
(1.0353261 -0.0044441324 -1.4056562e-21)
(1.0348481 -0.0029892781 -1.7111496e-21)
(1.0341444 -0.001774424 -8.2846875e-23)
(1.0333362 -0.00089298821 7.1746588e-24)
(1.0325191 -0.00024761082 -1.4599939e-22)
(1.0318196 -2.2954652e-05 2.3855601e-21)
(1.0311895 0.00014898575 -5.1528532e-21)
(0.93940115 -0.005503011 2.1886725e-21)
(0.93613677 -0.0072427024 -3.2110829e-22)
(0.93817485 -0.0081293297 4.8835094e-21)
(0.93951435 -0.0094155834 1.6410451e-21)
(0.94266702 -0.010423572 -4.1959804e-21)
(0.94611005 -0.011483634 -5.0986439e-21)
(0.95040347 -0.01240246 -8.0239751e-22)
(0.95571202 -0.013293322 0)
(0.96204989 -0.01408333 -4.3684554e-21)
(0.96914933 -0.014767835 -1.7274891e-20)
(0.97668988 -0.015332645 -2.6865435e-22)
(0.98424512 -0.015797188 -3.7302341e-21)
(0.99142041 -0.016180403 0)
(0.99792826 -0.016512748 -7.1337401e-24)
(1.0036301 -0.016809676 1.1710694e-20)
(1.0085522 -0.017073647 1.7446785e-21)
(1.0128197 -0.017279185 -1.024106e-20)
(1.0165983 -0.017383651 0)
(1.0200245 -0.017328259 1.5715873e-21)
(1.023183 -0.01705287 3.0628828e-21)
(1.0260982 -0.016503066 -9.5727215e-21)
(1.0287495 -0.01564314 2.178789e-21)
(1.0310846 -0.014463853 0)
(1.0330387 -0.012989586 -1.0328434e-20)
(1.0345511 -0.011278389 4.1385631e-21)
(1.0355815 -0.0094179006 -2.6530798e-22)
(1.0361209 -0.0075110938 -4.7934023e-21)
(1.0361974 -0.0056695443 3.7747571e-21)
(1.0358725 -0.0039837069 1.9611241e-22)
(1.0352385 -0.0025464718 -3.3222521e-21)
(1.0343984 -0.0013794561 2.0306647e-21)
(1.0334787 -0.00056661762 3.5721153e-22)
(1.0325737 -6.0746267e-06 0)
(1.0318139 0.00012794807 -9.6884759e-23)
(1.0311435 0.00019719533 -1.7653205e-21)
(0.93614647 -0.0046261473 1.5039534e-21)
(0.93180223 -0.0063595567 2.1211412e-22)
(0.93320605 -0.0073525487 4.3239089e-21)
(0.9339008 -0.0087248297 5.1427531e-22)
(0.93673187 -0.009846097 -1.2001224e-21)
(0.94009055 -0.011034885 -4.0260488e-22)
(0.94424987 -0.012076718 -4.9226842e-21)
(0.9490853 -0.013070082 6.4312529e-23)
(0.95501794 -0.01397551 0)
(0.96188977 -0.014797199 5.3770762e-21)
(0.96946966 -0.015497506 -5.8300229e-21)
(0.97736866 -0.016084063 7.50108e-22)
(0.98516413 -0.016568413 -4.1347072e-21)
(0.99247271 -0.016979046 6.2504069e-21)
(0.99903049 -0.017338205 3.811167e-21)
(1.0047462 -0.017661554 9.3196966e-21)
(1.0096741 -0.017938995 -2.069669e-20)
(1.0139673 -0.01813915 -7.1638194e-21)
(1.0177928 -0.018207753 8.5571283e-21)
(1.0212831 -0.018081681 -1.3400341e-20)
(1.0245059 -0.017696701 1.0447256e-20)
(1.0274706 -0.017001838 -8.4712986e-21)
(1.0301401 -0.015968815 0)
(1.0324518 -0.014601741 -2.6416234e-21)
(1.0343358 -0.01294116 9.56731e-22)
(1.0357338 -0.011061968 5.3650998e-21)
(1.036614 -0.0090660772 1.5517688e-21)
(1.0369808 -0.0070657437 8.6082722e-22)
(1.0368771 -0.0051757401 2.5659034e-21)
(1.0363781 -0.0034841637 0)
(1.035587 -0.0020770413 2.9183779e-21)
(1.0346125 -0.0009681744 2.0735124e-21)
(1.0335852 -0.00023138044 3.9538856e-21)
(1.0325969 0.00023930405 -2.1708679e-21)
(1.0317809 0.00028013302 1.1058373e-22)
(1.0310732 0.00024514319 6.5256391e-21)
(0.93335328 -0.0036790271 -1.4498903e-21)
(0.92784723 -0.0053721357 -1.0356468e-22)
(0.92845178 -0.0064635394 -1.3000536e-21)
(0.9283142 -0.007910267 1.1565447e-23)
(0.93060359 -0.0091453431 5.0385092e-21)
(0.93358925 -0.010447993 4.6722519e-21)
(0.93774002 -0.011626546 -1.8110914e-23)
(0.94243577 -0.012756122 -3.902593e-21)
(0.94790635 -0.013771182 5.1367041e-23)
(0.95442226 -0.014715636 -4.4225897e-21)
(0.96185155 -0.015559708 -4.6909683e-23)
(0.96988638 -0.016284771 3.1939851e-21)
(0.97812976 -0.016892209 2.7798756e-22)
(0.98614849 -0.017403648 5.1287694e-21)
(0.99357275 -0.017841938 -2.3961562e-20)
(1.0001785 -0.018231239 5.4512176e-22)
(1.0059077 -0.018576612 6.702685e-21)
(1.0108539 -0.018861944 9.4133814e-21)
(1.0151843 -0.019043073 -9.9195945e-21)
(1.0190704 -0.019059137 -3.2319983e-21)
(1.0226318 -0.018839981 4.929913e-21)
(1.0259207 -0.018321691 -1.2019537e-20)
(1.0289275 -0.017457742 9.9144358e-21)
(1.0316012 -0.016231157 0)
(1.0338693 -0.01466153 6.7096059e-21)
(1.0356602 -0.012807473 1.0907383e-20)
(1.0369207 -0.010761005 -4.5851009e-21)
(1.0376308 -0.0086372245 9.2342864e-21)
(1.0378101 -0.006555626 2.2539755e-22)
(1.0375172 -0.0046315954 -2.8158316e-21)
(1.0368404 -0.0029486338 -2.7758596e-21)
(1.0358926 -0.0015841178 -1.3562479e-21)
(1.0347872 -0.00054327342 -2.5520409e-22)
(1.0336569 0.00011066363 4.6572356e-21)
(1.0325901 0.00048709819 -8.5045562e-22)
(1.0317221 0.0004328006 -2.5048212e-22)
(1.0309806 0.00029256888 2.523233e-21)
(0.93113863 -0.0026730137 1.9847669e-22)
(0.92443451 -0.0042895806 -3.9044042e-22)
(0.92409439 -0.0054656846 -1.6570944e-21)
(0.92294172 -0.0069696743 -3.0257734e-22)
(0.92446196 -0.0083094044 1.9897497e-23)
(0.92685287 -0.009726445 2.9770032e-23)
(0.93072065 -0.011029096 -2.8819416e-21)
(0.93540101 -0.012306411 1.413158e-21)
(0.94074236 -0.013470052 0)
(0.9468233 -0.014533247 8.7244217e-22)
(0.95395203 -0.015506337 0)
(0.96192034 -0.016381445 0)
(0.9704028 -0.017130866 3.5706815e-21)
(0.97897255 -0.017766357 -5.3770545e-22)
(0.98719556 -0.018306203 -3.6403108e-21)
(0.9947275 -0.01877671 -7.1473547e-21)
(1.0013755 -0.019194034 1.4901405e-20)
(1.0071267 -0.019558301 5.4279337e-21)
(1.0121016 -0.019840364 8.0588299e-21)
(1.0164844 -0.019987686 3.6916492e-21)
(1.0204418 -0.019929649 -9.1917499e-21)
(1.0240804 -0.0195931 6.7265005e-21)
(1.0274326 -0.018915166 1.4524018e-21)
(1.0304712 -0.017857826 -3.2075695e-21)
(1.0331306 -0.016417925 -1.7652589e-22)
(1.0353319 -0.014633282 2.2670914e-21)
(1.0370044 -0.012581698 -1.0810377e-21)
(1.0381039 -0.010372037 -5.6242514e-21)
(1.0386247 -0.0081309214 -5.0674326e-22)
(1.038603 -0.005982537 -8.5587303e-21)
(1.0381136 -0.0040402073 -2.4245724e-21)
(1.0372572 -0.0023806241 -1.0540555e-21)
(1.036155 -0.0010710013 -3.4080367e-21)
(1.034923 -0.00010746644 2.8254487e-21)
(1.0336951 0.00045747981 -9.5382819e-21)
(1.0325552 0.00073598493 -1.7628336e-21)
(1.0316395 0.00058514782 -2.2666591e-21)
(1.0308675 0.00033933098 0)
(0.92960125 -0.0016224252 1.268461e-21)
(0.92171682 -0.0031263124 -8.7814298e-23)