/*--------------------------------*- C++ -*----------------------------------*\
| =========                 |                                                 |
| \\      /  F ield         | OpenFOAM: The Open Source CFD Toolbox           |
|  \\    /   O peration     | Version:  5.0                                   |
|   \\  /    A nd           | Web:      www.OpenFOAM.org                      |
|    \\/     M anipulation  |                                                 |
\*---------------------------------------------------------------------------*/
FoamFile
{
    version     2.0;
    format      ascii;
    class       volSymmTensorField;
    location    "75";
    object      UPrime2Mean;
}
// * * * * * * * * * * * * * * * * * * * * * * * * * * * * * * * * * * * * * //

dimensions      [0 2 -2 0 0 0 0];

internalField   nonuniform List<symmTensor> 
9200
(
(2.7952915e-05 7.6897087e-08 2.0705494e-26 8.1070331e-09 -5.0118884e-29 2.4414212e-47)
(2.7051146e-05 1.4855334e-07 -1.2068958e-24 6.8145733e-08 1.7044366e-25 6.5968392e-43)
(2.7714714e-05 9.5302546e-08 0 8.4169579e-09 0 0)
(2.8210634e-05 2.9841877e-07 6.7403745e-25 1.7320008e-07 -1.4283937e-25 1.8212634e-43)
(2.6836734e-05 1.7820978e-07 -1.1516245e-24 6.9811242e-08 9.1465821e-26 3.0458926e-43)
(2.7408213e-05 1.1120131e-07 0 8.4156996e-09 0 0)
(3.0589131e-05 4.1868115e-07 5.884688e-26 3.146728e-07 -1.930554e-26 1.779997e-45)
(2.8054038e-05 3.6199806e-07 1.1804421e-25 1.7737305e-07 -2.1351538e-27 3.8058648e-45)
(2.6543449e-05 2.0788209e-07 0 6.9138109e-08 0 0)
(2.7126422e-05 1.3368128e-07 0 8.572001e-09 0 0)
(3.3882516e-05 5.9955811e-07 -1.6239871e-24 4.8600879e-07 5.0411365e-25 7.749377e-43)
(3.0502205e-05 5.0865376e-07 -1.7147476e-24 3.2149606e-07 2.1066383e-25 3.2009822e-43)
(2.7786316e-05 4.1442068e-07 -7.2928418e-25 1.7606127e-07 8.6535977e-26 9.7462928e-44)
(2.6278374e-05 2.5302695e-07 -4.2046456e-26 6.9119539e-08 2.7619003e-27 3.0922458e-46)
(2.6788186e-05 1.5517211e-07 -2.4819263e-27 8.7012538e-09 7.0560114e-30 5.5811049e-49)
(3.7905157e-05 7.8524746e-07 -1.4881355e-24 6.8029742e-07 5.7298779e-25 6.878217e-43)
(3.3858353e-05 7.3066663e-07 -1.19951e-25 4.9692279e-07 -3.6042629e-27 7.2156463e-45)
(3.0246777e-05 5.7999296e-07 -2.620623e-24 3.1873543e-07 4.0158465e-25 1.0989362e-42)
(2.7557872e-05 4.962232e-07 -1.2947999e-24 1.7681796e-07 1.0273406e-25 1.8114408e-43)
(2.5958566e-05 2.977649e-07 -1.7734939e-25 6.8737983e-08 3.0923305e-27 4.0132415e-45)
(2.6384174e-05 1.8007952e-07 1.5913367e-24 8.9371808e-09 -2.1854398e-26 3.9526077e-43)
(4.2644151e-05 1.0011902e-06 -2.4302718e-24 8.9384074e-07 7.1747109e-25 9.0871237e-43)
(3.7966071e-05 9.6230559e-07 -1.7038892e-24 6.9546223e-07 4.2344711e-25 5.4151636e-43)
(3.3609285e-05 8.2744969e-07 1.4969685e-24 4.9307661e-07 -3.0441852e-25 3.9468036e-43)
(3.0044251e-05 6.9284769e-07 1.6880585e-25 3.19439e-07 -1.5830966e-26 2.6190349e-45)
(2.7264775e-05 5.7462307e-07 -8.6247257e-25 1.7668516e-07 7.4395026e-26 1.1366277e-43)
(2.557796e-05 3.5205238e-07 -1.0108532e-24 6.8805629e-08 3.8470602e-26 1.0857302e-43)
(2.5982765e-05 2.0508889e-07 -2.7560642e-25 9.2341452e-09 8.5580795e-28 5.1277676e-45)
(4.8085822e-05 1.2240387e-06 -2.5823213e-24 1.121411e-06 4.7087218e-25 5.0904871e-43)
(4.2813539e-05 1.2392815e-06 -1.8526438e-24 9.1426336e-07 4.3155791e-25 3.8859779e-43)
(3.7719994e-05 1.0854673e-06 -2.1228612e-24 6.9017217e-07 4.4921071e-25 5.8930088e-43)
(3.3428033e-05 9.8064772e-07 -4.4673535e-25 4.9479257e-07 2.3139017e-26 2.5470281e-44)
(2.9762419e-05 7.9954626e-07 2.7907345e-24 3.1845538e-07 -2.7618641e-25 8.1766161e-43)
(2.6910046e-05 6.6942122e-07 1.318395e-24 1.7806018e-07 -6.763113e-26 1.5292269e-43)
(2.5200407e-05 4.0712573e-07 7.1165339e-25 6.9159634e-08 -3.1586147e-26 1.3543406e-43)
(2.5484565e-05 2.3183221e-07 -1.3107856e-24 9.6571015e-09 8.3172191e-27 2.8636928e-43)
(5.4242031e-05 1.4523791e-06 3.6215174e-24 1.3603924e-06 -1.2356913e-24 1.7209851e-42)
(4.840477e-05 1.5378587e-06 -1.2681515e-24 1.1472976e-06 4.7579818e-25 3.7910608e-43)
(4.2570507e-05 1.3945178e-06 -4.605782e-25 9.0792806e-07 3.1059059e-26 2.1818777e-44)
(3.7560812e-05 1.2814353e-06 -8.7372145e-25 6.9259387e-07 1.8359187e-25 1.1354197e-43)
(3.3149486e-05 1.1223544e-06 -1.0048145e-24 4.9377945e-07 3.9769376e-26 1.2739706e-43)
(2.9416408e-05 9.288201e-07 3.9354697e-24 3.1996606e-07 -3.2811453e-25 1.5750933e-42)
(2.6555826e-05 7.6461043e-07 9.8348023e-25 1.8025913e-07 2.1555794e-26 3.1436265e-43)
(2.4732316e-05 4.6766405e-07 1.2261582e-24 7.0215334e-08 -3.7915967e-26 3.631129e-43)
(2.4992652e-05 2.5883054e-07 2.770093e-24 1.0184982e-08 -6.0088447e-27 1.2386291e-42)
(6.1114767e-05 1.6705133e-06 -3.7844424e-24 1.6079909e-06 1.144559e-24 1.3658386e-42)
(5.4765927e-05 1.863547e-06 -4.0693636e-25 1.3920566e-06 -1.3918528e-25 1.4094213e-43)
(4.8165296e-05 1.730044e-06 2.1663405e-25 1.1400516e-06 -3.1216649e-26 3.5581573e-45)
(4.2438369e-05 1.6425749e-06 1.4864106e-24 9.1195133e-07 -9.5739432e-26 2.5467543e-43)
(3.7280167e-05 1.4585807e-06 5.4661129e-25 6.9099021e-07 -6.8332738e-26 2.4429319e-44)
(3.2802446e-05 1.2926766e-06 -1.6735261e-24 4.9655662e-07 4.5704958e-26 3.5789655e-43)
(2.9068482e-05 1.0574375e-06 -1.4737609e-24 3.2276926e-07 8.5905673e-26 1.8215923e-43)
(2.6109159e-05 8.6845923e-07 -2.0871927e-24 1.8449216e-07 6.3069072e-26 4.273896e-43)
(2.4270943e-05 5.2915897e-07 -1.3803108e-24 7.1911472e-08 9.0499518e-27 1.3843032e-43)
(2.4419748e-05 2.865441e-07 -4.0551693e-25 1.0868651e-08 -2.0584416e-27 1.0005278e-44)
(6.8689389e-05 1.8644934e-06 1.4747504e-24 1.8633512e-06 -5.8818087e-25 2.6886138e-43)
(6.1926015e-05 2.205838e-06 -1.4206472e-24 1.6450407e-06 2.1719829e-25 1.5275789e-43)
(5.4532413e-05 2.0999652e-06 -7.4220446e-25 1.384344e-06 4.3818111e-25 2.3907909e-43)
(4.8068144e-05 2.0392415e-06 1.7642258e-24 1.1460855e-06 -4.2582541e-25 3.3522127e-43)
(4.2152338e-05 1.8611232e-06 -1.7532959e-26 9.1035779e-07 2.5873864e-25 4.5440158e-43)
(3.6924901e-05 1.6699373e-06 2.9387057e-24 6.9429889e-07 -5.2536888e-25 1.5054439e-42)
(3.2450551e-05 1.4595365e-06 -5.5678839e-25 5.0102593e-07 7.7721967e-27 3.9478737e-44)
(2.8625479e-05 1.1978491e-06 -2.6025573e-24 3.2901865e-07 1.6538418e-25 1.1255531e-42)
(2.5668717e-05 9.734373e-07 1.1514743e-24 1.9045988e-07 -3.3268231e-26 2.5795916e-43)
(2.3734214e-05 5.9346408e-07 -3.1162545e-24 7.4638633e-08 6.6831305e-27 1.0463486e-42)
(2.3839233e-05 3.1432334e-07 1.5734355e-25 1.1692652e-08 -5.4502575e-28 3.1865895e-44)
(7.6901024e-05 2.0153443e-06 6.4462804e-25 2.1266997e-06 -1.148347e-26 8.4459601e-45)
(6.9910508e-05 2.5588101e-06 2.7159679e-24 1.9047901e-06 -5.1966916e-25 5.0796123e-43)
(6.1704173e-05 2.4944562e-06 2.0203932e-24 1.6371374e-06 -5.9690283e-25 3.9885343e-43)
(5.4483406e-05 2.4838346e-06 0 1.3933345e-06 0 0)
(4.7772891e-05 2.3044497e-06 -1.368467e-25 1.1446537e-06 1.5233391e-26 1.5442192e-45)
(4.1782655e-05 2.1191601e-06 1.8013915e-24 9.1482963e-07 -9.0037726e-26 3.7040734e-43)
(3.6561037e-05 1.8732743e-06 6.1295902e-25 6.9939382e-07 -8.5658809e-26 5.7355825e-44)
(3.2000224e-05 1.6405107e-06 1.4138966e-24 5.1060423e-07 -1.1640002e-25 2.9664178e-43)
(2.8189608e-05 1.339108e-06 2.0510531e-24 3.3814272e-07 3.5904856e-26 4.8690543e-43)
(2.5152061e-05 1.0824627e-06 1.6262741e-24 1.9922808e-07 -1.4554683e-26 3.8585922e-43)
(2.3191496e-05 6.5849945e-07 9.5002683e-25 7.8331641e-08 1.1208574e-27 1.8019175e-43)
(2.3201132e-05 3.4204328e-07 -3.1736749e-25 1.2693648e-08 -3.1872371e-27 8.8035948e-45)
(8.5577157e-05 2.1008938e-06 1.4516188e-25 2.400473e-06 2.0747003e-26 4.4431735e-46)
(7.8717162e-05 2.9121499e-06 -7.860839e-25 2.1704881e-06 6.5753027e-26 4.8831702e-44)
(6.9713582e-05 2.90888e-06 0 1.8967568e-06 0 0)
(6.172544e-05 2.9694009e-06 0 1.6499017e-06 0 0)
(5.4175925e-05 2.8042944e-06 4.4977299e-26 1.3927458e-06 -1.4716449e-25 5.6268986e-44)
(4.7382036e-05 2.6138314e-06 2.065038e-24 1.1503331e-06 -8.6194569e-27 7.6142372e-43)
(4.1398752e-05 2.3622716e-06 -1.9672006e-25 9.2081688e-07 -1.796456e-25 5.4118934e-43)
(3.6093878e-05 2.0921321e-06 -2.2321713e-24 7.1105384e-07 1.8165244e-25 4.1107548e-43)
(3.1557842e-05 1.8207007e-06 -3.3769661e-25 5.2418902e-07 4.1983177e-27 6.4205867e-45)
(2.7677253e-05 1.4858301e-06 -2.5319252e-26 3.5213663e-07 -8.1881001e-28 7.0586344e-47)
(2.4629789e-05 1.1924545e-06 -1.055714e-24 2.1056125e-07 2.7500882e-26 7.2072097e-43)
(2.2595356e-05 7.24476e-07 1.2980477e-25 8.3328773e-08 -3.4335226e-26 1.2270024e-42)
(2.2544998e-05 3.6946213e-07 -1.8837121e-24 1.3863484e-08 -1.2331426e-26 3.0247676e-42)
(9.4340376e-05 2.0964493e-06 -3.6685046e-24 2.6897585e-06 4.1840023e-26 1.7462594e-43)
(8.8267614e-05 3.2520992e-06 8.0830612e-26 2.4434061e-06 1.3320168e-27 6.7129312e-46)
(7.8573985e-05 3.3335054e-06 -7.5640794e-25 2.1616952e-06 -2.1665265e-25 7.4906897e-44)
(6.9843198e-05 3.4958744e-06 6.5063261e-25 1.9141622e-06 1.6503856e-25 9.5325265e-44)
(6.1405676e-05 3.3553007e-06 -4.5128112e-25 1.6507738e-06 -1.4008005e-25 9.89512e-44)
(5.3757494e-05 3.1730468e-06 8.1989953e-25 1.4003503e-06 -3.4317049e-26 8.7029698e-44)
(4.696632e-05 2.8990624e-06 -7.0889404e-25 1.1567758e-06 1.1190793e-25 4.1738138e-44)
(4.0904114e-05 2.6207819e-06 -1.2068174e-25 9.3460791e-07 1.2991493e-27 1.9948076e-45)
(3.5635069e-05 2.3070455e-06 -3.6088892e-24 7.2749036e-07 9.7796985e-26 6.9983379e-43)
(3.1040623e-05 2.0066e-06 -3.652798e-24 5.4495981e-07 -3.3271381e-26 6.9533823e-43)
(2.7161867e-05 1.633854e-06 -5.8006051e-25 3.7054898e-07 1.0509957e-27 4.2262295e-44)
(2.4054168e-05 1.3035263e-06 -1.7388304e-24 2.2534238e-07 -3.6745163e-26 3.0895001e-43)
(2.1983548e-05 7.9063356e-07 -1.0561534e-24 8.9595334e-08 -2.0254789e-26 1.4635742e-43)
(2.1850644e-05 3.9623041e-07 4.6453636e-25 1.5220938e-08 3.64007e-27 2.5328919e-43)
(0.00010247165 1.978261e-06 8.2129381e-24 3.0027711e-06 -1.8404581e-24 2.2523367e-42)
(9.8318122e-05 3.5582195e-06 2.8744965e-24 2.7272193e-06 -2.6591653e-25 6.2399409e-43)
(8.8236977e-05 3.7548013e-06 1.1097295e-24 2.4321073e-06 -3.0527453e-25 7.9111323e-44)
(7.8878862e-05 4.0581575e-06 -2.5051068e-25 2.1843168e-06 3.073924e-26 3.9429811e-45)
(6.9518532e-05 3.9600231e-06 2.2807835e-25 1.9172435e-06 -2.6974823e-26 3.9316041e-45)
(6.095457e-05 3.7934141e-06 -1.1935355e-24 1.6610159e-06 7.9384211e-26 1.5752446e-43)
(5.329571e-05 3.5058461e-06 -7.0737208e-25 1.4074123e-06 1.3789923e-25 4.421426e-44)
(4.6430489e-05 3.1973111e-06 9.9509082e-25 1.1718846e-06 -1.1498283e-25 6.7036068e-44)
(4.041766e-05 2.8699896e-06 7.9377328e-25 9.5343124e-07 6.3628586e-27 8.7872106e-44)
(3.5106271e-05 2.5270234e-06 5.3845382e-25 7.5327863e-07 5.4452878e-27 1.7316308e-44)
(3.052316e-05 2.1931548e-06 4.1629578e-26 5.7212787e-07 -1.8583649e-28 1.6049e-46)
(2.6595217e-05 1.7837235e-06 1.34185e-24 3.9507121e-07 8.1838701e-26 1.6040576e-43)
(2.3463373e-05 1.4147822e-06 1.3486313e-24 2.4345857e-07 6.6772745e-27 7.4326874e-43)
(2.1336358e-05 8.5642474e-07 -2.2442142e-25 9.7348802e-08 1.1576189e-26 2.5441839e-43)
(2.1136355e-05 4.2216642e-07 4.8367587e-26 1.6761267e-08 -3.3664424e-27 2.015748e-43)
(0.00010877479 1.7332907e-06 7.3773987e-24 3.3513804e-06 4.943157e-25 5.6572694e-43)
(0.00010831285 3.8005086e-06 -3.9005766e-25 3.0282941e-06 -3.6096995e-25 1.1995812e-43)
(9.8513601e-05 4.1520687e-06 2.1643898e-24 2.7099452e-06 -6.046655e-26 1.281445e-43)
(8.8834462e-05 4.64691e-06 -1.098614e-24 2.460268e-06 -1.7118115e-25 1.0117279e-43)
(7.8570962e-05 4.6163042e-06 8.1816513e-25 2.1900638e-06 1.628387e-25 1.0661406e-43)
(6.9035575e-05 4.4808603e-06 8.4813269e-25 1.9311203e-06 -6.0852722e-25 3.7568481e-43)
(6.0431619e-05 4.1806577e-06 1.0577102e-24 1.6688506e-06 2.023053e-25 6.5364477e-43)
(5.270156e-05 3.8462996e-06 -2.2768072e-25 1.4236359e-06 7.3206245e-27 8.1991018e-45)
(4.5900767e-05 3.4786144e-06 5.3682399e-25 1.1915896e-06 -5.9142876e-26 2.5377661e-44)
(3.9866994e-05 3.121713e-06 2.3506644e-24 9.8348944e-07 7.2411962e-26 7.6050982e-43)
(3.4578573e-05 2.7457528e-06 5.3454736e-24 7.8716858e-07 -5.5903631e-26 2.0410845e-42)
(2.9959849e-05 2.3814391e-06 7.3264036e-25 6.0838397e-07 1.4497691e-25 7.7204462e-43)
(2.6016289e-05 1.9345862e-06 -5.020668e-25 4.2550035e-07 3.0973948e-27 8.7460614e-44)
(2.2837479e-05 1.5251961e-06 -7.5221884e-25 2.6547356e-07 -4.5163405e-26 2.8079707e-44)
(2.0670833e-05 9.2143016e-07 -7.57448e-25 1.0658274e-07 -3.8857064e-26 5.046755e-44)
(2.0397272e-05 4.4683786e-07 -5.1603862e-26 1.8486707e-08 4.4535453e-27 2.6738123e-43)
(0.00011155223 1.3804276e-06 0 3.7510229e-06 0 0)
(0.00011720056 3.9380488e-06 -1.6111691e-24 3.3559843e-06 2.3416127e-25 2.2993581e-43)
(0.00010893275 4.4954363e-06 -1.7086492e-24 2.9991554e-06 6.5000945e-25 2.3027658e-43)
(9.9593637e-05 5.2479079e-06 0 2.7426829e-06 0 0)
(8.8592749e-05 5.3191313e-06 0 2.4684373e-06 0 0)
(7.8070451e-05 5.2367254e-06 0 2.2086087e-06 0 0)
(6.8439086e-05 4.9321669e-06 -4.3593525e-25 1.9401886e-06 5.196489e-26 2.1418171e-44)
(5.9759497e-05 4.5667369e-06 -1.4302425e-24 1.6859506e-06 3.1687465e-25 1.9948972e-43)
(5.2108759e-05 4.1594176e-06 -2.8731606e-24 1.4432173e-06 4.4863816e-26 1.4694427e-42)
(4.5312621e-05 3.7573746e-06 -1.9129368e-24 1.2239072e-06 1.1369937e-25 2.0781579e-43)
(3.9319167e-05 3.3684574e-06 -8.7813387e-25 1.0228933e-06 -4.8063526e-26 1.0158809e-43)
(3.401712e-05 2.9658792e-06 -1.4032837e-24 8.3311337e-07 -2.6215564e-26 9.9253814e-44)
(2.9388371e-05 2.5709819e-06 -4.0594057e-25 6.5342311e-07 -4.4387345e-26 2.7022082e-44)
(2.5405093e-05 2.085265e-06 7.8123329e-25 4.6295928e-07 1.8342706e-26 1.0509385e-43)
(2.2193232e-05 1.6343687e-06 7.4388671e-25 2.9136701e-07 5.648356e-26 3.075735e-44)
(1.9983247e-05 9.8474377e-07 1.0349402e-25 1.1738374e-07 -8.4113805e-27 6.8974342e-44)
(1.9641823e-05 4.7001453e-07 0 2.0390646e-08 0 0)
(0.00010886122 1.0050267e-06 1.2895522e-23 4.219681e-06 -5.5583633e-25 1.708353e-42)
(0.0001233001 3.9281161e-06 1.4117854e-24 3.7226579e-06 2.6900081e-25 2.8162359e-43)
(0.00011855662 4.7451273e-06 -9.6092351e-24 3.3054934e-06 1.7077451e-25 1.6730039e-42)
(0.00011080295 5.8341801e-06 -3.9381328e-24 3.0336002e-06 5.3929357e-25 7.2473506e-43)
(9.9529132e-05 6.0552598e-06 -2.9943379e-24 2.7525282e-06 1.3611869e-25 4.824356e-43)
(8.8118478e-05 6.0598824e-06 0 2.4925955e-06 0 0)
(7.7398648e-05 5.7642683e-06 -2.572117e-24 2.2194302e-06 1.8604967e-25 9.3491679e-43)
(6.7669478e-05 5.3697462e-06 1.1693532e-24 1.9582796e-06 -1.1595494e-25 2.0785091e-43)
(5.9079825e-05 4.911922e-06 2.2189475e-25 1.7043281e-06 2.8384995e-25 1.2764835e-42)
(5.1461705e-05 4.4617677e-06 -3.6255885e-24 1.4761516e-06 -3.2358783e-26 2.5303303e-42)
(4.4730205e-05 4.025365e-06 1.2919391e-24 1.2661636e-06 -3.1058201e-26 7.4600009e-44)
(3.8753171e-05 3.6147498e-06 -1.16616e-24 1.0770701e-06 -9.3207622e-26 1.6550223e-43)
(3.3450291e-05 3.1865444e-06 -1.179022e-24 8.9062239e-07 8.8458572e-26 7.3839654e-43)
(2.8791319e-05 2.760733e-06 3.927928e-24 7.0906362e-07 1.6512182e-25 1.1280243e-42)
(2.4778165e-05 2.2356709e-06 2.4503522e-24 5.0745061e-07 2.2591255e-25 3.0584463e-43)
(2.1525852e-05 1.7409634e-06 1.1207311e-24 3.213642e-07 -1.0128675e-25 3.5194069e-42)
(1.9279454e-05 1.0457023e-06 6.6519651e-25 1.2974019e-07 -1.3352568e-27 4.405252e-43)
(1.8872623e-05 4.9140222e-07 -2.3370055e-25 2.2464447e-08 -1.7118423e-26 5.4750999e-43)
(9.9176641e-05 7.9983782e-07 -1.2968343e-24 4.7754269e-06 -4.4627565e-26 1.7634988e-44)
(0.00012439352 3.7551777e-06 1.1138268e-24 4.1438922e-06 -3.3363264e-25 1.3115175e-43)
(0.00012582084 4.8560801e-06 4.6454136e-25 3.6363224e-06 3.8071588e-25 4.4670236e-44)
(0.00012167944 6.3581084e-06 -3.4929898e-24 3.3368395e-06 1.1608278e-25 4.079449e-43)
(0.0001111235 6.7987733e-06 4.6563224e-25 3.0435277e-06 -4.4395949e-26 1.0601992e-44)
(9.917811e-05 6.941648e-06 9.3192071e-25 2.7827387e-06 -7.1188842e-25 2.9892596e-43)
(8.7391708e-05 6.6792359e-06 5.5321526e-24 2.5057453e-06 -1.2520074e-24 3.9314164e-42)
(7.651661e-05 6.2622633e-06 4.4598575e-24 2.2388412e-06 -3.6719387e-25 4.2800456e-42)
(6.6877347e-05 5.7491725e-06 1.4667646e-24 1.9747153e-06 -6.8390746e-26 6.3576292e-43)
(5.8346787e-05 5.2345417e-06 2.5182586e-24 1.7360271e-06 -2.3720335e-25 3.5536858e-43)
(5.0824275e-05 4.744821e-06 8.5529512e-25 1.5188137e-06 3.2773453e-26 1.449565e-43)
(4.4146653e-05 4.2886779e-06 2.8444156e-24 1.3253649e-06 -3.5395545e-26 4.3117375e-43)
(3.8186737e-05 3.8594771e-06 9.7775816e-25 1.1453248e-06 2.1718613e-25 7.0087372e-43)
(3.2873131e-05 3.408631e-06 -9.8914701e-25 9.6255398e-07 -1.0912394e-25 6.8388391e-44)
(2.818308e-05 2.951202e-06 -1.5568848e-24 7.7537403e-07 -1.8163769e-25 1.5035893e-43)
(2.4130014e-05 2.3842362e-06 -3.6184353e-25 5.5948713e-07 1.3528084e-26 8.9713745e-44)
(2.0842648e-05 1.8441304e-06 2.2701234e-25 3.5542647e-07 -5.8316501e-26 4.5369917e-43)
(1.8562292e-05 1.1035054e-06 3.6179972e-25 1.4363759e-07 2.9231555e-26 1.6711857e-44)
(1.8094695e-05 5.107285e-07 -6.2897606e-25 2.4693384e-08 -3.1787066e-26 6.1575217e-43)
(8.2402724e-05 1.0914826e-06 -8.4095704e-24 5.4318492e-06 -5.2145705e-25 9.1410817e-43)
(0.00011824506 3.4867432e-06 -1.4252673e-24 4.6381685e-06 3.2057853e-25 1.3668468e-43)
(0.00012854016 4.7951285e-06 1.823262e-23 4.0025168e-06 7.2181813e-25 4.6551328e-42)
(0.00013079191 6.7476804e-06 2.0351613e-24 3.6582401e-06 -4.0741556e-25 1.9953128e-43)
(0.00012273156 7.5043869e-06 -5.6169642e-25 3.3430592e-06 -3.4048096e-25 4.954796e-44)
(0.00011108472 7.8605578e-06 3.0098933e-25 3.0793357e-06 -3.5869188e-25 6.3477271e-44)
(9.8460551e-05 7.672823e-06 -5.7259104e-25 2.7984428e-06 9.4054465e-26 4.5454255e-44)
(8.6398084e-05 7.2506039e-06 4.2889232e-25 2.5269237e-06 -4.792995e-25 1.9689526e-43)
(7.5589474e-05 6.6804141e-06 5.7768395e-25 2.2527622e-06 -5.4116497e-26 1.1320822e-43)
(6.602701e-05 6.0904034e-06 1.2489503e-24 2.0035751e-06 1.4436418e-25 2.9483332e-42)
(5.762726e-05 5.5259998e-06 3.7883591e-24 1.7763423e-06 -2.6750378e-25 6.8912773e-43)
(5.020347e-05 5.0158146e-06 -1.5133912e-24 1.5798325e-06 -4.7634651e-26 1.5735298e-43)
(4.3572375e-05 4.5469359e-06 -2.1160319e-24 1.4007731e-06 -8.8075441e-26 1.4708896e-43)
(3.7629734e-05 4.1057901e-06 2.2553454e-25 1.2316474e-06 1.856068e-26 1.9012718e-45)
(3.2288797e-05 3.631925e-06 -1.3434107e-24 1.048843e-06 -1.8593181e-25 1.4261881e-43)
(2.755947e-05 3.1409268e-06 -1.6874889e-24 8.5325693e-07 5.9333089e-26 1.1538093e-42)
(2.3467015e-05 2.5303254e-06 -1.4510353e-24 6.1906173e-07 -2.6483935e-25 4.6589336e-43)
(2.0144181e-05 1.9424651e-06 -9.5161462e-25 3.9351293e-07 4.226327e-26 1.1040754e-42)
(1.7836289e-05 1.157504e-06 -1.9141022e-25 1.5900952e-07 7.2543739e-27 7.1529587e-44)
(1.7312371e-05 5.2770873e-07 7.2885064e-25 2.7057668e-08 3.9654734e-26 7.1946739e-43)
(6.0895453e-05 2.3226316e-06 -7.0868951e-25 6.1910567e-06 3.792198e-25 3.8090057e-44)
(0.00010361617 3.3394091e-06 -2.4161567e-24 5.22611e-06 1.1258555e-24 5.5596431e-43)
(0.00012430424 4.59345e-06 -3.0092234e-24 4.4170122e-06 1.1616788e-24 5.2614546e-43)
(0.00013596539 6.9273605e-06 -3.2687235e-24 4.0037132e-06 1.13534e-25 2.8541081e-43)
(0.00013308886 8.1002654e-06 1.02488e-24 3.6526573e-06 -6.6775664e-25 2.1077909e-43)
(0.00012333589 8.7734434e-06 1.6316672e-24 3.3826295e-06 -1.0058385e-25 1.8795689e-43)
(0.00011052154 8.7284231e-06 -3.9990542e-24 3.0972453e-06 7.6719044e-25 2.4074214e-42)
(9.7392834e-05 8.3351613e-06 -6.2252122e-24 2.8218146e-06 1.3558461e-24 1.0358034e-41)
(8.5325183e-05 7.7150454e-06 -2.067746e-24 2.537964e-06 8.2845209e-25 7.6361541e-43)
(7.4589444e-05 7.0408714e-06 0 2.2774095e-06 0 0)
(6.519261e-05 6.3845244e-06 -2.4890762e-24 2.038956e-06 2.5134831e-25 3.1906924e-43)
(5.6941782e-05 5.7943756e-06 -2.2245319e-24 1.8355245e-06 -1.3339765e-25 1.396614e-42)
(4.9605436e-05 5.2759999e-06 2.0186448e-24 1.6586473e-06 -1.4189436e-25 8.1084232e-43)
(4.3030222e-05 4.8047818e-06 1.2128615e-24 1.4973861e-06 4.0861761e-25 1.6651875e-42)
(3.7074582e-05 4.3534881e-06 2.2382532e-24 1.3360851e-06 1.6560764e-25 1.6035606e-43)
(3.1703742e-05 3.8574211e-06 -2.485347e-24 1.1512722e-06 -5.1949028e-26 6.9400112e-43)
(2.6924599e-05 3.3296615e-06 -2.2151321e-24 9.4278972e-07 -3.4864536e-25 3.3387835e-43)
(2.2789147e-05 2.6722412e-06 -4.9140378e-25 6.8619827e-07 -1.7328277e-25 3.1678451e-43)
(1.9433845e-05 2.0348056e-06 3.7690864e-25 4.3544658e-07 1.6272609e-25 6.7496166e-43)
(1.7105077e-05 1.2068774e-06 -3.1804077e-25 1.7575003e-07 -2.3912444e-26 6.2616309e-45)
(1.653037e-05 5.4208853e-07 9.5020151e-25 2.9532504e-08 5.1569296e-26 7.5400571e-43)
(3.9951957e-05 4.9711979e-06 6.7294088e-24 7.0365216e-06 3.4273976e-24 2.2292291e-42)
(8.1549997e-05 3.7199061e-06 -2.3035619e-24 5.9260178e-06 1.2072657e-24 5.1840698e-43)
(0.00011141608 4.4043244e-06 -7.0005222e-24 4.8954396e-06 -5.2749401e-25 7.8232977e-43)
(0.00013455221 6.8526088e-06 6.0575055e-24 4.3819071e-06 3.521007e-25 7.7473253e-43)
(0.0001401445 8.4892493e-06 4.1464686e-24 3.9743487e-06 -3.3930244e-25 6.2940941e-43)
(0.00013484898 9.6035709e-06 -2.3694902e-25 3.692009e-06 -3.9886804e-25 5.1335702e-44)
(0.00012320314 9.8062253e-06 0 3.4015031e-06 0 0)
(0.00010948953 9.5053691e-06 6.9761282e-25 3.1229088e-06 -1.0804308e-24 6.7460226e-43)
(9.6191703e-05 8.857788e-06 1.7999741e-24 2.8296654e-06 -7.6370018e-25 1.433998e-42)
(8.4149116e-05 8.0986074e-06 -5.0783114e-25 2.5572972e-06 3.218169e-25 1.7430034e-42)
(7.3604187e-05 7.3334381e-06 -1.6926775e-24 2.3053834e-06 2.1354166e-25 3.2183173e-43)
(6.4407543e-05 6.6405005e-06 -5.9859526e-25 2.0927131e-06 -4.0859233e-26 3.3140612e-43)
(5.6295525e-05 6.0430573e-06 4.3170465e-25 1.9133959e-06 4.4640658e-26 4.9363328e-44)
(4.9065814e-05 5.5309906e-06 -1.8002829e-24 1.7611733e-06 -6.3163265e-26 9.3415799e-44)
(4.2505857e-05 5.0636523e-06 5.7791502e-25 1.6158136e-06 -1.6567006e-25 4.2684259e-43)
(3.6538063e-05 4.6057304e-06 -3.6409281e-25 1.4611022e-06 1.7611612e-25 3.9062311e-43)
(3.1111736e-05 4.0838102e-06 3.8711261e-25 1.2696767e-06 1.7339422e-26 1.1885122e-44)
(2.6278198e-05 3.5158726e-06 -1.2801063e-24 1.0441535e-06 3.6268991e-26 5.3044147e-43)
(2.2099203e-05 2.8085598e-06 -1.6337649e-24 7.6065925e-07 -2.4508786e-25 1.5002099e-43)
(1.8715308e-05 2.1198764e-06 -3.1465453e-25 4.8095641e-07 -4.2622123e-26 6.582744e-45)
(1.6372848e-05 1.2507972e-06 3.9449129e-25 1.9370913e-07 7.8234528e-26 2.3280112e-43)
(1.5752981e-05 5.5364079e-07 0 3.208869e-08 0 0)
(2.7330919e-05 9.4204139e-06 3.1920628e-24 7.9290399e-06 2.4863185e-24 7.9615796e-43)
(5.6366624e-05 5.1938203e-06 1.0926572e-24 6.7458667e-06 -8.5260807e-25 2.2054878e-43)
(9.0198418e-05 4.5526344e-06 8.9607612e-26 5.4534207e-06 -2.1115611e-25 9.9154412e-45)
(0.0001242434 6.5856005e-06 5.6201331e-24 4.8056653e-06 -5.3882462e-25 1.0218925e-42)
(0.00014117835 8.5833653e-06 2.764022e-24 4.3108924e-06 -7.4631748e-25 5.2152795e-43)
(0.00014373212 1.0236378e-05 -1.4587221e-24 4.0055885e-06 1.0175888e-25 1.3901823e-43)
(0.00013560671 1.0830731e-05 4.2753339e-25 3.7087195e-06 1.1898463e-24 5.1081453e-43)
(0.00012244306 1.0728338e-05 -1.9384869e-24 3.4288349e-06 4.581495e-25 1.7899521e-42)
(0.00010823647 1.0104024e-05 -9.6645816e-26 3.1272493e-06 -1.7210819e-25 9.0785251e-44)
(9.4833889e-05 9.272817e-06 -1.6381429e-25 2.8428241e-06 8.0163591e-26 3.9571044e-44)
(8.2979353e-05 8.3878465e-06 7.1646157e-26 2.5755906e-06 -1.6955245e-26 3.8585318e-45)
(7.2678612e-05 7.568393e-06 1.3501903e-24 2.350212e-06 -3.9192916e-26 2.0287046e-42)
(6.3679961e-05 6.8639186e-06 4.1439282e-25 2.1652141e-06 -1.0510269e-26 5.8352549e-45)
(5.5737237e-05 6.2782555e-06 -6.2711196e-24 2.0167614e-06 -5.8654746e-25 3.568146e-42)
(4.8566169e-05 5.7848715e-06 -5.1399277e-24 1.8889255e-06 -3.0689544e-25 6.913519e-43)
(4.2024802e-05 5.3281788e-06 -3.6001866e-24 1.7589711e-06 -1.3158476e-25 5.8708302e-43)
(3.600574e-05 4.8617642e-06 1.3254831e-24 1.6068099e-06 2.1826622e-25 8.7546976e-44)
(3.0519365e-05 4.3118753e-06 3.3632711e-24 1.4049532e-06 1.3491985e-26 1.6273423e-42)
(2.5620882e-05 3.6982111e-06 -3.3983654e-25 1.1570869e-06 -9.186772e-26 2.3166339e-44)
(2.1398874e-05 2.9375226e-06 -2.1115145e-25 8.4206502e-07 8.989966e-26 2.1275721e-43)
(1.799186e-05 2.1964025e-06 0 5.2965602e-07 0 0)
(1.5643638e-05 1.2884866e-06 -1.1517095e-24 2.1269335e-07 -2.2030505e-25 1.3141788e-42)
(1.4985014e-05 5.6219446e-07 1.0657324e-25 3.4693649e-08 4.4769395e-27 8.0858388e-46)
(3.1780215e-05 1.5823945e-05 -2.0776748e-23 8.8082219e-06 -1.1254013e-23 1.4597058e-41)
(3.5744103e-05 8.3676503e-06 3.0662579e-24 7.672883e-06 -1.7860772e-24 1.8280094e-42)
(6.4198786e-05 5.525475e-06 -3.6092835e-24 6.0991034e-06 -1.0890374e-24 4.8743997e-43)
(0.00010441655 6.3707534e-06 -2.5200369e-24 5.2916837e-06 -4.3166775e-25 1.3951458e-43)
(0.00013347345 8.3677144e-06 4.8015747e-24 4.6693665e-06 1.2634443e-25 7.3042069e-43)
(0.00014727508 1.0536207e-05 0 4.3222503e-06 0 0)
(0.00014603848 1.1679175e-05 2.4171223e-25 4.0138422e-06 2.9248466e-25 2.6504493e-44)
(0.00013553962 1.1933066e-05 -7.8584798e-25 3.7361489e-06 -4.5024249e-25 1.477998e-43)
(0.00012132297 1.1428681e-05 -4.2363318e-25 3.4292745e-06 6.5632752e-25 1.3467241e-42)
(0.00010673995 1.0565076e-05 -9.3450706e-25 3.1335049e-06 1.4774746e-24 5.4006629e-42)
(9.3459998e-05 9.5607609e-06 -1.1737304e-24 2.8493764e-06 2.6929398e-25 2.7940012e-43)
(8.1870407e-05 8.5953815e-06 -5.7701702e-25 2.6081954e-06 1.884028e-26 6.6618798e-43)
(7.1828666e-05 7.7530891e-06 1.1097832e-24 2.4128729e-06 -1.295355e-25 9.2888681e-43)
(6.3071945e-05 7.0613605e-06 -3.2451848e-24 2.2641991e-06 4.4402241e-26 3.9865051e-43)
(5.5247126e-05 6.5073744e-06 4.661903e-24 2.1483655e-06 -6.1005496e-26 1.2410167e-42)
(4.8141146e-05 6.0434619e-06 9.7322214e-24 2.0452013e-06 5.7924762e-25 2.5159146e-42)
(4.1567232e-05 5.599666e-06 3.0156273e-24 1.927624e-06 8.8070993e-25 1.9150268e-42)
(3.5489356e-05 5.1240339e-06 1.7682226e-24 1.7744225e-06 3.665861e-26 2.5690841e-43)
(2.9919042e-05 4.539271e-06 -1.7084239e-24 1.556498e-06 5.0872621e-25 3.2781873e-42)
(2.4953095e-05 3.87481e-06 -2.0477963e-24 1.2811813e-06 -6.4803551e-25 1.0346258e-42)
(2.0689987e-05 3.0573084e-06 -4.0029713e-25 9.2982005e-07 -3.894117e-25 1.3333899e-42)
(1.7267155e-05 2.263116e-06 1.5574017e-24 5.8104533e-07 4.5502653e-25 1.5897325e-42)
(1.4921356e-05 1.3192453e-06 -1.4918969e-24 2.3247134e-07 -2.4244898e-25 8.8897412e-43)
(1.4230672e-05 5.6759285e-07 7.9879127e-26 3.7309173e-08 3.576637e-27 4.7485122e-46)
(6.1044855e-05 2.4020947e-05 -1.1008696e-23 9.5978884e-06 -4.27475e-24 2.0581561e-42)
(2.9580636e-05 1.3709478e-05 -1.4853808e-24 8.6655526e-06 -2.3345755e-24 1.7355717e-42)
(4.0601055e-05 7.8829656e-06 -7.8723566e-25 6.8224857e-06 -9.6035122e-25 1.6359635e-43)
(7.7587458e-05 6.6680402e-06 7.3997019e-24 5.8563963e-06 -6.6475259e-25 2.8548769e-42)
(0.00011562258 7.992292e-06 -2.5505015e-24 5.0622412e-06 -4.4291749e-25 2.1997075e-43)
(0.00014245869 1.0416959e-05 3.6125795e-24 4.6418292e-06 -5.4536345e-26 9.6761883e-43)
(0.00015188805 1.2191791e-05 3.7377229e-25 4.3101573e-06 2.9383129e-25 2.3327949e-44)
(0.00014730515 1.2995312e-05 8.5651705e-25 4.0376148e-06 -6.4771111e-25 1.8258887e-42)
(0.00013491147 1.2769454e-05 -3.7392173e-25 3.7318697e-06 -5.1715615e-25 1.113774e-43)
(0.00011982746 1.1958663e-05 3.1230627e-25 3.4278995e-06 2.3092936e-25 3.5588115e-43)
(0.0001051796 1.0859484e-05 -9.9618477e-25 3.1265064e-06 5.260287e-25 2.4289923e-43)
(9.2132189e-05 9.7379544e-06 6.4862001e-25 2.8667065e-06 3.3460009e-25 3.2686249e-42)
(8.0851921e-05 8.7293479e-06 -1.8383832e-24 2.6566139e-06 1.2137693e-25 1.4104985e-43)
(7.1129906e-05 7.8945068e-06 1.2449841e-25 2.5021887e-06 2.3299838e-26 2.3736605e-44)
(6.2565567e-05 7.2439261e-06 5.5633226e-24 2.3939549e-06 3.005321e-25 9.0349682e-43)
(5.4869832e-05 6.7372312e-06 3.8906837e-25 2.3118966e-06 -6.2717614e-26 4.813952e-44)
(4.7767545e-05 6.3111542e-06 3.6242928e-25 2.2316611e-06 1.4458842e-25 5.7617646e-44)
(4.1149268e-05 5.882137e-06 3.5517767e-24 2.1231751e-06 9.8714088e-26 6.8890973e-43)
(3.4974968e-05 5.3910007e-06 0 1.9635746e-06 0 0)
(2.9314099e-05 4.7656721e-06 7.6097257e-25 1.7243852e-06 8.93386e-26 2.4268255e-44)
(2.4274797e-05 4.0434494e-06 1.5111558e-25 1.4156392e-06 1.4583927e-26 1.6854458e-45)
(1.9974631e-05 3.1659408e-06 -1.559975e-25 1.0231286e-06 -4.8373928e-27 5.8579421e-45)
(1.6544883e-05 2.3187806e-06 -5.9508894e-25 6.3450959e-07 -1.1521024e-25 3.7015482e-44)
(1.4210298e-05 1.3424617e-06 1.6092202e-24 2.5276891e-07 3.097967e-25 1.5429242e-42)
(1.3494128e-05 5.6971875e-07 1.1347124e-24 3.9891148e-08 7.174123e-26 4.8178542e-43)
(0.00012014017 3.3550103e-05 4.2600002e-23 1.0222477e-05 1.2108317e-23 1.5184853e-41)
(4.7915492e-05 2.1372094e-05 4.3211509e-24 9.6473346e-06 1.9188521e-24 6.8300135e-43)
(2.93821e-05 1.2100262e-05 -2.6842159e-25 7.5906232e-06 -2.1519955e-25 1.5242519e-44)
(5.0254693e-05 8.0897767e-06 -4.0030138e-25 6.5056465e-06 1.0049244e-25 2.6620186e-44)
(8.9139609e-05 7.8330326e-06 -3.469635e-24 5.5070949e-06 -1.8795659e-26 1.3932589e-42)
(0.000127143 9.9327625e-06 7.0001112e-25 4.9720948e-06 5.9608122e-25 9.6268096e-44)
(0.00014995802 1.2221795e-05 5.4793989e-25 4.5930556e-06 3.2488484e-25 2.5357989e-44)
(0.00015529578 1.3735335e-05 -3.1769471e-26 4.3224515e-06 2.1162406e-26 5.5359929e-45)
(0.00014775613 1.4006719e-05 9.149325e-25 4.026718e-06 6.4995684e-25 1.2536193e-42)
(0.00013372252 1.3401425e-05 4.9971747e-25 3.722068e-06 7.4692171e-25 2.629341e-43)
(0.00011817811 1.2275824e-05 1.0414616e-24 3.4058799e-06 1.0189893e-25 4.522315e-43)
(0.00010362478 1.1008704e-05 -1.4957422e-25 3.1257944e-06 -9.9878836e-26 6.4958004e-44)
(9.0900952e-05 9.811853e-06 -6.0315428e-25 2.8965813e-06 -1.1521616e-25 9.3621615e-43)
(8.0013147e-05 8.7973764e-06 1.1149298e-24 2.7310081e-06 -2.6891998e-26 4.4394037e-44)
(7.0570093e-05 8.0074249e-06 5.7480778e-25 2.6242868e-06 1.5858078e-25 3.6874155e-43)
(6.2216559e-05 7.4191745e-06 -8.7689405e-24 2.5586723e-06 -6.6998112e-25 2.0850225e-42)
(5.4581121e-05 6.9761059e-06 -1.5448659e-23 2.5101464e-06 -2.1226059e-24 8.9904056e-42)
(4.7466455e-05 6.5937372e-06 -6.1125497e-24 2.4498413e-06 -1.7844464e-25 1.4992497e-42)
(4.0752121e-05 6.1761305e-06 -7.4624318e-24 2.3457001e-06 -1.8335416e-25 3.1610022e-42)
(3.4467079e-05 5.6634882e-06 -3.1813659e-25 2.174482e-06 -6.7940663e-26 4.4483765e-45)