/*--------------------------------*- C++ -*----------------------------------*\
| =========                 |                                                 |
| \\      /  F ield         | OpenFOAM: The Open Source CFD Toolbox           |
|  \\    /   O peration     | Version:  5.0                                   |
|   \\  /    A nd           | Web:      www.OpenFOAM.org                      |
|    \\/     M anipulation  |                                                 |
\*---------------------------------------------------------------------------*/
FoamFile
{
    version     2.0;
    format      ascii;
    class       volScalarField;
    location    "285";
    object      p;
}
// * * * * * * * * * * * * * * * * * * * * * * * * * * * * * * * * * * * * * //

dimensions      [0 2 -2 0 0 0 0];

internalField   nonuniform List<scalar> 
9200
(
-0.00062401026
-0.00062211669
-0.001432302
-0.00061762138
-0.0014342667
-0.002440322
-0.00061603445
-0.0014236576
-0.0024406849
-0.0033388258
-0.00060880902
-0.0014165637
-0.0024262399
-0.0033422097
-0.0042596418
-0.00060152112
-0.0013980051
-0.0024156629
-0.0033263867
-0.0042667
-0.0051339604
-0.00059010693
-0.0013775051
-0.0023886771
-0.0033156779
-0.0042521792
-0.0051480791
-0.0059887659
-0.00057666241
-0.0013481274
-0.0023569149
-0.0032845729
-0.0042452256
-0.0051384734
-0.0060118847
-0.0068067031
-0.00056013583
-0.0013131948
-0.0023113846
-0.0032465878
-0.0042144083
-0.005140625
-0.0060103546
-0.0068415239
-0.0075905192
-0.000541265
-0.001270975
-0.002255945
-0.0031906122
-0.0041749941
-0.0051163185
-0.0060267764
-0.0068518417
-0.0076405545
-0.0083344915
-0.00052027442
-0.0012225064
-0.0021884588
-0.0031208956
-0.0041134235
-0.0050827009
-0.0060149434
-0.0068888185
-0.0076676107
-0.0084025936
-0.0090357473
-0.00049798412
-0.00116782
-0.0021103084
-0.0030347622
-0.0040341729
-0.0050234379
-0.005993817
-0.006897049
-0.0077308184
-0.0084503017
-0.0091248568
-0.0096905262
-0.0004755036
-0.001107405
-0.0020218962
-0.0029337734
-0.0039339165
-0.0049430884
-0.0059441672
-0.0068970863
-0.007766209
-0.0085457092
-0.0091977736
-0.0098034111
-0.010295335
-0.00045441203
-0.0010414816
-0.0019244625
-0.0028183924
-0.0038143677
-0.0048373885
-0.0058704795
-0.0068660656
-0.0077959201
-0.0086161812
-0.0093330553
-0.0099057901
-0.010434596
-0.010846813
-0.00043632967
-0.00097017905
-0.0018192932
-0.0026900742
-0.0036761088
-0.0047080046
-0.0057671358
-0.0068081358
-0.0077929252
-0.0086843686
-0.0094462507
-0.010086702
-0.010570567
-0.011014793
-0.011341937
-0.00042348585
-0.00089335338
-0.0017079242
-0.0025502366
-0.0035210512
-0.004555385
-0.0056355289
-0.0067163598
-0.007760754
-0.0087190934
-0.009562318
-0.01025021
-0.01080335
-0.011188147
-0.011540677
-0.011778074
-0.00041630584
-0.00081194203
-0.0015917625
-0.002400489
-0.0033512323
-0.0043815841
-0.0054758457
-0.0065917204
-0.0076907525
-0.0087231781
-0.009645251
-0.010423349
-0.011025562
-0.011478245
-0.011754861
-0.012009286
-0.012153055
-0.00041311596
-0.00072669234
-0.0014729063
-0.0022423313
-0.0031690594
-0.0041888158
-0.0052902669
-0.0064339273
-0.0075832483
-0.0086858588
-0.0096967818
-0.010564914
-0.011265169
-0.011766084
-0.01210754
-0.012267246
-0.012418085
-0.012465331
-0.00041062213
-0.00063901335
-0.0013524697
-0.002078085
-0.002976882
-0.0039797116
-0.0050812979
-0.0062450626
-0.007437263
-0.0086065388
-0.0097038272
-0.010675328
-0.011476056
-0.012081023
-0.012468331
-0.012686839
-0.012722223
-0.012765015
-0.012714188
-0.00040276085
-0.00055224221
-0.0012309233
-0.0019096488
-0.0027776086
-0.0037569201
-0.0048520431
-0.0060276689
-0.0072546296
-0.0084832983
-0.0096645893
-0.010738875
-0.01165712
-0.012371584
-0.012867184
-0.013126549
-0.013212583
-0.013117111
-0.013048692
-0.012899433
-0.00038197775
-0.00047034058
-0.0011091167
-0.0017390099
-0.0025733646
-0.0035237522
-0.0046057308
-0.0057850454
-0.0070378527
-0.008317476
-0.0095759518
-0.010752287
-0.011789805
-0.012634967
-0.01324752
-0.013616979
-0.013736909
-0.0136813
-0.013450037
-0.01326864
-0.013020381
-0.00034067802
-0.00039791749
-0.0009871606
-0.0015691949
-0.0023659401
-0.0032830321
-0.0043461142
-0.0055207545
-0.0067904256
-0.0081113112
-0.0094385346
-0.010710972
-0.011869106
-0.012849552
-0.013604768
-0.014096501
-0.014325913
-0.014294461
-0.014090671
-0.013720174
-0.013424962
-0.013076361
-0.00027284128
-0.00033953622
-0.00086498287
-0.0014030561
-0.0021577025
-0.0030375506
-0.0040764339
-0.0052389177
-0.0065162801
-0.007868282
-0.0092541273
-0.010614581
-0.011888665
-0.013008352
-0.01391411
-0.014558658
-0.014913317
-0.014987827
-0.014795827
-0.014438086
-0.013927056
-0.013517186
-0.013070778
-0.00017531495
-0.00029890645
-0.00074252758
-0.0012434149
-0.0019507899
-0.0027907962
-0.0037996873
-0.0049433042
-0.0062199144
-0.0075924976
-0.0090260763
-0.010464186
-0.011846909
-0.013102967
-0.01416635
-0.014975332
-0.015490829
-0.01569075
-0.015598185
-0.01523692
-0.014721454
-0.014069243
-0.013544383
-0.013006875
-4.8453689e-05
-0.00027820466
-0.00061992138
-0.0010928474
-0.0017474293
-0.002545908
-0.0035193942
-0.0046375896
-0.0059056563
-0.0072887059
-0.0087585922
-0.01026278
-0.011743929
-0.013130305
-0.014350773
-0.015334924
-0.016027017
-0.016393137
-0.016423129
-0.016151667
-0.015614966
-0.014938876
-0.014145762
-0.01351036
-0.012887723
0.00010388924
-0.00027770797
-0.00049758571
-0.00095348822
-0.0015498329
-0.002305895
-0.0032389599
-0.0043259442
-0.0055776914
-0.0069617252
-0.0084566637
-0.010014477
-0.011582142
-0.013089214
-0.014462468
-0.01562417
-0.016507733
-0.017060272
-0.017258852
-0.017103831
-0.01664423
-0.015927135
-0.015089882
-0.014158976
-0.013418256
-0.012714829
0.00027497758
-0.00029579314
-0.00037622725
-0.00082686931
-0.0013601219
-0.0020736119
-0.0029619458
-0.0040124275
-0.0052405771
-0.0066163046
-0.0081255812
-0.0097243486
-0.01136539
-0.012981233
-0.014498753
-0.015836051
-0.016916953
-0.017675371
-0.018067467
-0.018080051
-0.01772745
-0.017071829
-0.016171943
-0.015174938
-0.014110819
-0.013270566
-0.012490998
0.00045716535
-0.00032855932
-0.00025677189
-0.00071379713
-0.0011802363
-0.0018517351
-0.0026919069
-0.003701165
-0.0048988583
-0.0062575611
-0.0077706378
-0.0093980074
-0.011098724
-0.012809693
-0.014460012
-0.015966033
-0.017245281
-0.018219497
-0.018829523
-0.019039469
-0.018849915
-0.018288462
-0.017431615
-0.016348492
-0.015195195
-0.014003838
-0.013069995
-0.012219389
0.00064402701
-0.00036668737
-0.00014097501
-0.00061456447
-0.0010115914
-0.0016426789
-0.0024321732
-0.0033962932
-0.0045572185
-0.0058907463
-0.0073974604
-0.0090412117
-0.010787987
-0.01257941
-0.014348775
-0.016013053
-0.017486022
-0.018680634
-0.019523067
-0.019960014
-0.019968091
-0.019561322
-0.018782469
-0.017721238
-0.016456779
-0.015152247
-0.013840597
-0.012819561
-0.011903612
0.00082394753
-0.00039452248
-3.4575077e-05
-0.00052891407
-0.00085492262
-0.0014486843
-0.0021856572
-0.0031018442
-0.0042204746
-0.005521248
-0.0070118883
-0.0086601125
-0.010439358
-0.012296257
-0.01416942
-0.015978536
-0.017636323
-0.019049633
-0.020133269
-0.0208167
-0.021057419
-0.020844592
-0.020208178
-0.019205489
-0.017939326
-0.016497374
-0.015048159
-0.013624012
-0.012522526
-0.01154731
0.00099470652
-0.00042224096
5.6302962e-05
-0.00045460436
-0.0007115528
-0.0012713668
-0.0019546372
-0.0028215853
-0.003893389
-0.0051546226
-0.006619926
-0.0082612058
-0.010059479
-0.011966686
-0.013927676
-0.015866122
-0.017696203
-0.019321527
-0.02064826
-0.021591741
-0.022089939
-0.02211145
-0.021661124
-0.020784707
-0.01955455
-0.018085157
-0.016471488
-0.014885385
-0.013357223
-0.012182428
-0.01115429
0.0011737101
-0.00046354084
0.0001373441
-0.00038196968
-0.00058421553
-0.0011120912
-0.0017410915
-0.002558735
-0.0035804281
-0.0047964351
-0.0062278262
-0.0078512336
-0.0096554228
-0.01159774
-0.013630146
-0.015681139
-0.017668267
-0.019494567
-0.021060635
-0.02227033
-0.023044844
-0.023331117
-0.023112526
-0.022409995
-0.021286135
-0.019827376
-0.018158819
-0.016380866
-0.014666757
-0.013043629
-0.011802928
-0.010728301
0.0013535255
-0.00051344573
0.00021418188
-0.000314157
-0.00046935353
-0.00097092592
-0.0015473254
-0.0023157748
-0.0032854532
-0.0044520042
-0.0058419428
-0.0074372682
-0.0092345788
-0.011197033
-0.013284189
-0.015430123
-0.017557163
-0.019569987
-0.021366529
-0.022842326
-0.023904222
-0.024479776
-0.024529029
-0.024050995
-0.023084466
-0.021708369
-0.020022635
-0.018161053
-0.016227776
-0.014395435
-0.012686806
-0.011387782
-0.010273102
0.0015260388
-0.00056481367
0.0002946801
-0.00027094421
-0.00036028798
-0.00083305765
-0.0013750172
-0.0020952783
-0.0030116314
-0.0041260118
-0.0054684556
-0.0070265712
-0.0088047527
-0.010772638
-0.012897863
-0.015120585
-0.017369131
-0.019551452
-0.021565443
-0.023301398
-0.024654938
-0.025536321
-0.025883911
-0.025672112
-0.024918042
-0.023678418
-0.022048358
-0.020139767
-0.018093295
-0.016014942
-0.01407485
-0.012290464
-0.010940754
-0.0097923365
0.0016851146
-0.00061651162
0.00037578604
-0.00023375565
-0.00026712828
-0.00069115954
-0.0012103355
-0.0018984482
-0.0027623725
-0.003822311
-0.0051129416
-0.0066263007
-0.0083740584
-0.010333165
-0.012479826
-0.014760907
-0.017111659
-0.01944459
-0.021659715
-0.023644941
-0.025287871
-0.026484419
-0.027152857
-0.027243912
-0.026749448
-0.02570536
-0.024186788
-0.022303931
-0.02017907
-0.017957587
-0.015745493
-0.013708653
-0.011858381
-0.010465573
-0.0092895583
0.0018257169
-0.00066658915
0.00045112375
-0.0001946054
-0.00017705411
-0.00058512407
-0.0010492587
-0.0017068412
-0.002539711
-0.0035449652
-0.0047801436
-0.0062430186
-0.0079506354
-0.0098876614
-0.012039397
-0.01436027
-0.016793301
-0.019256602
-0.021654048
-0.023873585
-0.025797935
-0.027311865
-0.028316203
-0.02873896
-0.028546834
-0.02775045
-0.026405654
-0.024605468
-0.02247391
-0.020141609
-0.017756539
-0.015422893
-0.013300641
-0.011394353
-0.0099658848
-0.0087681588
0.0019434185
-0.00071237873
0.00051771951
-0.00015961164
-9.0426816e-05
-0.00049640853
-0.00092213639
-0.0015196209
-0.0023228099
-0.0032963869
-0.0044751171
-0.0058823825
-0.0075421178
-0.0094453263
-0.011586485
-0.013928687
-0.016423616
-0.01899602
-0.02155507
-0.023990734
-0.026183657
-0.028010735
-0.029358422
-0.030134201
-0.030279823
-0.029779794
-0.028665438
-0.027012573
-0.024931469
-0.022558047
-0.020029199
-0.01749325
-0.015050874
-0.012854707
-0.010902136
-0.0094452154
-0.0082313758
0.0020346115
-0.00075156003
0.00057468982
-0.0001314246
-1.0535437e-05
-0.0004066113
-0.00080102849
-0.0013771245
-0.0021121737
-0.0030521646
-0.0042012253
-0.0055503915
-0.0071552513
-0.0090149348
-0.011131332
-0.013476941
-0.01601317
-0.018672613
-0.021371045
-0.024002112
-0.026446759
-0.028577052
-0.030268423
-0.031410617
-0.031922015
-0.03176037
-0.030930653
-0.029485572
-0.027520977
-0.025162865
-0.022557034
-0.019844327
-0.017171243
-0.014633366
-0.012374775
-0.010385411
-0.0089069432
-0.0076822542
0.0020965936
-0.00078230476
0.00062123961
-0.00010906861
5.823403e-05
-0.00032207536
-0.00068131684
-0.0012382736
-0.0019489473
-0.0028151795
-0.0039308641
-0.0052513006
-0.0067972422
-0.0086043767
-0.010683913
-0.013016333
-0.0155735
-0.018297383
-0.021111732
-0.023915412
-0.026591686
-0.029010437
-0.03103934
-0.032553672
-0.033450809
-0.033662575
-0.033166005
-0.031987955
-0.030203245
-0.027926888
-0.025298848
-0.02247243
-0.019590082
-0.016794378
-0.014174433
-0.01186475
-0.0098477407
-0.0083542742
-0.00712365
0.0021278843
-0.0008036089
0.00065661542
-9.1669398e-05
0.00011562811
-0.00024940848
-0.00056924018
-0.0010989789
-0.001782713
-0.0026331839
-0.003667905
-0.0049540946
-0.0064736365
-0.0082221049
-0.010253397
-0.012558068
-0.015116891
-0.01788253
-0.020788357
-0.023740115
-0.02662522
-0.02931365
-0.031668271
-0.033553248
-0.034848008
-0.035460231
-0.035338953
-0.034482596
-0.032941354
-0.030812075
-0.028227599
-0.025339678
-0.022306606
-0.019270074
-0.016366781
-0.013678201
-0.011328471
-0.0092925418
-0.0077902289
-0.006558211
-0.00081444586
0.0021278843
0.00067964035
-7.8788448e-05
0.00016179671
-0.00018904344
-0.00047349009
-0.00096912832
-0.0016177611
-0.0024422368
-0.003462516
-0.0046643837
-0.0061499968
-0.0078750026
-0.0098496776
-0.012112636
-0.014655766
-0.01744125
-0.020413587
-0.023487443
-0.026556255
-0.029492182
-0.032155863
-0.034403502
-0.03609993
-0.037131352
-0.03741986
-0.036934373
-0.035696953
-0.033781736
-0.031307057
-0.028421659
-0.025286652
-0.022062659
-0.018888342
-0.015892763
-0.013148807
-0.010769672
-0.0087230627
-0.0072176269
-0.0059883828
0.00069038522
-0.00081444595
0.0020965935
-7.1001453e-05
0.00019668866
-0.00014086052
-0.00039426454
-0.00085815062
-0.0014633844
-0.0022518889
-0.0032393063
-0.004432167
-0.005832797
-0.0075249513
-0.009481312
-0.011691421
-0.014201997
-0.016987134
-0.020001363
-0.023170317
-0.026395697
-0.029553972
-0.032505896
-0.035102527
-0.037197398
-0.038658433
-0.039382913
-0.039310422
-0.038432762
-0.036796959
-0.03450144
-0.031684591
-0.028508873
-0.025142023
-0.021744324
-0.01844927
-0.015376747
-0.012590342
-0.010191945
-0.008142363
-0.0066390848
-0.0054164015
-6.7785062e-05
0.0006903851
-0.00080360914
0.0020346114
0.00021908957
-0.00010501696
-0.00033107034
-0.00076622633
-0.0013315196
-0.0020734279
-0.0030185534
-0.0041721034
-0.0055727574
-0.0071801236
-0.0091066089
-0.01130477
-0.013768585
-0.016533426
-0.019566335
-0.022803235
-0.026156436
-0.029509276
-0.032724956
-0.035651949
-0.038135509
-0.040028613
-0.041206612
-0.041581185
-0.041113024
-0.039818897
-0.03777195
-0.035094286
-0.031942535
-0.028490243
-0.024908913
-0.021355874
-0.017957493
-0.0148232
-0.012006803
-0.0095987169
-0.0075533056
-0.0060570083
-0.004844302
0.00022930809
-6.778523e-05
0.00067963998
-0.00078230516
0.0019434183
-8.3041051e-05
-0.00028386229
-0.00069289242
-0.0012224546
-0.0019208834
-0.0028112554
-0.0039197203
-0.0052721425
-0.0068919417
-0.0087351169
-0.010907326
-0.013367948
-0.016094758
-0.019123077
-0.022401737
-0.025853244
-0.029370617
-0.032822252
-0.036056562
-0.03891328
-0.041233574
-0.042874119
-0.043721092
-0.043704627
-0.042809337
-0.041078848
-0.038612802
-0.035555717
-0.03208018
-0.028367902
-0.024591221
-0.020902015
-0.017417814
-0.014236567
-0.011402059
-0.008993229
-0.0069585423
-0.005473595
-0.0042739215
-7.4286181e-05
0.00022930788
-7.1001929e-05
0.00065661484
-0.00075156054
0.0018257167
-0.00025426549
-0.00063814502
-0.0011355689
-0.0017946792
-0.0026340308
-0.0036825796
-0.0049821936
-0.0065473019
-0.0084168034
-0.010510608
-0.012951193
-0.015685757
-0.018687876
-0.021981614
-0.025502307
-0.029152715
-0.032809541
-0.036324096
-0.039533253
-0.042269263
-0.044373311
-0.045709106
-0.046177978
-0.045731901
-0.04438206
-0.042200208
-0.039312088
-0.035882814
-0.03209821
-0.028145017
-0.024193501
-0.020387787
-0.016835121
-0.013621227
-0.010779816
-0.0083785149
-0.0063605097
-0.004890841
-0.0037069104
-0.00024154905
-7.4286394e-05
0.00021908899
-7.8789237e-05
0.00062123883
-0.00071237933
0.0016851143
-0.00060385057
-0.0010707938
-0.0016941533
-0.0024875317
-0.0034793601
-0.0047099303
-0.0062159733
-0.0080221801
-0.010160729
-0.012531754
-0.015253972
-0.018277781
-0.021560734
-0.025120444
-0.028872084
-0.032701082
-0.036465097
-0.04000121
-0.043135499
-0.045696629
-0.047528971
-0.048507725
-0.048553118
-0.047642382
-0.045815241
-0.043172299
-0.039864178
-0.036074307
-0.031998628
-0.027825677
-0.023720847
-0.019818462
-0.016214327
-0.012981437
-0.010143584
-0.0077573808
-0.0057614432
-0.0043105645
-0.0031447234
-0.00058915954
-0.00024154928
-8.3041717e-05
0.0001966877
-9.1670434e-05
0.00057468889
-0.0006665898
0.0015260386
-0.0010301745
-0.0016192558
-0.0023709653
-0.0033112431
-0.0044765168
-0.005905018
-0.0076435201
-0.0097106846
-0.012148621
-0.014815289
-0.017836913
-0.021158666
-0.02472699
-0.028546306
-0.032513314
-0.036492891
-0.040325988
-0.043835627
-0.046840692
-0.049169211
-0.050673211
-0.051243328
-0.050822694
-0.049416459
-0.047094638
-0.043986312
-0.04026531
-0.036130523
-0.03178465
-0.027414764
-0.023178783
-0.019199464
-0.015560292
-0.012321277
-0.0094966389
-0.0071324449
-0.0051634177
-0.0037343667
-0.0025886283
-0.0010126951
-0.00058915982
-0.00025426624
-0.00010501801
0.00016179546
-0.00010906987
0.00051771845
-0.00061651229
0.0013535253
-0.0015722481
-0.0022842206
-0.00317749
-0.0042834364
-0.0056382365
-0.0072885871
-0.0092798929
-0.011636699
-0.014397756
-0.017383798
-0.020716121
-0.024344134
-0.028195958
-0.032264218
-0.036423356
-0.040519451
-0.044376251
-0.047805916
-0.050622788
-0.052658685
-0.053777309
-0.053889125
-0.05296355
-0.05103608
-0.048207869
-0.044635461
-0.040513583
-0.036053313
-0.031460576
-0.026917833
-0.022573163
-0.018536277
-0.014877735
-0.011644598
-0.008842092
-0.0065061955
-0.004568242
-0.0031635298
-0.0020398197
-0.0015519526
-0.0010126954
-0.00060385137
-0.00028386348
-0.00014086195
0.00011562658
-0.00013142601
0.00045112262
-0.0005648143
0.0011737098
-0.0022297159
-0.0030780069
-0.0041299035
-0.0054174795
-0.0069839862
-0.0088765241
-0.011147442
-0.013817722
-0.016930882
-0.020254801
-0.023909266
-0.027845844
-0.031975297
-0.036274393
-0.040596334
-0.044767188
-0.048596119
-0.051886703
-0.054453015
-0.056134755
-0.056811852
-0.056418575
-0.054953693
-0.052485006
-0.049144646
-0.045115045
-0.040608919
-0.035845933
-0.031031675
-0.026341001
-0.021910045
-0.017834297
-0.014171171
-0.010955136
-0.0081829747
-0.005880752
-0.0039772095
-0.0025993169
-0.0014994854
-0.0022060653
-0.0015519529
-0.0010301754
-0.00063814634
-0.00033107195
-0.00018904514
5.8232324e-05
-0.00015961317
0.00037578486
-0.0005134463
0.00099470636
-0.0030154104
-0.0040158088
-0.0052419774
-0.0067318959
-0.0085301196
-0.010689851
-0.013264266
-0.016276078
-0.019766224
-0.023447664
-0.02743003
-0.0316739
-0.036067987
-0.040573886
-0.045021382
-0.049218447
-0.052961427
-0.05604935
-0.058300002
-0.059565842
-0.05974718
-0.058805911
-0.056772794
-0.053749049
-0.049896916
-0.045422458
-0.040552976
-0.035512937
-0.030504062
-0.025690788
-0.021195502
-0.017098769
-0.01344508
-0.010256619
-0.0075217989
-0.0052573679
-0.0033917814
-0.0020438922
-0.00096800114
-0.0029881177
-0.0022060656
-0.001572249
-0.0010707952
-0.00069289414
-0.00039426644
-0.00024941042
-1.0537293e-05
-0.00019460696
0.00029467896
-0.00046354128
0.00082394755
-0.0039439174
-0.0051116416
-0.0065315461
-0.0082432679
-0.010296776
-0.012747152
-0.015651804
-0.019030343
-0.022923685
-0.026977983
-0.031290766
-0.035833836
-0.040474
-0.045154745
-0.049683334
-0.053850786
-0.05744424
-0.060262004
-0.062130482
-0.062919488
-0.06255395
-0.061026613
-0.058402527
-0.054816326
-0.05045894
-0.045557141
-0.040349066
-0.035060065
-0.029884506
-0.024973865
-0.020435532
-0.016335032
-0.012704038
-0.0095520389
-0.0068597774
-0.0046379039
-0.0028156006
-0.001498361
-0.00041867359
-0.0039124048
-0.002988118
-0.0022297169
-0.0016192573
-0.0011355708
-0.00076622842
-0.00047349225
-0.00032207744
-9.0428716e-05
-0.0002337572
0.00021418083
-0.00042224122
0.00064402728
-0.0050293932
-0.0063828631
-0.0080153018
-0.0099711092
-0.012302638
-0.015069251
-0.018328998
-0.022100539
-0.026419839
-0.03086015
-0.035499236
-0.040328413
-0.045188367
-0.050004569
-0.05456193
-0.058637537
-0.062012835
-0.064490241
-0.065909717
-0.066163012
-0.065203616
-0.063057991
-0.059826793
-0.055677402
-0.050827302
-0.045520555
-0.040002069
-0.034494018
-0.029180115
-0.024196961
-0.019636429
-0.015548682
-0.011951606
-0.0088425185
-0.0061993188
-0.0040287005
-0.0022501312
-0.00092833445
0.00015578314
-0.0049931497
-0.0039124052
-0.0030154114
-0.0022842222
-0.0016941553
-0.0012224569
-0.00085815293
-0.00056924247
-0.00040661347
-0.00017705601
-0.00027094566
0.0001373433
-0.00039452249
0.00045716593
-0.0062889006
-0.007846208
-0.0097122846
-0.011934076
-0.014568006
-0.017675178
-0.021315545
-0.025504005
-0.030270011
-0.035103897
-0.040060798
-0.045155568
-0.050201579
-0.055105644
-0.059632297
-0.063547712
-0.0666323
-0.068697491
-0.069602271
-0.069264165
-0.067669061
-0.064879526
-0.06103199
-0.056325378
-0.051000945
-0.045316129
-0.039518175
-0.033822064
-0.028398243
-0.02336738
-0.018804955
-0.01474394
-0.01118877
-0.0081312273
-0.0055500783
-0.0034315258
-0.0016468593
-0.00033622089
0.00074142546
-0.0062472837
-0.00499315
-0.0039439184
-0.0030780086
-0.0023709674
-0.0017946816
-0.0013315222
-0.00096913081
-0.00068131922
-0.00049641066
-0.00026713005
-0.00031415823
5.6302524e-05
-0.00036668712
0.0002749785
-0.0077391863
-0.0095203866
-0.011641088
-0.01415203
-0.017111941
-0.020584338
-0.02462907
-0.029256082
-0.034484538
-0.039717065
-0.044976073
-0.050308658
-0.055498688
-0.06043534
-0.064864802
-0.068546515
-0.071264892
-0.072845856
-0.073172357
-0.072191592
-0.069925168
-0.066473107
-0.06200717
-0.056756
-0.050981179
-0.044948982
-0.038904412
-0.033051972
-0.027547201
-0.022493178
-0.017946046
-0.013921497
-0.010419658
-0.0074321874
-0.0049141769
-0.0027705307
-0.0010306822
0.00027149039
0.0013368761
-0.0076915597
-0.0062472841
-0.0050293943
-0.0040158105
-0.0031774921
-0.0024875342
-0.0019208861
-0.0014633871
-0.0010989814
-0.0008010308
-0.00058512609
-0.00036028951
-0.00038197053
-3.4575058e-05
-0.00032855877
0.00010389051
-0.0093987562
-0.011423911
-0.013821227
-0.016643982
-0.019953603
-0.023814525
-0.028284823
-0.033368766
-0.039072348
-0.044702861
-0.05024108
-0.055775548
-0.061059595
-0.065965944
-0.070225411
-0.073595682
-0.075870672
-0.076896521
-0.076584607
-0.074915567
-0.071949173
-0.06782329
-0.062744251
-0.056967756
-0.050771388
-0.044425361
-0.038168625
-0.032192981
-0.026636427
-0.021580023
-0.017059987
-0.01308655
-0.0096636625
-0.0067479375
-0.0041812647
-0.0021064302
-0.00039264824
0.00088984725
0.0019421603
-0.0093443859
-0.0076915601
-0.0062889016
-0.0051116433
-0.0041299057
-0.0033112457
-0.0026340336
-0.0020734307
-0.0016177639
-0.0012382761
-0.00092213857
-0.00069116128
-0.00046935468
-0.00045460478
-0.00014097454
-0.00029579232
-4.8452116e-05
-0.011286059
-0.013576047
-0.016271613
-0.01942886
-0.023110816
-0.027381466
-0.032296616
-0.037852707
-0.044037934
-0.050059882
-0.055846319
-0.061538776
-0.066858954
-0.071664836
-0.075675983
-0.078654108
-0.080408228
-0.080810612
-0.079804623
-0.077408477
-0.073720831
-0.068917621
-0.063238208
-0.056961563
-0.05037637
-0.043752712
-0.037320795
-0.031255937
-0.025672276
-0.020627618
-0.016153323
-0.012265569
-0.0089237701
-0.0059219007
-0.0034583411
-0.0014128017
0.00025662669
0.0015201916
0.0025565019
-0.01122419
-0.0093443862
-0.0077391872
-0.0063828648
-0.0052419796
-0.004283439
-0.0034793629
-0.0028112582
-0.0022518918
-0.0017827157
-0.0013771268
-0.0010492606
-0.000833059
-0.00058421624
-0.00052891403
-0.00025677102
-0.00027770696
-0.00017531316
-0.013420194
-0.015995597
-0.019010968
-0.022524416
-0.026599649
-0.031299372
-0.036675902
-0.042714069
-0.04938122
-0.055781259
-0.061776766
-0.067575645
-0.072866122
-0.077494663
-0.081174947
-0.08367839
-0.08483544
-0.084549848
-0.082800363
-0.079645162
-0.075222884
-0.06974695
-0.063486748
-0.056739998
-0.049802544
-0.042941446
-0.036373122
-0.030247742
-0.024653576
-0.019644164
-0.015260907
-0.011461896
-0.0079864622
-0.0051205619
-0.0026952642
-0.00070807007
0.00091958508
0.002160683
0.0031794795
-0.013349995
-0.01122419
-0.0093987572
-0.0078462096
-0.0065315483
-0.0054174821
-0.0044765196
-0.0036825825
-0.0030185563
-0.0024422395
-0.0019489498
-0.0015196229
-0.0012103369
-0.00097092677
-0.000711553
-0.000614564
-0.00037622607
-0.00027820359
-0.00027283939
-0.015819886
-0.018701112
-0.022056934
-0.025946878
-0.030434531
-0.035580157
-0.041429982
-0.047954962
-0.055096978
-0.06185448
-0.06801231
-0.073857984
-0.079045049
-0.083414206
-0.086677612
-0.088623631
-0.08911045
-0.088077023
-0.085541885
-0.081603337
-0.07644155
-0.070305073
-0.063489394
-0.05630769
-0.049060309
-0.04200495
-0.035332769
-0.029165904
-0.023590526
-0.018674515
-0.014386756
-0.010391058
-0.0070908076
-0.004265999
-0.0019222992
1.1389605e-05
0.0015933882
0.0028110414
0.0038104317
-0.015740489
-0.013349995
-0.01128606
-0.0095203881
-0.0080153038
-0.0067318985
-0.0056382393
-0.0047099332
-0.0039197232
-0.0032393091
-0.0026331864
-0.0021121758
-0.0017068426
-0.0013750181
-0.0011120915
-0.00085492237
-0.00071379632
-0.00049758434
-0.00029890544
-0.00034067615
-0.018503567
-0.021710128
-0.025425759
-0.029710788
-0.034627647
-0.040232155
-0.046562604
-0.053572967
-0.061174408
-0.06826232
-0.074527428
-0.080351322
-0.085355684
-0.089378336
-0.092136937
-0.093444333
-0.093191693
-0.091357524
-0.08800176
-0.083264353
-0.077366173
-0.070587631
-0.063248128
-0.055674461
-0.04816395
-0.040950189
-0.034195262
-0.02802297
-0.02253997
-0.017723701
-0.013159543
-0.0093811128
-0.0061257832
-0.0034033154
-0.0011334261
0.00074200599
0.002277983
0.0034701258
0.0044487605
-0.018414053
-0.015740489
-0.013420195
-0.011423913
-0.0097122865
-0.0082432703
-0.0069839888
-0.0059050208
-0.0049821964
-0.0041721062
-0.0034625185
-0.0028151816
-0.0023228114
-0.0018984491
-0.0015473257
-0.0012713666
-0.0010115907
-0.00082686831
-0.00061991998
-0.00033953537
-0.000381976
-0.021488687
-0.025038852
-0.029132021
-0.0338285
-0.039188047
-0.045260288
-0.052073431
-0.059559958
-0.067598631
-0.074982566
-0.081288802
-0.087017568
-0.091753382
-0.095338556
-0.097504588
-0.098095364
-0.097038835
-0.094358695
-0.090155849
-0.084612756
-0.077987811
-0.07059306
-0.062771531
-0.054855084
-0.047119539
-0.039769749
-0.032975861
-0.026890228
-0.021508342
-0.01631426
-0.012014631
-0.008282434
-0.0051551926
-0.002524788
-0.00033303103
0.001483699
0.0029718205
0.0041371213
0.0050938181
-0.021388108
-0.018414053
-0.015819887
-0.013576048
-0.01164109
-0.0099711113
-0.008530122
-0.0072885898
-0.0062159761
-0.0052721452
-0.0044321693
-0.0036679069
-0.003052166
-0.0025397119
-0.0020952785
-0.0017410913
-0.0014486838
-0.0011802354
-0.00095348717
-0.00074252625
-0.00039791683
-0.00040275928
-0.024791411
-0.028701836
-0.03318813
-0.038309474
-0.044121471
-0.050665681
-0.057956685
-0.065903958
-0.074351151
-0.081982934
-0.0882607
-0.093813671
-0.098188874
-0.1012444
-0.10273194
-0.10253228
-0.10061546
-0.097050893
-0.091983421
-0.085634417
-0.078300501
-0.070328013
-0.062074368
-0.053853764
-0.045915399
-0.038481965
-0.031763328
-0.02577598
-0.019888473
-0.01501122
-0.010757808
-0.0071819379
-0.00416909
-0.0016351037
0.00047820295
0.0022347102
0.0036739188
0.0048109711
0.0057450366
-0.024678793
-0.021388108
-0.018503567
-0.015995598
-0.013821229
-0.011934077
-0.010296778
-0.0088765266
-0.0076435226
-0.0065473043
-0.0055727595
-0.0046643855
-0.0039308654
-0.0032963877
-0.0027623728
-0.0023157746
-0.0019546367
-0.0016426781
-0.001360121
-0.0010928464
-0.0008649817
-0.00047034011
-0.00041062081
-0.028426242
-0.032711479
-0.037603741
-0.043159966
-0.049430034
-0.056444563
-0.064202504
-0.072594082
-0.081399587
-0.089231486
-0.095402452
-0.10069034
-0.10461023
-0.10704449
-0.10777076
-0.10671187
-0.10388919
-0.099409074
-0.093464885
-0.086318114
-0.078308324
-0.069806746
-0.061157707
-0.052652769
-0.044573285
-0.03719679
-0.030568344
-0.023914651
-0.018402044
-0.013568624
-0.0095042143
-0.0060667472
-0.0031725542
-0.00073488681
0.0012987648
0.0029938344
0.0043828939
0.0054912389
0.0064015963
-0.028300587
-0.024678793
-0.021488688
-0.018701113
-0.016271614
-0.014152031
-0.01230264
-0.010689853
-0.0092798951
-0.0080221822
-0.0068919436
-0.0058327986
-0.0049540956
-0.0042012258
-0.0035449653
-0.0030116312
-0.0025587343
-0.0021856564
-0.0018517343
-0.001549832
-0.001243414
-0.00098715959
-0.00055224188
-0.00041311489
-0.032405554
-0.03707751
-0.042385413
-0.048382721
-0.05511137
-0.062589118
-0.070800473
-0.079601676
-0.088715161
-0.096691457
-0.10266489
-0.10759488
-0.11096431
-0.11268704
-0.11257429
-0.11059528
-0.10682897
-0.10140946
-0.094583449
-0.086664795
-0.078024584
-0.069025695
-0.059995361
-0.051277617
-0.043228871
-0.035927849
-0.028431776
-0.022217491
-0.016743093
-0.012135939
-0.0082371769
-0.0049423527
-0.0021660862
0.00017423223
0.0021267866
0.0037594221
0.0050987228
0.006176678
0.0070627751
-0.032265852
-0.028300587
-0.024791411
-0.021710129
-0.019010969
-0.016643983
-0.014568008
-0.012747154
-0.011147444
-0.0097106863
-0.0084168049
-0.0071801247
-0.0061499976
-0.0052513009
-0.004475117
-0.0038223106
-0.0032854525
-0.0028215844
-0.0024321723
-0.002073611
-0.0017474284
-0.0014030553
-0.0011091159
-0.00063901312
-0.00041630503
-0.036739088
-0.041806621
-0.047536229
-0.05397629
-0.061159172
-0.069089132
-0.077726823
-0.086895439
-0.096266772
-0.10431478
-0.10999407
-0.11447386
-0.11719667
-0.11812112
-0.11709688
-0.11414749
-0.10940232
-0.10302867
-0.095337007
-0.086686781
-0.07743942
-0.067947088
-0.058616995
-0.049895267
-0.041899322
-0.033479785
-0.026494467
-0.020308332
-0.015102691
-0.010691575
-0.0069626768
-0.0038090266
-0.0011514175
0.0010899555
0.0029607456
0.0045323151
0.0058190972
0.0068664953
0.0077278422
-0.036584336
-0.032265851
-0.028426242
-0.025038853
-0.022056935
-0.01942886
-0.017111942
-0.015069252
-0.013264267
-0.011636701
-0.01016073
-0.0087351176
-0.0075249517
-0.0064736366
-0.0055503911
-0.0047801428
-0.004126011
-0.0035804272
-0.0031018431
-0.002691906
-0.0023058942
-0.0019507891
-0.0015691942
-0.0012309226
-0.00072669215
-0.00042348523
-0.041433579
-0.04690207
-0.053055312
-0.059935308
-0.06756359
-0.075925209
-0.084951577
-0.094456666
-0.10400997
-0.11204616
-0.11733758
-0.12127133
-0.1232526
-0.12329862
-0.12129876
-0.11733444
-0.11157872
-0.10425938
-0.095737604
-0.08636643
-0.076499851
-0.066604726
-0.057228039
-0.048526861
-0.039101491
-0.031271347
-0.024297786
-0.018428731
-0.013452909
-0.0092420894
-0.0056806489
-0.0026685296
-0.00013120767
0.0020106192
0.0038029433
0.0053091478
0.0065431056
0.0075595204
0.0083961
-0.041262789
-0.036584336
-0.032405554
-0.028701835
-0.025425759
-0.022524416
-0.019953603
-0.017675178
-0.015651805
-0.013817723
-0.012148622
-0.010510608
-0.0091066087
-0.0078750021
-0.0067972414
-0.0058823815
-0.0051129405
-0.0044520031
-0.003893388
-0.0033962922
-0.0029619449
-0.0025459072
-0.0021577018
-0.0017390093
-0.001352469
-0.00081194185
-0.00043632922
-0.046492358
-0.05236327