/*--------------------------------*- C++ -*----------------------------------*\
| =========                 |                                                 |
| \\      /  F ield         | OpenFOAM: The Open Source CFD Toolbox           |
|  \\    /   O peration     | Version:  5.0                                   |
|   \\  /    A nd           | Web:      www.OpenFOAM.org                      |
|    \\/     M anipulation  |                                                 |
\*---------------------------------------------------------------------------*/
FoamFile
{
    version     2.0;
    format      ascii;
    class       surfaceScalarField;
    location    "285";
    object      phi;
}
// * * * * * * * * * * * * * * * * * * * * * * * * * * * * * * * * * * * * * //

dimensions      [0 3 -1 0 0 0 0];

internalField   nonuniform List<scalar> 
18180
(
0.0013063844
-1.3979561
0.0025285291
-1.3076092
0.0012663319
-1.3992225
0.0036649807
-1.2234411
0.0024458915
-1.3087888
0.0012234396
-1.4004459
0.0047227662
-1.1448646
0.0035482068
-1.2245434
0.002366366
-1.3099317
0.0011846683
-1.4016306
0.0057009586
-1.0714847
0.0045747954
-1.1458912
0.0034360228
-1.225613
0.0022929461
-1.31104
0.0011447416
-1.4027753
0.0066039213
-1.0028846
0.0055274231
-1.0724374
0.0044335939
-1.1468888
0.0033336513
-1.2266537
0.0022188437
-1.3121141
0.001104356
-1.4038797
0.0074322839
-0.9387194
0.0064084031
-1.0037655
0.0053622966
-1.0733661
0.004308521
-1.1478636
0.0032307057
-1.2276656
0.002143804
-1.3131535
0.0010615774
-1.4049412
0.008188808
-0.87866942
0.0072191439
-0.93953014
0.0062235088
-1.0046267
0.0052206694
-1.0742782
0.0041830355
-1.148816
0.0031273331
-1.2286491
0.0020646277
-1.3141566
0.0010160096
-1.4059572
0.0088756745
-0.82245066
0.0079615092
-0.87941179
0.0070188529
-0.94032549
0.0060714395
-1.0054775
0.0050790218
-1.0751742
0.004058839
-1.1497475
0.0030184006
-1.2296029
0.0019800606
-1.3151206
0.00096701817
-1.4069243
0.0094959841
-0.76980127
0.00863741
-0.82312656
0.007749671
-0.88014261
0.0068620319
-0.94111608
0.0059198185
-1.0063183
0.0049415133
-1.0760569
0.0039278443
-1.1506569
0.0029020247
-1.2305249
0.001888869
-1.3160425
0.00091386068
-1.4078381
0.010053438
-0.72048673
0.0092491234
-0.77041298
0.0084176677
-0.82379456
0.0075933454
-0.88087392
0.0067062137
-0.94190247
0.005776526
-1.0071533
0.0047961965
-1.0769252
0.0037881284
-1.151543
0.002775601
-1.2314116
0.0017897078
-1.3169183
0.0008563791
-1.4086945
0.010553014
-0.67428719
0.009799269
-0.72103687
0.0090248526
-0.77102017
0.0082664885
-0.8244677
0.007438545
-0.88160625
0.0065642061
-0.94269015
0.0056245839
-1.0079817
0.0046418286
-1.0777789
0.0036357394
-1.1524032
0.0026377039
-1.2322596
0.0016821229
-1.3177441
0.0007944903
-1.409489
0.011001719
-0.63099762
0.010291159
-0.67477908
0.0095737779
-0.7215858
0.0088828214
-0.7716365
0.0081172749
-0.82514643
0.007304304
-0.88234635
0.0064127866
-0.94347836
0.0054641726
-1.0088041
0.0044724092
-1.0786156
0.0034686663
-1.1532341
0.002487866
-1.2330653
0.0015658328
-1.3185154
0.00072835932
-1.4102174
0.011409796
-0.59041723
0.010729553
-0.63143601
0.010067822
-0.67527312
0.0094441505
-0.72214712
0.0087430912
-0.77226232
0.0079965601
-0.82583869
0.0071598167
-0.88309338
0.0062545656
-0.94426875
0.005286531
-1.0096182
0.0042853832
-1.0794323
0.0032856193
-1.1540319
0.0023249878
-1.2338245
0.0014411062
-1.3192282
0.0006582993
-1.4108757
0.011791827
-0.55233793
0.011122267
-0.59080994
0.010511799
-0.63187999
0.0099529267
-0.6757819
0.0093171691
-0.7227212
0.0086408636
-0.77290662
0.0078646386
-0.82654351
0.0070115442
-0.88385036
0.006077136
-0.94505935
0.0050894143
-1.0104222
0.0040791793
-1.0802259
0.0030853249
-1.1547922
0.0021494948
-1.2345329
0.0013084595
-1.3198783
0.00058477234
-1.4114604
0.012167286
-0.51653399
0.011482494
-0.55269816
0.010913166
-0.59121131
0.010412749
-0.63233981
0.0098413565
-0.67630609
0.0092375151
-0.72331785
0.0085262624
-0.77356824
0.0077332025
-0.82726517
0.0068421573
-0.88461538
0.0058793019
-0.94584924
0.0048697451
-1.0112128
0.0038514409
-1.080992
0.0028686238
-1.1555113
0.0019619079
-1.2351863
0.0011687271
-1.3204623
0.00050835613
-1.4119688
0.012558501
-0.4827535
0.011830627
-0.51688212
0.011283736
-0.55306873
0.010829501
-0.59162806
0.010318641
-0.63281709
0.0097873675
-0.67685594
0.0091441065
-0.7239357
0.0084176091
-0.77425265
0.0075788326
-0.82800185
0.0066523508
-0.88538843
0.0056556183
-0.94663511
0.0046248208
-1.0119862
0.0036032195
-1.0817266
0.0026350951
-1.1561845
0.0017633981
-1.235781
0.0010229589
-1.3209769
0.00042971902
-1.4123985
0.012986676
-0.45072014
0.012194128
-0.483117
0.011641072
-0.51723946
0.011213227
-0.55345245
0.010754121
-0.59206354
0.010292217
-0.63332194
0.0097181731
-0.67743001
0.0090631696
-0.72458126
0.0082842942
-0.77495811
0.0074050204
-0.82875451
0.0064336595
-0.88616647
0.0054036219
-0.94741392
0.0043552427
-1.0127382
0.0033333224
-1.0824248
0.0023868191
-1.1568079
0.0015553086
-1.2363133
0.00087239994
-1.3214196
0.00034957666
-1.4127481
0.013466511
-0.42015662
0.012604391
-0.4511304
0.012008333
-0.48348426
0.01158008
-0.51760631
0.011156626
-0.55385496
0.010755663
-0.59252699
0.010249433
-0.6338532
0.0096688122
-0.67803565
0.0089559502
-0.72525291
0.0081335124
-0.7756866
0.0071995798
-0.82952044
0.0061842745
-0.88694712
0.0051227506
-0.94818142
0.0040592701
-1.0134641
0.0030444948
-1.0830825
0.0021246711
-1.1573773
0.0013394273
-1.2367804
0.00071841159
-1.3217884
0.00026867487
-1.4130168
0.014000571
-0.39081699
0.013089715
-0.42064194
0.012411911
-0.45153398
0.011952963
-0.48385714
0.011540465
-0.51799015
0.01118471
-0.55428401
0.010740585
-0.59301814
0.01023433
-0.63441872
0.0095917321
-0.67867143
0.0088341836
-0.72595359
0.0079486944
-0.77643572
0.006961825
-0.83029799
0.0059019426
-0.88772631
0.0048110473
-0.9489332
0.0037397689
-1.0141594
0.002736971
-1.0836948
0.0018514047
-1.1578893
0.0011176671
-1.2371796
0.00056244589
-1.3220822
0.00018782291
-1.4132046
0.014576272
-0.36252098
0.013666853
-0.39139413
0.012875468
-0.4211055
0.01235984
-0.45194086
0.011926326
-0.484243
0.011591807
-0.51839724
0.011197479
-0.5547409
0.010761049
-0.59354486
0.010190429
-0.63501742
0.0095038645
-0.67934111
0.008676355
-0.72668125
0.0077307646
-0.77720466
0.0066873344
-0.83108338
0.0055847017
-0.88849997
0.0044709191
-0.94966435
0.0033965206
-1.0148189
0.0024144551
-1.0842578
0.0015687986
-1.1583404
0.00089219125
-1.2375094
0.00040603834
-1.3223004
0.00010792695
-1.4133125
0.0151666
-0.33517839
0.014334156
-0.36318828
0.013412758
-0.39193142
0.012827897
-0.42157356
0.012340006
-0.45235454
0.011996153
-0.48464735
0.011631029
-0.51883079
0.011253156
-0.55523301
0.01075229
-0.59410672
0.010140166
-0.63565372
0.0093783461
-0.6800431
0.0084854771
-0.72743596
0.0074727028
-0.77799003
0.0063743429
-0.83187302
0.0052340647
-0.88926311
0.0041018628
-0.95036969
0.0030336363
-1.0154381
0.002078435
-1.0847675
0.0012799476
-1.1587282
0.00066525745
-1.2377686
0.0002507659
-1.3224432
3.0036142e-05
-1.4133425
0.015734337
-0.30879352
0.015069019
-0.33591325
0.014021707
-0.36379723
0.013375687
-0.39247921
0.012807594
-0.42204114
0.012423186
-0.45278157
0.012058647
-0.48507497
0.011719642
-0.51929728
0.011280209
-0.55576093
0.010742031
-0.59470858
0.01005119
-0.63632656
0.0092206709
-0.6807783
0.0082515565
-0.72821481
0.0071731607
-0.77878884
0.0060231073
-0.83266206
0.0048493113
-0.89001056
0.0037079396
-0.951044
0.0026524355
-1.0160121
0.001732985
-1.0852205
0.00098748331
-1.1590504
0.00043887436
-1.2379567
9.8569166e-05
-1.3225118
-4.376819e-05
-1.4132988
0.016238385
-0.28344952
0.015830472
-0.30955497
0.01468214
-0.33657369
0.014005975
-0.36442752
0.013348248
-0.39301986
0.012900148
-0.42251811
0.012504257
-0.45322718
0.012176107
-0.48553143
0.011781573
-0.51979864
0.011310825
-0.55632972
0.010692666
-0.59535006
0.0099317236
-0.63703762
0.0090176023
-0.68154434
0.0079738824
-0.72901553
0.0068308194
-0.77959656
0.005632724
-0.83344547
0.0044341004
-0.89073672
0.0032903551
-0.95168192
0.0022575382
-1.0165367
0.001380551
-1.0856136
0.00069436481
-1.1593059
0.00021573883
-1.2380739
-4.9199672e-05
-1.3225063
-0.00011811754
-1.4131807
0.016640323
-0.25927995
0.016565818
-0.28418487
0.015358068
-0.3102309
0.014702154
-0.33726987
0.01396698
-0.36504625
0.013448744
-0.39356846
0.012994476
-0.42300833
0.012645163
-0.45369623
0.012270177
-0.48602004
0.011852116
-0.52033993
0.011302787
-0.55693984
0.010615154
-0.59603349
0.0097651473
-0.63778516
0.008769291
-0.68233975
0.0076492943
-0.72983401
0.0064446344
-0.78040847
0.0052061536
-0.83421753
0.0039894921
-0.89143586
0.0028539462
-0.95227832
0.0018514762
-1.0170076
0.0010251019
-1.0859443
0.00040313766
-1.1594933
-2.9908188e-06
-1.2381201
-0.00019338982
-1.3224311
-0.00018914222
-1.4129915
0.016909768
-0.23643471
0.01721908
-0.25993321
0.016003672
-0.28483047
0.015429562
-0.31095831
0.014650319
-0.3379532
0.014077246
-0.36567475
0.013551816
-0.3941258
0.013153327
-0.42351649
0.012767075
-0.45419313
0.012377772
-0.48654569
0.011885477
-0.52092262
0.011269519
-0.55759421
0.010489532
-0.59675787
0.0095526325
-0.6385685
0.0084705115
-0.68316097
0.0072766639
-0.73066604
0.0060166029
-0.78121892
0.0047442429
-0.83497228
0.0035202678
-0.89210218
0.0024013719
-0.95282822
0.0014388801
-1.0174214
0.00066940306
-1.0862106
0.00011630334
-1.1596126
-0.00021579458
-1.2380977
-0.00033184324
-1.3222884
-0.0002564917
-1.412735
0.017027675
-0.21504886
0.017739111
-0.23695474
0.016570939
-0.26050048
0.01614111
-0.28554202
0.015366631
-0.31167462
0.014775243
-0.3386512
0.014186699
-0.36630964
0.013724518
-0.39469699
0.013298058
-0.42404747
0.012907159
-0.45472252
0.012450705
-0.48711092
0.011896997
-0.5215501
0.011187957
-0.55829263
0.010318073
-0.59752331
0.0092867629
-0.63938475
0.0081201204
-0.68400442
0.006856792
-0.73150623
0.005547288
-0.78202196
0.0042514701
-0.83570348
0.0030291472
-0.89272996
0.0019377056
-0.95332704
0.0010229215
-1.0177749
0.00031697204
-1.0864113
-0.00016397616
-1.1596644
-0.00042091458
-1.2380086
-0.00046384702
-1.322081
-0.00031955283
-1.4124155
0.016987011
-0.19522181
0.01808602
-0.21539577
0.01701654
-0.23740034
0.016785457
-0.26114482
0.01607085
-0.28624624
0.015513185
-0.31241256
0.014891495
-0.339356
0.014371819
-0.36695694
0.013887634
-0.39528656
0.013465273
-0.42460559
0.013016016
-0.45528783
0.012505572
-0.48771949
0.011860958
-0.52222311
0.011061441
-0.559036
0.010091122
-0.59832767
0.0089664445
-0.64023108
0.0077175329
-0.68486517
0.0063898992
-0.73234884
0.0050406275
-0.78281112
0.0037305012
-0.83640483
0.0025214429
-0.89331369
0.0014665111
-0.95377063
0.00060789765
-1.0180658
-2.9434729e-05
-1.0865458
-0.00043531882
-1.15965
-0.00061689274
-1.2378556
-0.00058820009
-1.3218124
-0.00037813815
-1.4120373
0.016789216
-0.17700271
0.018235498
-0.19537128
0.017307015
-0.21568625
0.017314557
-0.23792944
0.016711753
-0.26178573
0.016246786
-0.28697984
0.015639071
-0.31316014
0.015090715
-0.34007489
0.014550748
-0.36762005
0.014077196
-0.39589849
0.013605281
-0.42519485
0.013110841
-0.4558931
0.012514575
-0.48837311
0.011781611
-0.52294328
0.010878133
-0.55982301
0.0098076877
-0.59916892
0.0085895619
-0.64110311
0.007262582
-0.68573785
0.005879162
-0.73318737
0.0044991036
-0.78357972
0.0031866828
-0.83707007
0.0020010295
-0.89384821
0.0009927163
-0.95415545
0.00019716718
-1.0182924
-0.00036673251
-1.0866144
-0.00069579594
-1.1595711
-0.00080236123
-1.2376414
-0.00070434029
-1.3214862
-0.00043205752
-1.4116053
0.016445746
-0.16040106
0.018182286
-0.1769495
0.017422289
-0.19548656
0.017689543
-0.21606124
0.01724084
-0.23845853
0.016924439
-0.26246338
0.016386478
-0.28772725
0.015856653
-0.31392607
0.015285419
-0.34080956
0.014759795
-0.36830265
0.014243697
-0.3965369
0.013735384
-0.42581939
0.01316239
-0.45654092
0.012482641
-0.48907414
0.011645099
-0.52371024
0.010637165
-0.56065249
0.0094640342
-0.60004339
0.0081555341
-0.64199606
0.0067574871
-0.68661617
0.0053267485
-0.73401502
0.0039278837
-0.78432092
0.0026240753
-0.83769312
0.0014733203
-0.89432882
0.00052026367
-0.95447855
-0.00020545721
-1.0184537
-0.00069240935
-1.0866178
-0.00094354107
-1.1594299
-0.00097629916
-1.2373694
-0.00081171206
-1.3211065
-0.00048122467
-1.411124
0.014332478
-0.17038836
0.017930162
-0.16014894
0.017358309
-0.17688552
0.017883025
-0.19568004
0.01761878
-0.21643918
0.017495623
-0.23902971
0.01708242
-0.26315932
0.016627889
-0.28849848
0.016069444
-0.3147101
0.015513753
-0.34156352
0.014949607
-0.36900856
0.014404331
-0.39720585
0.013825475
-0.42648248
0.013176015
-0.45723429
0.012394154
-0.4898232
0.011450648
-0.52452372
0.010333147
-0.5615216
0.0090591512
-0.60094701
0.0076654577
-0.64290403
0.0062039807
-0.68749341
0.0047374322
-0.73482457
0.0033310643
-0.78502791
0.0020484191
-0.83826822
0.00094278482
-0.89475134
5.3673273e-05
-0.95473768
-0.00059682553
-1.0185493
-0.0010040073
-1.0865573
-0.0011771059
-1.1592291
-0.0011378757
-1.2370433
-0.00091005048
-1.3206777
-0.0005256104
-1.4105984
0.012502823
-0.16458499
0.015955056
-0.16841326
0.017117263
-0.15990789
0.017877544
-0.17688004
0.017819494
-0.19588075
0.01791763
-0.21686118
0.017675161
-0.23962245
0.017352477
-0.26388391
0.016862533
-0.28929157
0.016319307
-0.31551565
0.015726039
-0.34233995
0.015137366
-0.3697416
0.01452857
-0.39790894
0.013881129
-0.42718759
0.013134658
-0.45797479
0.012248372
-0.49062092
0.01119125
-0.52538183
0.0099646296
-0.56242708
0.0085928868
-0.60187443
0.0071205252
-0.64382057
0.0056062369
-0.68836221
0.0041151834
-0.73560869
0.0027145334
-0.78569403
0.0014646147
-0.83879005
0.00041459485
-0.89511226
-0.00040324287
-0.95493126
-0.00097380285
-1.0185795
-0.0012995541
-1.0864349
-0.0013952631
-1.1589717
-0.0012865508
-1.2366668
-0.00099918858
-1.3202041
-0.00056523909
-1.4100332
0.010866765
-0.15877921
0.014217967
-0.1628479
0.015214275
-0.16651027
0.017675254
-0.1597056
0.017831559
-0.17689211
0.018159752
-0.19612287
0.018120166
-0.21730619
0.017977058
-0.24024703
0.017612967
-0.26463434
0.017137562
-0.29010983
0.016555587
-0.3163452
0.015939818
-0.34314241
0.015292366
-0.37050539
0.014622115
-0.39864993
0.013884191
-0.42793713
0.013037542
-0.45876396
0.012036757
-0.49146643
0.010864992
-0.52628219
0.0095301249
-0.56336432
0.0080658033
-0.60281971
0.0065241223
-0.64473846
0.0049679342
-0.68921496
0.0034658415
-0.73635999
0.0020834928
-0.7863129
0.00087839443
-0.83925385
-0.00010676781
-0.89540873
-0.00084661348
-0.95505845
-0.0013338024
-1.0185452
-0.0015773265
-1.0862528
-0.0015971434
-1.1586611
-0.0014219812
-1.236244
-0.0010791204
-1.3196902
-0.00060019333
-1.409433
0.0093417924
-0.15314587
0.012610088
-0.15717133
0.013543669
-0.16117729
0.015845887
-0.1646809
0.017654536
-0.15952858
0.018204538
-0.17693689
0.018385307
-0.19638801
0.018454727
-0.21778386
0.01826634
-0.24090041
0.017916779
-0.26541356
0.017400872
-0.29095511
0.016796636
-0.31720202
0.016124258
-0.3439743
0.015420469
-0.37130375
0.014666026
-0.39943177
0.013833787
-0.42873337
0.012874743
-0.45960195
0.011756925
-0.49235836
0.010469018
-0.52722108
0.0090294946
-0.56432801
0.0074803374
-0.60377593
0.0058794769
-0.64565
0.0042946585
-0.69004378
0.002794753
-0.73707125
0.0014441089
-0.78687862
0.00029487147
-0.83965549
-0.00061668807
-0.89563866
-0.0012731582
-0.9551191
-0.0016744976
-1.0184481
-0.0018360266
-1.0860139
-0.0017821348
-1.158301
-0.0015440444
-1.2357791
-0.0011499438
-1.3191405
-0.00063059458
-1.4088024
0.0078602926
-0.14786832
0.011039231
-0.15157501
0.012003409
-0.15563107
0.014224044
-0.15955545
0.01589685
-0.16292322
0.018049889
-0.15937393
0.018453222
-0.17700481
0.018750481
-0.19668377
0.018773864
-0.21829138
0.018601294
-0.24158492
0.018210388
-0.26622308
0.017671947
-0.29183042
0.017011465
-0.31808922
0.016285537
-0.34483937
0.015502194
-0.37213991
0.014659312
-0.40025729
0.013718799
-0.42957743
0.012643395
-0.46048842
0.011404642
-0.49329398
0.010002429
-0.52819402
0.0084640936
-0.56531176
0.0068391179
-0.60473557
0.0051917183
-0.64654706
0.0035917264
-0.69084075
0.0021083613
-0.73773551
0.00080204279
-0.78738579
-0.00028061833
-0.83999156
-0.0011111379
-0.89580068
-0.0016798551
-0.95511374
-0.0019940515
-1.0182901
-0.002074669
-1.0857214
-0.0019499162
-1.1578951
-0.0016527921
-1.2352762
-0.0012118594
-1.3185592
-0.00065660709
-1.4081458
0.0063723893
-0.1431286
0.0094330413
-0.14626213
0.010504387
-0.15007599
0.012703515
-0.15411054
0.014329644
-0.15798824
0.016348277
-0.1612216
0.018320187
-0.1592409
0.018843805
-0.17709813
0.019098411
-0.19700831
0.019140253
-0.21883034
0.018927451
-0.24230199
0.018514396
-0.26706552
0.017919648
-0.29273861
0.017206781
-0.31901047
0.016403795
-0.34574097
0.015536463
-0.37301707
0.014589863
-0.40112836
0.013535878
-0.43046991
0.012337928
-0.4614217
0.010978212
-0.49426977
0.0094653962
-0.52919532
0.0078358212
-0.56630847
0.0061466271
-0.60569048
0.0044659496
-0.64742129
0.0028656758
-0.69159807
0.0014127517
-0.73834621
0.00016329884
-0.78782971
-0.00084328329
-0.84025941
-0.0015863246
-0.89589421
-0.0020642178
-0.95504357
-0.0022909868
-1.0180737
-0.0022926305
-1.0853787
-0.0021004058
-1.1574475
-0.0017484365
-1.2347396
-0.0012651494
-1.3179507
-0.0006784236
-1.4074674
0.0048473969
-0.13909818
0.0077425346
-0.14143809
0.008975517
-0.14473326
0.011191986
-0.14856446
0.012847992
-0.15262889
0.014816185
-0.15645615
0.016675945
-0.15957736
0.0187294
-0.15912649
0.019217604
-0.17721732
0.019494144
-0.1973622
0.01949934
-0.21940223
0.019266152
-0.24305374
0.018797688
-0.26794356
0.018151412
-0.29368324
0.017362465
-0.31996914
0.016477952
-0.34668245
0.015510363
-0.37393756
0.014453875
-0.40204635
0.013278212
-0.43141019
0.011955835
-0.46239933
0.010476561
-0.49528093
0.0088589792
-0.53021848
0.0071483399
-0.56731018
0.0054075709
-0.6066321
0.0037086055
-0.64826422
0.0021228634
-0.69230818
0.00071449712
-0.73889741
-0.00046660254
-0.78820639
-0.0013885156
-0.84045722
-0.0020390193
-0.89591941
-0.0024241582
-0.9549104
-0.0025642598
-1.0178021
-0.002489594
-1.0849895
-0.0022337461
-1.1569622
-0.0018313224
-1.2341735
-0.0013101647
-1.3173189
-0.00069626362
-1.4067711
0.0032729872
-0.13592797
0.0059439842
-0.13729963
0.0073684639
-0.13983104
0.0096169051
-0.14315818
0.011359489
-0.14707596
0.01334769
-0.15116039
0.015185627
-0.15496583
0.017131661
-0.15797962
0.01912408
-0.15903297
0.019638318
-0.1773615
0.01988436
-0.19774722
0.019872495
-0.22000857
0.01958666
-0.24384271
0.019068509
-0.26886066
0.018346977
-0.29466775
0.017477555
-0.32096874
0.016494451
-0.34766654
0.015419687
-0.37490338
0.014243412
-0.40301155
0.012942488
-0.43239685
0.011494767
-0.46341753
0.0098998163
-0.49632177
0.0081858709
-0.53125601
0.006405783
-0.56830839
0.0046280781
-0.60755157
0.0029261366
-0.64906749
0.0013702876
-0.69296397
1.9791193e-05
-0.73938381
-0.0010822299
-0.78851267
-0.0019122722
-0.84058397
-0.0024664102
-0.89587716
-0.0027580851
-0.95471658
-0.0028131989
-1.0174785
-0.0026655355
-1.0845577
-0.0023502697
-1.1564432
-0.0019019083
-1.2335817
-0.0013473103
-1.3166679
-0.00071036286
-1.4060608
0.0016524338
-0.13373962
0.0040376219
-0.13402161
0.0056587561
-0.13558993
0.0079300188
-0.13814415
0.0097911369
-0.14158982
0.011850163
-0.14557843
0.013741469
-0.14971623
0.015669736
-0.15350391
0.017574215
-0.15642976
0.019563908
-0.15895856
0.02005576
-0.1775329
0.020289454
-0.19816418
0.020229859
-0.22065177
0.019897958
-0.24467216
0.019306643
-0.26982033
0.018505627
-0.29569582
0.017537992
-0.32201228
0.016448765
-0.34869562
0.015255504
-0.37591547
0.013954388
-0.40402345
0.012525097
-0.43342718
0.010953863
-0.46447158
0.0092495809
-0.49738548
0.0074494697
-0.5322997
0.0056137744
-0.56929409
0.0038145007
-0.60843994
0.0021257978
-0.649823
0.00061471178
-0.69355889
-0.00066516693
-0.73980087
-0.0016786857
-0.78874626
-0.0024109258
-0.84063945
-0.002866235
-0.89576901
-0.003064843
-0.95446493
-0.0030374987
-1.0171065
-0.002820685
-1.0840873
-0.0024504753
-1.1558947
-0.0019607429
-1.2329683
-0.0013770306
-1.3160012
-0.00072097073
-1.4053398
-0.13261835
1.269656e-08
0.0020443201
-0.13174632
0.0038455907
-0.13220844
0.0061097061
-0.13376961
0.0080947643
-0.13644778
0.010249988
-0.13998965
0.012247127
-0.14408409
0.014235262
-0.14828176
0.016143573
-0.15207327
0.018055494
-0.15492134
0.020002666
-0.15890546
0.020488245
-0.17773169
0.020681038
-0.19861536
0.020580899
-0.22133471
0.020180136
-0.24554566
0.019511698
-0.2708264
0.018612962
-0.29677079
0.017539042
-0.32310256
0.016331091
-0.34977121
0.015013006
-0.37697409
0.013581985
-0.40508034
0.012024166
-0.43449748
0.010333547
-0.46555555
0.0085283763
-0.49846439
0.0066547081
-0.53334063
0.0047783698
-0.57025796
0.0029741593
-0.6092883
0.001314774
-0.65052306
-0.00013696828
-0.69408709
-0.0013346195
-0.74014494
-0.0022514644
-0.78890572
-0.0028814296
-0.84062426
-0.0032367208
-0.89559713
-0.003343717
-0.95415871
-0.0032371786
-1.01669
-0.0029555
-1.0835822
-0.0025349969
-1.1553204
-0.0020084431
-1.2323369
-0.0013997996
-1.3153224
-0.0007283425
-1.4046114
-0.13057404
1.1583285e-08
-0.13261834
-0.0016524084
0.0019481675
-0.1298489
0.0041603789
-0.13025912
0.0062496784
-0.13192453
0.0084986918
-0.13469649
0.01062734
-0.13836986
0.012730124
-0.14257895
0.014720695
-0.14685888
0.016649078
-0.15066685
0.018535904
-0.15345458
0.0204566
-0.15887382
0.02090937
-0.17796002
0.021068607
-0.19910307
0.020906372
-0.22206095
0.020433125
-0.24646708
0.01966914
-0.27188258
0.01866418
-0.29789593
0.01747016
-0.32424163
0.016135968
-0.35089417
0.014686235
-0.37807834
0.01312332
-0.40617949
0.011438889
-0.43560282
0.00963535
-0.46666252
0.0077402738
-0.49954995
0.0058071486
-0.53436941
0.0039067522
-0.57119055
0.0021144866
-0.61008801
0.00050054516
-0.65116057
-0.0008781962
-0.69454351
-0.0019831514
-0.74041325
-0.0027966436
-0.78899051
-0.0033212666
-0.84053971
-0.0035766067
-0.89536424
-0.0035943911
-0.9538015
-0.0034125551
-1.016233
-0.0030706284
-1.0830466
-0.0026045753
-1.1547243
-0.0020456791
-1.231691
-0.0014161079
-1.3146346
-0.00073273639
-1.4038787
-0.12862588
1.1130065e-08
-0.13057404
-0.002044297
-0.13373962
-0.003272962
0.002109208
-0.12779772
0.0042622415
-0.12827168
0.0065766996
-0.13000253
0.0088336758
-0.13290282
0.011077455
-0.13671719
0.013206021
-0.14106428
0.015232277
-0.14544208
0.01715472
-0.14928567
0.019029088
-0.15202707
0.020901015
-0.15886547
0.021328034
-0.17821945
0.021434056
-0.19963075
0.021206402
-0.22283422
0.0206425
-0.24744044
0.019774237
-0.27299263
0.018648148
-0.29907392
0.017325325
-0.32543099
0.015856374
-0.35206431
0.014271324
-0.37922634
0.012576346
-0.40731695
0.010769731
-0.4367372
0.0088623403
-0.46778459
0.0068901581
-0.50063296
0.0049136313
-0.53537629
0.0030064091
-0.57208247
0.0012433872
-0.61083085
-0.00030962474
-0.65172915
-0.001602656
-0.69492401
-0.0026059088
-0.74060398
-0.0033108513
-0.78900092
-0.0037284926
-0.84038783
-0.0038851044
-0.89507353
-0.0038169234
-0.95339713
-0.0035642002
-1.0157394
-0.0031668731
-1.0824843
-0.0026600363
-1.1541099
-0.0020731534
-1.2310339
-0.0014264548
-1.3139409
-0.00073440856
-1.4031443
-0.12651668
1.0653157e-08
-0.12862588
-0.0019481454
-0.13174631
-0.004037599
-0.13592797
-0.0048473718
0.0021628558
-0.12569834
0.0044933299
-0.12618831
0.0068480698
-0.12801693
0.0092282623
-0.13105363
0.011521432
-0.1350326
0.013703547
-0.13953555
0.015744387
-0.14403175
0.017669843
-0.14792642
0.019513311
-0.15063936
0.021343863
-0.1588813
0.021727827
-0.17851322
0.02177744
-0.20020179
0.021466962
-0.22365869
0.020803719
-0.24846993
0.019815474
-0.27415996
0.018558419
-0.30030701
0.017096541
-0.32667115
0.015487493
-0.35328048
0.013764994
-0.38041499
0.011940421
-0.40848764
0.010018649
-0.43789351
0.0080185607
-0.46891299
0.005984325
-0.50170365
0.0039814927
-0.53635137
0.0020854843
-0.57292457
0.00036871759
-0.61150919
-0.0011085845
-0.65222322
-0.0023045393
-0.69522537
-0.0031985775
-0.74071626
-0.0037913312
-0.78893808
-0.0041017043
-0.84017123
-0.0041618808
-0.89472857
-0.0040117018
-0.95294963
-0.0036929005
-1.0152134
-0.0032451647
-1.0818992
-0.0027022628
-1.1534808
-0.002091589
-1.2303688
-0.0014313389
-1.313244
-0.0007336103
-1.4024107
-0.12435384
1.0348268e-08
-0.12651668
-0.0021091868
-0.12984889
-0.0038455688
-0.1340216
-0.0059439616
-0.13909818
-0.0063723645
0.0022833166
-0.12348833
0.0046836331
-0.12402387
0.0071659889
-0.12595465
0.0096179254
-0.12915012
0.011983204
-0.13331226
0.014201546
-0.13799271
0.016263412
-0.14262532
0.018177116
-0.14659023
0.019994108
-0.14928961
0.021770639
-0.15892411
0.022108392
-0.17884417
0.022085446
-0.20082028
0.021683745
-0.22453871
0.020905133
-0.24955958
0.019786154
-0.27538769
0.018386155
-0.30159663
0.016778097
-0.32796176
0.015024834
-0.35454032
0.013165479
-0.38164005
0.011216319
-0.40968531
0.0091887138
-0.43906366
0.0071095771
-0.47003824
0.0050297513
-0.50275191
0.0030189148
-0.5372848
0.0011522636
-0.57370812
-0.00050164877
-0.61211613
-0.0018895898
-0.65263817
-0.0029785414
-0.69544541
-0.0037574808
-0.74075011
-0.004235925
-0.78880386
-0.0044400334
-0.83989307
-0.0044070133
-0.89433326
-0.0041793997
-0.95246313
-0.0037996248
-1.0146589
-0.0033065259
-1.0812949
-0.0027321775
-1.1528402
-0.0021017139
-1.2296984
-0.0014312517
-1.3125463
-0.00073058555
-1.4016801
-0.12207053
1.0056044e-08
-0.12435384
-0.0021628352
-0.12779772
-0.0041603579
-0.13220844
-0.0056587345
-0.13729962
-0.0077425124
-0.14312859
-0.0078602679
0.0023807304
-0.12118542
0.0049066629
-0.12176455
0.0074800243
-0.12381675
0.010021615
-0.12718853
0.012445313
-0.13155603
0.014704656
-0.13643395
0.016775527
-0.14122373
0.018679667
-0.14527579
0.020459989
-0.14797896
0.022180528
-0.15899624
0.022457432
-0.17921616
0.022353938
-0.20149047
0.021845233
-0.22547881
0.020939981
-0.25071341
0.019676786
-0.27667832
0.018124848
-0.30294338
0.01636432
-0.32930124
0.014465492
-0.35584033
0.012472325
-0.38289605
0.010406046
-0.41090264
0.0082846037
-0.44023869
0.0061418083
-0.4711503
0.004034447
-0.50376745
0.0020344198
-0.53816696
0.00021522016
-0.57442498
-0.0013601008
-0.61264562
-0.0026463344
-0.65297037
-0.0036199842
-0.69558291
-0.0042795775
-0.74070646
-0.0046430817
-0.78860081
-0.004743106
-0.83955698
-0.0046209457
-0.89389171
-0.0043209392
-0.95194182
-0.0038854806
-1.01408
-0.0033520481
-1.080675
-0.0027507216
-1.1521912
-0.0021042517
-1.2290254
-0.0014266726
-1.3118502
-0.00072556823
-1.4009545
-0.11968981
9.8260007e-09
-0.12207053
-0.0022832966
-0.12569833
-0.0042622212
-0.13025911
-0.0061096856
-0.13558992
-0.0073684426
-0.14143808
-0.0094330194
-0.14786831
-0.0093417679
0.0024956521
-0.11877441
0.0051270381
-0.11941156
0.0078046452
-0.12159978
0.010425726
-0.12516895
0.012911199
-0.12976257
0.015201629
-0.13486005
0.017282296
-0.13982636
0.019168686
-0.14398448
0.020909846
-0.14670828
0.022562304
-0.15910111
0.022770837
-0.17963306
0.022571805
-0.20221704
0.021944772
-0.2264836
0.020898375
-0.251935
0.019480238
-0.27803372
0.017767719
-0.30434678
0.015851162
-0.33068691
0.013807748
-0.35717576
0.011686401
-0.38417641
0.0095132667
-0.4121313
0.0073120039
-0.44140889
0.0051228827
-0.47223873
0.0030069645
-0.50473999
0.0010369118
-0.53898865
-0.00071730101
-0.57506778
-0.0021993607
-0.61309259
-0.0033730982
-0.65321726
-0.0042248388
-0.69563765
-0.0047624918
-0.74058705
-0.0050118261
-0.78833209
-0.0050110018
-0.83916692
-0.0048044478
-0.8934082
-0.0044374405
-0.95138986
-0.0039516843
-1.0134803
-0.0033828633
-1.0800429
-0.0027588402
-1.1515366
-0.002099912
-1.2283522
-0.0014180627
-1.3111577
-0.00071878027
-1.4002358
-0.11719417
9.6139739e-09
-0.11968981
-0.0023807108
-0.12348832
-0.0044933102
-0.12827167
-0.0062496585
-0.1337696
-0.0079299987
-0.13983103
-0.0089754962
-0.14626212
-0.01103921
-0.15314586
-0.01086674
0.0026092063
-0.11625658
0.0053544827
-0.1169614
0.0081295781
-0.11930364
0.010832362
-0.12309011
0.013371725
-0.12793267
0.015693406
-0.13327116
0.017776963
-0.13843463
0.019642299
-0.14271694
0.021333941
-0.14547991
0.022911847
-0.15924212
0.023038141
-0.18009939
0.022732591
-0.20300486
0.021972358
-0.22755759
0.020772787
-0.25322755
0.019188781
-0.27945478
0.017309615
-0.30580523
0.015235603
-0.33211477
0.013051269
-0.35854062
0.010810264
-0.3854734
0.0085427911
-0.41336209
0.0062779692
-0.44256397
0.0040611721
-0.47329294
0.0019564373
-0.50565952
3.5342394e-05
-0.53974129
-0.0016371212
-0.57563002
-0.0030126672
-0.61345302
-0.0040647912
-0.65337731
-0.0047897784
-0.69561036
-0.0052044959
-0.74039438
-0.005341725
-0.78800137
-0.0052442133
-0.83872716
-0.0049585605
-0.89288708
-0.0045301859
-0.95081136
-0.0039995266
-1.0128637
-0.0034001248
-1.0794016
-0.0027574685
-1.1508791
-0.0020893802
-1.2276809
-0.0014058612
-1.3104707
-0.00071043488
-1.3995253
-0.11458497
9.3756616e-09
-0.11719417
-0.0024956331
-0.12118542
-0.0046836138
-0.1261883
-0.0065766803
-0.13192452
-0.0080947449
-0.13814414
-0.0096168854
-0.14473325
-0.010504366
-0.151575
-0.012610066
-0.1587792
-0.012502799
0.0027263277
-0.11362843
0.0055821866
-0.11441401
0.0084562485
-0.11692752
0.011234853
-0.12095324
0.013827525
-0.12606678
0.016174199
-0.1316684
0.018257126
-0.13704946
0.020092885
-0.14147588
0.021728494
-0.14429656
0.023219401
-0.15942338
0.023253093
-0.18061989
0.022826459
-0.20385896
0.021920314
-0.22870512
0.020554784
-0.25459355
0.018796282
-0.28094145
0.016746213
-0.30731584
0.014516029
-0.33357953
0.012197405
-0.35992777
0.0098477305
-0.38677834
0.0075009337
-0.41458506
0.0051904909
-0.44369329
0.0029658293
-0.47430233
0.00089225051
-0.50651642
-0.0009613623
-0.54041705
-0.0025364814
-0.57610621
-0.0037938372
-0.61372398
-0.0047170365
-0.65345005
-0.0053121806
-0.69550268
-0.0056044885
-0.74013161
-0.005632851
-0.78761273
-0.0054435883
-0.83824213
-0.0050845534
-0.89233272
-0.0046005784
-0.9502103
-0.0040303464
-1.0122335
-0.0034049858
-1.0787541
-0.0027475144
-1.1502209
-0.0020733127
-1.2270134
-0.0013904928
-1.3097906
-0.00070072833
-1.3988246
-0.11185865
9.0398371e-09
-0.11458497
-0.0026091877
-0.11877441
-0.0049066441
-0.12402387
-0.006848051
-0.13000252
-0.0084986731
-0.13644777
-0.0097911181
-0.14315817
-0.011191967
-0.15007598
-0.012003389
-0.15717132
-0.014217946
-0.16458498
-0.014332453
0.0028435845
-0.11088982
0.0058109687
-0.11176873
0.0087798019