/*--------------------------------*- C++ -*----------------------------------*\
| =========                 |                                                 |
| \\      /  F ield         | OpenFOAM: The Open Source CFD Toolbox           |
|  \\    /   O peration     | Version:  5.0                                   |
|   \\  /    A nd           | Web:      www.OpenFOAM.org                      |
|    \\/     M anipulation  |                                                 |
\*---------------------------------------------------------------------------*/
FoamFile
{
    version     2.0;
    format      ascii;
    class       volVectorField;
    location    "285";
    object      U;
}
// * * * * * * * * * * * * * * * * * * * * * * * * * * * * * * * * * * * * * //

dimensions      [0 1 -1 0 0 0 0];

internalField   nonuniform List<vector> 
9200
(
(1.0429815 -0.00053142187 -4.2626472e-24)
(1.0432844 -0.0016224897 -9.3660871e-21)
(1.0445094 -0.00052864471 0)
(1.0438802 -0.0025869748 4.8154352e-21)
(1.0448079 -0.0016326915 -7.229712e-21)
(1.0452015 -0.00052555872 0)
(1.0446374 -0.0035247203 4.8184051e-22)
(1.0453987 -0.002593528 -3.3822441e-22)
(1.0454995 -0.0016400574 0)
(1.0462095 -0.00052149878 0)
(1.045544 -0.0043683434 -9.2146109e-21)
(1.0461494 -0.0035416941 -5.3939784e-21)
(1.0460902 -0.002601563 -4.0272843e-21)
(1.0465065 -0.0016513734 -2.4766902e-22)
(1.0470296 -0.00051617968 -3.4061743e-25)
(1.0465339 -0.0051635036 -8.5270439e-21)
(1.0470417 -0.0043895673 6.6022316e-22)
(1.0468372 -0.0035592921 -1.3003635e-20)
(1.0471 -0.0026130148 -4.9381572e-21)
(1.0473281 -0.0016599165 3.3499423e-23)
(1.0478921 -0.00050873593 1.0057414e-20)
(1.0475785 -0.0058870255 -7.9729754e-21)
(1.0480136 -0.0051949855 -8.9566844e-21)
(1.0477243 -0.0044135691 7.8571585e-21)
(1.0478473 -0.0035853607 4.7168965e-22)
(1.0479255 -0.002621431 -4.9748569e-21)
(1.0481953 -0.0016662581 -4.8447595e-21)
(1.0486924 -0.00049881755 -7.6705657e-22)
(1.0486392 -0.0065533856 -3.4484686e-21)
(1.0490323 -0.0059275573 -6.2525419e-21)
(1.0486881 -0.0052298663 -8.5658864e-21)
(1.0487332 -0.004451165 1.7734514e-22)
(1.0486746 -0.0036077058 1.1894374e-20)
(1.0488021 -0.0026258033 5.1825809e-21)
(1.0490013 -0.0016671816 6.1129117e-21)
(1.0494725 -0.00048585065 -9.2649617e-21)
(1.049691 -0.0071583888 9.6319851e-21)
(1.0500609 -0.0066052733 -7.2549848e-21)
(1.0496957 -0.0059735646 2.6618146e-22)
(1.0496925 -0.005286133 -4.3500224e-21)
(1.0495616 -0.0044853355 3.2696538e-22)
(1.0495611 -0.0036269563 1.8275896e-20)
(1.049618 -0.0026219452 -3.2791784e-21)
(1.049792 -0.0016614357 1.0170348e-20)
(1.0502129 -0.00046944392 1.9350108e-20)
(1.0507112 -0.0077069341 -7.2222779e-21)
(1.0510734 -0.0072217962 3.6334131e-21)
(1.05071 -0.0066645342 1.9555454e-22)
(1.0506918 -0.0060499662 -8.663847e-22)
(1.0505193 -0.0053394575 1.5157218e-21)
(1.0504584 -0.0045182644 3.8721282e-22)
(1.0503882 -0.0036360125 -6.3941624e-21)
(1.0504255 -0.002607194 -1.0961005e-20)
(1.0505446 -0.0016470277 -5.9681142e-21)
(1.0509167 -0.00044903251 -1.5043003e-21)
(1.051682 -0.008200747 3.3264663e-21)
(1.0520479 -0.0077824165 -1.4611896e-22)
(1.0517047 -0.0072952205 -5.8418828e-21)
(1.0516932 -0.006764946 5.9568384e-21)
(1.0515139 -0.0061245177 -8.4152663e-21)
(1.0514247 -0.0053953456 1.862562e-20)
(1.0512971 -0.0045398938 6.5014129e-23)
(1.051217 -0.00363168 -1.7716986e-20)
(1.0511968 -0.0025785329 8.5588853e-21)
(1.051264 -0.00162181 -1.7788746e-20)
(1.0515788 -0.00042433323 2.5201069e-21)
(1.0525865 -0.0086436937 -1.4121491e-22)
(1.0529676 -0.0082878173 1.152916e-21)
(1.052658 -0.0078711848 4.9341494e-21)
(1.0526706 -0.0074217361 0)
(1.0525068 -0.006864839 -1.1022557e-22)
(1.0524256 -0.0062069681 -2.4491315e-22)
(1.0522741 -0.005439398 3.7904923e-21)
(1.0521497 -0.0045470291 8.99103e-21)
(1.0520105 -0.003609145 6.2042315e-22)
(1.0519392 -0.0025331478 1.0575228e-20)
(1.0519446 -0.0015844216 6.9207765e-21)
(1.0521965 -0.00039508555 -1.5183182e-21)
(1.0534018 -0.0090404405 -1.2750231e-22)
(1.053818 -0.0087409654 7.5665816e-22)
(1.0535534 -0.0083928375 0)
(1.053602 -0.0080259829 0)
(1.0534715 -0.0075493133 3.057189e-21)
(1.053421 -0.0069796804 -3.8984771e-21)
(1.0532832 -0.0062776761 8.1770489e-21)
(1.0531507 -0.0054694533 -1.021671e-20)
(1.052968 -0.0045329124 -8.9539646e-22)
(1.0527866 -0.003564539 -1.170178e-23)
(1.0526465 -0.002468744 -1.1920562e-20)
(1.0525836 -0.0015334146 1.1932525e-20)
(1.0527663 -0.0003611399 -2.2337161e-20)
(1.0540834 -0.0093977 4.1432635e-22)
(1.0545817 -0.0091449898 -1.6088461e-22)
(1.0543768 -0.0088633392 2.7666727e-21)
(1.0544713 -0.0085772504 -3.0725337e-21)
(1.0543861 -0.0081835376 3.2628879e-21)
(1.0543843 -0.0077003661 -8.2179486e-22)
(1.0542838 -0.0070833169 -2.7180265e-21)
(1.0541819 -0.0063364488 3.0141117e-23)
(1.053995 -0.0054760409 -1.0025812e-20)
(1.0537825 -0.0044924862 -9.2694267e-21)
(1.0535305 -0.0034945488 -3.373299e-21)
(1.0533161 -0.0023827259 -9.1581447e-21)
(1.0531775 -0.001467754 -5.9416721e-21)
(1.0532852 -0.0003224298 5.8316563e-21)
(1.0545387 -0.0097262893 4.6489214e-21)
(1.0552253 -0.0095048195 -3.4301075e-21)
(1.0551126 -0.0092859874 1.2587915e-21)
(1.0552657 -0.0090781549 5.3730738e-23)
(1.0552348 -0.008766246 -8.9762994e-24)
(1.055293 -0.0083744934 7.9960819e-22)
(1.0552482 -0.0078410763 -2.6283067e-21)
(1.0552011 -0.0071788928 3.4947075e-21)
(1.0550519 -0.006370461 -7.458686e-23)
(1.0548495 -0.0054537252 1.0029041e-21)
(1.0545655 -0.0044217625 2.0899055e-22)
(1.0542436 -0.0033955675 1.2564943e-21)
(1.053944 -0.0022736541 1.1435464e-20)
(1.0537229 -0.0013866467 -5.1619395e-21)
(1.0537505 -0.00027898151 3.9855809e-21)
(1.0545912 -0.010038167 -1.506791e-21)
(1.055675 -0.0098297664 3.570715e-21)
(1.0557313 -0.0096658506 -1.342217e-21)
(1.0559718 -0.0095311164 2.8576243e-21)
(1.0560054 -0.0092996289 -3.1380831e-21)
(1.0561313 -0.0089997173 8.061409e-21)
(1.0561536 -0.00855611 -7.1485647e-21)
(1.0561803 -0.0079793999 1.3841366e-22)
(1.0560951 -0.0072491389 2.5742919e-21)
(1.0559459 -0.006374775 2.0020424e-22)
(1.0556768 -0.0053969633 2.3535195e-20)
(1.0553319 -0.0043152786 -5.6054024e-21)
(1.0549205 -0.0032652721 -3.8188096e-21)
(1.0545268 -0.0021401798 -1.9494076e-21)
(1.0542168 -0.0012896329 -8.4506456e-22)
(1.0541596 -0.00023090562 -4.1278027e-21)
(1.053946 -0.01035458 0)
(1.0557812 -0.010132143 2.7825762e-21)
(1.0561674 -0.010011751 -2.2039646e-21)
(1.056566 -0.0099401728 0)
(1.0566862 -0.0097855832 0)
(1.0568876 -0.0095774592 0)
(1.0569843 -0.0092248899 -2.6819495e-23)
(1.0570958 -0.0087427088 -6.1334762e-21)
(1.0570947 -0.0080924391 1.3862147e-21)
(1.0570262 -0.0072906005 -7.3319111e-21)
(1.0568187 -0.0063413861 -2.4488937e-22)
(1.0564999 -0.0052989593 -5.0576166e-21)
(1.0560637 -0.0041710849 6.8153786e-23)
(1.0555577 -0.0031012989 4.31825e-21)
(1.055061 -0.0019816059 1.4890597e-21)
(1.0546565 -0.0011765475 2.2288907e-21)
(1.0545106 -0.00017839089 0)
(1.0521642 -0.010692291 8.3761589e-22)
(1.0552782 -0.010435719 -5.8091891e-21)
(1.0562843 -0.010334892 5.1939302e-21)
(1.0569933 -0.010312761 1.6233801e-21)
(1.0572576 -0.010227677 2.9599111e-21)
(1.0575515 -0.01010859 0)
(1.0577288 -0.0098480474 3.0611753e-21)
(1.0579317 -0.0094639197 -2.1836298e-22)
(1.0580262 -0.0089046274 -1.0763769e-20)
(1.0580595 -0.0081793066 1.1085346e-21)
(1.0579441 -0.0072920124 4.3250004e-21)
(1.0577001 -0.006263006 -5.5251505e-22)
(1.0572941 -0.0051569595 -9.2791446e-21)
(1.0567667 -0.003984366 1.5319899e-20)
(1.0561511 -0.0029024728 4.6480649e-21)
(1.0555435 -0.001797584 1.6212008e-20)
(1.0550397 -0.0010475388 5.9982809e-21)
(1.0548023 -0.00012170157 4.0286892e-21)
(1.0486929 -0.011069133 3.7558969e-23)
(1.053748 -0.010764848 -2.4460249e-21)
(1.055833 -0.010656272 -1.6700835e-21)
(1.0571348 -0.010659156 3.3992375e-21)
(1.0576731 -0.010632585 -3.1122605e-22)
(1.0581067 -0.010595543 4.1586794e-21)
(1.058378 -0.010425588 2.4467714e-21)
(1.0586764 -0.010142629 -6.0200568e-21)
(1.0588729 -0.0096793579 -2.1594277e-21)
(1.0590202 -0.0090446537 7.3184611e-21)
(1.0590197 -0.0082248307 -7.2600665e-23)
(1.0588833 -0.0072462853 1.0237855e-20)
(1.0585603 -0.0061353359 -3.1017289e-21)
(1.0580704 -0.0049646345 -1.1666614e-21)
(1.0574291 -0.0037548156 -2.155795e-21)
(1.0566971 -0.0026678006 -2.8004419e-21)
(1.0559713 -0.0015883382 4.8969391e-21)
(1.0553645 -0.00090304623 2.8323307e-22)
(1.0550337 -6.1192667e-05 2.8038595e-21)
(1.0429309 -0.011493587 5.1015879e-22)
(1.050637 -0.011148312 3.1048731e-21)
(1.0544124 -0.0109971 -1.2637002e-20)
(1.0567638 -0.010999718 -8.628496e-22)
(1.0578275 -0.011009779 2.389039e-21)
(1.0585145 -0.011043479 1.7576718e-21)
(1.0589187 -0.010959191 4.6706159e-22)
(1.0593215 -0.010777617 6.151567e-21)
(1.0596234 -0.010415149 -8.6651328e-22)
(1.0598908 -0.0098787311 -9.6882486e-21)
(1.0600183 -0.0091430302 1.3009981e-20)
(1.0600144 -0.008222724 -2.2954316e-21)
(1.0598107 -0.0071468941 -4.9100032e-21)
(1.0594139 -0.0059509326 4.3464797e-22)
(1.0588121 -0.0047213831 -1.3464977e-21)
(1.0580517 -0.0034793646 -1.0052524e-20)
(1.0571921 -0.0023973021 3.7535045e-22)
(1.056342 -0.0013544533 -8.1267274e-21)
(1.0556296 -0.00074380664 -1.8520027e-21)
(1.0552048 2.6724583e-06 -2.3218619e-21)
(1.0343298 -0.011962177 -2.9937848e-22)
(1.0453112 -0.011607403 4.0614564e-21)
(1.0514774 -0.011382573 -1.2098167e-21)
(1.0555008 -0.011357187 3.3596458e-21)
(1.0575131 -0.011377983 1.4135306e-21)
(1.0586836 -0.011460456 -2.3292659e-21)
(1.0593186 -0.011453067 4.2504984e-21)
(1.0598561 -0.011369312 6.7897134e-21)
(1.0602697 -0.011109586 -8.6167393e-21)
(1.0606594 -0.01067882 0)
(1.0609217 -0.010037091 -8.654628e-21)
(1.0610647 -0.0091949544 1.8470035e-22)
(1.0610077 -0.0081637627 9.4556326e-21)
(1.0607438 -0.0069856941 -4.0515354e-21)
(1.0602411 -0.005708194 5.206222e-21)
(1.0595228 -0.0044225171 -9.1127901e-21)
(1.0586264 -0.003159095 -2.7368608e-21)
(1.057633 -0.0020913735 1.8962798e-21)
(1.056654 -0.0010969455 -3.3218903e-21)
(1.0558346 -0.0005708029 -7.4051262e-22)
(1.0553154 6.9281079e-05 -1.2816249e-21)
(1.0224998 -0.012458048 -3.7639274e-21)
(1.037157 -0.012149982 3.0907777e-21)
(1.0463865 -0.011831216 6.2401729e-21)
(1.0528096 -0.011759892 -7.6208907e-21)
(1.0563711 -0.011758827 -4.2142197e-21)
(1.0584266 -0.011863816 1.7691441e-21)
(1.0594991 -0.011914499 0)
(1.0602538 -0.011920369 6.3602705e-21)
(1.060803 -0.011762 1.5121812e-21)
(1.0613183 -0.011441055 -1.2273406e-20)
(1.0617172 -0.010903035 -3.8044864e-21)
(1.0620144 -0.010151822 1.05679e-21)
(1.0621205 -0.0091880489 9.7819388e-23)
(1.0620197 -0.0080394299 -4.2792121e-21)
(1.0616603 -0.0067594672 4.2398413e-21)
(1.0610472 -0.0054011357 -3.7090323e-21)
(1.0601911 -0.0040691644 1.1810908e-21)
(1.059152 -0.0027928098 -5.9417236e-21)
(1.0580173 -0.0017513636 -2.7330964e-21)
(1.0569063 -0.00081717366 -5.522461e-22)
(1.0559795 -0.00038520452 -9.9796138e-22)
(1.055366 0.00013740973 0)
(1.0072898 -0.012953144 -2.51474e-21)
(1.0256973 -0.012765755 -1.3330083e-21)
(1.0384995 -0.012349591 2.4875489e-22)
(1.0480361 -0.012231142 -6.7860725e-21)
(1.0538781 -0.012179765 -2.3254435e-21)
(1.0574071 -0.012274941 2.5539807e-21)
(1.0592906 -0.01235919 -4.7992148e-21)
(1.0604473 -0.012436585 6.8147384e-21)
(1.0612017 -0.012373774 3.4928654e-21)
(1.0618597 -0.012163353 2.0875594e-22)
(1.062397 -0.01173551 2.2365626e-23)
(1.0628501 -0.011088001 -1.3937802e-21)
(1.0631279 -0.010207027 1.1427356e-21)
(1.0632089 -0.0091138027 -7.9477682e-21)
(1.0630262 -0.0078444832 -1.0600146e-20)
(1.0625666 -0.0064611087 -8.9787667e-21)
(1.0618181 -0.0050301794 1.7613915e-21)
(1.0608167 -0.0036588623 1.1225909e-20)
(1.0596231 -0.0023828563 -9.1819002e-23)
(1.0583423 -0.0013796724 -2.325411e-21)
(1.0570982 -0.00051730615 0)
(1.0560641 -0.00018868133 1.1050492e-21)
(1.0553613 0.00020262526 2.2343463e-22)
(0.98882028 -0.013413061 1.3622377e-20)
(1.0106889 -0.01342627 -2.8434992e-21)
(1.0272959 -0.012927949 7.1640198e-21)
(1.0405013 -0.012782551 3.7283701e-21)
(1.0493751 -0.012664608 -8.25377e-21)
(1.0551177 -0.012722567 0)
(1.0583796 -0.012807924 -1.0047622e-21)
(1.0602857 -0.012931801 4.8856111e-21)
(1.0614087 -0.01294956 3.5730334e-21)
(1.0622666 -0.012845464 -5.1257477e-22)
(1.0629546 -0.012531046 -6.9066199e-21)
(1.0635635 -0.011996497 -4.1494104e-21)
(1.0640151 -0.011213999 5.5835275e-21)
(1.0642883 -0.010194602 -8.3386514e-21)
(1.064304 -0.0089645998 1.2046733e-20)
(1.064035 -0.0075708058 1.960969e-20)
(1.0634471 -0.0060897856 9.0089882e-22)
(1.0625538 -0.0045917225 4.6703894e-21)
(1.0613914 -0.0031941316 -9.8254898e-21)
(1.0600377 -0.0019300405 -4.7987181e-22)
(1.058607 -0.00097799735 3.2505201e-21)
(1.0572286 -0.00020118727 -5.119763e-22)
(1.0560887 1.4514418e-05 -1.0669918e-21)
(1.0553016 0.00027737246 1.7365619e-22)
(0.96746648 -0.01380294 3.8010834e-21)
(0.99217411 -0.014089286 -7.8573419e-22)
(1.0124809 -0.013540178 -2.9968762e-23)
(1.0296251 -0.01340824 -1.6112105e-20)
(1.0421551 -0.013226881 5.7356342e-21)
(1.0508977 -0.013233416 -9.8141858e-21)
(1.0562759 -0.013289004 -8.6592105e-22)
(1.0594785 -0.013425951 -8.7778464e-21)
(1.0612898 -0.013501303 4.0902633e-21)
(1.0624909 -0.013490462 2.7029635e-21)
(1.0633761 -0.013287861 -6.4264151e-21)
(1.0641486 -0.012872246 4.0926727e-21)
(1.0647735 -0.012200347 -5.4002427e-21)
(1.0652416 -0.01127376 -1.201756e-23)
(1.0654681 -0.010104283 1.0170275e-20)
(1.0654149 -0.0087314448 1.2580246e-21)
(1.0650287 -0.0072159183 -3.3350963e-23)
(1.0643016 -0.0056407308 7.8417944e-21)
(1.0632443 -0.0040878232 0)
(1.0619131 -0.0026749145 1.5364777e-21)
(1.0603921 -0.0014376946 3.6571228e-22)
(1.0588098 -0.00054927436 -5.1064544e-22)
(1.0572985 0.00013152621 -9.680906e-22)
(1.0560566 0.00023009408 1.1892238e-21)
(1.0551863 0.00035328817 1.5956216e-21)
(0.94380151 -0.014092639 -1.3411092e-20)
(0.97047775 -0.0147058 -4.5850427e-22)
(0.99404774 -0.014147812 2.1256017e-21)
(1.0150432 -0.01408363 1.7655766e-21)
(1.0315883 -0.013863348 1.5911679e-20)
(1.044014 -0.013824676 1.6378063e-22)
(1.0523208 -0.01383012 -8.2947705e-22)
(1.0575556 -0.013947284 6.5992214e-22)
(1.0605773 -0.014048049 6.5821164e-21)
(1.0624149 -0.014108146 -3.895601e-21)
(1.0636218 -0.014007491 4.5163952e-21)
(1.0645944 -0.013711705 -1.7629678e-22)
(1.0653969 -0.013159363 -1.6885614e-21)
(1.066059 -0.012340993 2.5675169e-21)
(1.0665009 -0.011254192 3.4857159e-22)
(1.0666786 -0.0099263771 -1.4575233e-20)
(1.0665231 -0.008409884 -2.1714557e-20)
(1.0660075 -0.0067738146 -1.1717445e-20)
(1.0651184 -0.0051150447 -1.531853e-20)
(1.0638868 -0.0035175937 -4.2028205e-22)
(1.0623763 -0.0021048209 1.1789704e-20)
(1.0606846 -0.00090799727 -4.3342882e-22)
(1.0589502 -9.5926275e-05 -1.0210501e-22)
(1.0573088 0.00047889025 -1.300093e-21)
(1.0559696 0.00045231278 1.8448502e-21)
(1.0550197 0.00042914386 -5.4775889e-23)
(0.91851711 -0.014260132 6.0588121e-22)
(0.94615736 -0.015227228 -1.0968357e-21)
(0.97228359 -0.014706804 -8.942175e-21)
(0.99668428 -0.014768942 9.4155061e-21)
(1.0172482 -0.014551717 -1.3843017e-20)
(1.0337861 -0.014496381 8.3601505e-21)
(1.0457588 -0.014450669 3.716752e-21)
(1.0538644 -0.014525264 8.3912414e-21)
(1.0588222 -0.014617396 -9.3660646e-21)
(1.0617937 -0.014716346 -3.9157286e-21)
(1.0635885 -0.014697695 1.5092054e-21)
(1.0648681 -0.01451457 -1.1024127e-20)
(1.0658767 -0.014085758 1.089511e-20)
(1.0667344 -0.013387845 -1.2095222e-21)
(1.0673911 -0.012402395 2.9825993e-21)
(1.0678061 -0.011145107 -5.8720177e-22)
(1.0678998 -0.009654203 -4.8173343e-21)
(1.067629 -0.0079926098 4.559668e-21)
(1.0669579 -0.0062442425 -5.5277871e-21)
(1.065894 -0.0045108763 -9.5392341e-22)
(1.0644739 -0.0028844873 0)
(1.0627784 -0.0014858339 3.7134414e-21)
(1.0609133 -0.00034468257 1.8084989e-21)
(1.0590286 0.00037940307 0)
(1.0572611 0.00083836567 1.8005416e-21)
(1.0558296 0.00068088115 -6.012883e-22)
(1.054804 0.00050488468 -2.6745909e-21)
(0.89234153 -0.014294828 4.6432965e-21)
(0.91992389 -0.015611309 -1.6982171e-22)
(0.94772493 -0.015174906 -7.5991267e-21)
(0.97478874 -0.015416295 9.2598906e-22)
(0.9990025 -0.015253266 -2.399619e-21)
(1.0197209 -0.015228177 -9.2984643e-21)
(1.0358621 -0.015153522 -4.7511937e-22)
(1.0476312 -0.015182368 -6.808069e-21)
(1.0553809 -0.015239809 3.1430579e-25)
(1.0602015 -0.015341805 7.9029251e-21)
(1.0630535 -0.015374767 -3.7893105e-21)
(1.0648806 -0.015286384 1.0356628e-21)
(1.0661859 -0.014977351 -2.7310726e-21)
(1.0672604 -0.014407133 3.169313e-21)
(1.068132 -0.01353873 -7.3113395e-22)
(1.0687848 -0.012374138 3.8764431e-21)
(1.0691367 -0.010937416 4.5679786e-21)
(1.069133 -0.0092791355 2.6945037e-20)
(1.0687179 -0.0074776669 9.358989e-21)
(1.067876 -0.0056241855 1.0817044e-20)
(1.0666193 -0.0038310701 7.2510931e-21)
(1.065002 -0.002190147 -2.8086861e-21)
(1.0631159 -0.00082237122 -5.0969655e-22)
(1.0610776 0.00024900834 0)
(1.0590458 0.000873112 0)
(1.0571576 0.0012071383 -2.8103332e-23)
(1.0556393 0.00091278765 4.5409895e-21)
(1.0545431 0.00057998551 5.9045234e-21)
(0.86597201 -0.014199933 0)
(0.89254933 -0.015831483 -8.6335722e-22)
(0.92108271 -0.015517497 6.9252039e-21)
(0.94986959 -0.015977384 3.2315653e-21)
(0.97704419 -0.01591963 9.72087e-21)
(1.0016167 -0.015981619 5.0935668e-22)
(1.0220739 -0.015920557 -6.0434053e-21)
(1.0380834 -0.015924959 -1.0730526e-20)
(1.049466 -0.015940015 1.2799714e-20)
(1.0570069 -0.016015953 -3.8237266e-21)
(1.0616144 -0.016064341 4.9507216e-22)
(1.0644307 -0.016041545 3.9222626e-21)
(1.066248 -0.015837474 -9.7975101e-21)
(1.0676151 -0.01539462 5.8264172e-21)
(1.068717 -0.014654092 3.7089431e-21)
(1.0696067 -0.013601576 3.2193684e-23)
(1.0702191 -0.012244612 3.7041629e-21)
(1.0704948 -0.010621207 -2.78689e-21)
(1.0703623 -0.0087972242 1.3461195e-20)
(1.0697853 -0.0068606615 2.0429315e-21)
(1.0687508 -0.0049154733 6.3843538e-21)
(1.0672894 -0.0030767032 3.9372819e-21)
(1.065466 -0.0014392328 -8.4798831e-22)
(1.0633871 -0.00011806386 -6.3694703e-21)
(1.0611771 0.0008686496 -3.2711905e-21)
(1.0590033 0.0013818248 1.3685903e-21)
(1.0570006 0.0015823724 -4.3276973e-21)
(1.0554013 0.001146861 3.7155412e-21)
(1.05424 0.0006542973 -1.0304967e-20)
(0.84004383 -0.013970236 -1.4291547e-20)
(0.86476779 -0.01589017 0)
(0.89316063 -0.015705008 0)
(0.92263598 -0.016409598 0)
(0.95185874 -0.01650061 -2.5207904e-21)
(0.97960625 -0.016706094 8.708106e-21)
(1.0041259 -0.016713857 -9.5116676e-22)
(1.0245982 -0.016737582 -1.4139546e-21)
(1.0402635 -0.016727284 1.663293e-20)
(1.0514121 -0.016765965 -1.5747842e-20)
(1.0586551 -0.016798292 9.6905981e-21)
(1.063141 -0.016804333 -3.3581568e-21)
(1.0658823 -0.016678387 1.5249666e-21)
(1.0677334 -0.01635128 -8.1011053e-21)
(1.0691282 -0.015742147 3.7222352e-21)
(1.0702655 -0.014816384 4.6948116e-21)
(1.0711378 -0.013562264 1.0160757e-21)
(1.0716975 -0.012002702 -9.7536464e-21)
(1.0718639 -0.010190306 -4.3425295e-21)
(1.071583 -0.0082025182 -8.4777907e-21)
(1.0708188 -0.006142019 -7.7623603e-21)
(1.0695763 -0.004118318 3.2169635e-21)
(1.0678974 -0.0022522511 7.5991646e-21)
(1.0658627 -0.00063553408 -2.4591493e-21)
(1.0635903 0.00062188117 -1.9797304e-21)
(1.0612125 0.0015100861 8.1569512e-23)
(1.0589027 0.0019016996 -3.3570977e-21)
(1.0567927 0.0019614551 2.2864522e-21)
(1.055119 0.0013813144 -1.5694648e-20)
(1.0538985 0.00072742593 -6.8530169e-21)
(0.81295739 -0.013583429 -1.1288386e-21)
(0.83732472 -0.015747545 -9.5939621e-22)
(0.86479114 -0.015724894 0)
(0.89389915 -0.016680084 0)
(0.92415339 -0.016951942 0)
(0.95414429 -0.017348802 0)
(0.98209714 -0.017482363 0)
(1.0068338 -0.017583138 3.1083333e-22)
(1.0270871 -0.017588589 -8.0955244e-21)
(1.0425641 -0.017604373 1.7603069e-20)
(1.0533717 -0.017605799 -9.3134547e-22)
(1.0604129 -0.017606786 1.0897979e-20)
(1.0647363 -0.017522758 -1.4068674e-20)
(1.0674544 -0.017286935 1.694155e-21)
(1.0693107 -0.016801478 -4.8255754e-23)
(1.0707467 -0.016010025 5.0827488e-21)
(1.0718861 -0.014877418 -9.8240611e-21)
(1.0727301 -0.013408585 -1.0800972e-21)
(1.073203 -0.011639852 1.362257e-20)
(1.073239 -0.0096370686 6.0706616e-21)
(1.0727813 -0.0074936841 1.0523135e-21)
(1.071811 -0.005320767 9.4932385e-21)
(1.0703437 -0.0032366007 5.4049609e-22)
(1.0684386 -0.001361398 -2.8952951e-21)
(1.0661889 0.0002152196 4.5439382e-21)
(1.0637251 0.001392603 3.4206227e-21)
(1.0611848 0.0021685818 7.5675434e-22)
(1.0587463 0.0024292027 1.4106455e-21)
(1.0565369 0.0023418414 2.3895021e-22)
(1.0547956 0.0016148972 1.2359705e-20)
(1.0535219 0.00079914008 4.5307069e-21)
(0.78421551 -0.012970903 1.5817695e-20)
(0.80865633 -0.015421452 -4.7486044e-22)
(0.83664309 -0.015596904 4.365679e-21)
(0.86448298 -0.016783618 4.8051955e-21)
(0.89476245 -0.017236564 0)
(0.92593086 -0.017859958 0)
(0.95640291 -0.018170368 -3.8861156e-22)
(0.98480411 -0.018408847 9.5556759e-21)
(1.0095225 -0.018487773 -1.5779048e-20)
(1.0297128 -0.018520922 1.8601826e-20)
(1.0448763 -0.018502371 2.3078234e-21)
(1.05544 -0.018479982 -9.8933203e-21)
(1.0622313 -0.018402367 -4.7711782e-22)
(1.0664507 -0.018222359 -5.8613805e-22)
(1.0691218 -0.017839282 -4.1224435e-21)
(1.071004 -0.017178586 1.2249139e-21)
(1.0724517 -0.016179378 1.0646228e-21)
(1.073585 -0.01482407 -4.3405262e-22)
(1.0743666 -0.013129527 5.0973078e-21)
(1.074731 -0.011146652 2.7183013e-20)
(1.0746054 -0.0089580943 8.6147013e-21)
(1.0739488 -0.0066682572 -7.0119522e-21)
(1.0727514 -0.0043997747 9.9792229e-21)
(1.0710466 -0.0022735703 9.2204805e-21)
(1.068908 -0.00041009388 3.3277193e-21)
(1.0664427 0.0011076489 2.462991e-21)
(1.0637911 0.0021884413 1.1335123e-21)
(1.0610954 0.0028396563 -1.9796139e-21)
(1.0585368 0.002960738 2.9486326e-21)
(1.0562363 0.0027212536 -1.0816729e-21)
(1.0544347 0.0018462949 7.054875e-21)
(1.053114 0.0008691382 5.0296374e-22)
(0.7558892 -0.012135236 -5.3064198e-21)
(0.7782127 -0.014853101 1.7798607e-21)
(0.80727775 -0.015269336 -6.4834555e-21)
(0.83518725 -0.016688773 -4.8974018e-21)
(0.86455366 -0.017345419 0)
(0.89581324 -0.01819609 0)
(0.92772985 -0.018724636 0)
(0.95888205 -0.019155704 -1.6585509e-21)
(0.98751742 -0.019371134 1.2126611e-20)
(1.0123672 -0.019480539 1.3593634e-20)
(1.0323569 -0.019480507 2.4544575e-21)
(1.0473026 -0.019442508 -2.0973813e-21)
(1.0575627 -0.019349831 1.9760897e-20)
(1.064166 -0.01918871 -1.5525608e-20)
(1.0682595 -0.018874183 4.9212045e-21)
(1.0709118 -0.018326435 0)
(1.0727957 -0.017461681 1.1574994e-21)
(1.0742513 -0.016236295 1.4269129e-21)
(1.0753457 -0.01464286 1.2430514e-20)
(1.0760433 -0.012713889 -1.1468231e-21)
(1.0762659 -0.010517384 -1.3559622e-20)
(1.075954 -0.008149148 -4.8429292e-21)
(1.0750733 -0.0057276837 -1.0949253e-20)
(1.0736319 -0.0033814887 -1.0589613e-20)
(1.0716781 -0.0012350441 4.3927413e-22)
(1.069302 0.00059593866 2.4288774e-21)
(1.0666225 0.0020352922 -1.4181843e-21)
(1.0637892 0.0030039776 -1.8135309e-22)
(1.0609465 0.0035187032 4.5107668e-21)
(1.058277 0.003493008 1.3177213e-21)
(1.0558945 0.0030975504 1.1090163e-21)
(1.0540398 0.0020744006 -2.0923179e-20)
(1.0526782 0.00093720788 7.8971418e-21)
(0.72876512 -0.011080183 -4.8067537e-21)
(0.74799639 -0.014018894 2.7188367e-22)
(0.77608299 -0.014698533 -1.2003945e-20)
(0.80464128 -0.016366862 -6.5075648e-21)
(0.83433197 -0.017278953 3.0097631e-21)
(0.86468562 -0.018356151 -2.0970865e-23)
(0.89693761 -0.019097489 1.4450695e-20)
(0.92973878 -0.019765927 -7.8608051e-21)
(0.96139749 -0.020176976 -5.4988155e-24)
(0.99040365 -0.020428367 -2.952354e-20)
(1.0152461 -0.020506395 1.3299507e-20)
(1.0351273 -0.020489821 1.6129555e-20)
(1.0497826 -0.020386626 -1.6746359e-21)
(1.0598005 -0.020219904 -4.7910005e-21)
(1.066191 -0.019936334 -6.2865861e-21)
(1.0701932 -0.019469751 -4.5575903e-21)
(1.0728086 -0.018725765 5.3904923e-22)
(1.0746966 -0.017636211 1.4214273e-20)
(1.0761302 -0.016164925 -2.4287177e-22)
(1.0771654 -0.014320833 -2.6399273e-21)
(1.0777444 -0.012153468 -4.0670465e-21)
(1.0777981 -0.0097458145 -1.8444738e-20)
(1.0772707 -0.0072098625 3.0176673e-21)
(1.0761449 -0.0046732235 -3.0613351e-21)
(1.0744435 -0.0022711943 -1.3377192e-20)
(1.0722327 -0.00012679734 -3.42782e-21)
(1.0696175 0.001649624 -1.9063693e-21)
(1.066728 0.0029918584 -3.3213928e-21)
(1.0637206 0.0038335271 6.3213953e-22)
(1.0607407 0.0042013964 -8.7053678e-22)
(1.0579702 0.0040228663 2.1530159e-21)
(1.0555148 0.0034688296 -7.5325995e-23)
(1.0536145 0.0022981931 8.741978e-21)
(1.0522181 0.0010031345 -1.5201019e-20)
(0.70363906 -0.009810971 5.012001e-21)
(0.71885796 -0.012906301 -3.9230322e-22)
(0.74494563 -0.013864531 1.3819892e-20)
(0.77216993 -0.015801195 3.3713568e-21)
(0.80280694 -0.016974 -1.0393553e-20)
(0.83342533 -0.01832357 -1.4313805e-20)
(0.86495262 -0.01928854 -1.8242085e-21)
(0.89824437 -0.02018633 0)
(0.9318129 -0.020843485 -8.4140414e-21)
(0.9640956 -0.021299638 -3.2165617e-20)
(0.99334547 -0.021524276 2.3693294e-21)
(1.0182677 -0.021589523 -6.0637087e-21)
(1.0379588 -0.021511182 0)
(1.0523817 -0.02134026 -3.292295e-21)
(1.0621253 -0.021060598 1.2133501e-20)
(1.0683408 -0.020637299 6.6659854e-21)
(1.0722375 -0.019985094 -5.4730282e-21)
(1.0748254 -0.019022263 0)
(1.0766924 -0.017684131 -7.3545042e-21)
(1.0780867 -0.015950635 -9.7679992e-21)
(1.079028 -0.013847204 -1.9204036e-20)
(1.07946 -0.01143986 -5.6915941e-21)
(1.0793124 -0.0088294156 0)
(1.0785445 -0.0061399294 -1.3143765e-20)
(1.0771526 -0.0035091988 4.5553285e-22)
(1.0751788 -0.0010743713 1.2312914e-22)
(1.0727055 0.0010437514 -5.53636e-21)
(1.0698525 0.0027439093 1.8389448e-21)
(1.0667592 0.003970618 4.3516622e-22)
(1.0635873 0.0046716683 5.9347469e-21)
(1.0604808 0.0048835533 -9.9140987e-21)
(1.0576199 0.0045474622 -4.7278906e-21)
(1.055101 0.0038333736 0)
(1.0531622 0.0025167904 -3.3403993e-22)
(1.0517368 0.0010667608 -4.6688441e-21)
(0.68128723 -0.0083406895 3.6289953e-21)
(0.69168777 -0.011513636 1.0492937e-21)
(0.71478607 -0.012757552 1.2577462e-20)
(0.73961015 -0.014945494 1.059937e-21)
(0.76932241 -0.016400579 -3.0283208e-21)
(0.80079025 -0.01799911 -7.1221923e-22)
(0.83268396 -0.019272042 -1.148754e-20)
(0.86535708 -0.020420579 4.7166315e-22)
(0.89963961 -0.02131203 0)
(0.93406881 -0.022028027 1.0264559e-20)
(0.96687197 -0.022466476 -1.1226895e-20)
(0.99644669 -0.022684908 2.8442838e-21)
(1.0213655 -0.022692652 -6.2697119e-21)
(1.0409204 -0.022551329 8.3637371e-21)
(1.0550696 -0.022273967 -1.9578395e-22)
(1.0645755 -0.02186456 1.3802517e-20)
(1.0706016 -0.021266692 -8.1560693e-21)
(1.0744086 -0.020404897 4.4295182e-21)
(1.07695 -0.019195871 1.385341e-20)
(1.0787836 -0.017589243 -6.6171614e-21)
(1.0801055 -0.01558004 1.3724014e-20)
(1.0809241 -0.013211291 1.7596356e-21)
(1.0811739 -0.010568085 0)
(1.0807962 -0.0077659534 -3.6089608e-21)
(1.079762 -0.004942264 1.3022196e-22)
(1.0780869 -0.0022403902 5.1673172e-21)
(1.0758305 0.00020154908 4.5840039e-21)
(1.0730926 0.0022690145 2.3928351e-21)
(1.0700059 0.0038710986 4.4372455e-22)
(1.0667172 0.0049650379 0)
(1.0633915 0.0055130675 -3.9421133e-21)
(1.0601701 0.0055613158 -1.0509556e-20)
(1.0572295 0.0050641942 1.9359663e-20)
(1.0546565 0.0041896861 -6.3654906e-21)
(1.0526865 0.002729432 5.2669897e-22)
(1.0512378 0.0011279503 1.642197e-20)
(0.66242903 -0.0066913631 -3.3704716e-21)
(0.66737602 -0.0098514643 -1.3158149e-22)
(0.68656031 -0.011376679 -3.7802544e-21)
(0.70792114 -0.013787736 2.5324284e-23)
(0.73553702 -0.015535816 1.2257002e-20)
(0.76609032 -0.017426022 1.0196811e-20)
(0.79898297 -0.018966375 -1.7264764e-22)
(0.83204216 -0.02042757 -9.4627434e-21)
(0.86586372 -0.021588511 5.0444826e-22)
(0.90120349 -0.022548916 -8.7628642e-21)
(0.93642219 -0.023262237 -4.447727e-22)
(0.96981962 -0.023705137 5.4538443e-21)
(0.99964331 -0.023873483 -1.0435896e-21)
(1.0246095 -0.023823995 1.0126191e-20)
(1.0439798 -0.023581155 -2.9062621e-20)
(1.057888 -0.023181072 6.5526927e-21)
(1.0671372 -0.022606297 3.9139213e-22)
(1.0729931 -0.021809052 5.2390571e-21)
(1.0766962 -0.020707394 -2.5938558e-21)
(1.0791849 -0.019228999 -7.6745345e-22)
(1.0809558 -0.017335629 1.0941548e-20)
(1.0821777 -0.015040138 -9.1977198e-21)
(1.0828369 -0.012405447 4.5194533e-21)
(1.0828726 -0.0095336714 0)
(1.0822345 -0.0065565035 1.6886932e-20)
(1.0809119 -0.0036205128 1.3245577e-20)
(1.0789383 -0.00087383653 -2.0405088e-21)
(1.076393 0.0015487221 6.5983513e-21)
(1.0733912 0.0035404768 5.7496768e-22)
(1.0700773 0.005023566 -2.723057e-22)
(1.0666036 0.0059685785 5.3924117e-21)
(1.0631364 0.0063527267 -9.4054613e-21)
(1.0598122 0.0062311137 -2.0814894e-22)
(1.0568029 0.005570761 1.961694e-20)
(1.054185 0.0045364733 -1.1321313e-21)
(1.0521907 0.0029354799 -5.6737003e-22)
(1.0507239 0.0011866079 5.9437666e-21)
(0.64769074 -0.0048931153 3.5711239e-22)
(0.6467626 -0.0079448532 -1.0840738e-21)
(0.66122713 -0.0097317166 -4.7913663e-21)
(0.67812832 -0.012325404 -5.4520018e-22)
(0.70248772 -0.01435186 1.657642e-24)
(0.73094016 -0.016529581 1.7745837e-22)
(0.76314078 -0.01837791 -6.63813e-21)
(0.79721759 -0.020117147 3.8284639e-21)
(0.83149217 -0.021621708 0)
(0.86651468 -0.022871407 1.7757402e-21)
(0.90287653 -0.023840666 0)
(0.93894993 -0.02457464 0)
(0.97288128 -0.024979633 5.7283709e-21)
(1.0030034 -0.02509988 -5.3169409e-22)
(1.0279675 -0.024954935 -4.9071905e-21)
(1.0471816 -0.024594822 -6.157226e-21)
(1.0608225 -0.024035796 1.6110113e-20)
(1.0698331 -0.023270344 -9.2832762e-21)
(1.0755061 -0.022241213 6.2665071e-22)
(1.0791055 -0.020873796 7.5299129e-22)
(1.0815175 -0.019103328 -1.4084354e-20)
(1.0832013 -0.016907984 -5.9675995e-21)
(1.0842865 -0.014320476 4.4228196e-21)
(1.0847521 -0.011422704 1.1283377e-20)
(1.0845395 -0.0083354546 2.1801742e-21)
(1.0836138 -0.0052031339 1.8084458e-21)
(1.0819822 -0.0021808693 -4.6576583e-21)
(1.0796988 0.00058271689 -4.61515e-21)
(1.0768612 0.0029580704 -6.6119278e-22)
(1.0735994 0.0048495316 -2.8210558e-21)
(1.0700673 0.0061935388 -5.0567527e-21)
(1.0664208 0.0069750075 -2.7412885e-21)
(1.062825 0.0071859446 1.7955977e-21)
(1.0594106 0.0068897388 1.4417196e-20)
(1.0563437 0.0060651457 -3.7757313e-20)
(1.0536899 0.0048726485 -6.2549368e-21)
(1.0516779 0.0031344173 -5.8097304e-21)
(1.0501981 0.0012426643 0)
(0.63757339 -0.0029826483 2.9186925e-21)
(0.63058845 -0.0058324082 -1.2002504e-22)
(0.63969536 -0.0078471163 -1.2384577e-21)
(0.65127938 -0.010566084 -4.5776523e-22)
(0.67128338 -0.012846509 -5.5543744e-21)
(0.69640578 -0.015290448 -4.2639234e-21)
(0.7266269 -0.017461941 -6.1295504e-22)