/*--------------------------------*- C++ -*----------------------------------*\
| =========                 |                                                 |
| \\      /  F ield         | OpenFOAM: The Open Source CFD Toolbox           |
|  \\    /   O peration     | Version:  5.0                                   |
|   \\  /    A nd           | Web:      www.OpenFOAM.org                      |
|    \\/     M anipulation  |                                                 |
\*---------------------------------------------------------------------------*/
FoamFile
{
    version     2.0;
    format      ascii;
    class       volScalarField;
    location    "340";
    object      p;
}
// * * * * * * * * * * * * * * * * * * * * * * * * * * * * * * * * * * * * * //

dimensions      [0 2 -2 0 0 0 0];

internalField   nonuniform List<scalar> 
9200
(
0.00099263041
0.0010067047
0.0025730846
0.0010163512
0.002606361
0.0042808689
0.0010392063
0.0026401063
0.0043314801
0.0058267288
0.0010584398
0.0027039335
0.0043901293
0.0058914339
0.0073458445
0.0010777678
0.0027755664
0.0044905013
0.0059720232
0.0074234839
0.0087600172
0.0010871903
0.0028623562
0.0046067007
0.0061041138
0.0075239762
0.0088480796
0.010089109
0.0010834646
0.0029527019
0.004744192
0.0062617122
0.0076850604
0.0089646242
0.01018549
0.011327356
0.0010690162
0.0030366161
0.0048926553
0.0064509507
0.0078805454
0.0091481586
0.010314632
0.011430304
0.012480389
0.0010253473
0.003085236
0.0050494662
0.0066672718
0.0081174957
0.0093717742
0.010514277
0.011569479
0.012588793
0.013551223
0.00089054186
0.0030878825
0.0051986798
0.0069120404
0.0083957449
0.0096416949
0.010755704
0.011780968
0.012736691
0.013664144
0.014544124
0.00061382334
0.0031072236
0.0053256319
0.0071827288
0.0087195678
0.0099580533
0.011041578
0.012034468
0.012958486
0.013819799
0.014660677
0.015463213
0.00019218061
0.0030939986
0.0054404251
0.00750139
0.0090997578
0.010325194
0.011368161
0.012328959
0.013224427
0.014051189
0.014823207
0.015582484
0.016312743
-0.00037032145
0.0029480881
0.0055214053
0.007863772
0.009549249
0.010751688
0.011735372
0.01265718
0.013529543
0.014328921
0.015062814
0.015751201
0.016433706
0.01709697
-0.0010906664
0.0026153211
0.0055212422
0.0082485643
0.010073587
0.011254731
0.012153366
0.013013728
0.013863807
0.014642896
0.015350962
0.01599852
0.016607948
0.017218403
0.017820254
-0.0019801066
0.0020640775
0.0053888862
0.0086443206
0.010693099
0.011843928
0.0126314
0.013401744
0.014215687
0.014979776
0.015674274
0.016297482
0.016862687
0.01739697
0.017940726
0.018487067
-0.003077902
0.0012207167
0.0050646419
0.009030951
0.011426521
0.012547758
0.013174791
0.013765891
0.014562817
0.015320027
0.016019803
0.016635589
0.017173602
0.017657468
0.018121862
0.018604967
0.019101921
-0.0046253317
6.2348177e-05
0.0044958358
0.0093809905
0.012293123
0.013392545
0.013809076
0.014170453
0.014866778
0.015638322
0.016366721
0.017000785
0.017529507
0.017980143
0.018385569
0.018786524
0.019215558
0.019669275
-0.0068744655
-0.0014786178
0.0036364833
0.0096721661
0.013315519
0.014407431
0.014549353
0.014620453
0.015122015
0.015935662
0.01668852
0.017372375
0.017921518
0.018353679
0.018716799
0.019050063
0.019395172
0.019776982
0.020193551
-0.0088391659
-0.0037120328
0.0024651034
0.0098781982
0.014497862
0.015621703
0.015425627
0.015095554
0.015310361
0.016148837
0.016986493
0.017733597
0.018332193
0.018774552
0.019105391
0.019385323
0.019654717
0.019952174
0.020293694
0.020679116
-0.011821454
-0.0072072877
0.0010442073
0.0099115481
0.01582936
0.017056577
0.016464176
0.015601465
0.015438084
0.016230697
0.017218293
0.01808314
0.018760728
0.019231773
0.019550779
0.019782916
0.019988893
0.020203771
0.020461977
0.020770121
0.021130045
-0.015362901
-0.011005763
-0.00074823212
0.0096453367
0.017298959
0.018713567
0.017672612
0.01614533
0.015467037
0.016148642
0.017330226
0.018382486
0.019196799
0.01972805
0.020046886
0.020244282
0.02038828
0.020531558
0.020701774
0.020929178
0.021210565
0.021550053
-0.01775185
-0.014843213
-0.0035335526
0.0088269931
0.018895344
0.020559683
0.019065762
0.016728313
0.015355149
0.015850255
0.017266152
0.018599855
0.019616521
0.020252309
0.020595161
0.020765884
0.020856503
0.020925658
0.021018069
0.021153641
0.021358279
0.021618952
0.021942832
-0.019342131
-0.019159081
-0.0078018105
0.0069643822
0.020671444
0.022621978
0.020633383
0.017344157
0.015055259
0.015256166
0.016959367
0.018691317
0.020003229
0.020802167
0.021194398
0.021350742
0.021390676
0.021391125
0.021400304
0.021453689
0.021564124
0.021753121
0.021998938
0.022312099
-0.02074364
-0.023712591
-0.012913397
0.0046251187
0.022712202
0.024889629
0.022334838
0.017981237
0.014518075
0.014271138
0.016326587
0.018606753
0.02033431
0.021373024
0.021850141
0.022002142
0.021994219
0.021924908
0.021854632
0.021817925
0.021843519
0.021936953
0.022117459
0.022354631
0.02266093
-0.022073636
-0.028493914
-0.018034892
0.0023885499
0.024796149
0.027291616
0.024092382
0.018622683
0.013659647
0.012822089
0.015258692
0.018290633
0.020589247
0.021964996
0.022568888
0.022727041
0.022669968
0.022529305
0.022377216
0.022253916
0.022184385
0.022191654
0.022276304
0.022456196
0.022689914
0.022991753
-0.023275782
-0.034686539
-0.022970795
0.00022669846
0.026066367
0.029762571
0.025799115
0.019215973
0.012370072
0.010614779
0.013613228
0.017664655
0.02073406
0.022579941
0.023361548
0.023535402
0.023423725
0.02320495
0.022968705
0.022757075
0.022596
0.022504679
0.02250325
0.022588682
0.022773383
0.023006815
0.023307213
-0.024318557
-0.038903731
-0.027661913
-0.0019771817
0.026351193
0.032056235
0.027254816
0.019638214
0.010478072
0.0074636071
0.011224172
0.016626395
0.020718491
0.023206689
0.024233989
0.02443833
0.02426347
0.023954298
0.023626895
0.023326606
0.023073651
0.022887679
0.022784368
0.022785501
0.022878175
0.023070458
0.023307143
0.023609669
-0.025146473
-0.04282543
-0.032024783
-0.004229903
0.026087994
0.034079629
0.02823906
0.019758924
0.0078663769
0.0031407997
0.0080013317
0.015014071
0.020456807
0.023825306
0.025192788
0.025446014
0.025197281
0.02478001
0.024349331
0.023957386
0.023615943
0.023335225
0.0231332
0.023031617
0.023040258
0.02314375
0.023349342
0.023593762
0.023900798
-0.025763884
-0.046505666
-0.035995013
-0.0064851945
0.025187835
0.035207657
0.028629137
0.019529565
0.0045724122
-0.0023914008
0.003892846
0.01260978
0.019818315
0.024399417
0.026238923
0.026567424
0.026232609
0.0256835
0.025130719
0.024640982
0.024215177
0.023847002
0.023547097
0.023337273
0.023245169
0.023265785
0.023387986
0.023613988
0.023869342
0.024182286
-0.026035802
-0.050912455
-0.039498503
-0.0086764367
0.023741355
0.034875905
0.028366406
0.018796062
0.00062604836
-0.0091910448
-0.0014720225
0.0092132825
0.018642033
0.02487779
0.027358125
0.027803664
0.027372602
0.026663388
0.025964312
0.025365431
0.024858248
0.024414451
0.024026315
0.02371268
0.023508767
0.023426631
0.023468202
0.023618608
0.023867942
0.02413592
0.02445581
-0.025965249
-0.054809816
-0.042446772
-0.010767404
0.021825329
0.033317897
0.027354037
0.017448641
-0.0041867724
-0.01775297
-0.0088705746
0.0046443078
0.016584393
0.025183136
0.028517284
0.029140722
0.028610738
0.027716113
0.026838983
0.026113759
0.025527308
0.02502218
0.024563797
0.024157498
0.023840162
0.023647685
0.023583211
0.023658712
0.023839615
0.024112807
0.024395057
0.024722706
-0.02534557
-0.058102455
-0.044897829
-0.012770585
0.019474852
0.031136979
0.025422927
0.015572265
-0.0097884741
-0.028464287
-0.018996219
-0.0014265942
0.013534854
0.025076534
0.029647049
0.030543661
0.029924421
0.028825846
0.027738133
0.026863475
0.026196639
0.025648679
0.025144706
0.024666776
0.024245338
0.023931728
0.023753666
0.023722312
0.023836799
0.024049614
0.0243499
0.024648053
0.024983925
-0.024093109
-0.058179564
-0.046807411
-0.015224164
0.016713926
0.028320924
0.022776236
0.013291772
-0.015976981
-0.039749414
-0.031133703
-0.0096771853
0.0093965712
0.024346486
0.030640255
0.031937313
0.031266752
0.029964939
0.028635959
0.02758474
0.026832236
0.026261849
0.025746928
0.025228517
0.024724012
0.024290893
0.023985466
0.023834682
0.023846927
0.024001786
0.024251903
0.02458147
0.024896152
0.025240336
-0.02240507
-0.055180652
-0.047388762
-0.017921967
0.012653025
0.025228014
0.019667234
0.010502111
-0.022551846
-0.050953828
-0.044791077
-0.020384325
0.0029383976
0.022861095
0.031289607
0.03321692
0.032636581
0.031086232
0.029494289
0.028237943
0.027390189
0.026818663
0.026336197
0.025824202
0.025269385
0.024732555
0.024291793
0.024005123
0.023896503
0.023958042
0.024159833
0.024450853
0.024809168
0.025140197
0.025492625
-0.02043634
-0.050127931
-0.046705174
-0.020580606
0.0080206628
0.020616797
0.016326179
0.007065907
-0.029363122
-0.062257164
-0.059233286
-0.033107347
-0.005988178
0.020256183
0.031763628
0.03420854
0.033802551
0.032128194
0.030260443
0.028773135
0.027815337
0.027263057
0.026865443
0.026422652
0.025870281
0.025258588
0.024688389
0.024250641
0.023998659
0.023942021
0.024059844
0.024313901
0.024645994
0.025033352
0.025380894
0.025741127
-0.018226988
-0.045113324
-0.044953144
-0.023071384
0.0027388105
0.015375739
0.01227149
0.0030381095
-0.035981371
-0.073425568
-0.073622088
-0.046541628
-0.015268519
0.016619309
0.032047049
0.034889076
0.034663889
0.032974416
0.030864754
0.029126526
0.028041224
0.027523701
0.027271801
0.026978922
0.026503024
0.025867748
0.025186624
0.024591706
0.024172881
0.023969771
0.023975587
0.024156517
0.024464821
0.024838782
0.025255316
0.025618869
0.025986338
-0.015846172
-0.039988881
-0.042481231
-0.025187778
-0.003010959
0.008937677
0.0082800883
-0.00084097737
-0.042513079
-0.083762526
-0.087228031
-0.05959054
-0.024550735
0.011967136
0.031337328
0.034840413
0.0350807
0.033517638
0.031203558
0.029205805
0.027970901
0.027502025
0.027468196
0.027431065
0.027129946
0.026549319
0.025795293
0.025047089
0.024444247
0.024062814
0.023923715
0.024001715
0.024250713
0.024615196
0.025031589
0.025475941
0.025854476
0.026228454
-0.013348057
-0.034768696
-0.039338762
-0.026756314
-0.0091491391
0.001515187
0.0035097885
-0.0044784285
-0.047034992
-0.093449118
-0.099432344
-0.071901364
-0.034217117
0.0068666507
0.028909897
0.033988967
0.034683991
0.033610645
0.03117215
0.02890829
0.027496012
0.027075452
0.027338523
0.027691136
0.027703386
0.027283165
0.026517882
0.025636595
0.024837758
0.024249815
0.023926548
0.023866349
0.024024432
0.02434531
0.024766932
0.025224607
0.025695353
0.026087966
0.026467496
-0.010776708
-0.029236612
-0.035445715
-0.027741971
-0.015490159
-0.0067896644
-0.0025688087
-0.0087185192
-0.050881858
-0.099912889
-0.11826107
-0.084156213
-0.043952388
0.0011056878
0.024897289
0.032556848
0.03340891
0.03306518
0.03066317
0.02812298
0.026504587
0.0261199
0.026742586
0.027641668
0.028155392
0.028036839
0.027352317
0.026377118
0.025382474
0.024560571
0.024015046
0.023771778
0.023802601
0.024047856
0.024442908
0.024921133
0.025418473
0.025914103
0.026319497
0.026703715
-0.02328334
-0.0081600949
-0.031039386
-0.02818572
-0.021890683
-0.015887071
-0.010215801
-0.013597003
-0.054464335
-0.10642141
-0.12485576
-0.095819781
-0.053226763
-0.005267524
0.020059201
0.030243835
0.031408195
0.031713718
0.029583502
0.026731487
0.024873798
0.024477217
0.025504039
0.027121157
0.028363139
0.028759941
0.028287501
0.027283282
0.026106785
0.025031346
0.024222783
0.02375033
0.023604744
0.023736263
0.024075973
0.024545415
0.025078911
0.025614157
0.026132373
0.026549105
0.026936918
-0.02619312
-0.017003583
-0.0055624056
-0.0279338
-0.028342936
-0.02564829
-0.019156455
-0.019100415
-0.057655768
-0.11139467
-0.13778101
-0.10622336
-0.06129556
-0.01165553
0.01448339
0.027160317
0.028831841
0.029453877
0.027822465
0.024633746
0.022460187
0.021967771
0.023402528
0.025912179
0.028161423
0.029365665
0.029298562
0.028364138
0.027039225
0.025699309
0.024590308
0.02383589
0.023463205
0.02343052
0.023674698
0.024110897
0.024654481
0.025241233
0.025811552
0.026350143
0.026776755
0.027167138
-0.026988831
-0.020745129
-0.010628035
-0.0030042113
-0.034720332
-0.035890734
-0.028684289
-0.025268803
-0.060601331
-0.11470265
-0.14675514
-0.11986271
-0.06952662
-0.018004046
0.0087973024
0.022813346
0.025245648
0.026242437
0.025247878
0.021751422
0.019132639
0.018386908
0.020168142
0.023746576
0.027333319
0.02971879
0.030337327
0.029618883
0.028204905
0.026603472
0.025160298
0.024071184
0.023409148
0.023159428
0.023259369
0.02362416
0.024155066
0.024771493
0.025408285
0.026010882
0.026567459
0.027002369
0.027394299
-0.040762008
-0.02550917
-0.014989459
-0.0043924871
-0.00051774091
-0.046343728
-0.038420224
-0.031572638
-0.063184922
-0.11622103
-0.15410594
-0.13294252
-0.078442716
-0.027406155
0.0029717492
0.017396616
0.020736928
0.021970785
0.021776647
0.01804098
0.014761698
0.013535728
0.015471536
0.020277413
0.025561191
0.029656302
0.031325452
0.031030808
0.029621673
0.027780724
0.025978624
0.024502535
0.023486552
0.022953215
0.02285367
0.023100163
0.023586233
0.024210955
0.024897029
0.025580233
0.026212165
0.026784176
0.027225795
0.027618184
-0.056692598
-0.046380995
-0.023502261
-0.0093127529
0.0015618141
0.0018504981
-0.048294888
-0.03755922
-0.065195772
-0.11537212
-0.15828726
-0.14389473
-0.086440198
-0.037291935
-0.0070329933
0.011617426
0.015103509
0.016721563
0.017328392
0.013482745
0.0093111678
0.0072228082
0.0089397233
0.015081922
0.022360986
0.028933438
0.032147788
0.032561735
0.031294379
0.029261551
0.027090253
0.025179579
0.023743145
0.022852772
0.022485139
0.022558588
0.022955955
0.023563868
0.024280231
0.025031564
0.025757403
0.026415207
0.027000106
0.027446863
0.027838783
-0.058075891
-0.066626582
-0.051398782
-0.021120332
-0.0038901628
0.0071874324
0.0041083218
-0.043231011
-0.066440934
-0.11221273
-0.15717475
-0.14992415
-0.093835785
-0.047509669
-0.016568725
0.001498364
0.0093951278
0.010409341
0.011929349
0.0081139133
0.00279536
-0.00062287293
5.5501854e-05
0.0076868113
0.017251406
0.027195179
0.032615875
0.034139636
0.033207375
0.031064281
0.02853402
0.026151972
0.024229245
0.022904092
0.022190618
0.022022348
0.02228051
0.022831277
0.023559446
0.024363748
0.025175435
0.0259395
0.026619781
0.02721502
0.02766539
0.028055865
-0.048688138
-0.067353288
-0.075707919
-0.055766509
-0.018614627
0.0011757877
0.01237148
0.0062818972
-0.066682721
-0.10742303
-0.15078747
-0.15050013
-0.09973646
-0.057246933
-0.027670258
-0.0087531139
0.00068677148
0.0036472996
0.0055393392
0.0020359231
-0.004628955
-0.010117887
-0.011818338
-0.0033713205
0.011941343
0.024068839
0.032470378
0.035634245
0.03530999
0.033185152
0.030336476
0.027462034
0.024995629
0.023158471
0.022012812
0.02152376
0.021576517
0.022025115
0.02273032
0.023574846
0.024461965
0.02532858
0.026126191
0.026825524
0.027428667
0.02788122
0.028269355
-0.06569292
-0.053746554
-0.075545699
-0.083860407
-0.059400004
-0.016189466
0.0059057732
0.017022834
0.0082892466
-0.10113341
-0.14178864
-0.14731782
-0.10358806
-0.066210788
-0.039099061
-0.021583832
-0.0075917764
-0.0051137066
-0.0014474993
-0.0047420372
-0.012932866
-0.021260226
-0.027600983
-0.018772222
0.00062283556
0.018918846
0.031351415
0.036853397
0.037500357
0.035583773
0.032501028
0.029142133
0.026085689
0.023661567
0.02200177
0.021100231
0.020870665
0.021156386
0.021799326
0.022655767
0.023611319
0.024574866
0.025490566
0.026317112
0.027032133
0.027640887
0.028094168
0.02847902
-0.093403013
-0.063486857
-0.05784214
-0.082215929
-0.091182296
-0.062179817
-0.013947111
0.010378376
0.021124422
0.010084082
-0.13093926
-0.14123088
-0.10486323
-0.074011352
-0.050886395
-0.035102851
-0.019768558
-0.012889977
-0.009585291
-0.011781467
-0.021847037
-0.034245007
-0.046122857
-0.037694081
-0.014622541
0.010124527
0.02810186
0.037405516
0.039602391
0.038168185
0.034993797
0.031201406
0.02753413
0.024456275
0.022196592
0.020794997
0.020193833
0.020243985
0.020770797
0.021607912
0.02260995
0.023669341
0.024701968
0.02566082
0.026511829
0.027239457
0.027851415
0.028303821
0.028684664
-0.11835157
-0.084290077
-0.060037186
-0.060915622
-0.087046935
-0.097470823
-0.063974802
-0.011911616
0.014531087
0.024670108
0.011643996
-0.1324311
-0.10308399
-0.0800774
-0.062459456
-0.049616902
-0.033512331
-0.023213301
-0.01680242
-0.019111224
-0.031307074
-0.048047284
-0.066737803
-0.059375018
-0.03025141
-0.0013118497
0.022388288
0.036466061
0.041266512
0.040773242
0.037730499
0.033611369
0.029354898
0.025579278
0.022629524
0.020642231
0.019578051
0.019311514
0.019656991
0.020428173
0.021454096
0.022594052
0.02374856
0.024842664
0.025839129
0.026710359
0.027447106
0.028059483
0.028509729
0.028886422
-0.12097746
-0.10407835
-0.074227066
-0.05557524
-0.062968585
-0.090098272
-0.10191589
-0.064537869
-0.010095524
0.018109188
0.027623005
0.012947338
-0.098765871
-0.083905053
-0.073508081
-0.064892071
-0.049736972
-0.03686453
-0.025723885
-0.025235983
-0.039181527
-0.063704349
-0.087294425
-0.083410034
-0.050377782
-0.016308151
0.014595193
0.034280075
0.041979281
0.043096304
0.040558914
0.036296452
0.031526892
0.027046082
0.023352764
0.020676652
0.01905651
0.018381541
0.018471396
0.019121305
0.020134091
0.021340476
0.022608151
0.02384833
0.024996943
0.026025599
0.026912022
0.027653583
0.028264282
0.028712382
0.029094312
-0.092673422
-0.10715147
-0.089046507
-0.063373919
-0.050550627
-0.063700711
-0.09133453
-0.10284549
-0.063852561
-0.0084068387
0.020944505
0.030099886
0.013955744
-0.085426762
-0.083954504
-0.080661488
-0.068200069
-0.053204872
-0.037278889
-0.03267731
-0.044867622
-0.074409129
-0.10884477
-0.10773532
-0.073023503
-0.035401462
0.0033307952
0.029869295
0.041724817
0.044745041
0.043229846
0.039120714
0.033980749
0.0288424
0.024371136
0.020936739
0.018657175
0.017479784
0.017229591
0.017691792
0.018646085
0.019892313
0.021267762
0.022651631
0.023968862
0.025165119
0.026218904
0.027114033
0.027857376
0.028467073
0.028922973
0.029311887
-0.084565579
-0.084895932
-0.092083217
-0.073711112
-0.052431821
-0.044912837
-0.062924355
-0.090547746
-0.10067982
-0.062142895
-0.0067196404
0.023188494
0.031972415
0.014788253
-0.093414867
-0.096648688
-0.088215001
-0.072048511
-0.051224997
-0.041883084
-0.051183054
-0.082680731
-0.12228409
-0.13486933
-0.097822428
-0.056340094
-0.011771122
0.021809785
0.039656844
0.045576363
0.045446201
0.041879248
0.036600784
0.030903899
0.025671388
0.021429037
0.018408535
0.016627482
0.015946589
0.01614645
0.016986601
0.018237866
0.019705067
0.021235466
0.022724941
0.024110864
0.025344995
0.026414486
0.027314018
0.028061237
0.028681875
0.029142491
0.029533361
-0.10117923
-0.08171309
-0.075524349
-0.076672835
-0.05859481
-0.041740492
-0.038715145
-0.060742939
-0.087227718
-0.096142451
-0.059626991
-0.0047534572
0.024826697
0.033365747
0.015378134
-0.11231179
-0.10927463
-0.093155682
-0.067258486
-0.052654142
-0.058732059
-0.089574028
-0.13697198
-0.15682894
-0.12693955
-0.080478256
-0.029997051
0.011215946
0.03405301
0.044813853
0.046842366
0.044301853
0.039210654
0.033134253
0.027202699
0.022138215
0.018315911
0.015842338
0.014635218
0.01448995
0.015152873
0.016365679
0.017900362
0.019571949
0.021244114
0.022829539
0.024271316
0.025529579
0.026609002
0.027517196
0.02828574
0.028904187
0.029367581
0.029758501
-0.12689646
-0.10693873
-0.077437417
-0.065031982
-0.061545673
-0.044060392
-0.031236245
-0.032232506
-0.057367695
-0.082036819
-0.089697291
-0.056512917
-0.0023609385
0.025986459
0.033805763
0.015641632
-0.13104566
-0.11598755
-0.085315939
-0.064617709
-0.067562522
-0.096103013
-0.14732549
-0.18739078
-0.15464399
-0.10780375
-0.052100489
-0.0016391756
0.02622492
0.041097534
0.046952955
0.046026531
0.041570905
0.035381947
0.028881074
0.023025701
0.01836455
0.01512629
0.013302359
0.012725013
0.013138663
0.014263442
0.015835538
0.017634968
0.019493348
0.021296387
0.022961887
0.024440005
0.025714293
0.026811343
0.027754351
0.028517083
0.029134274
0.029597347
0.029987324
-0.15265073
-0.13995192
-0.11038388
-0.072130653
-0.054193716
-0.047092386
-0.030437036
-0.020986699
-0.0256382
-0.053042623
-0.076065564
-0.084044676
-0.051983532
-7.7739223e-05
0.026564834
0.0331925
0.015603084
-0.13994924
-0.10533363
-0.077323494
-0.077086452
-0.1031338
-0.1554922
-0.20616691
-0.22255403
-0.13622322
-0.074310073
-0.016527485
0.016589099
0.035252334
0.045207716
0.046588607
0.043415117
0.037440936
0.030573076
0.024016033
0.018518605
0.014464069
0.011944781
0.010848441
0.01093656
0.011914187
0.013487878
0.015398387
0.017443667
0.019473879
0.021388938
0.023107616
0.024610234
0.025913218
0.027066872
0.027998108
0.028758867
0.029369714
0.029831941
0.030219614
-0.163977
-0.173306
-0.15061807
-0.1116067
-0.066259709
-0.043740705
-0.033783628
-0.017969853
-0.011246831
-0.018908097
-0.048016358
-0.070943838
-0.076825492
-0.046924972
0.002072261
0.026509152
0.031253764
0.015404491
-0.12623044
-0.09026205
-0.086714761
-0.11018698
-0.16272219
-0.22134156
-0.24985652
-0.18276859
-0.0961772
-0.032066649
0.0059092964
0.028092355
0.041325995
0.04578708
0.044406634
0.039080425
0.032103193
0.024991057
0.018711758
0.013820066
0.010543144
0.0088488403
0.0085334862
0.0093006915
0.010831318
0.012830971
0.015057025
0.017332202
0.019512176
0.021502293
0.023256443
0.024802968
0.026192469
0.027329313
0.028255268
0.029006584
0.029611159
0.030070805
0.030455334
-0.14624143
-0.18678711
-0.19115061
-0.15872725
-0.1110068
-0.060359408
-0.034100091
-0.021856086
-0.0068856427
-0.0021364267
-0.012444776
-0.043444652
-0.065099981
-0.069764934
-0.041302643
0.0039626327
0.025782721
0.028654085
0.015124177
-0.10305409
-0.095652982
-0.11674713
-0.16810072
-0.23241607
-0.27615865
-0.22725029
-0.12711798
-0.054475757
-0.0057849712
0.019426529
0.035401635
0.043447195
0.04404699
0.039970955
0.033262627
0.025800985
0.018840172
0.013134248
0.0090608786
0.0067006272
0.005907362
0.0063988464
0.0078380064
0.0098978302
0.012297819
0.01482087
0.0172965
0.019581105
0.021620619
0.023438193
0.025112858
0.02648006
0.027608631
0.02851886
0.02926162
0.029857669
0.030313975
0.030694241
-0.11485699
-0.16392207
-0.20613214
-0.20546977
-0.16396235
-0.10882318
-0.054616427
-0.025461476
-0.011524153
0.0025669842
0.0057564784
-0.0060407528
-0.039426492
-0.058519277
-0.061827479
-0.035334806
0.0055433458
0.024379907
0.025659227
0.014860201
-0.10307457
-0.12243125
-0.17068199
-0.23832412
-0.29617259
-0.26849291
-0.16385921
-0.081324442
-0.025680525
0.0091429317
0.028076389
0.038947366
0.042076415
0.040040609
0.033772637
0.026253461
0.01877502
0.012314834
0.0074407406
0.0043638001
0.0030251782
0.003175243
0.0044708891
0.0065583782
0.0091217676
0.011901474
0.014688356
0.017303185
0.019656745
0.021784856
0.023786835
0.025433876
0.026788388
0.027894801
0.02879107
0.029522689
0.03010925
0.03056093
0.030936218
-0.1091358
-0.12454203
-0.17726331
-0.2204936
-0.21615343
-0.16590472
-0.10528623
-0.049267989
-0.018177552
-0.0035116359
0.0094472657
0.01358017
-0.0013576285
-0.034810485
-0.051450186
-0.053180996
-0.029194337
0.0067720775
0.022422062
0.022258529
0.0144874
-0.12660245
-0.17027804
-0.23790201
-0.30758011
-0.30462412
-0.20245884
-0.11385712
-0.045397531
-0.009637267
0.01973839
0.032497509
0.038561993
0.038408797
0.033419098
0.026117487
0.018344193
0.011250615
0.0055996453
0.0017806902
-0.00015907049
-0.00041155262
0.00068849489
0.0027669206
0.0054781553
0.0085222569
0.011639848
0.014613424
0.017318068
0.019794248
0.022182241
0.024151427
0.025780313
0.027103866
0.02819102
0.029070239
0.02978976
0.030365182
0.030811545
0.031181054
-0.12782523
-0.11356298
-0.13123633
-0.18485818
-0.22920322
-0.22084568
-0.16439677
-0.10094193
-0.044716945
-0.012653911
0.0024717465
0.016803403
0.018767862
0.0030155102
-0.029555305
-0.043813892
-0.044147829
-0.023208645
0.0076743944
0.02025755
0.018760493
0.013621078
-0.16627783
-0.23152327
-0.30840397
-0.33140959
-0.24216736
-0.14694956
-0.071112622
-0.025292727
0.0014062529
0.025926514
0.032868731
0.035325254
0.031757573
0.025168476
0.017355582
0.0097904172
0.0034406785
-0.0011272651
-0.003706615
-0.004415358
-0.0035611075
-0.0015272219
0.0013140624
0.0046263564
0.0080975924
0.01145216
0.014548269
0.017416334
0.020253442
0.022602583
0.024547042
0.026133922
0.027430782
0.028495225
0.029356297
0.030061944
0.030625242
0.031065375
0.031428617
-0.1589161
-0.12484748
-0.11511199
-0.13451001
-0.18568446
-0.23176355
-0.21815334
-0.15985808
-0.096150335
-0.04059666
-0.0081685023
0.0086151794
0.020268446
0.023448194
0.0070729455
-0.023831314
-0.035606633
-0.035080534
-0.017377607
0.0081594487
0.018049706
0.015627225
0.012038809
-0.21969531
-0.29788785
-0.3414945
-0.27584576
-0.17617315
-0.097461329
-0.047301413
-0.012900747
0.0095934053
0.026925437
0.029501879
0.028760068
0.023031163
0.015608345
0.0077784991
0.0008298239
-0.0044480862
-0.0076958357
-0.0089037416
-0.0083408459
-0.0063868512
-0.0034321937
0.00015091616
0.003996824
0.007766296
0.011280886
0.014593069
0.017954156
0.020744474
0.02306096
0.024949372
0.026500421
0.027766671
0.028807322
0.029648156
0.030338956
0.030888856
0.031322386
0.0316786
-0.20354924
-0.14814774
-0.11856104
-0.11325953
-0.13377929
-0.17960301
-0.22526001
-0.20982978
-0.15316418
-0.090290772
-0.036422418
-0.0025657088
0.013330361
0.024204946
0.027355045
0.010630774
-0.017788969
-0.026859455
-0.02617917
-0.011581339
0.0081430934
0.015850351
0.013019582
0.0099462982
-0.27841546
-0.33258339
-0.29433938
-0.19865487
-0.12333574
-0.069850086
-0.033449745
-0.0044239378
0.012947831
0.022855351
0.023331769
0.019668761
0.012815206
0.0050385418
-0.0023534438
-0.0083047397
-0.012212647
-0.013958851
-0.013726599
-0.01188468
-0.0088326366
-0.00497351
-0.00073276701
0.0034825556
0.0074528201
0.01126394
0.015230767
0.018533539
0.021282447
0.023524836
0.025366067
0.026876907
0.028111472
0.029126133
0.029945405
0.030620136
0.031156172
0.031582018
0.031930795
-0.25270543
-0.18309919
-0.13477334
-0.1095356
-0.10721472
-0.12898522
-0.16796301
-0.21042537
-0.19674325
-0.14418466
-0.083572159
-0.030684991
0.0029517443
0.017826093
0.027207891
0.030292518
0.013691024
-0.011839232
-0.01797481
-0.01822507
-0.0066719619
0.0079354982
0.013690742
0.010828055
0.0079168584
-0.31060688
-0.29645026
-0.21344263
-0.14524519
-0.09265646
-0.055164306
-0.024182504
0.00050061253
0.010785954
0.01693953
0.014284777
0.0089138893
0.0013628084
-0.0062685817
-0.012788447
-0.017375399
-0.019670887
-0.019807414
-0.018105857
-0.014969222
-0.010826743
-0.0061669692
-0.0014766467
0.0029876
0.007341852
0.012027878
0.015919563
0.019171447
0.021823439
0.024004677
0.025793676
0.027263416
0.028463903
0.029451072
0.03024733
0.030905981
0.03142621
0.03184398
0.032184944
-0.27972134
-0.22162855
-0.16038948
-0.11920088
-0.098323195
-0.097241602
-0.11980861
-0.15291848
-0.19058742
-0.18029993
-0.13195645
-0.076381845
-0.022666468
0.0078944961
0.021521303
0.029354845
0.032164087
0.016325282
-0.0060691836
-0.010275563
-0.01133996
-0.0031310796
0.0076927463
0.011719416
0.0089347051
0.0061721712
-0.28422658
-0.219565
-0.16052922
-0.11353433
-0.077952813
-0.045518018
-0.019943477
-0.00033643683
0.0062395582
0.0083164462
0.0032560351
-0.0033014114
-0.011052741
-0.018056179
-0.023256991
-0.026158887
-0.026682722
-0.025148266
-0.021936008
-0.017498094
-0.012391719
-0.0071939317
-0.0022016407
0.0027573061
0.0082690352
0.012850073
0.016681521
0.019809096
0.022381795
0.02449625
0.026232477
0.027658567
0.028823131
0.029781514
0.030554995
0.031194891
0.031698649
0.032107799
0.032440816
-0.25934965
-0.24236672
-0.18847261
-0.13664073
-0.10221646
-0.085017235
-0.084792315
-0.10594151
-0.13587015
-0.16821132
-0.15611273
-0.12182702
-0.064988344
-0.01518429
0.012175614
0.024396932
0.03067339
0.032876491
0.018176468
-0.00033668467
-0.0047376608
-0.0058125823
-0.0001546158
0.0074086688
0.0099949872
0.0073142913
0.0047530975
-0.21616514
-0.16759786
-0.13083091
-0.099722845
-0.068736343
-0.043208322
-0.019444412
-0.0044695748
-0.00067432825
-0.0028170108
-0.0094480273
-0.016774975
-0.024171777
-0.03002966
-0.033491355
-0.034476218
-0.033123532
-0.02984009
-0.02508856
-0.019501597
-0.013761316
-0.008205488
-0.0025826524
0.0038895619
0.0092557462
0.013765254
0.017438546
0.020464659
0.022952931
0.02500028
0.026680906
0.028061258
0.029188746
0.030119185
0.030866152
0.031486507
0.031972866
0.032373123
0.032698172
-0.20224506
-0.22586932
-0.20355259
-0.15518933
-0.11282957
-0.084606668
-0.070312379
-0.070566063
-0.0893895
-0.11780446
-0.14326259
-0.14722564
-0.10604114
-0.0539543
-0.0083103265
0.015756976
0.026436526
0.031170446
0.032042267
0.018962366
0.0043620116
-0.00069450764
-0.0018959113
0.0022148837
0.007086855
0.0085327244
0.0059720538
0.0036475427
-0.16688629
-0.14275304
-0.11833987
-0.092138593
-0.068505405
-0.044617392
-0.022144993
-0.0081866336
-0.010612576
-0.016034217
-0.023746682
-0.031256624
-0.037685178
-0.04186847
-0.043267036
-0.042162925
-0.038805247
-0.03371279
-0.027602074
-0.021278741
-0.015123565
-0.0087740931
-0.0011908904
0.0050739254
0.010362479
0.014668048
0.018214502
0.021133712
0.023537673
0.025514885
0.027137669
0.028471448
0.029563391
0.03046081
0.031180429
0.031779972
0.032248461
0.032639572
0.032956781
-0.16017447
-0.18058878
-0.19014506
-0.16587761
-0.123976
-0.089775799
-0.067099586
-0.055275742
-0.055516475
-0.072121882
-0.10023179
-0.12336964
-0.12018119
-0.09032522
-0.042479304
-0.0022205838
0.01855439
0.027693921
0.030904264
0.029922364
0.018926
0.007175891
0.0024096581
0.0010672524
0.0040067665
0.006728601
0.007320847
0.0048961803
0.0028150448
-0.14731022
-0.13174844
-0.11386673
-0.094921108
-0.074557853
-0.046614685
-0.024059001
-0.015200156
-0.023082024
-0.031220361
-0.039427088
-0.04644916
-0.05121898
-0.053284334
-0.052370371
-0.048970684
-0.043502297
-0.036811484
-0.029855371
-0.023062721
-0.01592114
-0.007056329
0.00023059522
0.0064158866
0.01144452
0.015591211
0.019004184
0.021817623
0.024134046
0.026038733
0.027603202
0.02889287
0.029942668
0.030806028
0.031496751
0.032074807
0.032525047
0.032906816
0.033216252
-0.14458344
-0.14768166
-0.15514338
-0.15531164
-0.13129594
-0.095608872
-0.068386492
-0.050401982
-0.040903443
-0.040334107
-0.056050906
-0.087278334
-0.10159275
-0.099218434
-0.07399729
-0.031217754
0.0030771143
0.020554072
0.028190531
0.02990347
0.02755097
0.018640223