/*--------------------------------*- C++ -*----------------------------------*\
| =========                 |                                                 |
| \\      /  F ield         | OpenFOAM: The Open Source CFD Toolbox           |
|  \\    /   O peration     | Version:  5.0                                   |
|   \\  /    A nd           | Web:      www.OpenFOAM.org                      |
|    \\/     M anipulation  |                                                 |
\*---------------------------------------------------------------------------*/
FoamFile
{
    version     2.0;
    format      ascii;
    class       surfaceScalarField;
    location    "340";
    object      phi;
}
// * * * * * * * * * * * * * * * * * * * * * * * * * * * * * * * * * * * * * //

dimensions      [0 3 -1 0 0 0 0];

internalField   nonuniform List<scalar> 
18180
(
-0.0018921857
-1.3895411
-0.0036823828
-1.29957
-0.0018435381
-1.3876976
-0.0053616443
-1.2155533
-0.0035883383
-1.2978252
-0.001762733
-1.3859349
-0.0069515483
-1.1370698
-0.0052384376
-1.2139032
-0.0034338436
-1.2961541
-0.0016449803
-1.3842899
-0.0084334581
-1.0637314
-0.0068091012
-1.1354992
-0.0050223213
-1.2123147
-0.0032070218
-1.2945921
-0.0015111659
-1.3827787
-0.0097887925
-0.99519485
-0.0083011439
-1.0622393
-0.0065466961
-1.1339748
-0.0046945884
-1.2108272
-0.0029437259
-1.2931595
-0.0013736739
-1.381405
-0.010979486
-0.93113889
-0.0097096253
-0.99378637
-0.0080213614
-1.0607647
-0.0061297194
-1.1325397
-0.0043053982
-1.2094655
-0.0026703604
-1.2918628
-0.0012514142
-1.3801536
-0.01196522
-0.87128845
-0.011020432
-0.92982809
-0.0094628071
-0.99234492
-0.0075343194
-1.0593601
-0.0056126667
-1.1312324
-0.003895964
-1.2082399
-0.0024253258
-1.2906889
-0.00115092
-1.3790027
-0.012709646
-0.81537707
-0.012216058
-0.87009282
-0.010897194
-0.9283937
-0.0089418891
-0.99093735
-0.0068826379
-1.0580901
-0.0050581014
-1.1300703
-0.0035284405
-1.2071368
-0.0022242622
-1.2896156
-0.0010716726
-1.377931
-0.013088273
-0.76321061
-0.013246385
-0.81434675
-0.012370987
-0.86861903
-0.010408329
-0.92692726
-0.0081425513
-0.98967744
-0.0061625865
-1.0569856
-0.0045606423
-1.1290381
-0.0032303775
-1.2061307
-0.0020690673
-1.2886182
-0.0010068476
-1.3769242
-0.012984111
-0.71455401
-0.014146843
-0.76231015
-0.013973161
-0.81274457
-0.01200264
-0.86702472
-0.0094330793
-0.92563673
-0.0072175795
-0.98862245
-0.0055194148
-1.0560268
-0.0041656531
-1.1281028
-0.0030069415
-1.2051928
-0.0019470864
-1.2876779
-0.00094893394
-1.3759753
-0.012281876
-0.66928876
-0.015082289
-0.71361856
-0.015856129
-0.76042718
-0.013840637
-0.81090657
-0.010799073
-0.86565872
-0.0082309677
-0.92462334
-0.0063932566
-0.9877486
-0.0050260967
-1.0551664
-0.003883112
-1.1272266
-0.0028370778
-1.2043028
-0.0018412539
-1.2867856
-0.00089200727
-1.3750832
-0.010842647
-0.62721087
-0.016132921
-0.66823813
-0.018031193
-0.7114435
-0.01598796
-0.75827986
-0.012300023
-0.80940562
-0.009209472
-0.86468022
-0.0071623189
-0.92385428
-0.0057921918
-0.98698251
-0.0046971271
-1.0543524
-0.0036788253
-1.1263849
-0.0026912872
-1.2034528
-0.0017362642
-1.2859413
-0.00083182352
-1.3742514
-0.0085750257
-0.58807852
-0.01724287
-0.62610092
-0.020609578
-0.66565975
-0.018521396
-0.70891006
-0.013979632
-0.75660025
-0.010137709
-0.80847739
-0.00779774
-0.8640448
-0.0064323946
-0.92321407
-0.0054320407
-0.98624759
-0.0044762597
-1.053555
-0.0035062453
-1.1255699
-0.0025439556
-1.2026451
-0.0016214656
-1.2851517
-0.00076569913
-1.3734857
-0.0054080539
-0.55169376
-0.018347533
-0.58697386
-0.02384515
-0.62286535
-0.021644075
-0.66253707
-0.015920254
-0.70696944
-0.010988858
-0.7557491
-0.0082452515
-0.80802987
-0.0069007552
-0.86357644
-0.0060589083
-0.92258721
-0.0052212527
-0.9855026
-0.0042946731
-1.0527665
-0.0033270153
-1.1247868
-0.0023782837
-1.2018882
-0.001491785
-1.2844256
-0.00069330499
-1.3727924
-0.0013424521
-0.51776777
-0.019436126
-0.55060517
-0.027970398
-0.58284861
-0.025585977
-0.61892345
-0.018229399
-0.66022792
-0.01177515
-0.70618315
-0.0083966527
-0.7555977
-0.0071129587
-0.80781767
-0.0065301409
-0.8631052
-0.0058941105
-0.92191435
-0.0050618275
-0.98473545
-0.0041005137
-1.051993
-0.0031163203
-1.1240488
-0.0021865479
-1.2011935
-0.0013480502
-1.2837709
-0.00061712003
-1.3721753
0.0037403713
-0.48608398
-0.020505584
-0.51669832
-0.033204886
-0.54537068
-0.030579012
-0.57785558
-0.021028159
-0.61612469
-0.012476986
-0.65952609
-0.0081714081
-0.70640839
-0.0069465634
-0.7557641
-0.006752532
-0.80759528
-0.0064506537
-0.86254866
-0.0058082292
-0.92116795
-0.0048825404
-0.98395342
-0.0038563968
-1.051253
-0.0028633719
-1.123372
-0.0019706867
-1.2005708
-0.0011961155
-1.2831919
-0.00054143589
-1.3716339
0.010047117
-0.45665639
-0.0216597
-0.48492986
-0.039792967
-0.51011024
-0.036851712
-0.53909798
-0.024452658
-0.57443108
-0.013073243
-0.61552843
-0.0074612674
-0.66023623
-0.0062510439
-0.70710391
-0.0066803692
-0.75583626
-0.0068543779
-0.80719156
-0.0065288245
-0.86182807
-0.0057010792
-0.92034941
-0.0046241916
-0.98318563
-0.003543226
-1.0505731
-0.0025717532
-1.1227709
-0.0017407012
-1.2000263
-0.0010447095
-1.2826886
-0.00047057828
-1.3711633
0.018076016
-0.42991724
-0.022650229
-0.45566586
-0.04785956
-0.47686327
-0.044569324
-0.50239262
-0.028629054
-0.53492158
-0.013548815
-0.57395551
-0.0061289487
-0.61686075
-0.00487934
-0.66160793
-0.0061557083
-0.70762857
-0.0071476409
-0.755543
-0.0072719534
-0.80644843
-0.0066008269
-0.86092832
-0.0054641819
-0.91950942
-0.004253752
-0.9824751
-0.003166796
-1.0499781
-0.0022566083
-1.122255
-0.0015108314
-1.1995601
-0.00090272307
-1.2822565
-0.00040776158
-1.3707555
0.027837059
-0.40564528
-0.022691876
-0.4298756
-0.057385693
-0.44613973
-0.053829234
-0.46760336
-0.033622164
-0.49739951
-0.013882666
-0.53458773
-0.0040169204
-0.57606753
-0.0026378391
-0.61910225
-0.0050074685
-0.66275617
-0.0072582074
-0.70751801
-0.0080616176
-0.75475333
-0.0076602908
-0.80538896
-0.0064435862
-0.85994891
-0.0050365257
-0.91872665
-0.0037788945
-0.981863
-0.0027521238
-1.0494825
-0.0019395042
-1.1218263
-0.0012952165
-1.1991676
-0.00077708708
-1.2818871
-0.00035497191
-1.3704005
0.037589705
-0.38139661
-0.020654768
-0.40768239
-0.068243443
-0.41901785
-0.064878309
-0.43509065
-0.039530333
-0.46169519
-0.014039536
-0.49724264
-0.00094959412
-0.53765506
0.00069562961
-0.579401
-0.0030508208
-0.6210589
-0.0070471244
-0.66296725
-0.008923199
-0.70665642
-0.0089146006
-0.75349902
-0.0076342631
-0.80419829
-0.0059533042
-0.85903214
-0.0044385456
-0.918067
-0.0032398616
-0.98137526
-0.0023318827
-1.0490902
-0.0016416259
-1.1214799
-0.0011047525
-1.19884
-0.00067188206
-1.2815702
-0.00031322846
-1.3700873
0.047663316
-0.35630005
-0.016628441
-0.38542293
-0.080480826
-0.395445
-0.078294788
-0.40560137
-0.046806378
-0.42781461
-0.013973106
-0.46176162
0.0032475862
-0.50143982
0.0053745806
-0.54233401
-6.4303511e-05
-0.58238752
-0.0063847186
-0.6217213
-0.0098845268
-0.66200593
-0.01046992
-0.7051011
-0.0091136879
-0.7520196
-0.0070666144
-0.80308498
-0.0051876705
-0.85828301
-0.0037382032
-0.91756865
-0.0026897734
-0.98101737
-0.0019375243
-1.0487943
-0.0013793774
-1.1212053
-0.00094574623
-1.1985661
-0.00058845642
-1.281295
-0.00028258678
-1.3698047
0.057772637
-0.33147908
-0.012034545
-0.36089395
-0.092475094
-0.37342867
-0.094870471
-0.37886932
-0.056472993
-0.39593475
-0.013808864
-0.42797885
0.0087480082
-0.46726204
0.011638122
-0.50770337
0.0042013756
-0.54659969
-0.0051245732
-0.58364767
-0.010952714
-0.62065312
-0.012467624
-0.66000822
-0.011032365
-0.70318243
-0.0084693098
-0.7506169
-0.0060743218
-0.80219833
-0.0042657775
-0.85775544
-0.0030175627
-0.91724086
-0.0021762136
-0.98077868
-0.0015933519
-1.0485803
-0.0011626496
-1.1209884
-0.00082011229
-1.1983345
-0.00052599582
-1.2810516
-0.0002618084
-1.3695429
0.067468246
-0.30660919
-0.0087911768
-0.33472245
-0.10451652
-0.34885252
-0.11491053
-0.35338861
-0.069447978
-0.36589434
-0.01404675
-0.39569687
0.015720208
-0.43495105
0.019719058
-0.47534298
0.010018594
-0.51352058
-0.0031006588
-0.5486236
-0.01213797
-0.58246241
-0.015066893
-0.61805385
-0.013572671
-0.65746792
-0.010292301
-0.70135944
-0.0071652922
-0.74952593
-0.0048449051
-0.8016192
-0.0033125564
-0.85746044
-0.0023485459
-0.91706853
-0.0017344129
-0.98063762
-0.0013139011
-1.048429
-0.00099468388
-1.1208138
-0.00072653725
-1.1981339
-0.00048211945
-1.2808313
-0.00024839408
-1.3692945
0.076393775
-0.28190078
-0.0069883188
-0.30841205
-0.11761685
-0.32162211
-0.13596074
-0.32780231
-0.085549454
-0.33728713
-0.015122839
-0.36481825
0.024344621
-0.40432128
0.029850376
-0.44508237
0.017659125
-0.48298351
-0.00011228809
-0.51650895
-0.013455656
-0.54730592
-0.01846416
-0.57906514
-0.016963053
-0.61466346
-0.012698234
-0.65506198
-0.0085415376
-0.69998319
-0.0055017515
-0.74886908
-0.0035685861
-0.80136317
-0.0024349045
-0.85737408
-0.0017835801
-0.91701937
-0.0013841887
-0.98056734
-0.001103521
-1.0483202
-0.00087284458
-1.1206675
-0.00066167294
-1.1979544
-0.00045339035
-1.2806263
-0.0002394088
-1.3690551
0.084373169
-0.25807588
-0.0053910783
-0.28349802
-0.13097543
-0.29505347
-0.15532641
-0.30225644
-0.10278643
-0.31056534
-0.016905414
-0.33550456
0.034761281
-0.37523491
0.042270462
-0.41674137
0.027360855
-0.4547841
0.0040634327
-0.48715923
-0.014909396
-0.51505522
-0.022897953
-0.54287213
-0.021473516
-0.57455468
-0.015885092
-0.61147661
-0.010304184
-0.65329934
-0.0062635559
-0.69922139
-0.0037741972
-0.74866347
-0.0024066735
-0.8013914
-0.0017103167
-0.85744735
-0.0013503236
-0.91705323
-0.0011298602
-0.980541
-0.00095756217
-1.0482355
-0.00079053921
-1.1205387
-0.00062065943
-1.1977871
-0.00043595516
-1.2804297
-0.00023286358
-1.3688223
0.091461575
-0.23563769
-0.0040684088
-0.25939855
-0.14406523
-0.27040822
-0.17244376
-0.27793612
-0.11903415
-0.28600871
-0.019383955
-0.3080868
0.046907175
-0.34765045
0.057088318
-0.39005277
0.039224192
-0.4286047
0.0096051169
-0.46032578
-0.01650523
-0.4855634
-0.0286448
-0.50930837
-0.027413417
-0.53693222
-0.020070671
-0.5703691
-0.012566876
-0.60921391
-0.0071601212
-0.65240277
-0.0039101569
-0.69908543
-0.0022232788
-0.74884687
-0.0014720643
-0.80162965
-0.0011776272
-0.85762004
-0.0010519941
-0.9171311
-0.00096353604
-0.98053502
-0.00086493464
-1.0481611
-0.00073988761
-1.1204194
-0.00059754212
-1.1976255
-0.0004265418
-1.2802361
-0.00022838419
-1.3685939
0.097755631
-0.21475852
-0.0029920102
-0.23671409
-0.15672014
-0.24674364
-0.18860501
-0.25424698
-0.13408776
-0.26288252
-0.022776103
-0.28261657
0.06029305
-0.32147267
0.074110307
-0.36467244
0.053152836
-0.40398141
0.016467044
-0.43546663
-0.018375576
-0.45845544
-0.03604784
-0.47816036
-0.035135768
-0.50158602
-0.025494695
-0.5315082
-0.015449821
-0.56748616
-0.0082180556
-0.60815598
-0.0039466591
-0.65236627
-0.0018301281
-0.69947858
-0.0010104026
-0.74930853
-0.00081833334
-0.80198895
-0.00083753574
-0.8578345
-0.00087406737
-0.91722056
-0.00086934502
-0.98053061
-0.00081175577
-1.0480892
-0.00071308041
-1.1203039
-0.00058661465
-1.1974654
-0.00042304588
-1.2800414
-0.00022633724
-1.3683675
0.1033463
-0.19548864
-0.002078295
-0.21567224
-0.16873242
-0.22470181
-0.20356702
-0.23178162
-0.14782377
-0.24051097
-0.026689042
-0.25896958
0.074286718
-0.29661023
0.093045227
-0.34040759
0.069052306
-0.38057191
0.024557844
-0.41207221
-0.020847301
-0.43299491
-0.045561628
-0.44894165
-0.04502745
-0.46826868
-0.03241974
-0.49466097
-0.019074006
-0.52788401
-0.0094603073
-0.56624391
-0.0038425526
-0.60826009
-0.0011563064
-0.65304009
-0.00024912135
-0.70023986
-0.00020760508
-0.74991926
-0.00044162392
-0.80238486
-0.00066454593
-0.85804402
-0.00079218061
-0.91729773
-0.00082655357
-0.98051581
-0.00078372363
-1.0480186
-0.00070265178
-1.1201879
-0.00058424058
-1.1973042
-0.0004236492
-1.2798441
-0.00022639585
-1.3681411
0.10830562
-0.17783068
-0.0012573743
-0.19630956
-0.18000565
-0.20439901
-0.2173125
-0.21095633
-0.15997114
-0.21963425
-0.03006961
-0.2371304
0.088476853
-0.27315971
0.11369436
-0.31725936
0.087076896
-0.35843218
0.034334414
-0.39034848
-0.023932915
-0.4089866
-0.057673806
-0.42088273
-0.057440114
-0.43652898
-0.041100973
-0.45958744
-0.023550798
-0.49018418
-0.010896197
-0.52644812
-0.0035459238
-0.56654053
-0.00011541111
-0.60930098
0.00090671563
-0.65419593
0.00073843258
-0.7011859
0.00019650981
-0.75055739
-0.00029932956
-0.80275007
-0.00062002572
-0.85821618
-0.00077761619
-0.91734667
-0.00081297858
-0.98048656
-0.00077708725
-1.0479441
-0.00070561329
-1.1200665
-0.00058786811
-1.19714
-0.00042613773
-1.2796443
-0.00022745223
-1.3679137
0.11159594
-0.18936806
-0.00045146736
-0.17863658
-0.19045419
-0.18586101
-0.22986764
-0.19184386
-0.17065468
-0.20027279
-0.032598493
-0.21710537
0.10261061
-0.25126416
0.13542174
-0.2948871
0.10728857
-0.33747104
0.04674509
-0.37084286
-0.026383136
-0.38789826
-0.072092491
-0.39456791
-0.072530644
-0.4057922
-0.051660935
-0.42596902
-0.028960762
-0.45417748
-0.012508913
-0.48857146
-0.0029904249
-0.52700362
0.0013932381
-0.56804918
0.002570659
-0.61096492
0.0021239243
-0.65558142
0.0011559586
-0.70214534
0.00026965829
-0.75112638
-0.00033127353
-0.80303883
-0.00066113623
-0.85833266
-0.00079992602
-0.91735972
-0.00082031087
-0.98044333
-0.00079039556
-1.0478594
-0.00071648095
-1.1199379
-0.00059288573
-1.1969733
-0.00042864595
-1.2794431
-0.0002284202
-1.3676853
0.11506579
-0.18357008
0.00062127367
-0.1904408
-0.20003187
-0.16905891
-0.24122065
-0.174508
-0.1800159
-0.18248265
-0.03420957
-0.19866172
0.1164172
-0.23091195
0.15728658
-0.27312899
0.12846136
-0.31605988
0.061700681
-0.35242663
-0.026564037
-0.37066196
-0.087376549
-0.3726142
-0.090109709
-0.37698885
-0.064004357
-0.39344878
-0.03526321
-0.41966657
-0.014244855
-0.45244154
-0.0020891982
-0.48947269
0.0034812849
-0.52909167
0.004871241
-0.57034977
0.004071843
-0.61291284
0.0025343889
-0.65695985
0.0011047298
-0.70298042
0.00010335391
-0.75156101
-0.0004724908
-0.80322747
-0.00074645179
-0.85838613
-0.00083903494
-0.91734099
-0.00084595123
-0.98038778
-0.00081005772
-1.0477658
-0.00072362565
-1.1198071
-0.00059637715
-1.1968055
-0.00043038617
-1.2792412
-0.00022869747
-1.3674566
0.11857259
-0.17757359
0.0023030195
-0.18525183
-0.20838405
-0.18208862
-0.25141589
-0.15886367
-0.18816515
-0.16635875
-0.035005171
-0.18168704
0.12975152
-0.21199604
0.17855558
-0.25218095
0.14963965
-0.29430728
0.076652915
-0.33101212
-0.02411263
-0.35487804
-0.10253456
-0.35550394
-0.10987567
-0.35284824
-0.078463605
-0.3625296
-0.042259608
-0.38645238
-0.015988073
-0.41792335
-0.00073190406
-0.45379883
0.0062670271
-0.49225843
0.0079454682
-0.5321659
0.0067223958
-0.57300032
0.0044501163
-0.61482857
0.0022855409
-0.65814066
0.00072236495
-0.70359943
-0.00020438308
-0.75182911
-0.00066342952
-0.80331049
-0.00084411565
-0.85838105
-0.00088786639
-0.91729908
-0.00087687844
-0.98032096
-0.00082199577
-1.0476674
-0.00072911918
-1.1196744
-0.00059958291
-1.1966363
-0.00043092682
-1.279039
-0.00022810342
-1.3672285
0.12201446
-0.1714757
0.0043608038
-0.17963137
-0.21570078
-0.1779351
-0.26169213
-0.17181238
-0.1952601
-0.15176872
-0.035236609
-0.16612731
0.1424754
-0.19441093
0.19877163
-0.23221209
0.17027335
-0.27281466
0.091382327
-0.3090367
-0.019746363
-0.33537838
-0.11745231
-0.33996029
-0.13173734
-0.33364228
-0.096282142
-0.3350297
-0.050249461
-0.35453974
-0.017521413
-0.38491904
0.0012119401
-0.4198672
0.0098718101
-0.45740361
0.01193206
-0.49624503
0.010227433
-0.53567094
0.0070401976
-0.5755904
0.0039101622
-0.61645319
0.0015766987
-0.658995
0.00015475384
-0.70395856
-0.00056414209
-0.7519284
-0.0008564099
-0.8032982
-0.00093718383
-0.85833173
-0.0009357948
-0.91724016
-0.00089795213
-0.980245
-0.00083023421
-1.0475663
-0.00073464266
-1.1195393
-0.00060075578
-1.1964665
-0.00042985671
-1.2788372
-0.00022665772
-1.3670018
0.12535194
-0.16554621
0.0066818044
-0.1737967
-0.22193012
-0.17340203
-0.27086122
-0.16876601
-0.20556501
-0.16150748
-0.034965475
-0.15203985
0.15441724
-0.17806915
0.21772828
-0.21336757
0.18983928
-0.25177802
0.10585864
-0.28729097
-0.015950777
-0.31283228
-0.13115382
-0.32167688
-0.15573954
-0.31595808
-0.11810763
-0.31181679
-0.060800398
-0.32447877
-0.018733758
-0.3533274
0.0038973391
-0.38760444
0.014411445
-0.42440683
0.016960639
-0.46243219
0.014740402
-0.500758
0.010456994
-0.53908773
0.0060957996
-0.57777604
0.002730986
-0.61760748
0.00062116865
-0.65946141
-0.0004640547
-0.70405865
-0.00090452255
-0.75188029
-0.0010205324
-0.80321485
-0.0010109392
-0.85825659
-0.00096642558
-0.91717169
-0.00090836974
-0.98016686
-0.00083596864
-1.047465
-0.00073580561
-1.1194043
-0.00059912138
-1.1962973
-0.00042720568
-1.2786367
-0.00022451141
-1.3667773
0.12855999
-0.15999147
0.0091737698
-0.16803817
-0.22692366
-0.16880316
-0.27872918
-0.16553407
-0.21481682
-0.15951419
-0.042104576
-0.15436838
0.16557046
-0.16319308
0.23537732
-0.19571818
0.20803241
-0.2315607
0.11960745
-0.26552684
-0.013860993
-0.28938075
-0.14492216
-0.29906394
-0.18051933
-0.2968971
-0.14291286
-0.29115286
-0.075475262
-0.29714193
-0.020109238
-0.32310329
0.0075194832
-0.35694954
0.019983985
-0.39317698
0.023142475
-0.43058867
0.020407349
-0.46809914
0.014862344
-0.50516335
0.0089794144
-0.54197135
0.0042658946
-0.57931095
0.0012171371
-0.61820345
-0.0003822252
-0.65954324
-0.0010272897
-0.70393588
-0.0011772423
-0.75172358
-0.0011353453
-0.80309044
-0.0010527678
-0.85817025
-0.00097800316
-0.91710205
-0.00091148049
-0.98009135
-0.00083596321
-1.0473648
-0.00073325052
-1.1192701
-0.00059550621
-1.196129
-0.00042334524
-1.2784378
-0.0002217917
-1.3665555
0.13160945
-0.1549225
0.011788255
-0.16260595
-0.23060157
-0.16436027
-0.2852133
-0.16231904
-0.22292588
-0.157425
-0.048557821
-0.15306095
0.16842764
-0.15722555
0.25157724
-0.179393
0.22471231
-0.21239808
0.13233632
-0.24428957
-0.012670348
-0.26671748
-0.15910521
-0.2751977
-0.203371
-0.27621226
-0.16801731
-0.27179264
-0.093555601
-0.27307252
-0.022834463
-0.2944167
0.012308713
-0.32789251
0.026682429
-0.36364799
0.030560091
-0.40059459
0.027357195
-0.43753852
0.020420165
-0.47365696
0.012715442
-0.50889937
0.0062819346
-0.54398739
0.0019735197
-0.58006733
-0.00034131451
-0.61824436
-0.0012749974
-0.65929553
-0.0014633683
-0.70364976
-0.0013563258
-0.7515026
-0.0011928533
-0.80295036
-0.0010626368
-0.85808561
-0.00097482749
-0.91703871
-0.0009071528
-0.98002016
-0.00083124994
-1.0472668
-0.00072849802
-1.1191372
-0.00059025835
-1.195962
-0.00041835574
-1.2782413
-0.00021863804
-1.3663369
0.13449861
-0.15049231
0.014502322
-0.15763656
-0.2329625
-0.16024502
-0.29032417
-0.15924939
-0.22983445
-0.15541047
-0.054288338
-0.15169449
0.17131055
-0.15594386
0.26308716
-0.16873547
0.23970919
-0.19438989
0.14378808
-0.22384984
-0.012096703
-0.24486321
-0.17307833
-0.25274436
-0.22370801
-0.25486069
-0.19109139
-0.25313819
-0.11307056
-0.25227768
-0.027767821
-0.26813916
0.018084625
-0.30019262
0.034602488
-0.33581257
0.039255781
-0.37234368
0.035684051
-0.40892145
0.027283509
-0.44440186
0.017473584
-0.4784151
0.008902259
-0.5115197
0.0029342093
-0.54494808
-0.00036585062
-0.58004279
-0.0017099625
-0.61780939
-0.0019506682
-0.65880823
-0.0017374611
-0.70326862
-0.0014358972
-0.75125955
-0.0011963788
-0.80281662
-0.0010464407
-0.858014
-0.00095973427
-0.91698613
-0.00089641783
-0.979955
-0.00082342166
-1.0471719
-0.00072136381
-1.119006
-0.00058325378
-1.1957971
-0.00041256047
-1.2780473
-0.00021520383
-1.3661217
0.13726185
-0.14687789
0.0173387
-0.15332869
-0.233996
-0.15660306
-0.2940532
-0.15651599
-0.23548724
-0.1535966
-0.059193204
-0.15050561
0.17410733
-0.15449127
0.27453021
-0.16738691
0.25441478
-0.18344106
0.15383128
-0.20443309
-0.012148026
-0.22379852
-0.18658174
-0.23135981
-0.24256705
-0.23388532
-0.21175733
-0.23419475
-0.13264812
-0.23356064
-0.035331591
-0.24471391
0.024093091
-0.27414763
0.04395341
-0.30954354
0.049177067
-0.34573386
0.045430399
-0.38209003
0.035578123
-0.41721606
0.023428183
-0.45035646
0.012274821
-0.48178766
0.0041622788
-0.51274777
-0.00048023536
-0.54483369
-0.0024081503
-0.57934461
-0.0027296837
-0.61703038
-0.002361125
-0.65818457
-0.0018463349
-0.70285819
-0.0014252108
-0.75103072
-0.0011556185
-0.80270744
-0.0010104619
-0.85796327
-0.0009358004
-0.91694674
-0.00088147057
-0.97989695
-0.00081288894
-1.0470804
-0.00071225076
-1.1188771
-0.00057535114
-1.1956344
-0.00040630204
-1.2778562
-0.00021164295
-1.36591
-0.14424047
0.13993661
0.020328204
-0.14986739
-0.23371152
-0.15361317
-0.29642384
-0.15423242
-0.23987652
-0.15212672
-0.063186934
-0.14960287
0.17689576
-0.15329403
0.28555924
-0.1655203
0.26860557
-0.18157771
0.17017284
-0.19978261
-0.012321707
-0.20425941
-0.19926129
-0.21111897
-0.26017241
-0.21375444
-0.23055178
-0.21509087
-0.15104263
-0.21580024
-0.045219927
-0.2236723
0.029296362
-0.24991718
0.054627957
-0.28482217
0.060320732
-0.3206872
0.056574881
-0.35687834
0.045393669
-0.39190557
0.030756585
-0.42454447
0.016574383
-0.45465602
0.0057435984
-0.48336898
-0.00070347386
-0.51252453
-0.0034599079
-0.54378193
-0.0039123666
-0.57816192
-0.003331368
-0.61606014
-0.0025073412
-0.65752356
-0.0018090372
-0.70247436
-0.0013418773
-0.75084446
-0.0010822266
-0.80263567
-0.00096103188
-0.85793804
-0.00090654734
-0.91692167
-0.00086407397
-0.97984576
-0.00080067502
-1.0469919
-0.00070230775
-1.1187501
-0.00056689629
-1.1954738
-0.00039981245
-1.2776681
-0.00020806546
-1.365702
-0.14735619
0.023443917
-0.14259112
0.14251275
-0.23217393
-0.15140499
-0.29754459
-0.15249242
-0.24307113
-0.15103781
-0.066345675
-0.14896797
0.17987876
-0.15258587
0.29581069
-0.16354548
0.28203428
-0.17894901
0.18583111
-0.19723598
0.00064167506
-0.21274599
-0.21091612
-0.19260458
-0.27639049
-0.1949009
-0.24755855
-0.19674768
-0.16760283
-0.19853066
-0.056255815
-0.20476435
0.033175596
-0.22755153
0.066281323
-0.26157054
0.072642158
-0.2971436
0.069040599
-0.33315292
0.056790974
-0.36827565
0.039628886
-0.40077787
0.022008862
-0.42997894
0.0078003238
-0.45671275
-0.0010465435
-0.48302591
-0.0049718371
-0.5110126
-0.0056374759
-0.54205682
-0.0047773549
-0.57671594
-0.0035229289
-0.61504455
-0.0024240578
-0.65690854
-0.0016563735
-0.70215986
-0.0012065718
-0.75072012
-0.00098882963
-0.80260788
-0.00090571909
-0.85793887
-0.00087544927
-0.91691029
-0.00084581776
-0.97980062
-0.0007878878
-1.0469064
-0.00069193037
-1.1186251
-0.00055821593
-1.1953154
-0.00039334063
-1.2774828
-0.0002045723
-1.3654974
-0.14997973
-0.22955039
-0.14588598
0.026738776
-0.14229245
0.14493038
-0.29757859
-0.15137098
-0.24518707
-0.15037649
-0.068686781
-0.14869671
0.18301581
-0.15210502
0.30507661
-0.16185179
0.2942305
-0.1757417
0.20053276
-0.19365066
0.013645196
-0.2102395
-0.2098721
-0.21379002
-0.29145664
-0.17753842
-0.26275215
-0.17970729
-0.18225179
-0.18209873
-0.067169306
-0.18761717
0.035605034
-0.20719379
0.078482765
-0.23975298
0.086086364
-0.27501475
0.08267922
-0.31078222
0.069766003
-0.34612795
0.050203791
-0.37885055
0.02881409
-0.4075831
0.010496952
-0.43267557
-0.0014998788
-0.45625941
-0.0070589315
-0.48093882
-0.0080694896
-0.50858058
-0.0068551949
-0.53997898
-0.0050198951
-0.57521897
-0.0033637541
-0.61410485
-0.0021630506
-0.65640187
-0.0014236603
-0.70194277
-0.0010420523
-0.7506669
-0.00088900782
-0.80262459
-0.00084998313
-0.85796433
-0.00084477083
-0.91691134
-0.0008277802
-0.97976073
-0.00077517722
-1.0468231
-0.00068156633
-1.1185017
-0.00054972724
-1.195159
-0.00038706883
-1.2773003
-0.00020123032
-1.3652962
-0.15087225
-0.29668607
-0.14964139
-0.22579498
-0.14545618
0.029902509
-0.14283471
0.14728733
-0.24640497
-0.15015308
-0.070090902
-0.14897237
0.18623122
-0.15191212
0.31335249
-0.16038091
0.30469656
-0.17231785
0.21372758
-0.18893652
0.025997902
-0.20600336
-0.20726096
-0.21285064
-0.30196636
-0.2032803
-0.27628503
-0.16400553
-0.19513414
-0.16682494
-0.077269689
-0.17199834
0.036814727
-0.18882687
0.090727809
-0.21943883
0.10055911
-0.25422572
0.097324377
-0.28965991
0.084245913
-0.32526213
0.062603651
-0.35852781
0.037251562
-0.38728802
0.014051851
-0.411138
-0.002029281
-0.43214617
-0.0098483066
-0.45347004
-0.011409003
-0.4775993
-0.0097542905
-0.50568149
-0.0071491897
-0.53784969
-0.0047392813
-0.57384344
-0.002938347
-0.61332956
-0.0017819975
-0.65604353
-0.0011480839
-0.70183674
-0.00086934675
-0.75068656
-0.00079115435
-0.80268342
-0.00079648935
-0.85801262
-0.00081637565
-0.91692274
-0.0008109173
-0.97972499
-0.00076314637
-1.0467415
-0.00067179117
-1.1183796
-0.00054164006
-1.1950044
-0.00038111169
-1.2771204
-0.00019807178
-1.3650981
-0.15073611
-0.24654111
-0.15176104
-0.29456642
-0.1499403
-0.22131086
-0.1459149
0.032982696
-0.14427412
0.14931704
-0.070398893
-0.14984509
0.18959001
-0.15233115
0.32063706
-0.1591967
0.31331649
-0.16900083
0.22503522
-0.18362549
0.037378861
-0.20031748
-0.20364983
-0.20961449
-0.31123888
-0.20357813
-0.29194208
-0.18762325
-0.20647317
-0.15266651
-0.086289314
-0.15780531
0.037110818
-0.17229443
0.10261172
-0.20071078
0.11582765
-0.23470737
0.11281254
-0.26971389
0.10008977
-0.30550376
0.076920451
-0.33957893
0.047596796
-0.36887304
0.018734354
-0.39197053
-0.0025599059
-0.41060737
-0.013490529
-0.42850395
-0.015896171
-0.44898287
-0.013698962
-0.47365463
-0.010087828
-0.50274285
-0.0066789354
-0.53591003
-0.0040703163
-0.57271147
-0.0023377341
-0.61277382
-0.0013388999
-0.65585271
-0.00086177148
-0.70184432
-0.00070254232
-0.75077517
-0.0006990717
-0.80278083
-0.00074876144
-0.85808023
-0.00079172498
-0.91694193
-0.00079622739
-0.9796919
-0.00075250968
-1.0466608
-0.0006628743
-1.1182584
-0.00053412671
-1.1948514
-0.00037554772
-1.2769429
-0.00019512045
-1.364903
-0.15171986
-0.069415136
-0.15295518
-0.24534697
-0.15312765
-0.29137907
-0.15091333
-0.21631243
-0.14702624
0.035734807
-0.14646817
0.15081643
0.1932863
-0.15354137
0.32676308
-0.15845717
0.32017256
-0.16605276
0.23412328
-0.1780889
0.047561834
-0.19380846
-0.19891759
-0.20504973
-0.31910698
-0.20174638
-0.30607219
-0.18944802
-0.22652134
-0.16757508
-0.094249516
-0.14470631
0.036810364
-0.15750486
0.11383765
-0.18352036
0.1315645
-0.21644764
0.12896226
-0.25085709
0.11708846
-0.28671258
0.093172058
-0.32175537
0.060118976
-0.35210111
0.024885671
-0.37502436
-0.0029721635
-0.39155827
-0.018142338
-0.40595557
-0.02181017
-0.42258995
-0.018958333
-0.4437235
-0.01403906
-0.4697034
-0.0093269206
-0.50009486
-0.0056560545
-0.5343243
-0.0031532355
-0.57189597
-0.0016498248
-0.61246289
-0.00088264226
-0.65583184
-0.00058787526
-0.70195899
-0.00054881719
-0.75092542
-0.00061815159
-0.80291144
-0.0007094846
-0.85816247
-0.00077198036
-0.91696618
-0.00078446569
-0.97965995
-0.00074353515
-1.0465802
-0.00065494361
-1.1181376
-0.00052727302
-1.1946997
-0.00037040042
-1.2767677
-0.00019236661
-1.3647106
-0.1556
0.19716644
-0.15468501
-0.067685307
-0.15575747
-0.24271715
-0.15517758
-0.28711481
-0.15244324
-0.21089543
-0.14862932
0.037895957
-0.14919305
0.15172532
0.33152999
-0.15830829
0.32527939
-0.163564
0.24082145
-0.17275093
0.056096047
-0.18662311
-0.19356616
-0.19915989
-0.32545797
-0.19869874
-0.31848199
-0.18933658
-0.24491654
-0.17105282
-0.11690414
-0.14492046
0.036356626
-0.14425257
0.12414915
-0.16781636
0.14746652
-0.19942238
0.1455501
-0.23303548
0.13494261
-0.26871124
0.11113712
-0.30467764
0.074875065
-0.33651146
0.032830063
-0.3600455
-0.0030706295
-0.37492589
-0.023966169
-0.38573444
-0.02948998
-0.39827576
-0.025847191
-0.41570109
-0.019231311
-0.43853125
-0.012839276
-0.46619105
-0.0077988153
-0.4979521
-0.0042929631
-0.53318457
-0.0021178076
-0.57142799
-0.00094787662
-0.61239766
-0.00044934494
-0.65597037
-0.00033936811
-0.70216844
-0.00041487113
-0.7511287
-0.00055303977
-0.80306789
-0.00067986598
-0.85825458
-0.00075784806
-0.9169928
-0.00077591133
-0.97962757
-0.00073634513
-1.0464987
-0.00064813272
-1.1180167
-0.00052110241
-1.194549
-0.00036565998
-1.2765944
-0.00018979664
-1.3645208
-0.15884738
0.33477737
-0.15785465
0.20033607
-0.15870088
-0.064741905
-0.15936569
-0.23852904
-0.15787081
-0.28168724
-0.15455114
-0.20497361
-0.15079646
0.039499367
-0.15235978
0.15200563
0.32859316
-0.16162206
0.24505553
-0.16779808
0.062655666
-0.17931055
-0.1880201
-0.19216918
-0.33025867
-0.19435918
-0.32918654
-0.18799419
-0.26170761
-0.17254551
-0.13814487
-0.14981209
0.018889743
-0.12745357
0.13398555
-0.15408897
0.16317466
-0.1835245
0.16230877
-0.21618105
0.15326781
-0.25136068
0.13021207
-0.28778618
0.091288633
-0.32109121
0.042193809
-0.3458752
-0.0030053102
-0.36011082
-0.031136271
-0.36775579
-0.039312068
-0.37591235
-0.034738008
-0.38938494
-0.025915091
-0.40901731
-0.017376142
-0.43399438
-0.010601731
-0.46338813
-0.0058192357
-0.49642583
-0.0027771837
-0.53252519
-0.0010713249
-0.57130454
-0.00028568705
-0.61256132
-6.0902171e-05
-0.65624884
-0.00012493949
-0.70245837
-0.0003077518
-0.75137399
-0.00050554145
-0.80324221
-0.00066045361
-0.85835198
-0.00074952178
-0.91701919
-0.00077058579
-0.97959333
-0.00073102918
-1.0464159
-0.00064241309
-1.1178954
-0.00051557643
-1.194399
-0.00036128908
-1.2764229
-0.00018738291
-1.3643334
-0.16033108
0.33007687
-0.15922208
0.3361448
-0.16152044
0.20315564
-0.16347949
-0.06062811
-0.1636795
-0.23272035
-0.16131156
-0.27492682
-0.157336
-0.19843407
-0.15350176
0.040641347
-0.1559695
0.15155844
0.24688974
-0.16345627
0.067011286
-0.1721537
-0.18255911
-0.18477154
-0.33324539
-0.18918246
-0.33796568
-0.18558004
-0.27673478
-0.17296703
-0.15790793
-0.15278245
0.00032858706
-0.13125093
0.1302187
-0.12368672
0.178492
-0.16940631
0.17892211
-0.20013784
0.17153434
-0.23444758
0.14954674
-0.27069535
0.10789855
-0.3043961
0.051840465
-0.33073787
-0.0038147953
-0.34506572
-0.040394309
-0.35085278
-0.051756126
-0.35531173
-0.046063292
-0.36458707
-0.034363254
-0.38093677
-0.023091587
-0.40330187
-0.014158322
-0.43043779
-0.0077870362
-0.46142033
-0.0036552882
-0.49554773
-0.001260409
-0.53233611
-9.2185861e-05
-0.57149804
0.00029974071
-0.61292196
0.000270843
-0.65664462
4.6218434e-05
-0.70281234
-0.00023050978
-0.75164902
-0.00047566162
-0.803427
-0.00065109862
-0.8584504
-0.00074676406
-0.91704301
-0.00076832858
-0.97955603
-0.0007274285
-1.0463308
-0.00063765843
-1.1177733