/*--------------------------------*- C++ -*----------------------------------*\
| =========                 |                                                 |
| \\      /  F ield         | OpenFOAM: The Open Source CFD Toolbox           |
|  \\    /   O peration     | Version:  5.0                                   |
|   \\  /    A nd           | Web:      www.OpenFOAM.org                      |
|    \\/     M anipulation  |                                                 |
\*---------------------------------------------------------------------------*/
FoamFile
{
    version     2.0;
    format      ascii;
    class       surfaceScalarField;
    location    "340";
    object      phi_0;
}
// * * * * * * * * * * * * * * * * * * * * * * * * * * * * * * * * * * * * * //

dimensions      [0 3 -1 0 0 0 0];

internalField   nonuniform List<scalar> 
18180
(
-0.001890783
-1.3895222
-0.0036795033
-1.2995519
-0.0018423709
-1.3876798
-0.0053572886
-1.2155358
-0.0035856965
-1.2978086
-0.0017627457
-1.385917
-0.0069456181
-1.1370524
-0.0052340169
-1.2138875
-0.0034336211
-1.2961377
-0.0016463185
-1.3842707
-0.0084257948
-1.0637132
-0.0068021519
-1.1354842
-0.0050215568
-1.2122995
-0.003209574
-1.2945745
-0.00151311
-1.3827576
-0.0097790724
-0.99517485
-0.0082903127
-1.0622251
-0.0065447507
-1.133961
-0.00469821
-1.2108109
-0.002947666
-1.2931399
-0.0013753431
-1.3813823
-0.010967176
-0.93111555
-0.0096925
-0.99377266
-0.0080170536
-1.0607528
-0.0061342646
-1.132525
-0.004311417
-1.2094471
-0.0026739324
-1.2918413
-0.0012521577
-1.3801301
-0.011948981
-0.8712603
-0.010993083
-0.92981496
-0.0094539341
-0.99233578
-0.0075395454
-1.0593475
-0.0056211456
-1.1312153
-0.003901619
-1.2082195
-0.0024271413
-1.2906664
-0.0011505095
-1.3789796
-0.012686652
-0.81534235
-0.012172494
-0.87008089
-0.01087983
-0.92838907
-0.0089472596
-0.99092807
-0.0068943368
-1.0580743
-0.0050663881
-1.1300505
-0.0035314424
-1.2071152
-0.0022236671
-1.2895932
-0.0010703317
-1.3779093
-0.013054077
-0.76316767
-0.013177716
-0.81433712
-0.01233921
-0.86862151
-0.010412872
-0.92692345
-0.0081588439
-0.98966356
-0.0061745176
-1.0569662
-0.0045651993
-1.1290167
-0.0032294927
-1.2061093
-0.002066332
-1.2885972
-0.0010050134
-1.3769043
-0.012932519
-0.7145046
-0.014038999
-0.76230639
-0.013917011
-0.81275932
-0.012005203
-0.86702917
-0.0094565053
-0.92562579
-0.0072351829
-0.98860289
-0.0055261007
-1.0560053
-0.0041643738
-1.1280819
-0.003002528
-1.2051731
-0.0019430961
-1.2876591
-0.00094704246
-1.3759572
-0.012202425
-0.66923287
-0.014919175
-0.71362442
-0.015764447
-0.76045895
-0.013840914
-0.81092361
-0.010833697
-0.86565198
-0.0082578587
-0.92460312
-0.0064033425
-0.98772565
-0.0050241778
-1.0551455
-0.0038765018
-1.1272079
-0.0028306345
-1.2042856
-0.0018370795
-1.2867691
-0.00089043325
-1.3750668
-0.010721347
-0.62714371
-0.015891854
-0.66826019
-0.01789357
-0.7114953
-0.015987369
-0.7583125
-0.012353666
-0.80940364
-0.0092512696
-0.86465857
-0.007178032
-0.92382843
-0.0057895049
-0.98696033
-0.0046875814
-1.0543344
-0.0036693073
-1.1263692
-0.0026846367
-1.203438
-0.001732865
-1.2859267
-0.00083089076
-1.3742359
-0.0083964875
-0.58799659
-0.016888902
-0.62614666
-0.020413348
-0.66574041
-0.018520235
-0.70896244
-0.01406264
-0.75660352
-0.010202573
-0.80845234
-0.0078225947
-0.86401401
-0.0064291301
-0.9231888
-0.0054184797
-0.98622943
-0.0044628603
-1.0535408
-0.0034965678
-1.1255573
-0.0025386465
-1.2026323
-0.0016195478
-1.285138
-0.00076562365
-1.3734703
-0.0051547464
-0.55159563
-0.017836476
-0.58704901
-0.023573172
-0.62298684
-0.02164412
-0.66261653
-0.01604442
-0.70698066
-0.011089541
-0.75571656
-0.0082844713
-0.80799046
-0.0068976852
-0.86354545
-0.0060400094
-0.92256727
-0.0052025765
-0.98548971
-0.0042811262
-1.0527563
-0.0033194067
-1.1247765
-0.0023753915
-1.2018764
-0.0014917003
-1.2844119
-0.0006940967
-1.3727762
-0.00099392845
-0.51765436
-0.018715121
-0.55071698
-0.027599755
-0.58302243
-0.025592659
-0.6190383
-0.018412408
-0.66024854
-0.0119288
-0.7061414
-0.0084596549
-0.75554137
-0.0071121795
-0.80777597
-0.0065047894
-0.86308067
-0.0058680871
-0.92190176
-0.0050427812
-0.98472806
-0.0040898011
-1.0519859
-0.0031123435
-1.1240396
-0.0021865888
-1.2011815
-0.0013497335
-1.2837563
-0.00061857056
-1.3721576
0.0042162073
-0.48596069
-0.019513001
-0.51685648
-0.032707679
-0.54560906
-0.03060063
-0.57801446
-0.021294017
-0.61615669
-0.012706122
-0.65947121
-0.0082711222
-0.70632993
-0.0069477256
-0.75570583
-0.0067190757
-0.80756168
-0.0064143289
-0.86253443
-0.0057805984
-0.92116394
-0.0048673126
-0.98395054
-0.0038509564
-1.0512473
-0.0028637105
-1.1233624
-0.0019735067
-1.2005577
-0.0011991322
-1.2831757
-0.00054322218
-1.3716144
0.010674206
-0.45650692
-0.020335414
-0.48513827
-0.039140358
-0.5104238
-0.036900683
-0.53930901
-0.024831226
-0.57447725
-0.013407127
-0.61545568
-0.0076140655
-0.66012827
-0.0062584794
-0.70701918
-0.006629713
-0.75579519
-0.0068000057
-0.80717601
-0.0064865472
-0.86182848
-0.0056783735
-0.92035288
-0.0046165886
-0.98318491
-0.00354419
-1.0505668
-0.0025761478
-1.1227598
-0.0017455758
-1.2000113
-0.0010484109
-1.2826705
-0.0004723839
-1.371142
0.0188685
-0.42970457
-0.020932683
-0.45590965
-0.047025549
-0.47725308
-0.044664146
-0.50266034
-0.029155687
-0.53498455
-0.01402491
-0.57385947
-0.0063555714
-0.61671418
-0.0048978384
-0.66148891
-0.0060778482
-0.70757104
-0.0070665958
-0.7555286
-0.007205399
-0.80645715
-0.0065651786
-0.86094168
-0.0054532464
-0.91951623
-0.0042556687
-0.98247343
-0.0031736389
-1.0499693
-0.002263966
-1.1222414
-0.0015167258
-1.199543
-0.00090643928
-1.2822365
-0.00040933042
-1.3707327
0.028813123
-0.40535797
-0.020508481
-0.43012877
-0.056334697
-0.4466005
-0.053987124
-0.4679301
-0.034337164
-0.49747886
-0.014547334
-0.53446212
-0.0043433854
-0.57587165
-0.0026737405
-0.61893827
-0.0048942855
-0.66267247
-0.007133589
-0.70750405
-0.0079615936
-0.7547724
-0.0076055499
-0.80541678
-0.0064275702
-0.85996735
-0.0050402099
-0.91873168
-0.0037895508
-0.98185752
-0.0027631147
-1.0494701
-0.0019482901
-1.1218098
-0.0013010806
-1.1991483
-0.00078027229
-1.2818655
-0.00035610444
-1.3703766
0.038744023
-0.38110592
-0.017945279
-0.40792117
-0.066906604
-0.41955687
-0.065097845
-0.43548978
-0.040476675
-0.46179059
-0.014944722
-0.49708147
-0.0014078065
-0.5373977
0.00063410296
-0.57917949
-0.0028924708
-0.62094009
-0.0068562688
-0.66294979
-0.0087756182
-0.70669002
-0.0088326794
-0.75354527
-0.0076117034
-0.80423265
-0.0059604075
-0.85904715
-0.0044550812
-0.91806615
-0.0032564204
-0.98136421
-0.0023447424
-1.0490737
-0.0016502865
-1.1214606
-0.0011097393
-1.1988189
-0.00067417314
-1.2815475
-0.00031378088
-1.3700628
0.048977443
-0.35599858
-0.013396955
-0.38565424
-0.078729547
-0.39609823
-0.078541939
-0.40611277
-0.048026501
-0.42793995
-0.01517714
-0.46155817
0.002620287
-0.50110957
0.0052774162
-0.54204101
0.00015114491
-0.58222311
-0.0061005618
-0.62169579
-0.0096658216
-0.66205959
-0.010348384
-0.70517432
-0.0090810485
-0.75207593
-0.0070793327
-0.80311372
-0.0052136606
-0.85828857
-0.0037631972
-0.91755938
-0.0027086268
-0.98100033
-0.0019499609
-1.048774
-0.0013866255
-1.1211838
-0.00094931082
-1.1985437
-0.00058967401
-1.2812716
-0.00028251531
-1.3697803
0.059215267
-0.33119079
-0.0082314714
-0.36116406
-0.090182223
-0.37420157
-0.095091581
-0.37954859
-0.058006395
-0.39613288
-0.015388355
-0.42772874
0.0079100331
-0.46684792
0.01149246
-0.50732461
0.004487749
-0.54637762
-0.0047141159
-0.58360955
-0.010629341
-0.62073228
-0.012288839
-0.66011913
-0.010984991
-0.70327037
-0.0084903336
-0.75066493
-0.0061147862
-0.8022126
-0.0043037024
-0.85774807
-0.0030454454
-0.91722256
-0.0021939704
-0.98075632
-0.0016034646
-1.0485572
-0.0011676194
-1.1209654
-0.00082199896
-1.1983114
-0.00052612848
-1.281028
-0.00026122535
-1.369519
0.069057915
-0.30638376
-0.0043472031
-0.33507506
-0.10162866
-0.34971762
-0.11504105
-0.35425209
-0.071346513
-0.36620847
-0.016118578
-0.39540265
0.014623032
-0.43444173
0.019509
-0.47486446
0.010389938
-0.5132268
-0.0025238933
-0.54856784
-0.011665202
-0.58257369
-0.014805454
-0.61821566
-0.013504733
-0.65759939
-0.010326598
-0.70143411
-0.007227723
-0.74955199
-0.0049023633
-0.80161393
-0.0033540327
-0.85743948
-0.0023742015
-0.91704232
-0.0017483636
-0.98061142
-0.0013204399
-1.0484043
-0.00099700917
-1.1207904
-0.00072671388
-1.1981108
-0.0004812994
-1.2808079
-0.00024753816
-1.3692715
0.078139547
-0.2817223
-0.001912202
-0.30881876
-0.11419481
-0.32250891
-0.13601907
-0.32873961
-0.087890562
-0.33770804
-0.017844908
-0.36448214
0.022923587
-0.40370321
0.029558601
-0.44449133
0.018127502
-0.48260202
0.00067830763
-0.516429
-0.012775238
-0.5474578
-0.018084681
-0.57929447
-0.016867144
-0.61485325
-0.012753367
-0.65517262
-0.0086370559
-0.70002478
-0.0055882321
-0.74886612
-0.003630287
-0.80133768
-0.0024722762
-0.85734141
-0.0018030305
-0.91698766
-0.0013926757
-0.98053918
-0.0011060066
-1.0482954
-0.00087263763
-1.1206445
-0.00066029313
-1.1979318
-0.00045185143
-1.2806036
-0.00023850672
-1.369033
0.086278787
-0.25795671
0.00029375798
-0.28392826
-0.12714431
-0.29586926
-0.15539537
-0.30313261
-0.10558608
-0.31104409
-0.020426949
-0.335126
0.032940865
-0.37449942
0.041884893
-0.4160295
0.027941016
-0.45430485
0.005126089
-0.4870498
-0.013945985
-0.51525825
-0.022354156
-0.54318833
-0.021341823
-0.57481979
-0.015972452
-0.61163416
-0.010448584
-0.6533611
-0.0063922413
-0.69922077
-0.0038654262
-0.74863098
-0.0024611887
-0.80134877
-0.0017377045
-0.85740673
-0.001361326
-0.91701901
-0.0011323484
-0.98051284
-0.00095626583
-1.0482117
-0.00078819456
-1.1205166
-0.00061806227
-1.1977656
-0.00043395865
-1.2804081
-0.00023199902
-1.368801
0.093514455
-0.2355569
0.0021655416
-0.25982849
-0.13987956
-0.27119302
-0.17252402
-0.27874061
-0.122214
-0.28650468
-0.023775494
-0.30769554
0.044621175
-0.34680631
0.056609848
-0.38922437
0.039941677
-0.42803016
0.011007535
-0.46018629
-0.015164056
-0.48583173
-0.027878253
-0.50973415
-0.027238479
-0.53729167
-0.020207033
-0.57058521
-0.012781935
-0.60930081
-0.0073490714
-0.65240427
-0.0040434971
-0.6990427
-0.0023024559
-0.74878971
-0.0015108494
-0.80157562
-0.0011919523
-0.85757611
-0.0010540543
-0.9170973
-0.00096041506
-0.98050869
-0.00086065521
-1.0481393
-0.00073589355
-1.1203988
-0.00059417347
-1.1976054
-0.00042429098
-1.2802158
-0.00022749913
-1.3685735
0.099944453
-0.21470604
0.0037516938
-0.23714306
-0.15221777
-0.24749028
-0.18870774
-0.2550093
-0.1375766
-0.26337801
-0.028030336
-0.28224984
0.057467943
-0.32054231
0.073545619
-0.36374208
0.054041408
-0.4033241
0.018286859
-0.43530949
-0.016533512
-0.45881684
-0.034986153
-0.47872383
-0.034911801
-0.50206083
-0.02570315
-0.53179556
-0.015763916
-0.56760322
-0.0084909879
-0.6081589
-0.0041386446
-0.65230912
-0.0019440217
-0.69940113
-0.0010653501
-0.74923521
-0.00083714457
-0.80193043
-0.00083842623
-0.85779173
-0.00086801922
-0.9171897
-0.00086179504
-0.98050755
-0.00080555207
-1.0480696
-0.00070798099
-1.120285
-0.00058286076
-1.1974468
-0.00042068665
-1.2800226
-0.00022538192
-1.3683481
0.10566128
-0.19545715
0.0051349277
-0.21608927
-0.16395643
-0.2254044
-0.20372335
-0.23247466
-0.15161939
-0.24096652
-0.03277005
-0.25863829
0.070838435
-0.29562034
0.092383971
-0.33938066
0.070122537
-0.37982321
0.026861092
-0.41189834
-0.018352797
-0.4334902
-0.04412269
-0.4496803
-0.04475305
-0.46888258
-0.032731466
-0.49503252
-0.019523616
-0.52803586
-0.0098471343
-0.56624708
-0.0041141468
-0.60818339
-0.0013178199
-0.65293532
-0.00032658869
-0.70013989
-0.00023251829
-0.74983984
-0.00044030167
-0.80232856
-0.00065356957
-0.85800618
-0.00077975796
-0.91727173
-0.00081639859
-0.9804967
-0.00077646292
-1.0480011
-0.00069691824
-1.1201709
-0.00058036407
-1.1972872
-0.00042136132
-1.2798267
-0.00022542993
-1.3681227
0.11074238
-0.17782046
0.0063799034
-0.19670213
-0.17499148
-0.20505422
-0.21754943
-0.21157832
-0.16406885
-0.2200252
-0.036921902
-0.23681467
0.084341584
-0.27214144
0.11289714
-0.3161335
0.088295256
-0.35755338
0.037128115
-0.39009024
-0.020662926
-0.40958821
-0.055793515
-0.42181938
-0.057130282
-0.43730307
-0.041558776
-0.46005527
-0.024182239
-0.49037389
-0.011433574
-0.52644942
-0.0039228294
-0.5664384
-0.00034061806
-0.6091606
0.00079850422
-0.65406041
0.00070521581
-0.70107763
0.00020147597
-0.75048162
-0.0002805284
-0.8027016
-0.00059994913
-0.85818599
-0.00076117512
-0.91732696
-0.0008019506
-0.98047122
-0.00076879566
-1.0479292
-0.00069963194
-1.1200516
-0.0005842328
-1.1971243
-0.00042411452
-1.279628
-0.00022659592
-1.3678961
0.11413568
-0.18934532
0.0075471684
-0.17898773
-0.18522928
-0.18646433
-0.23020362
-0.19240003
-0.17504686
-0.20060031
-0.040153261
-0.21679384
0.097771712
-0.25024479
0.13446156
-0.29370587
0.10864194
-0.33648018
0.049980022
-0.37040529
-0.022282407
-0.38847075
-0.069746875
-0.39563485
-0.072228959
-0.4067207
-0.052324126
-0.42653772
-0.029831942
-0.45440557
-0.013240453
-0.48856702
-0.0035029836
-0.52686926
0.0010848857
-0.5678639
0.002421548
-0.61078364
0.0020795876
-0.65543479
0.0011665763
-0.70204273
0.00030037585
-0.75106252
-0.00029935294
-0.80300219
-0.00063539027
-0.85831178
-0.00078226132
-0.91734665
-0.00080845078
-0.98043156
-0.00078175284
-1.0478471
-0.00071126437
-1.1199246
-0.00058984748
-1.1969586
-0.00042701089
-1.2794276
-0.00022776766
-1.3676683
0.11770906
-0.18356559
0.0089167722
-0.19071493
-0.19460819
-0.16960882
-0.24166741
-0.17500055
-0.18469043
-0.18275646
-0.042404604
-0.19834896
0.11089207
-0.2299142
0.15616897
-0.27195221
0.12998445
-0.31504838
0.065364519
-0.35186468
-0.021581429
-0.37110627
-0.084513323
-0.37370431
-0.089832643
-0.37803116
-0.064940072
-0.39410475
-0.036442083
-0.41992758
-0.015220818
-0.4524252
-0.0027715018
-0.4892985
0.0030673719
-0.52885175
0.0046689589
-0.57011131
0.0040126171
-0.61271667
0.0025530866
-0.6568213
0.0011528962
-0.70289525
0.00015314897
-0.75151503
-0.0004325895
-0.80320499
-0.00071876255
-0.85837528
-0.00082139207
-0.91733371
-0.00083396541
-0.98037935
-0.00080269348
-1.0477557
-0.00071948122
-1.119795
-0.00059396649
-1.1967916
-0.00042919592
-1.2792261
-0.00022828787
-1.36744
0.12130909
-0.17758164
0.010844885
-0.18549371
-0.20270278
-0.18262034
-0.25197588
-0.15930034
-0.19310289
-0.16658809
-0.043782864
-0.1813782
0.12357142
-0.21102831
0.17730396
-0.25104919
0.15136826
-0.29333601
0.080826782
-0.33051065
-0.018217607
-0.3552285
-0.099005598
-0.35661399
-0.10953096
-0.35400599
-0.079698359
-0.36327288
-0.043816356
-0.38673048
-0.017261994
-0.4178864
-0.0016204291
-0.45357628
0.0057229
-0.49195403
0.0076754667
-0.53185826
0.0066433991
-0.57274209
0.0044797081
-0.61464329
0.0023583387
-0.65802674
0.00079818875
-0.70354029
-0.00014336052
-0.75180426
-0.00062086185
-0.8033029
-0.0008171617
-0.85837951
-0.00087094657
-0.91729672
-0.00086642891
-0.98031561
-0.00081637014
-1.0476588
-0.00072580235
-1.1196631
-0.00059785906
-1.1966229
-0.0004302211
-1.2790242
-0.00022793702
-1.3672121
0.12481922
-0.17148777
0.013115826
-0.17985258
-0.20974769
-0.17844879
-0.26226566
-0.17233056
-0.20044205
-0.15196118
-0.044540486
-0.16583047
0.13567322
-0.19348
0.19742813
-0.23115249
0.1722207
-0.27190163
0.09606057
-0.3085698
-0.012997355
-0.3357309
-0.11306501
-0.34116908
-0.13116733
-0.33497762
-0.097762091
-0.33594226
-0.052256904
-0.35483233
-0.019145489
-0.38484699
8.0433489e-05
-0.41958726
0.0091720674
-0.45702544
0.011577889
-0.49585645
0.010122412
-0.53533727
0.0070836441
-0.57534603
0.0040165545
-0.61630151
0.001689366
-0.65891792
0.00024647269
-0.70393012
-0.00049981307
-0.7519253
-0.00081562209
-0.80330444
-0.00091267152
-0.85833778
-0.00092135662
-0.9172418
-0.00089023552
-0.98024175
-0.00082599072
-1.0475586
-0.00073242815
-1.1195286
-0.00059984623
-1.1964533
-0.00042963634
-1.2788225
-0.00022671166
-1.3669854
0.12819327
-0.16555359
0.015625263
-0.17399721
-0.21571782
-0.17388245
-0.27145921
-0.16925525
-0.21082975
-0.16194286
-0.04474308
-0.15175858
0.14703344
-0.17719069
0.21634375
-0.21239562
0.19198295
-0.25091474
0.1110166
-0.28685766
-0.0082905497
-0.31327661
-0.12584569
-0.32295022
-0.1548321
-0.31750432
-0.11974432
-0.31299538
-0.063352139
-0.32484702
-0.020770243
-0.35320757
0.0024932249
-0.38725978
0.013531654
-0.42394685
0.016504404
-0.46195196
0.014601275
-0.50033531
0.010516863
-0.53877049
0.00624645
-0.57757592
0.0028944152
-0.61750656
0.00075646009
-0.6594279
-0.00036834887
-0.70406158
-0.00084381427
-0.75189711
-0.00098489318
-0.80323221
-0.00099103243
-0.85826811
-0.00095603759
-0.91717599
-0.00090314745
-0.98016459
-0.00083338502
-1.0474577
-0.00073486344
-1.1193936
-0.00059896747
-1.196284
-0.00042741965
-1.2786218
-0.00022475632
-1.3667606
0.13141559
-0.15999559
0.018289347
-0.16821767
-0.22047643
-0.16923859
-0.27935835
-0.16598331
-0.22016086
-0.15992414
-0.052247501
-0.15443844
0.15764758
-0.16237272
0.23398504
-0.19483198
0.21035807
-0.23077074
0.12524287
-0.26514101
-0.0052417044
-0.2899065
-0.13874149
-0.30038081
-0.17922581
-0.29855651
-0.14470074
-0.2925479
-0.078654043
-0.29769348
-0.022685813
-0.32293145
0.0058150545
-0.3565294
0.018901113
-0.39262924
0.022565334
-0.43000778
0.020223748
-0.46757443
0.014940062
-0.50475851
0.0091862622
-0.5417103
0.0044974252
-0.57917893
0.0014129776
-0.61816307
-0.00024204432
-0.65955421
-0.00093809044
-0.70396731
-0.0011254942
-0.75175651
-0.0011075016
-0.80311575
-0.0010388568
-0.85818529
-0.00097159561
-0.91710755
-0.00090873457
-0.98008924
-0.00083516478
-1.0473574
-0.00073335718
-1.1192592
-0.00059601104
-1.1961154
-0.00042394557
-1.2784226
-0.00022219636
-1.3665384
0.13446277
-0.1549249
0.021049158
-0.1627554
-0.22395299
-0.16474111
-0.28587358
-0.16272336
-0.22834116
-0.157803
-0.059032767
-0.15313887
0.15980923
-0.15660009
0.25021331
-0.178601
0.22721587
-0.21168978
0.13843872
-0.24396659
-0.003096641
-0.26728607
-0.15213158
-0.27651641
-0.20183205
-0.27777457
-0.17001824
-0.27323901
-0.097363759
-0.27383818
-0.026143942
-0.29423535
0.010265562
-0.32738196
0.025379686
-0.36300798
0.029842447
-0.39990635
0.027115949
-0.43689998
0.020514877
-0.47314925
0.012990937
-0.50856319
0.0066024169
-0.54381529
0.0022517735
-0.58001773
-0.00013925393
-0.61826586
-0.0011454985
-0.6593468
-0.0013886488
-0.70370415
-0.0013170133
-0.751547
-0.0011740987
-0.8029805
-0.0010547895
-0.85810209
-0.00097220003
-0.91704408
-0.00090688541
-0.98001752
-0.00083196813
-1.0472587
-0.00072957145
-1.1191256
-0.00059138169
-1.195948
-0.00041928243
-1.2782255
-0.00021916667
-1.3663193
0.13734107
-0.15049715
0.023873837
-0.15774958
-0.22614815
-0.16056024
-0.29101429
-0.15960041
-0.23531271
-0.15575181
-0.065059941
-0.15177582
0.16202241
-0.15535205
0.26153072
-0.1679175
0.2423879
-0.19377302
0.15034112
-0.22359218
-0.0016127938
-0.24545044
-0.16536903
-0.25404863
-0.22207678
-0.25627167
-0.19323584
-0.25455697
-0.11740934
-0.25319343
-0.031967138
-0.26801499
0.015609752
-0.29957954
0.033078931
-0.3350812
0.038380472
-0.371546
0.035370589
-0.40816099
0.027391732
-0.44377684
0.017829366
-0.47798767
0.0093355262
-0.51129629
0.0033223691
-0.54488589
-7.9125671e-05
-0.58007786
-0.0015242226
-0.61788714
-0.0018437718
-0.65889168
-0.0016821092
-0.70333906
-0.001410558
-0.75131054
-0.0011868306
-0.80284846
-0.0010443138
-0.85802998
-0.00096063215
-0.91699033
-0.00089835455
-0.97995113
-0.00082551503
-1.0471628
-0.00072333586
-1.1189937
-0.00058487622
-1.1957824
-0.00041373368
-1.2780309
-0.00021581752
-1.3661034
0.14008709
-0.14688302
0.026776695
-0.15340001
-0.22704948
-0.15684824
-0.29476548
-0.15680905
-0.24101639
-0.15389673
-0.070232095
-0.15057966
0.16419854
-0.15395196
0.2727903
-0.16661163
0.25698618
-0.18251578
0.16084576
-0.20427766
-0.00082096687
-0.224384
-0.17818822
-0.23263124
-0.24092644
-0.23519897
-0.21401916
-0.23548835
-0.13738821
-0.2345781
-0.040462673
-0.2446979
0.021048759
-0.27345399
0.042212633
-0.30871324
0.048130991
-0.34483172
0.045028499
-0.38120391
0.035692123
-0.41646138
0.0238736
-0.44982107
0.012847436
-0.48149958
0.0046939139
-0.51266784
-7.9063628e-05
-0.54488595
-0.0021449726
-0.57945711
-0.0025783959
-0.61715252
-0.0022838298
-0.65828996
-0.0018122638
-0.70293735
-0.0014138091
-0.75108356
-0.0011547166
-0.80273806
-0.0010135596
-0.85797705
-0.00093981904
-0.91694887
-0.00088529358
-0.97989136
-0.00081617219
-1.04707
-0.00071490708
-1.1188636
-0.00057734218
-1.1956187
-0.00040764617
-1.2778391
-0.0002123049
-1.3658911
-0.14424253
0.14273963
0.029788395
-0.14989472
-0.22666481
-0.15378468
-0.29714252
-0.15447121
-0.24544019
-0.15238524
-0.074468881
-0.14965994
0.16643495
-0.15281607
0.28363401
-0.16479567
0.27108137
-0.18070681
0.17723184
-0.19890187
-0.00035032665
-0.2047483
-0.1902505
-0.21232173
-0.25858366
-0.21497401
-0.23292378
-0.21629435
-0.15603927
-0.21683729
-0.051266276
-0.2237745
0.025539033
-0.24918817
0.052652696
-0.28389406
0.05910491
-0.31968716
0.056063708
-0.35586693
0.045499101
-0.39101089
0.031294939
-0.42388272
0.017313263
-0.4542869
0.0064592246
-0.48326489
-0.00014882367
-0.51259808
-0.0030913082
-0.54393962
-0.0037006103
-0.57833489
-0.0032246278
-0.61621172
-0.0024620285
-0.65764019
-0.0017958487
-0.70255531
-0.0013433996
-0.75089488
-0.0010890541
-0.80266257
-0.0009686137
-0.85794826
-0.0009131959
-0.91692097
-0.00086941819
-0.97983811
-0.00080487016
-1.04698
-0.00070547353
-1.1187355
-0.00056914768
-1.1954572
-0.00040125326
-1.2776502
-0.00020874156
-1.3656824
-0.14734042
0.032886285
-0.14258655
0.14528546
-0.22506193
-0.15149759
-0.29825014
-0.15267706
-0.24865284
-0.15125856
-0.077840192
-0.14901393
0.16892225
-0.15214724
0.29372541
-0.16290748
0.2844272
-0.1781415
0.19295327
-0.19642824
0.013125604
-0.2123778
-0.20126783
-0.19373097
-0.27489345
-0.19601195
-0.25005134
-0.19784646
-0.17283072
-0.1995029
-0.063069342
-0.20503423
0.028596067
-0.22683154
0.064015481
-0.26055095
0.071268029
-0.29605718
0.068398572
-0.33202203
0.056865351
-0.36723318
0.040254837
-0.39997079
0.022939316
-0.42950877
0.0087472721
-0.45657495
-0.00028960631
-0.48312411
-0.0044614863
-0.5112279
-0.0053446701
-0.54229556
-0.0046318914
-0.57692763
-0.0034636614
-0.61521009
-0.0024096177
-0.65702642
-0.0016622091
-0.7022365
-0.0012192827
-0.75076465
-0.0010018348
-0.80262934
-0.00091662785
-0.85794483
-0.00088405843
-0.91690633
-0.00085231729
-0.97979066
-0.00079275313
-1.0468927
-0.00069545125
-1.1186092
-0.00056060698
-1.1952979
-0.00039480748
-1.2774641
-0.00020523204
-1.3654772
-0.15000503
-0.22239732
-0.14582176
0.0361215
-0.14228817
0.14767212
-0.29824598
-0.15150175
-0.25077234
-0.15055755
-0.080366335
-0.14873242
0.17161586
-0.15170754
0.30289335
-0.16131517
0.29654413
-0.17502441
0.20772472
-0.19291295
0.026533882
-0.20983652
-0.19919498
-0.21445065
-0.29007366
-0.17855075
-0.26536743
-0.18069586
-0.18770262
-0.18297456
-0.074609424
-0.18796282
0.030087355
-0.20652551
0.07583934
-0.2386554
0.084569308
-0.27385223
0.081885576
-0.30954418
0.069778348
-0.34493502
0.050900753
-0.3778791
0.029956209
-0.40698768
0.011729908
-0.43249141
-0.00047963928
-0.45638491
-0.006358727
-0.48122687
-0.0076688761
-0.50890369
-0.0066597064
-0.54026774
-0.0049440494
-0.57544724
-0.0033495026
-0.6142702
-0.0021761697
-0.65651246
-0.0014454285
-0.70201036
-0.0010632691
-0.75070322
-0.00090639936
-0.80263957
-0.00086346427
-0.85796542
-0.00085486324
-0.91690378
-0.00083516511
-0.97974825
-0.00078049127
-1.0468077
-0.00068526437
-1.1184845
-0.00055214886
-1.1951406
-0.00038850134
-1.2772808
-0.00020184915
-1.3652753
-0.15095319
-0.29729783
-0.14958443
-0.21863465
-0.14536443
0.039197759
-0.14283074
0.15000082
-0.25198132
-0.15029277
-0.081939398
-0.14898448
0.17445357
-0.15157013
0.3111293
-0.1599435
0.30694977
-0.17172081
0.22098749
-0.18828718
0.039243663
-0.20562273
-0.19561381
-0.21341769
-0.30019694
-0.20432737
-0.27902398
-0.1648942
-0.20079364
-0.16760484
-0.085208234
-0.17237575
0.03035211
-0.18822757
0.087605036
-0.21829121
0.098910336
-0.25299642
0.096364892
-0.28833155
0.084155073
-0.32392091
0.06334043
-0.3573747
0.038616328
-0.38653922
0.015632111
-0.41088988
-0.0006698697
-0.43230118
-0.008895179
-0.45384846
-0.010866435
-0.47802931
-0.0094955815
-0.50606782
-0.007054735
-0.53815705
-0.0047281742
-0.57406857
-0.0029633629
-0.61348301
-0.0018175958
-0.65614029
-0.0011817385
-0.70189189
-0.00089661996
-0.750713
-0.00081200642
-0.80269103
-0.00081193952
-0.85800835
-0.0008275091
-0.91691144
-0.00081884917
-0.97970989
-0.0007686638
-1.0467243
-0.00067550789
-1.1183612
-0.00054399991
-1.1949851
-0.00038245867
-1.2771002
-0.00019862968
-1.3650767
-0.15081859
-0.25211592
-0.15177854
-0.29510372
-0.14981963
-0.21417945
-0.14580746
0.042174473
-0.14427443
0.15199857
-0.082406689
-0.14982548
0.17751881
-0.15204972
0.31841788
-0.15885871
0.31554313
-0.16853686
0.2323572
-0.18309052
0.050886441
-0.19992996
-0.19117215
-0.21006439
-0.30904111
-0.20457352
-0.29439768
-0.18895367
-0.2123218
-0.15336604
-0.094636188
-0.15817688
0.029748081
-0.17177172
0.098922717
-0.19954525
0.11404308
-0.23342396
0.11168283
-0.26831436
0.099845579
-0.30402206
0.077647099
-0.33822758
0.049178922
-0.36793729
0.020731507
-0.39163862
-0.00076896403
-0.41079079
-0.012203057
-0.4289933
-0.01516715
-0.44954775
-0.013361857
-0.47416304
-0.0099741977
-0.50314836
-0.0066763383
-0.53620889
-0.0041142164
-0.57291772
-0.0023940845
-0.61290652
-0.0013909499
-0.65593108
-0.0009036755
-0.70188483
-0.00073421836
-0.75079078
-0.00072242594
-0.80278055
-0.00076539546
-0.85807046
-0.00080341104
-0.91692688
-0.00080435107
-0.9796742
-0.00075801324
-1.0466418
-0.00066648278
-1.1182387
-0.00053634517
-1.1948312
-0.00037676828
-1.2769221
-0.00019560289
-1.3648811
-0.15166463
-0.081560647
-0.15298752
-0.25090694
-0.15308568
-0.29183767
-0.15073903
-0.20924788
-0.14690947
0.04480951
-0.14647931
0.15346096
0.18100892
-0.15331559
0.32459296
-0.1582248
0.32241022
-0.1657258
0.24150539
-0.17768505
0.061234955
-0.19343904
-0.18573569
-0.20536642
-0.31644889
-0.2026566
-0.3082592
-0.190712
-0.23215752
-0.16911795
-0.10293742
-0.14506481
0.028630922
-0.15705972
0.10951619
-0.18236519
0.12962628
-0.21512845
0.12766659
-0.24940772
0.1166397
-0.28510848
0.093827703
-0.32020266
0.061896083
-0.35094474
0.027373603
-0.37457939
-0.00064252727
-0.39176505
-0.016411812
-0.40658203
-0.020836721
-0.42332373
-0.018526479
-0.44438313
-0.01390855
-0.47022868
-0.0093418027
-0.50048289
-0.0057292264
-0.53459388
-0.0032399781
-0.57207182
-0.0017285087
-0.61256896
-0.00094567589
-0.65588908
-0.00063521827
-0.70198383
-0.00058352179
-0.75092969
-0.00064278232
-0.80290316
-0.00072658725
-0.85814728
-0.00078375983
-0.91694747
-0.0007924788
-0.97963974
-0.0007488504
-1.0465594
-0.00065833102
-1.1181167
-0.0005292872
-1.1946786
-0.00037146439
-1.2767462
-0.00019276391
-1.3646883
-0.15542846
0.18477274
-0.15463607
-0.0799121
-0.15571865
-0.24827397
-0.15507172
-0.28750498
-0.15221376
-0.20394359
-0.14849703
0.046827223
-0.1492111
0.15433045
0.32946076
-0.15818339
0.32755442
-0.16336901
0.24824829
-0.1724687
0.069822385
-0.18627248
-0.17978567
-0.19938905
-0.32230704
-0.19950828
-0.32039868
-0.19051712
-0.25033968
-0.17252983
-0.12561931
-0.14643606
0.027405163
-0.14383905
0.11916762
-0.16671115
0.14534773
-0.19808664
0.14409876
-0.23156062
0.13425327
-0.26702129
0.11168693
-0.30296771
0.076855068
-0.33516164
0.035865955
-0.35943709
-7.3219889e-05
-0.3751487
-0.021652501
-0.38652436
-0.028198284
-0.39922047
-0.02530392
-0.41654629
-0.0190915
-0.43920018
-0.012885968
-0.46668452
-0.00791625
-0.49829587
-0.0044233147
-0.53341054
-0.0022342458
-0.57156609
-0.0010407356
-0.6124739
-0.00051893395
-0.65600537
-0.00039007181
-0.70217728
-0.00045088964
-0.75112158
-0.00057787734
-0.80305187
-0.00069683321
-0.85823421
-0.00076933159
-0.91697061
-0.00078357613
-0.97960501
-0.00074131671
-1.0464764
-0.00065120759
-1.1179948
-0.00052286544
-1.1945272
-0.00036654656
-1.2765724
-0.00019010291
-1.3644982
-0.15882193
0.33285423
-0.15778646
0.18792313
-0.15863639
-0.076994361
-0.15924676
-0.24409894
-0.15768532
-0.28203343
-0.1542506
-0.19819002
-0.1506387
0.048254822
-0.15238357
0.15456706
0.3309274
-0.16155637
0.2525281
-0.16764881
0.076359913
-0.17900622
-0.17379326
-0.1922649
-0.32665062
-0.19504547
-0.33083424
-0.18907272
-0.26690475
-0.17395205
-0.14682603
-0.15132311
0.0091112314
-0.12814213
0.1283476
-0.15301903
0.16083391
-0.18219734
0.16072297
-0.21471085
0.15233438
-0.24964173
0.13068505
-0.28601941
0.093548524
-0.31966116
0.045978685
-0.34527437
0.00096387749
-0.36047419
-0.028047206
-0.36875399
-0.037609053
-0.37711359
-0.034068364
-0.39045603
-0.025782245
-0.40985555
-0.017476726
-0.43460942
-0.010784353
-0.46381642
-0.006011067
-0.49670812
-0.0029459695
-0.53269882
-0.0012055506
-0.57140127
-0.00038602367
-0.61260681
-0.00013381917
-0.65626162
-0.00017676552
-0.70245141
-0.00034345752
-0.751356
-0.00052979357
-0.80321891
-0.00067678718
-0.85832675
-0.00076040366
-0.91699379
-0.00077771243
-0.97956862
-0.00073553753
-1.0463921
-0.00064511399
-1.1178725
-0.00051705681
-1.1943767
-0.00036198622
-1.2764006
-0.00018759618
-1.3643106
-0.16039011
0.33249557
-0.15929992
0.3343677
-0.16155121
0.19083795
-0.1633996
-0.072841521
-0.1634858
-0.23829846
-0.16103701
-0.27524702
-0.15696713
-0.19186158
-0.15331545
0.049186702
-0.15599956
0.15406772
0.2544223
-0.16345057
0.080629313
-0.17191821
-0.1680641
-0.18473538
-0.32918898
-0.18972653
-0.33935199
-0.18652772
-0.28170211
-0.17427536
-0.16650971
-0.15426837
-0.01008874
-0.13212314
0.12349889
-0.12329342
0.17592198
-0.1681071
0.17722969
-0.19870406
0.17039293
-0.23276939
0.1500496
-0.26900628
0.11064499
-0.30311588
0.056610982
-0.33029346
0.0015134119
-0.34582391
-0.036260214
-0.35226118
-0.04951424
-0.35684881
-0.045252658
-0.3659293
-0.034267534
-0.38197074
-0.023279048
-0.40405322
-0.014434506
-0.43095926
-0.008063828
-0.46176366
-0.0038948835
-0.4957592
-0.0014506854
-0.53245368
-0.00023438871
-0.57155291
0.00019643522
-0.61293706
0.00019755169
-0.65663594
-4.3893309e-06
-0.70279048
-0.00026481093
-0.75162098
-0.00049868977
-0.80339701
-0.0006664096
-0.85842075
-0.00075680982
-0.91701469
-0.00077476924
-0.97952939
-0.00073139114
-1.0463058
-0.00063993975
-1.1177496