/*--------------------------------*- C++ -*----------------------------------*\
| =========                 |                                                 |
| \\      /  F ield         | OpenFOAM: The Open Source CFD Toolbox           |
|  \\    /   O peration     | Version:  5.0                                   |
|   \\  /    A nd           | Web:      www.OpenFOAM.org                      |
|    \\/     M anipulation  |                                                 |
\*---------------------------------------------------------------------------*/
FoamFile
{
    version     2.0;
    format      ascii;
    class       volScalarField;
    location    "340";
    object      pMean;
}
// * * * * * * * * * * * * * * * * * * * * * * * * * * * * * * * * * * * * * //

dimensions      [0 2 -2 0 0 0 0];

internalField   nonuniform List<scalar> 
9200
(
0.00056620939
0.00058568995
0.0014258834
0.00060603539
0.0014681117
0.0023509241
0.00064372756
0.0015162638
0.0024143329
0.0031543143
0.00069006367
0.0015968896
0.0024955519
0.0032349485
0.0039152633
0.00074795137
0.0016948153
0.0026227178
0.0033437079
0.0040106676
0.0045870181
0.00081942842
0.0018095331
0.0027776854
0.0035076304
0.0041436789
0.0046936598
0.0051835398
0.00090313444
0.0019406538
0.0029553908
0.0037088775
0.0043394365
0.0048470536
0.0052994319
0.0057015998
0.00099648135
0.002082022
0.0031531216
0.0039393814
0.0045799001
0.0050691381
0.0054702691
0.0058240779
0.0061453959
0.0010910264
0.0022297988
0.0033625275
0.0041964271
0.0048528716
0.0053430229
0.0057143016
0.006009066
0.006272319
0.0065196016
0.0011721276
0.0023741551
0.0035810076
0.0044674665
0.0051544997
0.0056528183
0.0060166364
0.0062707533
0.0064686178
0.006648522
0.0068288462
0.0012116648
0.0025049489
0.0037944406
0.0047422928
0.0054691304
0.005994395
0.0063582576
0.0065971409
0.0067439976
0.0068529994
0.006957413
0.0070791033
0.0011744163
0.0026021986
0.0039808381
0.0050031545
0.0057849844
0.0063504219
0.0067352751
0.0069664445
0.0070902383
0.0071376793
0.0071668242
0.0072047369
0.0072757013
0.0010634907
0.0026408551
0.0041138713
0.0052313168
0.0060838962
0.006708997
0.0071285197
0.0073757522
0.0074829901
0.0074991789
0.0074562941
0.0074155447
0.0073958497
0.0074253577
0.00091651334
0.0026038964
0.0041765551
0.0054030166
0.0063500455
0.0070506855
0.0075259728
0.0078048345
0.0079209575
0.0079110318
0.0078279892
0.0077048275
0.0076043912
0.0075373095
0.0075334526
0.0007848655
0.0024728252
0.0041394339
0.0054907991
0.0065572288
0.0073600869
0.0079094743
0.0082418646
0.0083835038
0.0083738351
0.0082536706
0.0080810025
0.0078882937
0.0077396092
0.0076346356
0.0076069344
0.0006450183
0.0022568278
0.0039642013
0.0054648382
0.0066745725
0.0076100169
0.0082636417
0.0086704787
0.0088596815
0.0088669412
0.0087364318
0.0085146547
0.0082627806
0.0080124661
0.0078267949
0.0076947833
0.0076510749
0.00050503933
0.001989118
0.0036717148
0.0052928765
0.0066706604
0.0077680368
0.0085606382
0.0090739291
0.0093338793
0.0093808342
0.00925643
0.0090115342
0.0086975917
0.0083784787
0.0080829091
0.0078727536
0.0077230888
0.0076724747
0.00035280519
0.0017094437
0.0033192752
0.0049791446
0.0065152455
0.007800741
0.0087682782
0.0094244248
0.0097879964
0.0098999991
0.0098048448
0.0095524156
0.0092015007
0.0088068344
0.0084334188
0.0081061787
0.0078829895
0.0077263979
0.0076762118
0.00017447963
0.0014374112
0.0029245083
0.004569721
0.0061986158
0.0076800364
0.0088512177
0.0096904509
0.010196275
0.010406305
0.010366524
0.01013013
0.0097564127
0.0093095729
0.0088471125
0.0084337145
0.0080881039
0.0078644939
0.0077099733
0.0076679558
-0.0001429811
0.0011167619
0.002501815
0.0040806145
0.0057480565
0.0073829173
0.0087779069
0.0098368999
0.010527439
0.010875386
0.010924203
0.01073044
0.010356783
0.0098698944
0.0093395617
0.008824004
0.008385282
0.0080357371
0.0078226757
0.0076798149
0.0076523289
-0.00053441056
0.00074613382
0.0020258487
0.0035256649
0.0051849577
0.0069203012
0.008520218
0.009820771
0.010745442
0.011277216
0.011454796
0.011336701
0.010989795
0.010484482
0.0098956131
0.0092961749
0.0087432867
0.0082951204
0.0079547861
0.0077640048
0.0076407685
0.007633854
-0.00086843088
0.00032229918
0.0014327935
0.0028912025
0.0045207047
0.0063165407
0.0080739877
0.0096177852
0.010802337
0.011573262
0.01192955
0.011927324
0.011639497
0.011141814
0.010514457
0.0098371666
0.0091848704
0.0086117851
0.0081694689
0.0078523127
0.0076936169
0.0075977419
0.0076163627
-0.0011239068
-0.00010777501
0.00067115939
0.002087092
0.0037500439
0.0055757507
0.0074553754
0.0092139634
0.01066835
0.011718379
0.012308443
0.012474553
0.01228566
0.011827462
0.011186141
0.010448565
0.0096991885
0.0090119871
0.0084361041
0.0080157698
0.0077338572
0.0076170076
0.0075548719
0.0076033085
-0.0013835183
-0.00057767456
-0.00022836439
0.0010240585
0.0027772246
0.0046940025
0.0066604688
0.0086043114
0.010318781
0.011664905
0.012548147
0.012939822
0.012902727
0.012522845
0.011897781
0.011122456
0.010290389
0.0094873293
0.0087842937
0.0082239664
0.0078401273
0.0076057793
0.0075387453
0.0075158834
0.0075975286
-0.0016673128
-0.0011726071
-0.001234859
-0.00024989733
0.0014864694
0.0035869837
0.0056871016
0.0077813777
0.0097358117
0.011378638
0.012587869
0.013276181
0.013453648
0.013203611
0.012632905
0.011847966
0.010952999
0.010044723
0.009208254
0.0085097447
0.0079823147
0.0076498452
0.0074732064
0.0074631673
0.0074839075
0.0076013336
-0.0019910191
-0.001865972
-0.0023239494
-0.0016398364
-0.00010665273
0.0021171886
0.0044573543
0.0067383075
0.0089045837
0.010839553
0.012382963
0.013425352
0.01388866
0.013835808
0.013368276
0.012610402
0.011678239
0.010681018
0.009717836
0.0088699742
0.0081960662
0.0077191587
0.0074507266
0.0073413998
0.0073939077
0.0074615779
0.0076166326
-0.002371361
-0.0026858259
-0.0035531248
-0.0031154312
-0.001863114
0.00025138714
0.0028263539
0.005415082
0.0078096022
0.01001801
0.011906132
0.01332392
0.014154029
0.01436962
0.014073081
0.013389
0.012453667
0.011390077
0.010312031
0.0093173402
0.0084807792
0.0078518221
0.0074412405
0.0072492065
0.0072146983
0.0073341118
0.0074510495
0.007645003
-0.0027861373
-0.0036093749
-0.0049198034
-0.0047665866
-0.0037285929
-0.0018334884
0.00072719445
0.0036525238
0.0064036359
0.0088850895
0.011115176
0.012923354
0.014169881
0.014747119
0.014701139
0.014154592
0.013260606
0.012161904
0.010987849
0.0098532081
0.0088517472
0.0080499585
0.0074848683
0.0071561124
0.0070502665
0.0070970558
0.0072864266
0.0074540514
0.0076873252
-0.0032057278
-0.0045943046
-0.0063684012
-0.0065374287
-0.0057877234
-0.0040811677
-0.0016801724
0.0013501092
0.0045235137
0.0073954853
0.0099681977
0.012184294
0.013867129
0.014894512
0.015188732
0.014865161
0.014072298
0.012980157
0.011737847
0.010477681
0.0093131361
0.0083309673
0.0075865263
0.0071041153
0.0068696481
0.0068588837
0.0069916746
0.0072529668
0.0074717955
0.0077435961
-0.0036593737
-0.0055855373
-0.0078176874
-0.0083471556
-0.0079684575
-0.0065412875
-0.0043091636
-0.0013754354
0.0020377204
0.0054094988
0.0084127459
0.011050952
0.013203801
0.01471812
0.015468958
0.015458195
0.014850308
0.013820674
0.012548082
0.011185995
0.0098677417
0.0087019335
0.0077651522
0.0071003849
0.0067170449
0.0065886736
0.006679111
0.006901405
0.0072352956
0.0075049759
0.0078137406
-0.0041072209
-0.0066018056
-0.0092509231
-0.010151508
-0.010174965
-0.009133815
-0.0071633079
-0.0043889344
-0.00098767437
0.0027685322
0.0063485006
0.0094561078
0.012104969
0.014150667
0.01543582
0.015858469
0.015536347
0.014647407
0.013396937
0.01196701
0.010513927
0.0091683203
0.0080304412
0.0071652053
0.0066005729
0.0063315131
0.0063184434
0.0065151943
0.0068286082
0.0072345074
0.0075539936
0.0078987773
-0.0044507313
-0.0076291364
-0.010714531
-0.011932295
-0.012372025
-0.011757601
-0.010160586
-0.0076335779
-0.0043722595
-0.00052887043
0.0035898656
0.0073444706
0.010499171
0.013111853
0.014988743
0.015976369
0.016049249
0.015407895
0.014251574
0.012801881
0.011243194
0.0097315516
0.00839091
0.0073109132
0.0065415564
0.006096307
0.0059540087
0.0060640374
0.006370325
0.0067749317
0.0072513601
0.007619129
0.0079995842
-0.004645293
-0.0085185271
-0.012217352
-0.0137327
-0.014542799
-0.014362864
-0.013198802
-0.011027377
-0.0080053416
-0.0042718254
5.5134144e-05
0.0044998994
0.0083568064
0.011526291
0.014044534
0.015677719
0.016304978
0.016022441
0.015063486
0.01366075
0.012040218
0.010386079
0.0088508488
0.0075486051
0.006555204
0.0059052648
0.0055957553
0.0055912138
0.0058294071
0.0062467853
0.0067415692
0.0072862738
0.0077003357
0.0081157651
-0.0047470904
-0.0092275899
-0.01356677
-0.015591663
-0.016721941
-0.016934098
-0.016208322
-0.014474504
-0.011785719
-0.0082833522
-0.0040350474
0.00077184347
0.0054346157
0.0093683148
0.012508643
0.014854931
0.016170537
0.016395476
0.015759995
0.014498689
0.012877508
0.011119729
0.0094077138
0.0078854695
0.0066547057
0.0057759696
0.0052664012
0.0051071481
0.0052482888
0.0056182902
0.0061463524
0.0067293266
0.0073393762
0.0077973984
0.0082452502
-0.0047835103
-0.0098152062
-0.01467864
-0.017356465
-0.018978985
-0.019509351
-0.019175968
-0.017892369
-0.015638788
-0.012453671
-0.0084127225
-0.0036153147
0.0015666215
0.0064011978
0.010350936
0.013392299
0.015494158
0.016420382
0.016239127
0.015250519
0.013714257
0.011908168
0.010052241
0.0083221558
0.006850204
0.0057236027
0.0049852352
0.0046349538
0.0046373887
0.0049303333
0.0054332709
0.0060704348
0.0067384787
0.0074103552
0.0079101976
0.0083859417
-0.0047817106
-0.010331402
-0.015594538
-0.018915115
-0.021165289
-0.022171736
-0.022144385
-0.021260808
-0.019470596
-0.016718025
-0.012981805
-0.0083508051
-0.0030492413
0.0024573176
0.0073804023
0.011252787
0.014139269
0.015914531
0.0163919
0.015817696
0.014490338
0.012714346
0.010763753
0.0088524598
0.0071453086
0.0057610209
0.004769226
0.0041950164
0.0040196705
0.0041931446
0.0046410953
0.005276617
0.0060199363
0.0067689567
0.0074983839
0.0080374831
0.0085367585
-0.0047753208
-0.01075589
-0.016414771
-0.020224049
-0.023153253
-0.024772373
-0.025219577
-0.024631664
-0.023250566
-0.020977398
-0.017669156
-0.013313345
-0.0081011551
-0.0023165379
0.0034156321
0.0083021691
0.012046509
0.014703255
0.016063537
0.016074206
0.015114551
0.013481628
0.011508367
0.0094589606
0.007536855
0.0058945964
0.0046337422
0.0038057089
0.0034161968
0.0034289538
0.0037796917
0.0043840904
0.0051497302
0.0059951956
0.0068204412
0.0076027036
0.0081778332
0.0086963986
-0.0047772201
-0.011090681
-0.017111816
-0.021381934
-0.024860211
-0.027209745
-0.028238988
-0.028131888
-0.027037186
-0.025186644
-0.022368916
-0.018418394
-0.01342401
-0.0076375655
-0.0014678496
0.0043515033
0.0091197026
0.012697767
0.01503048
0.015893253
0.015459372
0.014127425
0.012233872
0.010111103
0.0080112063
0.0061245468
0.0045879097
0.0034846875
0.0028461957
0.0026591547
0.0028699375
0.0034019543
0.0041615196
0.0050536057
0.0059958376
0.0068921874
0.0077224162
0.0083301208
0.0088641987
-0.0047931048
-0.011345492
-0.017673165
-0.022381839
-0.026327806
-0.029340764
-0.031137922
-0.031584948
-0.030976934
-0.02940506
-0.027020142
-0.023557147
-0.01892678
-0.013293977
-0.0070161268
-0.00060487398
0.0051999269
0.0098059166
0.013158727
0.015049721
0.015383298
0.014532443
0.012864006
0.010761243
0.0085412654
0.006440718
0.0046352213
0.0032437125
0.0023293526
0.0019034265
0.0019330389
0.0023491921
0.0030633552
0.0039752635
0.0049885131
0.0060213835
0.0069832669
0.0078564691
0.0084930953
0.0090399772
-0.011522617
-0.0048306803
-0.018086641
-0.023195478
-0.027615606
-0.031147461
-0.033716247
-0.034943854
-0.03487292
-0.033795707
-0.031685151
-0.028655458
-0.02449169
-0.019174561
-0.012977611
-0.0063335205
0.00021388737
0.0059256543
0.010323568
0.013352934
0.014704133
0.014535824
0.013288102
0.01133803
0.0090827607
0.0068197598
0.0047690862
0.0030895352
0.0018798452
0.0011828593
0.00098879838
0.0012463722
0.0018717444
0.0027667877
0.0038261913
0.0049544275
0.0060711124
0.00709259
0.0080037582
0.0086655939
0.0092232332
-0.018338652
-0.011593234
-0.004893344
-0.023793064
-0.028663537
-0.032730718
-0.03590372
-0.037978925
-0.038685596
-0.038143943
-0.036542491
-0.033771968
-0.030019873
-0.025145703
-0.019207745
-0.012552336
-0.0056437948
0.00094714195
0.0064914211
0.010616655
0.013208922
0.013974125
0.013347545
0.011738604
0.0095699974
0.007221684
0.0049703004
0.0030190655
0.0015076308
0.00051396336
5.9110901e-05
0.0001128911
0.00060623126
0.0014418751
0.0025140851
0.0037148366
0.0049505996
0.0061439672
0.0072189417
0.0081631321
0.0088465671
0.0094129977
-0.024135691
-0.018401925
-0.011552213
-0.0049713325
-0.029422834
-0.034014044
-0.037782508
-0.040576863
-0.042187202
-0.042423617
-0.041359843
-0.039104278
-0.035575666
-0.03109442
-0.025566148
-0.019103099
-0.012085283
-0.0049976649
0.0015461242
0.0068466818
0.010612358
0.012659464
0.012861249
0.01181561
0.0099062346
0.0075845289
0.0052031126
0.0030176897
0.0012133331
-9.0325637e-05
-0.00083748658
-0.0010287493
-0.00071496422
1.8603851e-05
0.001062743
0.0023065665
0.0036408637
0.0049760937
0.006238704
0.0073610141
0.0083333897
0.0090350856
0.0096082867
-0.029851157
-0.024194614
-0.018270228
-0.011421561
-0.0050591398
-0.034956102
-0.039315527
-0.042760554
-0.045197523
-0.046400146
-0.046121061
-0.044405494
-0.041375801
-0.037084659
-0.031918569
-0.02582573
-0.018926156
-0.011630962
-0.0044603205
0.0019550581
0.0069126206
0.010231008
0.01166331
0.011376914
0.0099561546
0.0078180985
0.0054096225
0.0030538999
0.00098681789
-0.00062558296
-0.0016853223
-0.0021587951
-0.0020690932
-0.0014865239
-0.00051182294
0.00073663764
0.0021444756
0.0036036267
0.0050296144
0.0063539514
0.0075174583
0.0085132585
0.0092300282
0.0098081451
-0.035502114
-0.029925954
-0.023964615
-0.017963316
-0.0112003
-0.0051370739
-0.040457188
-0.044548341
-0.047685303
-0.04981831
-0.050584044
-0.049665916
-0.047161652
-0.043354921
-0.038338311
-0.032565482
-0.025986785
-0.018733226
-0.011250427
-0.0040911534
0.0020826167
0.0066220178
0.0094192063
0.010236513
0.0095338775
0.0077971883
0.0055059582
0.0030748152
0.00080140146
-0.0010974322
-0.0024761528
-0.0032590384
-0.0034357132
-0.0030513524
-0.002195185
-0.00098140016
0.00046483637
0.0020276014
0.0036019102
0.005109759
0.0064882226
0.0076868754
0.0087015339
0.0094303144
0.010011556
-0.041134187
-0.035617059
-0.029644537
-0.02346692
-0.01749425
-0.010868902
-0.0051707538
-0.045891537
-0.049730769
-0.052613337
-0.054410109
-0.054631991
-0.052918618
-0.04961858
-0.045076813
-0.039411862
-0.033097301
-0.026109478
-0.018584259
-0.011010044
-0.0039717015
0.0018479402
0.0059282679
0.0081332116
0.0084136588
0.0073463221
0.0053741071
0.0030021958
0.00060980645
-0.0015270444
-0.0032109619
-0.0043175934
-0.004794576
-0.0046551455
-0.0039665277
-0.0028355454
-0.0013875035
0.00024765014
0.0019550183
0.0036343266
0.0052148737
0.0066398985
0.0078678023
0.0088970118
0.0096349569
0.010217626
-0.046696926
-0.041295351
-0.035293998
-0.029017876
-0.02272791
-0.016869016
-0.010427138
-0.0051196426
-0.051266474
-0.05490898
-0.057514227
-0.058885852
-0.058388035
-0.055864697
-0.051816456
-0.046610313
-0.04035427
-0.033570583
-0.026247698
-0.018547747
-0.01099304
-0.0041980956
0.0011946987
0.0047744778
0.0063780175
0.006229851
0.0048495809
0.0027249126
0.00034002069
-0.0019557438
-0.003905294
-0.0053307097
-0.0061304564
-0.006276153
-0.0058055385
-0.0048069757
-0.0034034992
-0.0017286508
8.468149e-05
0.0019254594
0.003699124
0.0053431352
0.0068071872
0.0080587535
0.0090986319
0.0098431121
0.010425517
-0.05218696
-0.046895776
-0.040931265
-0.034553902
-0.028072719
-0.021777665
-0.016091488
-0.0098839271
-0.0049605742
-0.056621877
-0.060052721
-0.062307655
-0.063090062
-0.061829109
-0.058553467
-0.053824061
-0.047997457
-0.041224946
-0.034051866
-0.02648468
-0.018719624
-0.011310864
-0.0048453303
7.9949671e-05
0.0031409039
0.0042201447
0.0037092612
0.0020901226
-0.00011271104
-0.0024484969
-0.00459359
-0.0063079875
-0.0074349383
-0.007896312
-0.0076895333
-0.0068766772
-0.0055665877
-0.0038960802
-0.0020045038
-2.5008018e-05
0.0019372318
0.0037942175
0.0054923692
0.0069883497
0.0082585661
0.009305549
0.010053909
0.010634397
-0.057637392
-0.052407577
-0.046476111
-0.040074625
-0.033433294
-0.026851992
-0.020631782
-0.015179268
-0.0091901496
-0.0046207547
-0.06192941
-0.065090675
-0.066867427
-0.066990458
-0.065007726
-0.061050129
-0.055676347
-0.049303104
-0.042088
-0.034622729
-0.026921273
-0.019220138
-0.012055669
-0.0059642101
-0.0014978754
0.0010570657
0.0017037112
0.00089172121
-0.00088998848
-0.0031034556
-0.0053336566
-0.0072766705
-0.0087114474
-0.0095028491
-0.0095982108
-0.0090218089
-0.0078598814
-0.0062406979
-0.0043114644
-0.0022153681
-8.2813239e-05
0.0019880731
0.0039170274
0.0056605421
0.0071821507
0.0084664269
0.009516697
0.010266109
0.010843452
-0.063020587
-0.057856588
-0.051913412
-0.045482891
-0.038778501
-0.031968266
-0.025405723
-0.019294624
-0.014035122
-0.0082670918
-0.0041207934
-0.067125083
-0.069904244
-0.071157323
-0.070644157
-0.067992015
-0.06339322
-0.057431006
-0.050571925
-0.043029749
-0.035384391
-0.027680723
-0.020164183
-0.013274111
-0.0075396102
-0.0035114249
-0.001437802
-0.0011349695
-0.0021852315
-0.004052923
-0.0062148083
-0.0082865148
-0.0099796683
-0.011092916
-0.011514933
-0.011220439
-0.010261494
-0.0087482571
-0.0068258841
-0.0046490203
-0.0023623539
-9.1026243e-05
0.0020750438
0.0040652088
0.0058463838
0.0073878363
0.0086809118
0.0097301054
0.010478469
0.011052382
-0.06828005
-0.063216521
-0.057261575
-0.050762182
-0.043989823
-0.037072981
-0.03021764
-0.023682339
-0.017666433
-0.012598877
-0.0071338767
-0.0035678049
-0.072106271
-0.074461166
-0.075220708
-0.074117
-0.070823909
-0.065624284
-0.059134082
-0.051900359
-0.044164285
-0.036477187
-0.02889545
-0.021602327
-0.014939242
-0.0095643693
-0.0059564147
-0.0042787732
-0.0042614755
-0.0054782382
-0.0073611006
-0.0094171684
-0.011280709
-0.012678557
-0.013430973
-0.013452827
-0.012748747
-0.011398904
-0.009536398
-0.007319784
-0.0049091459
-0.0024476098
-5.2924373e-05
0.0021954217
0.0042375517
0.0060492356
0.007603401
0.008898782
0.0099439478
0.010691438
0.011271655
-0.07333177
-0.068442233
-0.062501768
-0.055922981
-0.049039035
-0.042025206
-0.034994159
-0.028092961
-0.0216168
-0.015767765
-0.010937001
-0.0059550665
-0.0030112739
-0.076840933
-0.078810507
-0.079108224
-0.077449015
-0.07355054
-0.06780074
-0.060876324
-0.053404956
-0.04562147
-0.038040416
-0.030626312
-0.023495797
-0.017037068
-0.012021943
-0.0087759895
-0.0074069112
-0.0076222497
-0.0089407941
-0.01078241
-0.012683521
-0.014291319
-0.015350445
-0.015704942
-0.015299477
-0.014170429
-0.012426
-0.010220043
-0.0077214329
-0.0050935288
-0.0024745746
2.8414784e-05
0.0023481444
0.0044335387
0.0062662408
0.0078238034
0.009117315
0.010160144
0.010919405
0.011504593
-0.078145503
-0.073463006
-0.067595163
-0.060954607
-0.053935917
-0.046785612
-0.039564257
-0.032438469
-0.025584337
-0.019272671
-0.013697958
-0.0092555772
-0.0047682654
-0.0024226102
-0.081391094
-0.082994428
-0.08285821
-0.080690073
-0.076215441
-0.070005562
-0.062780356
-0.055216417
-0.047550542
-0.040153352
-0.032842881
-0.0258046
-0.019556526
-0.014835869
-0.011884209
-0.010781489
-0.011173379
-0.012538834
-0.014290151
-0.015989086
-0.017295212
-0.017973271
-0.017895342
-0.017039172
-0.015474249
-0.013336065
-0.010796306
-0.0080318169
-0.0052055678
-0.0024463863
0.00015219557
0.0025328853
0.0046491247
0.0064899818
0.0080452257
0.0093410496
0.010399675
0.011160992
0.011745247
-0.082792266
-0.078256539
-0.072487775
-0.065824481
-0.058676895
-0.051363122
-0.043915197
-0.036551578
-0.029455053
-0.022813977
-0.016782424
-0.011646316
-0.0075723361
-0.0035382248
-0.0018331528
-0.085792532
-0.087044414
-0.086514344
-0.083877978
-0.078912074
-0.072364559
-0.065003293
-0.05750012
-0.050041336
-0.042798182
-0.035489314
-0.028500296
-0.022427538
-0.017938432
-0.015248461
-0.01436708
-0.01489027
-0.016245656
-0.017861298
-0.01931111
-0.020269607
-0.02052552
-0.019983405
-0.01865735
-0.016650331
-0.014123882
-0.011264563
-0.008254016
-0.0052486522
-0.0023635357
0.00031842015
0.0027441966
0.0048738389
0.0067155127
0.0082759681
0.0096031335
0.01065185
0.011411911
0.01199334
-0.087307896
-0.08289554
-0.077159708
-0.070497359
-0.063243944
-0.055746148
-0.048048359
-0.040415646
-0.033084046
-0.026239732
-0.019896104
-0.014324478
-0.0095811511
-0.0058269657
-0.0023185903
-0.001273536
-0.090076983
-0.090994777
-0.090122724
-0.087093391
-0.081764172
-0.075042588
-0.067696588
-0.06035758
-0.053107246
-0.045916017
-0.038496207
-0.03153296
-0.025605952
-0.021279504
-0.018823494
-0.018127122
-0.01873862
-0.020038148
-0.021473905
-0.022627662
-0.023192322
-0.022986241
-0.021951265
-0.020140397
-0.017690476
-0.014786953
-0.011627083
-0.0083910802
-0.0052226781
-0.0022254554
0.00052008287
0.0029678511
0.0051013997
0.0069559302
0.0085661981
0.0098780331
0.010915677
0.011670992
0.012248914
-0.091722984
-0.087414803
-0.08168804
-0.07495484
-0.067612912
-0.059937147
-0.051972259
-0.044032795
-0.036460364
-0.029407434
-0.022876199
-0.017020123
-0.011833558
-0.0074413218
-0.0040330579
-0.0011597035
-0.00073859881
-0.094270283
-0.094895585
-0.093764882
-0.090467379
-0.084944576
-0.078211897
-0.070996592
-0.063835007
-0.056683442
-0.049379018
-0.041792962
-0.034869141
-0.029011851
-0.024800588
-0.022565474
-0.022030616
-0.022694542
-0.023898625
-0.025108382
-0.025916971
-0.026041088
-0.025334686
-0.023781685
-0.021476394
-0.018589425
-0.01532578
-0.011886326
-0.0084419002
-0.0051260503
-0.0020408369
0.00073835773
0.0031959435
0.0053512498
0.0072838502
0.0088701214
0.010167445
0.011187865
0.011938521
0.012511678
-0.096055805
-0.091847968
-0.086107336
-0.079273267
-0.07177816
-0.063911478
-0.055685613
-0.047421793
-0.039562727
-0.032302071
-0.025587871
-0.019574095
-0.01409115
-0.0092598061
-0.0052506924
-0.0022742644
-0.00010384262
-0.00022735402
-0.098400567
-0.098827326
-0.097580014
-0.094157619
-0.088636216
-0.082025108
-0.07495914
-0.067874501
-0.060622452
-0.053097803
-0.045349278
-0.038399168
-0.032526286
-0.028474119
-0.026447082
-0.026067297
-0.026741989
-0.027810341
-0.028745358
-0.029156805
-0.028792899
-0.02754949
-0.025458261
-0.022656752
-0.01934596
-0.015741369
-0.012039735
-0.0084036698
-0.0049690085
-0.0018339653
0.00096314668
0.0034558146
0.0057257532
0.0076270692
0.00919203
0.010464976
0.011469461
0.012213844
0.012781508
-0.10032003
-0.096207116
-0.090447051
-0.083490502
-0.075804249
-0.06766377
-0.059174901
-0.050587493
-0.042422662
-0.034910119
-0.028005787
-0.021858108
-0.016206496
-0.011069786
-0.0066297288
-0.003060984
-0.00062890974
0.00085218438
0.00027209339
-0.10254661
-0.10294633
-0.10172453
-0.098350214
-0.093012161
-0.086569095
-0.079544812
-0.072324458
-0.064791925
-0.057022447
-0.049075089
-0.042005337
-0.03610469
-0.032279679
-0.030458923
-0.030220128
-0.03087053
-0.031758282
-0.032364375
-0.032323429
-0.031423088
-0.029609911
-0.02696831
-0.023677314
-0.019958734
-0.016029004
-0.012082432
-0.008288593
-0.004782458
-0.0016177992
0.0012317619
0.0038873934
0.0061186488
0.0079927473
0.0095214685
0.010772895
0.011759376
0.012496932
0.013058074
-0.10458557
-0.10049818
-0.094722249
-0.08763377
-0.079733974
-0.07127435
-0.06243966
-0.053534346
-0.045058151
-0.037265292
-0.03013329
-0.023829517
-0.018056484
-0.012735388
-0.0079752349
-0.003989912
-0.00097267865
0.00087932812
0.0016690458
0.00080969253
-0.10686778
-0.10742386
-0.10639349
-0.10326513
-0.098189807
-0.091810317
-0.084608451
-0.077022485
-0.069084502
-0.061078979
-0.052861372
-0.045644869
-0.039759786
-0.036216403
-0.034609862
-0.03448618
-0.035072379
-0.035726033
-0.035942544
-0.035389838
-0.033906444
-0.031498731
-0.02830413
-0.024534249
-0.020419317
-0.016181086
-0.012028074
-0.008134999
-0.0045830475
-0.0013427947
0.0017321305
0.0043417417
0.0065392119
0.0083649769
0.0098621201
0.011089499
0.012057567
0.012787192
0.013341176
-0.10901233
-0.10476889
-0.098927699
-0.091720878
-0.083608479
-0.074792507
-0.065559206
-0.056275826
-0.047482951
-0.039396014
-0.032002383
-0.025492652
-0.019591753
-0.014144091
-0.0091815813
-0.0048747446
-0.0014586152
0.00092953185
0.0022740518
0.0023757895
0.0013318112
-0.1115658
-0.112481
-0.11182458
-0.10904102
-0.10415399
-0.097592017
-0.089983022
-0.081814865
-0.073424466
-0.065153116
-0.056619863
-0.049252205
-0.043526773
-0.040283847
-0.038907306
-0.038861457
-0.039336913
-0.039693813
-0.039452285
-0.038327043
-0.036220998
-0.033204111
-0.029457777
-0.025213937
-0.02071605
-0.016212831
-0.011924191
-0.0079639871
-0.0043062131
-0.00076095226
0.0022617992
0.0048303162
0.0069647742
0.0087491377
0.010211634
0.011414853
0.012363265
0.013084412
0.013630501
-0.11383022
-0.10918817
-0.10309228
-0.095732937
-0.087440881
-0.078263072
-0.068585807
-0.058892186
-0.04972184
-0.041330856
-0.033658705
-0.026901339
-0.020819189
-0.01524221
-0.010146606
-0.0056337261
-0.0018952718
0.00086719972
0.0026959002
0.0034746992
0.0029711883
0.0016999966
-0.11686581
-0.11832617
-0.11816717
-0.11569936
-0.11073932
-0.10374008
-0.095471278
-0.086577429
-0.077735705
-0.069127643
-0.060241888
-0.05280926
-0.047442021
-0.044481751
-0.043348608
-0.043347789
-0.043650508
-0.043635659
-0.042862192
-0.041108897
-0.038350513
-0.034712398
-0.03040917
-0.025698392
-0.020865654
-0.016182161
-0.011797875
-0.0076926139
-0.0036286468
-0.00014089546
0.0028334972
0.0053217024
0.007402703
0.0091422799
0.010570068
0.011748047
0.012676124
0.01338804
0.013925861
-0.11926017
-0.11399064
-0.1073909
-0.099695745
-0.091185459
-0.081691294
-0.071561787
-0.061432811
-0.051847025
-0.043094986
-0.035129325
-0.028103379
-0.021791382
-0.016036859
-0.010823376
-0.0061713897
-0.0022183872
0.00085363344
0.0030121649
0.0042468171
0.0044041027
0.0033885887
0.001853068
-0.1229573
-0.12511279
-0.12547101
-0.12307987
-0.1177454
-0.11004662
-0.10090158
-0.091208689
-0.081945733
-0.072901675
-0.063725069
-0.056439572
-0.05148991
-0.048856113
-0.047951905
-0.047939254
-0.047991404
-0.047519749
-0.046142675
-0.043714522
-0.040274925
-0.035995019
-0.031132931
-0.026005477
-0.020938142
-0.016121801
-0.011543432
-0.0069040696
-0.0029008348
0.00053089057
0.0034049333
0.005825819
0.0078494493
0.0095445361
0.010936401
0.012088612
0.012995537
0.013698014
0.014226748
-0.12546277
-0.11939074
-0.11204713
-0.10377537
-0.094852203
-0.085008026
-0.074463504
-0.063914802
-0.053901181
-0.044748287
-0.036430347
-0.029129484
-0.022562041
-0.016578787
-0.011204055
-0.006445756
-0.0023331117
0.00094654914
0.0033571521
0.0048811716
0.005448567
0.005018499
0.0036251743
0.0018849668
-0.12999732
-0.13289632
-0.13360047
-0.13096083
-0.12498423
-0.1163137
-0.10615473
-0.095677735
-0.085960951
-0.076473312
-0.067137091
-0.060191435
-0.055685844
-0.053438005
-0.052722881
-0.052620609
-0.05233023
-0.051314967
-0.049269379
-0.046117297
-0.041954444
-0.037017002
-0.031646544
-0.026219462
-0.020973253
-0.015898118
-0.010627503
-0.0060495504
-0.0021094639
0.001198356
0.0039892097
0.0063384281
0.0083052923
0.009954756
0.011310017
0.012435998
0.013321684
0.014013637
0.014532884
-0.1326065
-0.125543
-0.11725253
-0.10816189
-0.098587954
-0.088212838
-0.077229336
-0.066308575
-0.055888894
-0.046334082
-0.037622785
-0.030000453
-0.023165053
-0.016928534
-0.011341295
-0.0064415646
-0.0022166416
0.0012283412
0.0037950936
0.0055165524
0.0063106771
0.0062472909
0.0053513293
0.003673069
0.0018253831
-0.13804623
-0.1415668
-0.14232766
-0.13914975
-0.13223052
-0.12237816
-0.11117181
-0.099940946
-0.089731113
-0.079857576
-0.070493423
-0.064123818
-0.060098618
-0.058256725
-0.057652768
-0.057367989
-0.056636907
-0.054995206
-0.052209
-0.048263531
-0.043341235
-0.037795789
-0.032050091
-0.026388063
-0.020803201
-0.014838301
-0.0096252269
-0.0051168905
-0.0013277223
0.0018786639
0.0045813458
0.0068600387
0.0087689482
0.010372219
0.011690483
0.012790778
0.013653383
0.014334454
0.014843869
-0.1407768
-0.13260596
-0.12317911
-0.11304574
-0.10256587
-0.09146063
-0.079874399
-0.068539947
-0.057774186
-0.047842057
-0.038737778
-0.030767249
-0.023618427
-0.017118025
-0.011297648
-0.0062090454
-0.0018624343
0.0017023756
0.0043958778
0.0062027129
0.007142037
0.0072644606
0.0067019709
0.0054631727
0.0036046973
0.0017115087
-0.1470285
-0.15092748
-0.15145159
-0.14741628
-0.13928254
-0.12814915
-0.11591888
-0.10395561
-0.093234059
-0.083082954
-0.073974944
-0.068316267
-0.064811809
-0.063315515
-0.062728151
-0.062155723
-0.060886091
-0.05852214
-0.054893079
-0.050088721
-0.044452501
-0.038448077
-0.032401069
-0.02630199
-0.019582406
-0.013666078
-0.0085269047
-0.0042005762
-0.00053329287
0.0025659363
0.0051821919
0.0073892403
0.0092396144
0.010796704
0.012079047
0.013151171
0.013990092
0.014659795
0.015159376
-0.14991737
-0.14069192
-0.12999871
-0.11862079
-0.10698272
-0.094921549
-0.082546213
-0.070653607
-0.059494104
-0.049252423
-0.039774769
-0.03146148
-0.023976384
-0.017173498
-0.011112583
-0.0058181676
-0.0013110964
0.0023732862
0.0051468768
0.0070095536
0.0079862343
0.0082242603
0.0078275142
0.0068990755
0.0054173857
0.0034586362
0.0015469394
-0.15676271
-0.16076761
-0.16074724
-0.1555494
-0.14602346
-0.13360602
-0.12038168
-0.10769367
-0.096466563
-0.086182676
-0.077798466
-0.072816751
-0.069846354
-0.068609502
-0.067933485
-0.066963388
-0.065037158
-0.061811435
-0.057235545
-0.051608019
-0.045424836
-0.03904274
-0.032439229
-0.024904499
-0.018216082
-0.012375609
-0.0074532948
-0.0032717106
0.00026688604
0.0032615004
0.0057902508
0.0079251836
0.0097173071
0.011230314
0.012473216
0.013516439
0.014331018
0.014989205
0.015479023
-0.15985943
-0.14976376
-0.13780199
-0.12504138
-0.11203571
-0.098775494
-0.085436095
-0.072787208
-0.061110869
-0.05051319
-0.04071407
-0.032086017
-0.024282486
-0.017158889
-0.010821428
-0.0053182381
-0.00062974838
0.0031982632
0.0060407027
0.0079132728
0.0089069672
0.0091733989
0.0088759435
0.0081018527
0.0068944634
0.0052564109
0.0032643038
0.0013856004
-0.16704161
-0.17087284
-0.16998792
-0.16340267
-0.15244075
-0.13874796
-0.12452445
-0.1111484
-0.09940394
-0.089278971
-0.082038411
-0.077676702
-0.075207808
-0.074139412
-0.073259074
-0.071752204
-0.068990025
-0.064751461
-0.059246477