/*--------------------------------*- C++ -*----------------------------------*\
| =========                 |                                                 |
| \\      /  F ield         | OpenFOAM: The Open Source CFD Toolbox           |
|  \\    /   O peration     | Version:  5.0                                   |
|   \\  /    A nd           | Web:      www.OpenFOAM.org                      |
|    \\/     M anipulation  |                                                 |
\*---------------------------------------------------------------------------*/
FoamFile
{
    version     2.0;
    format      ascii;
    class       volScalarField;
    location    "340";
    object      pPrime2Mean;
}
// * * * * * * * * * * * * * * * * * * * * * * * * * * * * * * * * * * * * * //

dimensions      [0 4 -4 0 0 0 0];

internalField   nonuniform List<scalar> 
9200
(
9.0449621e-07
9.5958847e-07
5.7500673e-06
1.0336545e-06
5.9849751e-06
1.5812496e-05
1.1983237e-06
6.269046e-06
1.6367505e-05
2.8973277e-05
1.4501033e-06
6.8346381e-06
1.7138495e-05
2.9834034e-05
4.5358214e-05
1.886455e-06
7.6196752e-06
1.8589036e-05
3.1052125e-05
4.6517534e-05
6.3799106e-05
2.6027105e-06
8.7964322e-06
2.060021e-05
3.3289739e-05
4.8092569e-05
6.5134189e-05
8.3921715e-05
3.7871584e-06
1.0441212e-05
2.3508408e-05
3.6351369e-05
5.0963701e-05
6.6886915e-05
8.5352834e-05
0.0001053794
5.6490407e-06
1.2729714e-05
2.744329e-05
4.0715835e-05
5.4810729e-05
7.010631e-05
8.7108432e-05
0.00010681321
0.00012796771
8.5037788e-06
1.578587e-05
3.2758527e-05
4.6518457e-05
6.0195566e-05
7.432506e-05
9.0402816e-05
0.00010840868
0.00012935191
0.00015158957
1.2506837e-05
1.9795637e-05
3.980827e-05
5.4180237e-05
6.7215561e-05
8.0164526e-05
9.46115e-05
0.00011155329
0.00013067433
0.00015289111
0.00017620766
1.6520017e-05
2.4824182e-05
4.9055077e-05
6.4077951e-05
7.6330536e-05
8.763422e-05
0.0001004039
0.00011545211
0.00013351323
0.0001538681
0.00017741718
0.00020179478
1.8986201e-05
3.1348026e-05
6.1141994e-05
7.6831748e-05
8.79502e-05
9.717899e-05
0.000107694
0.00012082245
0.00013690306
0.00015631363
0.00017801511
0.00020292495
0.00022836736
2.206441e-05
4.1921004e-05
7.7805695e-05
9.3502776e-05
0.00010277721
0.00010914412
0.00011689799
0.00012748123
0.00014161758
0.00015908718
0.00018003896
0.00020314593
0.00022944097
0.0002558888
2.9830406e-05
6.1258241e-05
0.00010325797
0.00011647321
0.00012200919
0.00012418596
0.00012827515
0.00013581206
0.00014738481
0.00016303397
0.00018217319
0.00020477467
0.00022930829
0.00025694302
0.00028438883
4.3894061e-05
9.66049e-05
0.00014415325
0.00015074101
0.00014822965
0.0001434946
0.0001424193
0.00014599637
0.00015456661
0.00016780316
0.00018534938
0.00020631684
0.00023060099
0.00025650578
0.00028545757
0.00031380341
6.5294074e-05
0.00015346779
0.000210846
0.00020443025
0.00018639283
0.00016952462
0.00016042295
0.00015858259
0.00016329927
0.00017375373
0.00018914282
0.00020880245
0.00023164809
0.00025755661
0.00028476439
0.00031492243
0.00034415182
9.3710484e-05
0.0002312952
0.00031226591
0.00028955708
0.00024545797
0.00020717183
0.00018447109
0.00017452812
0.00017410865
0.00018099665
0.00019391618
0.00021173984
0.00023358896
0.00025825058
0.00028567302
0.00031403046
0.00034535548
0.00037535709
0.00012592651
0.00032674077
0.00044705046
0.00041884461
0.00033902506
0.00026548419
0.00021908365
0.00019574267
0.00018783851
0.00019003699
0.00019976876
0.00021550575
0.00023586665
0.00025984692
0.00028617255
0.00031491198
0.00034431393
0.00037666534
0.00040740905
0.00015642317
0.00042940428
0.00060823439
0.00059267712
0.00048150571
0.00035776534
0.00027274934
0.00022621948
0.00020613398
0.00020161286
0.00020718398
0.00022017336
0.00023886438
0.00026172648
0.00028765492
0.00031539757
0.00034526025
0.00037551186
0.00040883711
0.00044024658
0.00018097645
0.00053035926
0.00077870576
0.00080198173
0.0006755021
0.0005000178
0.00035846448
0.00027357822
0.00023240366
0.00021720177
0.00021682932
0.00022618195
0.00024262112
0.00026427771
0.0002894457
0.00031702653
0.00034589699
0.00037660688
0.00040760441
0.00044179295
0.0004738442
0.00019429878
0.00061812899
0.0009429983
0.0010252087
0.00091081677
0.0006992671
0.00049340915
0.0003511898
0.00027339205
0.00023963578
0.00023003041
0.00023415571
0.00024751654
0.0002674821
0.00029193275
0.00031908536
0.00034792956
0.00037755571
0.00040891377
0.00044048347
0.00047549928
0.00050816216
0.0001971364
0.00068153722
0.001090246
0.0012381106
0.001165982
0.00094625445
0.00068847157
0.00047550284
0.00034176672
0.00027474335
0.00024919609
0.00024528146
0.00025412681
0.00027165803
0.00029502728
0.00032196191
0.0003506277
0.00038024786
0.00041029322
0.00044202848
0.00047410438
0.00050990206
0.00054317422
0.00019672534
0.00072139907
0.0012125372
0.001427956
0.0014137315
0.001221095
0.0009376069
0.00065977027
0.0004531102
0.00033352388
0.00027915564
0.0002616609
0.00026351417
0.00027729609
0.00029897794
0.00032549707
0.0003543942
0.00038396806
0.00041385618
0.00044392151
0.00047588892
0.00050838551
0.00054496892
0.00057885741
0.00019677084
0.00074711034
0.0012950637
0.0015879695
0.001636036
0.0014952747
0.0012244262
0.00090451886
0.00062364588
0.00043174998
0.00032924423
0.00028711449
0.00027744652
0.00028529698
0.00030415598
0.00032985831
0.00035900754
0.00038915845
0.00041894536
0.00044853094
0.00047833879
0.00051036135
0.0005432821
0.0005806673
0.00061519784
0.00019873062
0.0007693026
0.0013479999
0.001691791
0.0018229282
0.0017447031
0.0015185085
0.001195559
0.00085956614
0.00058765085
0.00041513913
0.00032943361
0.00029909151
0.00029717841
0.00031128647
0.00033526205
0.0003645418
0.00039556507
0.00042608202
0.00045529613
0.00048409471
0.00051334114
0.00054537912
0.00057874444
0.00061697741
0.00065218386
0.0002021772
0.0007855004
0.0013896046
0.0017498047
0.0019526431
0.0019576849
0.0017940365
0.001506308
0.0011497249
0.00081099077
0.00055459655
0.00040253442
0.00033450444
0.00031553196
0.00032164234
0.00034226498
0.00037106652
0.0004031779
0.0004350227
0.00046486657
0.00049275556
0.0005202694
0.00054883107
0.0005808549
0.00061474132
0.00065388522
0.00068979638
0.00020462206
0.00079264876
0.0014134326
0.0017841296
0.0020242566
0.0021212658
0.002036329
0.0018064741
0.0014720355
0.0010949781
0.00076103713
0.00052366656
0.00039517653
0.00034495576
0.00033734809
0.00035183373
0.00037892501
0.00041192655
0.00044570467
0.00047707483
0.0005051592
0.00053095373
0.000556881
0.00058464505
0.00061674046
0.00065125
0.00069137833
0.00072800575
0.00020463119
0.00078968402
0.0014182893
0.0017960624
0.0020608542
0.0022192866
0.0022335879
0.0020774914
0.0017937727
0.0014229681
0.0010347905
0.00071099201
0.00049875451
0.00039479109
0.00036187083
0.00036570716
0.00038882096
0.00042192731
0.00045793512
0.00049185313
0.00052128683
0.00054648614
0.00056959133
0.00059366756
0.00062070384
0.00065298938
0.00068825896
0.00072944282
0.00076680706
0.00020089472
0.00077618763
0.0014073607
0.0017866715
0.0020740351
0.0022695126
0.0023667881
0.0023075719
0.0020921192
0.0017631037
0.00136175
0.0009703587
0.0006641137
0.00048075418
0.00040231623
0.00038663511
0.00040206744
0.00043361213
0.00047162949
0.00050893934
0.00054114084
0.00056706074
0.00058839148
0.00060830293
0.00063049646
0.00065691243
0.00068958137
0.00072576587
0.0007680698
0.00080623687
0.00018933888
0.00075625817
0.0013831756
0.0017625062
0.0020641127
0.0022930471
0.002443494
0.0024858798
0.0023582956
0.0020883361
0.001715056
0.0012895069
0.00090235453
0.00062084656
0.00047156208
0.00041956507
0.00042081459
0.00044788106
0.0004869513
0.00052810269
0.0005644686
0.00059285112
0.000613757
0.00063034662
0.00064684628
0.00066719825
0.00069324771
0.00072652062
0.00076377469
0.00080725752
0.00084628888
0.00017309945
0.00072087516
0.0013496726
0.0017244818
0.0020394179
0.0022938435
0.0024863071
0.0025995263
0.0025820117
0.0023892347
0.0020654887
0.0016481855
0.0012072903
0.0008323268
0.00058737056
0.00047475836
0.00044864758
0.00046636478
0.00050442331
0.00054924561
0.00059096299
0.00062372524
0.00064614442
0.0006606367
0.00067192585
0.00068492814
0.00070372869
0.00072970298
0.00076382561
0.00080228983
0.00084699476
0.00088682216
0.00015175282
0.00067595283
0.0012861087
0.0016799848
0.0020005698
0.0022792882
0.0025077199
0.0026688745
0.002737837
0.0026525881
0.0023978857
0.0020181661
0.0015620044
0.0011181669
0.0007685336
0.00056825843
0.00049285393
0.00049177439
0.00052513358
0.00057254657
0.00062034355
0.00065939878
0.00068566118
0.00070002015
0.00070702624
0.000712679
0.0007224196
0.00074001312
0.00076630037
0.00080151326
0.00084131469
0.00088724737
0.00092772468
0.00012556553
0.00061213235
0.0012105559
0.0016010362
0.0019575775
0.0022509605
0.0025122815
0.0027177201
0.0028443521
0.0028597444
0.0027008429
0.0023779312
0.0019438724
0.0014607933
0.0010260705
0.0007175872
0.00056677787
0.0005288688
0.00055109846
0.00059860713
0.00065247181
0.00069950936
0.00073218367
0.00074897224
0.00075348627
0.00075224231
0.00075232092
0.00075917278
0.0007760847
0.00080306712
0.00083960755
0.00088084583
0.00092798707
0.00096900038
9.9392132e-05
0.00052972774
0.0011037545
0.0015157108
0.0018743333
0.0022205319
0.0025030738
0.0027486046
0.0029255608
0.0030136445
0.0029648207
0.0027179059
0.0023264672
0.0018438728
0.0013501347
0.00093944762
0.00068757271
0.00058774985
0.0005854857
0.00062874607
0.0006875435
0.00074371427
0.00078540413
0.00080768801
0.00081227634
0.00080552531
0.00079576511
0.00079059056
0.00079519477
0.0008119668
0.00084005721
0.00087813891
0.00092087008
0.00096917572
0.001010735
7.5617691e-05
0.00043937913
0.00096563963
0.0014008232
0.0017913392
0.0021414758
0.0024935147
0.0027651293
0.0029883254
0.003134321
0.0031746381
0.0030330917
0.0026971195
0.0022405812
0.0017240672
0.0012366421
0.0008711705
0.0006845867
0.00063494233
0.00066529325
0.00072627896
0.00079187989
0.00084493717
0.00087610162
0.00088407468
0.00087411481
0.00085528297
0.00083713934
0.00082740692
0.00083048475
0.00084775253
0.00087733184
0.00091713383
0.00096137265
0.0010107302
0.0010529482
5.5203375e-05
0.00035178474
0.00081139598
0.0012523104
0.0016774583
0.0020706143
0.0024255654
0.0027816189
0.003035193
0.0032360775
0.0033454492
0.0033048286
0.0030566535
0.0026365263
0.0021256198
0.0015930277
0.0011305242
0.00083319792
0.00071323945
0.00071222368
0.00077013495
0.00084419994
0.00091043467
0.00095395275
0.00096924242
0.00095932576
0.00093316677
0.0009019988
0.00087612032
0.0008627256
0.00086516651
0.00088352928
0.00091495972
0.00095661191
0.0010023609
0.0010526409
0.0010955422
3.9148597e-05
0.00027214184
0.0006619241
0.0010769382
0.0015273701
0.0019644429
0.0023754343
0.0027272553
0.003082407
0.0033213615
0.0034943658
0.0035357532
0.0033910177
0.0030316985
0.0025394078
0.0019897286
0.0014613187
0.0010502674
0.00083458084
0.00077864778
0.00082172919
0.00090143729
0.00098174586
0.0010409026
0.0010678846
0.0010621557
0.0010315144
0.000988231
0.00094516645
0.00091256567
0.00089665846
0.00089935347
0.00091942442
0.00095300381
0.00099657579
0.0010438054
0.0010948928
0.001138468
2.8625545e-05
0.00020660545
0.00052491143
0.00090193985
0.0013439258
0.0018225486
0.0022838937
0.002702268
0.0030432251
0.0034071261
0.0036264909
0.0037388117
0.0036836087
0.0034169944
0.0029618809
0.0024129355
0.0018444416
0.0013445902
0.001010637
0.00087993928
0.00088616361
0.00096520334
0.0010590402
0.0011366256
0.0011799169
0.0011832977
0.0011521329
0.0010988153
0.0010384038
0.0009844487
0.00094653232
0.00092935413
0.00093324305
0.00095555292
0.0009915211
0.0010370267
0.0010856663
0.0011374331
0.0011816404
2.4437603e-05
0.00016062897
0.00041102343
0.00074101835
0.0011509569
0.0016396921
0.0021568588
0.0026288623
0.0030473495
0.0033876983
0.0037610403
0.0039265099
0.0039437305
0.0037753384
0.0033894678
0.0028578878
0.0022673369
0.0017024659
0.0012596857
0.0010260914
0.00097582022
0.0010382104
0.0011431022
0.0012409293
0.0013050664
0.0013231811
0.0012965376
0.0012365225
0.0011597445
0.0010830199
0.0010197781
0.00097817498
0.00096106748
0.00096701407
0.00099204354
0.0010305507
0.0010779594
0.0011279006
0.0011802126
0.0012249344
0.00013841524
2.6859571e-05
0.00033041594
0.00060703113
0.00097363284
0.0014352306
0.0019799913
0.0025180159
0.0029945394
0.0034258648
0.0037707556
0.0041191304
0.0041915278
0.0041013273
0.0038119934
0.0033218708
0.0027263744
0.0021137125
0.001581593
0.0012319689
0.0011041014
0.0011276502
0.0012354399
0.0013540449
0.001443146
0.0014819698
0.0014659425
0.0014038874
0.0013130325
0.0012131319
0.0011217729
0.0010512574
0.0010077967
0.00099206915
0.0010008897
0.001028995
0.0010701246
0.0011193541
0.0011704541
0.0012231684
0.0012682508
0.00029094287
0.00014208257
3.5949055e-05
0.00051230865
0.00082552295
0.0012467522
0.0017695804
0.0023497113
0.0029001429
0.003398642
0.0038552057
0.0041664516
0.0044493748
0.0044116447
0.0042055235
0.003793237
0.0032176374
0.0025757618
0.0019677419
0.001508759
0.0012777584
0.001247847
0.0013393854
0.0014766292
0.001594003
0.0016597184
0.0016612716
0.0016031696
0.0015019803
0.0013797615
0.001258286
0.0011546348
0.0010792173
0.0010357546
0.001022687
0.0010350473
0.001066505
0.0011102558
0.0011611786
0.001213266
0.0012662294
0.0013115234
0.00046585504
0.0002962545
0.00017147273
5.1589407e-05
0.00072070522
0.0010890208
0.0015708527
0.0021386046
0.0027438793
0.0033247474
0.0038624743
0.0043113642
0.0045426856
0.0047400672
0.0045858691
0.0042575112
0.0037315396
0.0030848697
0.0024182841
0.0018576277
0.0015098978
0.0014079936
0.001464908
0.0016098671
0.0017577597
0.001856324
0.0018831771
0.0018363558
0.0017300967
0.0015878835
0.001435408
0.0012949091
0.0011819008
0.0011041027
0.0010624984
0.0010532085
0.0010696821
0.001104639
0.0011509452
0.0012033903
0.0012562716
0.0013093166
0.0013546889
0.00066891934
0.00047214698
0.00034582344
0.00022394263
7.3292991e-05
0.00097819508
0.0014053497
0.001929994
0.0025349364
0.0031848721
0.0038163455
0.0043647011
0.0047574336
0.0048866645
0.0049928522
0.0047162658
0.0042616602
0.0036346718
0.0029324959
0.0022797993
0.0018152967
0.0016096516
0.0016260732
0.0017586355
0.001934806
0.0020717722
0.0021321123
0.0021050974
0.002000701
0.0018424293
0.0016594098
0.0014792173
0.0013231623
0.0012040816
0.0011265016
0.0010884984
0.0010839563
0.0011049443
0.0011434524
0.0011921751
0.001245937
0.0012994055
0.001352362
0.0013976754
0.00092440842
0.00067522087
0.00052968655
0.00043441622
0.00029466903
9.9713543e-05
0.0012900407
0.0017563153
0.002315877
0.0029789523
0.0037000968
0.0043599085
0.004868353
0.005185385
0.0052017019
0.0052079916
0.004799501
0.0042171922
0.0035047828
0.00278067
0.002197756
0.0018734462
0.0018200628
0.001935411
0.0021266853
0.0023060813
0.0024083331
0.0024107712
0.0023167869
0.0021482242
0.001936731
0.0017151173
0.0015110905
0.0013435709
0.001221912
0.0011470704
0.0011142264
0.0011152094
0.0011409713
0.0011829697
0.001233915
0.001288759
0.0013425957
0.0013952957
0.0014404134
0.00123598
0.00093314238
0.00073773972
0.00063164123
0.00055277048
0.00037715401
0.00012963215
0.001635967
0.0021336309
0.0027486035
0.0034990069
0.0042789305
0.0049165169
0.0053649038
0.0055957685
0.0054900236
0.0053822634
0.0048309551
0.0041295815
0.0033574053
0.0026667272
0.00221291
0.0020567795
0.0021464008
0.0023398596
0.0025592506
0.0027119178
0.0027544383
0.0026810318
0.002509883
0.0022738268
0.0020105239
0.0017544099
0.001531445
0.0013569992
0.0012362559
0.0011664979
0.0011401288
0.0011472215
0.0011778558
0.0012232003
0.001276121
0.001331791
0.0013857695
0.0014380467
0.0014828343
0.0015815331
0.0012488246
0.0010017304
0.00084816433
0.0007664075
0.00068898733
0.00046464683
0.00016123885
0.0020074333
0.0025558202
0.0032558966
0.0040907799
0.0048814446
0.0054783526
0.005858036
0.0059926269
0.0057476276
0.0055063199
0.0048040751
0.0040062939
0.0032262647
0.0026407619
0.002361871
0.0023858268
0.0025865313
0.0028332617
0.0030423863
0.0031366356
0.0030957039
0.002931711
0.0026771051
0.0023735746
0.0020624448
0.0017774637
0.0015412386
0.0013645424
0.0012480639
0.0011854647
0.0011666272
0.0011801961
0.0012156675
0.0012641279
0.0013187409
0.0013749643
0.0014288516
0.0014805434
0.0015248781
0.0019525055
0.0015987717
0.0013253298
0.0011207446
0.0009932223
0.0009196913
0.00083008291
0.00055027905
0.00019152078
0.0024219168
0.0030491088
0.0038363786
0.0047175988
0.0055003919
0.0060509916
0.0063527768
0.0063733616
0.0059621874
0.0055714436
0.0047254222
0.0038774411
0.0031660937
0.002749153
0.0026754854
0.0028621469
0.0031373366
0.0033997056
0.0035574451
0.0035625618
0.0034176293
0.0031527668
0.002812584
0.0024450038
0.0020922151
0.0017852155
0.0015418012
0.0013674591
0.00125832
0.0012046239
0.0011940851
0.0012142989
0.0012544418
0.0013057261
0.0013617101
0.0014181995
0.0014717648
0.0015227196
0.0015664884
0.0023652757
0.0019746503
0.00168354
0.0014543374
0.0012752992
0.0011559125
0.0010752274
0.0009670265
0.00062291066
0.00021457104
0.0029037931
0.0036146959
0.0044631246
0.005372749
0.0061423158
0.0066415451
0.0068475774
0.0067251909
0.0061210268
0.0055727753
0.0046188142
0.0037969426
0.0032333628
0.0030359008
0.0031683094
0.0034760939
0.0037887699
0.0040164255
0.0040825054
0.0039709376
0.003706688
0.0033357784
0.0029122589
0.0024870347
0.0021005924
0.0017791848
0.0015347234
0.001367104
0.0012679913
0.0012245646
0.0012228173
0.0012496495
0.0012941934
0.0013479447
0.0014049481
0.0014614109
0.0015144412
0.0015645221
0.0016076132
0.0028421605
0.0023922614
0.0020685343
0.0018227731
0.0016187767
0.0014455824
0.0013185826
0.0012180859
0.0010785749
0.00066861574
0.00022849872
0.0034556317
0.0042296533
0.0051300773
0.0060661344
0.0068173327
0.0072517756
0.0073311312
0.0070266358
0.0062140159
0.0055229829
0.0045353
0.0038298025
0.0034832439
0.0035289624
0.0038389455
0.0042155408
0.0045147241
0.0046554522
0.0045939973
0.0043440767
0.0039512022
0.0034745335
0.0029738868
0.0025000458
0.0020892055
0.0017613495
0.0015218176
0.0013648474
0.0012779782
0.001245806
0.0012530776
0.0012863311
0.0013349004
0.0013907078
0.0014483612
0.0015045282
0.0015568355
0.0016059025
0.0016481946
0.0033867889
0.0028722653
0.0024961178
0.0022191853
0.0019966358
0.0017958287
0.0016115136
0.0014556237
0.0013185997
0.0011449621
0.00068420902
0.00023474987
0.0040591408
0.0048884533
0.0058442742
0.0068091784
0.0075291435
0.0078690206
0.007777447
0.0072629726
0.0062399376
0.0054633852
0.0045443957
0.0040418559
0.0039597953
0.0042410926
0.0046731603
0.005055743
0.0052802965
0.0052874502
0.0050690853
0.0046662614
0.0041421601
0.0035651869
0.0029971724
0.0024856472
0.0020604216
0.0017340429
0.001504962
0.0013620084
0.0012890992
0.0012687962
0.0012850553
0.0013243749
0.0013765004
0.0014339167
0.0014918794
0.0015475188
0.0015989013
0.0016467837
0.0016901104
0.0039843774
0.0034191354
0.0029862303
0.0026595481
0.0024030117
0.0021803163
0.0019618195
0.0017341404
0.0015369083
0.0013648039
0.0011630224
0.00068334126
0.00023062901
0.0047080413
0.0055969221
0.0066175938
0.0076089826
0.0082698461
0.0084687277
0.0081615959
0.0074247217
0.0062231704
0.0054690809
0.0047201564
0.0044883345
0.004692815
0.0051610717
0.0056371794
0.0059593937
0.0060503762
0.0058840157
0.0054872358
0.0049249356
0.0042734836
0.0036063
0.0029834819
0.0024465227
0.0020171319
0.0016997621
0.0014860105
0.0013598194
0.0013020845
0.0012938967
0.0013188638
0.0013637459
0.0014188986
0.0014775055
0.0015354851
0.0015903375
0.0016405228
0.0016887246
0.0017343138
0.004628176
0.0040205435
0.0035433919
0.0031632477
0.0028546743
0.0025938625
0.0023403544
0.0020639308
0.0017870321
0.001556466
0.0013600759
0.0011597422
0.00066182625
0.00021963651
0.0054073993
0.0063674587
0.0074614099
0.0084609249
0.0090134596
0.0090184906
0.0084672796
0.0075164278
0.0062303569
0.0056214418
0.0051279862
0.0052167013
0.0056820542
0.0062520009
0.0066906331
0.0068832744
0.0067892988
0.0064186424
0.0058316477
0.0051111351
0.0043421981
0.003598739
0.0029357159
0.002386163
0.0019625728
0.0016610396
0.0014667426
0.0013594013
0.0013175431
0.0013213584
0.0013545259
0.0014043711
0.001462047
0.0015214785
0.0015791316
0.0016328026
0.0016830002
0.0017328149
0.0017796106
0.0053216069
0.0046693198
0.0041570866
0.0037339934
0.0033695116
0.0030543938
0.0027426809
0.002418699
0.0020808506
0.0017755937
0.0015231341
0.001341361
0.0011182908
0.00062653102
0.00020261631
0.006169293
0.0072116924
0.0083718115
0.0093429211
0.0097278819
0.0094902117
0.0086935612
0.0075885974
0.0063438229
0.0059982099
0.0058289777
0.006247712
0.0068906655
0.0074607124
0.0077826085
0.0077827007
0.0074620955
0.0068690643
0.0060896052
0.005219707
0.0043482457
0.0035454409
0.0028579571
0.0023086382
0.0019001198
0.0016203567
0.0014488196
0.0013617143
0.0013359146
0.0013512961
0.0013920197
0.0014462332
0.0015059744
0.0015657769
0.0016225563
0.0016759448
0.0017276338
0.0017781955
0.0018259958
0.0060767513
0.0053665629
0.0048187938
0.0043622831
0.0039506512
0.0035740471
0.0031868361
0.0027931516
0.0023985162
0.0020326457
0.0017052949
0.0014841918
0.0012798153
0.001056095
0.00057425706
0.00018126655
0.0070060708
0.0081271496
0.009330133
0.010216364
0.010374662
0.0098731977
0.0088597897
0.0077124386
0.0066471152
0.0066694154
0.0068616131
0.0075556617
0.0082588112
0.008730603
0.0088610266
0.0086155799
0.0080408728
0.0072183176
0.0062531193
0.0052492468
0.0042943271
0.0034510127
0.002755185
0.002218335
0.0018331508
0.0015800792
0.0014336937
0.0013674971
0.0013574702
0.0013837789
0.0014313821
0.0014893909
0.0015506008
0.0016100464
0.0016665545
0.0017213595
0.0017737553
0.0018248633
0.0018734556
0.0069061624
0.0061243927
0.0055278483
0.0050379259
0.004588622
0.0041590474
0.0036884675
0.0032036841
0.0027361365
0.0023112722
0.0019183002
0.0016388141
0.0013952102
0.0011982766
0.00097042944
0.00050733415
0.00015848034
0.0079167848
0.009096905
0.01029885
0.011031737
0.010930334
0.010173878
0.0090294732
0.0079796997
0.0072185708
0.0076856834
0.0082231133
0.0090734813
0.0097138128
0.010004891
0.009874434
0.0093467041
0.0085035273
0.0074547566
0.0063187802
0.0052018213
0.004185418
0.0033213895
0.0026329387
0.0021197427
0.0017649326
0.0015423352
0.0014225183
0.0013772653
0.0013824315
0.0014189372
0.0014727074
0.0015337311
0.001595466
0.0016548811
0.0017130761
0.0017684841
0.0018213928
0.00187279
0.0019219738
0.0078099037
0.0069571498
0.0062967449
0.0057584553
0.0052731001
0.0047932781
0.0042468876
0.0036645345
0.0031059765
0.0026076598
0.0021508376
0.0018187912
0.0015130796
0.0012878081
0.0010922108
0.00086334584
0.00042966302
0.00013595171
0.0088829702
0.010083758
0.011226099
0.011752295
0.011389542
0.010438115
0.009287483
0.0084733173
0.0081181087
0.0090653334
0.0098525602
0.010710068
0.011184704
0.011221843
0.010779729
0.0099471475
0.0088342234
0.0075724376
0.0062876627
0.0050825478
0.0040283871
0.0031634099
0.0024970574
0.0020172742
0.0016984639
0.0015088611
0.0014161614
0.0013914625
0.0014110874
0.0014569123
0.0015158362
0.0015786789
0.0016410047
0.0017026478
0.0017615486
0.0018174005
0.0018704965
0.0019219516
0.0019715278
0.0087650706
0.007864402
0.0071412691
0.0065371875
0.0059984819
0.0054616492
0.0048472379
0.0041726528
0.0035212754
0.0029327902
0.0023979884
0.0020176485
0.0016508532
0.0013720521
0.0011563422
0.0009671995
0.00073759879
0.00034938183
0.00011466875
0.0098649655
0.011047818
0.012068072
0.012362504
0.011780674
0.010744931
0.0097201199
0.0092558703
0.0093777264
0.010764168
0.011646019
0.012381468
0.01261219
0.012326693
0.011544198
0.010396457
0.0090235249
0.0075707589
0.0061646097
0.0048991098
0.0038314858
0.002984462
0.0023533791
0.0019150352
0.0016362747
0.0014810276
0.001415419
0.0014105854
0.0014436383
0.0014974748
0.0015600698
0.0016245906
0.0016900696
0.0017526347
0.0018121372
0.0018680306
0.0019210385
0.0019723092
0.0020220939
0.0097301242
0.0088179135
0.0080608913
0.0073910777
0.0067778824
0.0061625477
0.0054714333
0.0047137174
0.0039763222
0.0032973009
0.0026709673
0.0022305907
0.0018044512
0.0014703666
0.0012089287
0.0010085858
0.00082544926
0.00060400017
0.00027290461
9.4643125e-05
0.010823106
0.011947722
0.012802012
0.012880757
0.012173919
0.011172512
0.010394536
0.010372387
0.010976346
0.012677379
0.01350226
0.014017305
0.013935029
0.013278162
0.012139599
0.010680377
0.0090683633
0.0074537452
0.0059579048
0.0046611713
0.0036038666
0.0027921032
0.0022073971
0.001816581
0.0015804524
0.0014601291
0.0014211229
0.0014349355
0.0014797568
0.0015398078
0.0016057807
0.0016748672
0.0017416737
0.0018051299
0.0018647363
0.0019203498
0.0019729676
0.002023824
0.002073642
0.010669371
0.0097764572
0.0090213842
0.0083187442
0.0076333079
0.0069098179
0.0061156397
0.0052699522
0.0044529064
0.0036932907
0.0029756121
0.0024672653
0.0019703975
0.0015818845
0.0012695089
0.0010326977
0.00084830374
0.00067696264
0.00047625749
0.00020439444
7.6419409e-05
0.011718
0.012744606
0.013432959
0.013368642
0.012644458
0.011783596
0.011365611
0.011819908
0.012836256
0.014687064
0.015336678
0.015555183
0.015098621
0.01404653
0.012545321
0.01079289
0.0089712349
0.0072298819
0.0056785223
0.0043798343
0.0033550921
0.0025935768
0.0020640081
0.0017249995
0.0015329962
0.0014474484
0.001433683
0.0014640677
0.0015185258
0.0015844508
0.0016569875
0.0017280649
0.0017962705
0.0018600029
0.0019193227
0.001974295
0.0020262315
0.0020764453
0.0021261397
0.011545572
0.010706777
0.009982066
0.0092793472
0.0085608153
0.0077244155
0.0067924814
0.0058372807
0.0049339177
0.0041030782
0.0033037254
0.0027313939
0.0021568022
0.0017036016
0.0013422515
0.0010596657
0.00084969598
0.00068528571
0.00053572052
0.00036028143
0.00014741044
6.0323937e-05
0.012512135
0.013437089
0.014016638
0.013904959
0.013245418
0.012640875
0.012637075
0.013541994
0.014843862
0.016693412
0.017076685
0.016946172
0.016063298
0.014607731
0.01275216
0.010734251
0.0087402154
0.0069112053
0.0053395748
0.0040669674
0.0030945259
0.0023954625
0.0019275982
0.0016432691
0.0014958062
0.0014435682
0.0014524768
0.001497008
0.0015608413
0.0016360912
0.0017115992
0.0017848598
0.0018536938
0.0019172286
0.0019758305
0.0020298014
0.0020807646
0.0021301205
0.0021795477
0.012320856
0.011569585
0.010912035
0.010232688
0.0095118002
0.0085990205
0.0075216594
0.0064285343
0.0054152303
0.0045085883
0.0036357727
0.0030145748
0.0023655151
0.0018433077
0.0014238479
0.0010980196
0.00085101468
0.0006709008
0.00053432272
0.0004079198
0.0002629107
0.00010364352
4.6133424e-05
0.013201391
0.014071121
0.014631505
0.014536078
0.01403519
0.013754332
0.014163338
0.015451121
0.016894265
0.018613551
0.018677159
0.018143321
0.01680496
0.014942691
0.012756583
0.010511191
0.0083879802
0.0065127489
0.0049554765
0.0037344162
0.0028308535
0.0022038167
0.0018024317
0.001574104
0.0014696864
0.0014477402
0.0014765619
0.0015352601
0.0016120995
0.0016917575
0.0017705741
0.0018450334
0.0019139234
0.0019767349
0.0020341827
0.0020867924
0.0021364945
0.0021847863
0.0022338375
0.012993427
0.012328966
0.011768435
0.011153818
0.010442068
0.0094811853
0.0082880531
0.0070557938
0.0059094668
0.0049042027
0.0039524635
0.0032960718
0.0025870725
0.0020017272
0.0015209005
0.0011445818
0.00086238465
0.000654178
0.00050924333
0.00040179345
0.00030177515
0.00018970515
7.1786021e-05
3.3530702e-05
0.013828538
0.014720628
0.015324138
0.015308819
0.015038886
0.015086036
0.015882904
0.017459471
0.018900414
0.02039789
0.020101829
0.019107773
0.017310515
0.01504502
0.01256326
0.010136433
0.0079311968
0.00605161
0.0045409706
0.0033934537
0.0025722421
0.0020245696
0.0016923248
0.0015186116
0.0014537467
0.0014591745
0.0015083919
0.0015849376
0.001668209
0.0017527619
0.0018336202
0.0019085786
0.0019768795
0.0020384385
0.0020942917
0.0021451766
0.0021933361
0.0022403914
0.0022889642
0.013601905
0.012988751
0.012524397
0.012003191
0.011325856
0.010324861
0.0090424306
0.0077063612
0.0064268811
0.0053034018
0.0042515722
0.00355894
0.0028034191
0.0021697183
0.0016342181
0.0012048273
0.00088181819
0.00064632698
0.00048072619
0.00037328946
0.00029558162
0.00022208651
0.00013709664
4.9622846e-05
2.3755586e-05
0.014461296
0.01543609
0.016131611
0.016251835
0.016214817
0.016578563
0.017733686
0.019478955
0.020799902
0.022012741
0.021314959
0.019812376
0.01756237
0.014912267
0.012184046
0.0096275002
0.0073895492
0.0055457215
0.0041103633
0.0030548956
0.0023267676
0.0018629731
0.0015988286
0.0014757718
0.0014475543
0.0014814313
0.0015547687
0.0016405691
0.0017309093
0.0018187116
0.0019007511
0.0019754062
0.0020424741
0.0021022423
0.0021560478
0.0022048498
0.0022512243
0.0022968687
0.0023448825
0.014212138
0.013583086
0.013182416
0.012755285
0.012129204
0.011111712
0.0097457835
0.0083256278
0.0069499319
0.0057141212
0.0045450776
0.0037988315
0.0029974418
0.0023298711
0.0017550779
0.0012792957
0.00091356419
0.00064724756
0.0004609401
0.00034176169
0.0002697454
0.00021848244
0.00016495947
9.9239629e-05
3.4445428e-05
1.603436e-05
0.01515832
0.016257083
0.017079729
0.017323251
0.017494069
0.018183256
0.019641321
0.021442454
0.022554952
0.023442736
0.022276348
0.020235677
0.017539551
0.014554165
0.011635745
0.0090060708
0.0067843307
0.0050129576
0.0036777665
0.0027295602
0.0021015137
0.0017212297
0.0015208098
0.0014457481
0.0014561267
0.0015220917
0.0016085971
0.0017044079
0.0017996725
0.0018896485
0.0019718642
0.0020454241
0.0021106002
0.0021680214
0.0022193277
0.002265731
0.0023100728
0.0023541457
0.0024015428
0.014888473
0.014172173
0.013771702
0.013413505
0.012836536
0.01181561
0.010386294
0.0088903481
0.0074336375
0.0061183954
0.0048374028
0.0040266382
0.0031666589
0.002467615
0.0018682192
0.0013604236
0.00095773812
0.00066077043
0.00045148182
0.00031854297
0.00024133561
0.0001982814
0.00016451418
0.00012390047
7.2359267e-05
2.4233332e-05
1.0328873e-05
0.015960428
0.0172065
0.018129628
0.018450452
0.018835933
0.019865635
0.021537774
0.023305662
0.024146057
0.024676323
0.022931379
0.020364765
0.017246302
0.013986932
0.010940968
0.0082966376
0.0061373778
0.0044713643
0.0032574676
0.0024268727
0.0018995716
0.0015981285
0.0014593386
0.0014352581
0.0014877804
0.0015722615
0.0016727239
0.0017757474
0.0018745722
0.0019654516
0.0020468623
0.0021185164
0.0021811211
0.0022356336
0.0022840425
0.002327721
0.0023697831
0.0024121423
0.0024588942
0.015679666
0.014824906
0.014349602
0.014002857
0.013450419
0.012425396
0.010956139
0.0093903442