/*--------------------------------*- C++ -*----------------------------------*\
| =========                 |                                                 |
| \\      /  F ield         | OpenFOAM: The Open Source CFD Toolbox           |
|  \\    /   O peration     | Version:  5.0                                   |
|   \\  /    A nd           | Web:      www.OpenFOAM.org                      |
|    \\/     M anipulation  |                                                 |
\*---------------------------------------------------------------------------*/
FoamFile
{
    version     2.0;
    format      ascii;
    class       volVectorField;
    location    "340";
    object      U;
}
// * * * * * * * * * * * * * * * * * * * * * * * * * * * * * * * * * * * * * //

dimensions      [0 1 -1 0 0 0 0];

internalField   nonuniform List<vector> 
9200
(
(1.038886 0.00074238306 -1.6248676e-24)
(1.0390665 0.00236745 7.9410308e-22)
(1.0366506 0.00074399793 0)
(1.0393486 0.00376896 -4.1967796e-22)
(1.0368064 0.0023929093 6.9380899e-22)
(1.0356648 0.0007338008 0)
(1.0397359 0.0051674873 -4.2152791e-23)
(1.037074 0.0038142884 1.0956579e-23)
(1.035808 0.0023737833 0)
(1.0342164 0.00070687706 0)
(1.0401788 0.0064485228 8.6655424e-22)
(1.0374314 0.0052399718 6.4394766e-22)
(1.0360597 0.0037890355 3.9349773e-22)
(1.0343363 0.002298697 2.4021695e-23)
(1.0331043 0.00067202221 2.2905523e-25)
(1.0406739 0.0076474915 8.2989166e-22)
(1.0378693 0.0065627364 -3.1567676e-23)
(1.0363947 0.0052138771 1.3131494e-21)
(1.0345605 0.0036728615 5.3865061e-22)
(1.0332084 0.0021895368 1.7013733e-23)
(1.0320042 0.00063396593 -1.0104101e-21)
(1.0411958 0.0087265603 8.5687525e-22)
(1.0383978 0.0078263146 9.4522039e-22)
(1.0368039 0.0065545749 -7.9146536e-22)
(1.0348461 0.0050570965 -5.7934871e-23)
(1.033413 0.0034978866 4.8678865e-22)
(1.0320939 0.0020621255 4.9391586e-22)
(1.031036 0.00060170508 8.7040126e-23)
(1.0417579 0.0096511358 4.2475582e-22)
(1.0390295 0.0090140162 7.8210034e-22)
(1.0372996 0.0078660856 9.4545846e-22)
(1.0351829 0.0063732876 5.2643786e-23)
(1.0336651 0.004808069 -1.2528102e-21)
(1.0322816 0.003290985 -5.5637934e-22)
(1.0311198 0.0019443461 -5.6933903e-22)
(1.0301405 0.0005780729 9.3861641e-22)
(1.0423645 0.010371758 -1.1374171e-21)
(1.0398065 0.01009975 8.2864192e-22)
(1.0378888 0.0091588799 4.7076327e-23)
(1.0355666 0.0076797077 4.5277453e-22)
(1.0339496 0.0060502957 1.2323102e-22)
(1.0325074 0.0045063826 -1.8678675e-21)
(1.0313013 0.0030998068 1.6211703e-22)
(1.0302246 0.0018497481 -9.6740721e-22)
(1.0293145 0.00056161157 -1.9908341e-21)
(1.0429762 0.010860864 8.6766158e-22)
(1.0407876 0.011098022 -3.4596543e-22)
(1.0385887 0.010448586 -4.7325097e-23)
(1.0359781 0.0090087021 -1.9277057e-22)
(1.0342472 0.0072699429 -1.9168865e-22)
(1.0327548 0.0056458395 2.087734e-22)
(1.0315225 0.0042260425 6.5425202e-22)
(1.0304039 0.0029488969 1.0940292e-21)
(1.0294028 0.0017827014 6.2057583e-22)
(1.0285399 0.00054811058 1.601872e-22)
(1.0436127 0.011102004 -4.2347167e-22)
(1.0421539 0.01193614 1.7278228e-22)
(1.0394485 0.011804071 6.3617266e-22)
(1.0364086 0.010412155 -7.5929167e-22)
(1.0345034 0.0084964452 5.5198022e-22)
(1.0329919 0.0067299525 -1.7046588e-21)
(1.0317702 0.0052698651 6.764897e-23)
(1.0306297 0.0040083455 1.6467654e-21)
(1.0295799 0.0028471432 -8.2049669e-22)
(1.0286315 0.0017361451 1.806508e-21)
(1.0278101 0.00053465545 -2.7097295e-22)
(1.0446375 0.010774866 9.8238156e-23)
(1.0436571 0.012609194 -4.6765669e-22)
(1.0403154 0.013347325 -7.9227762e-22)
(1.0368256 0.01199738 0)
(1.0346782 0.0097736296 3.4183814e-23)
(1.0331559 0.0077735507 -3.0609926e-22)
(1.0320188 0.0062294251 -3.3640814e-22)
(1.0308924 0.0049877055 -8.1472313e-22)
(1.0298109 0.0038704379 -2.2075605e-22)
(1.0288019 0.0027824528 -1.0398599e-21)
(1.0279005 0.0016982582 -7.0580259e-22)
(1.0271222 0.00052034797 1.6310529e-22)
(1.0459224 0.0098578152 5.6845137e-23)
(1.0455857 0.01350448 -6.3542569e-23)
(1.0411932 0.015154608 0)
(1.037126 0.013837729 0)
(1.0346369 0.011154357 -1.9021378e-22)
(1.0332011 0.0087767858 -1.9932475e-22)
(1.0322137 0.0071000952 -4.4516218e-22)
(1.0311816 0.0058735484 9.6485136e-22)
(1.0300853 0.0048264889 1.0023624e-22)
(1.029029 0.0037921093 2.6563148e-24)
(1.0280592 0.0027331145 1.1608212e-21)
(1.027206 0.0016568676 -1.2461548e-21)
(1.0264774 0.0005043434 2.5835895e-21)
(1.0473375 0.0083103 -8.7600588e-22)
(1.0483574 0.014451136 3.8557556e-23)
(1.0423586 0.017241311 -3.2639594e-22)
(1.0372947 0.015982442 1.2242772e-22)
(1.0343284 0.012677147 -7.2118948e-23)
(1.0330377 0.0097495325 -1.4792319e-22)
(1.0323198 0.007844811 2.6829111e-22)
(1.0314595 0.0066522795 1.5970195e-23)
(1.0304116 0.0057003844 1.0847957e-21)
(1.0293013 0.0047521013 1.011088e-21)
(1.0282731 0.0037363385 3.2165981e-22)
(1.0273497 0.0026767239 9.3093436e-22)
(1.0265516 0.001601967 6.31833e-22)
(1.0258794 0.00048458928 -7.0666743e-22)
(1.0491597 0.0061702423 4.093908e-22)
(1.0519827 0.015437835 1.3972481e-21)
(1.0438921 0.019789845 -3.5563677e-22)
(1.0373054 0.018560522 6.1350864e-23)
(1.033681 0.014405874 -6.4637351e-23)
(1.0325731 0.010648418 2.7822917e-22)
(1.0322638 0.0084388733 2.57956e-22)
(1.031713 0.0072706687 -3.4298103e-22)
(1.030771 0.0064811133 -1.0020945e-22)
(1.0296449 0.0056508742 -1.2077841e-22)
(1.028528 0.0047081212 -1.9174098e-23)
(1.0275404 0.0036669369 -1.507069e-22)
(1.026679 0.0025953084 -1.1851344e-21)
(1.0259442 0.0015270875 5.975275e-22)
(1.0253332 0.00045929658 -5.3807196e-22)
(1.0512341 0.0029808795 2.3404761e-21)
(1.0564651 0.016324741 -1.8199555e-21)
(1.0458347 0.02303424 1.9156252e-22)
(1.0370883 0.021793866 -9.1487777e-23)
(1.0325004 0.016436987 -7.8436835e-23)
(1.0316501 0.011477783 -5.292963e-22)
(1.0320127 0.0087874888 -3.5319448e-23)
(1.0319245 0.0076678861 3.4312e-23)
(1.0311767 0.0071121856 -2.1047699e-22)
(1.0300587 0.0064874712 -2.7743452e-22)
(1.028858 0.005642554 -2.0753938e-21)
(1.0277618 0.0046433303 4.2428295e-22)
(1.0268418 0.0035570392 3.6933101e-22)
(1.0260564 0.0024779747 1.8933139e-22)
(1.0253912 0.0014307216 4.3398793e-23)
(1.0248432 0.00042895165 5.9670057e-22)
(1.0537519 -0.00061623566 0)
(1.0616647 0.017340344 -2.4149365e-21)
(1.0481512 0.027189321 8.6329352e-22)
(1.0365655 0.025890619 0)
(1.030618 0.018873208 0)
(1.0301062 0.012240143 0)
(1.031407 0.008779716 1.1842725e-22)
(1.0322001 0.0077592445 4.8621997e-22)
(1.0316921 0.0075272958 3.7308108e-22)
(1.0305949 0.0072184253 6.2022008e-22)
(1.0292739 0.0065584962 9.9869298e-23)
(1.0280428 0.0056066073 4.5417635e-22)
(1.027016 0.0045172181 5.64923e-24)
(1.0261915 0.0033906664 -4.2384067e-22)
(1.0254916 0.0023230248 -1.2886707e-22)
(1.0248977 0.0013168361 -2.9090635e-22)
(1.0244107 0.00039611693 0)
(1.0564967 -0.0050270881 4.8467768e-21)
(1.0672688 0.018202531 5.9157907e-21)
(1.0505956 0.032424797 -2.3268128e-21)
(1.0355586 0.031078206 1.0977147e-21)
(1.027859 0.021847996 1.1025825e-21)
(1.0277429 0.01290316 0)
(1.0303561 0.0083394856 7.9232559e-22)
(1.0323524 0.0073248024 -2.5091879e-22)
(1.032464 0.0076561694 4.1749737e-22)
(1.0313731 0.0077847117 4.4112501e-22)
(1.029854 0.0074434513 -3.7141093e-22)
(1.0283906 0.0065979048 1.3170204e-22)
(1.0272223 0.0054818711 7.4450093e-22)
(1.0263146 0.0043052362 -1.4012184e-21)
(1.0256046 0.0031653164 -3.9932061e-22)
(1.0249921 0.0021377037 -1.9572282e-21)
(1.0244657 0.0011935912 -7.8011647e-22)
(1.0240338 0.00036367383 -7.4621555e-22)
(1.0606728 -0.010071499 -3.6670372e-22)
(1.0742181 0.019177738 4.1844371e-21)
(1.0529156 0.039018311 1.0897063e-21)
(1.0336859 0.037558907 3.2007041e-22)
(1.0239749 0.02549306 -2.2139125e-22)
(1.024329 0.01345477 -5.7888855e-22)
(1.0287103 0.0073279737 -2.0115146e-21)
(1.0323672 0.0062735582 -1.0478798e-21)
(1.0334788 0.007372723 -1.3871093e-22)
(1.0323758 0.0081640082 -6.5967117e-22)
(1.030667 0.0083065465 -1.0191005e-22)
(1.0288711 0.0076539122 -8.2829706e-22)
(1.0274426 0.0065069719 1.2092143e-22)
(1.0264374 0.0052261879 1.2237498e-22)
(1.0256867 0.0040054583 1.8474402e-22)
(1.0250927 0.0028929374 2.960304e-22)
(1.0245606 0.0019357739 -6.4455213e-22)
(1.0240931 0.00107068 2.6096171e-23)
(1.0237073 0.00033396033 -7.0443182e-22)
(1.064975 -0.01814353 -3.8775089e-21)
(1.085047 0.019690601 -8.3166753e-21)
(1.0564955 0.046898295 1.0921073e-20)
(1.0308496 0.045427646 -7.898043e-22)
(1.0186755 0.029922903 -5.7786722e-23)
(1.0195954 0.01386622 -2.6105767e-22)
(1.0262938 0.0055899111 2.6775415e-22)
(1.0322367 0.0043926747 -2.4066007e-23)
(1.0347199 0.0064867899 -5.3309236e-23)
(1.0338308 0.0084606493 2.9149231e-22)
(1.0316823 0.00921735 -1.0608885e-21)
(1.0294726 0.0088558414 2.8837527e-22)
(1.0277028 0.0076643317 4.5397883e-22)
(1.0265118 0.0062155367 -4.0944965e-23)
(1.0257362 0.0048338026 1.3018189e-22)
(1.0251513 0.003635187 9.3724069e-22)
(1.0246613 0.0025955298 -1.8342829e-22)
(1.0241951 0.0017336279 1.0612317e-21)
(1.0237747 0.00095675528 2.8065372e-22)
(1.0234242 0.00030917435 7.3555846e-22)
(1.0709361 -0.024904137 -3.6664983e-22)
(1.1004413 0.020144669 -1.6860325e-20)
(1.0646195 0.056084818 1.3654382e-21)
(1.0285235 0.054800474 -2.4357678e-22)
(1.0117241 0.035108491 -1.4009461e-21)
(1.0132977 0.014116655 -1.2361173e-21)
(1.022907 0.0029478653 2.3962534e-21)
(1.0319148 0.0014512806 1.9478012e-21)
(1.0363117 0.0048145159 3.9863173e-22)
(1.0359103 0.0084349468 0)
(1.0331715 0.01020123 7.2034017e-22)
(1.0302239 0.010280527 3.1847691e-22)
(1.0279536 0.0090470664 -6.1672402e-22)
(1.026526 0.0073385193 6.3412715e-23)
(1.0256912 0.0057136145 -4.3212111e-22)
(1.0251574 0.0043361724 7.4052637e-22)
(1.0247176 0.0032260361 1.6399134e-22)
(1.0243087 0.0022981051 -3.1524112e-22)
(1.0238894 0.0015464634 6.2807857e-22)
(1.0235026 0.00085821636 4.8727623e-23)
(1.0231765 0.00029155398 7.0342522e-22)
(1.0688974 -0.033272413 3.2733628e-21)
(1.1069593 0.015996435 -1.6715654e-20)
(1.0790599 0.066217946 -1.0489772e-20)
(1.0299233 0.065954044 3.4951249e-21)
(1.0035988 0.041297013 -3.4040707e-21)
(1.0051534 0.014175211 -5.1879488e-23)
(1.0183551 -0.00078668453 0)
(1.0313506 -0.0027981573 2.4720761e-22)
(1.0383636 0.0021199131 -2.5408935e-24)
(1.0387637 0.0079642424 8.6726391e-22)
(1.0353565 0.011290995 4.0367442e-22)
(1.0313318 0.011984784 6.5254936e-23)
(1.0282401 0.010735194 -7.6964502e-23)
(1.026422 0.0086763162 3.6192842e-22)
(1.0255088 0.0066808457 -2.1836084e-22)
(1.0250372 0.0050487097 2.3464471e-22)
(1.0247161 0.0037834957 -9.3582837e-23)
(1.0243837 0.002814653 5.7023621e-22)
(1.0240276 0.002022896 1.3314983e-22)
(1.0236348 0.0013856801 1.8948464e-23)
(1.023268 0.00077929401 3.7291756e-22)
(1.022956 0.00028267051 0)
(1.0609499 -0.042688006 3.3806122e-22)
(1.1074863 0.01273788 1.1017733e-20)
(1.0959952 0.077703307 -4.9973743e-22)
(1.0355349 0.079401167 4.7151679e-21)
(0.99561544 0.049171525 -4.1600157e-21)
(0.99483999 0.01404152 1.7844331e-21)
(1.0124513 -0.0057907076 -3.6107824e-22)
(1.0304417 -0.0086203881 1.2150118e-21)
(1.0410001 -0.0018575145 -7.3100985e-24)
(1.0426172 0.0068923 -6.701683e-23)
(1.038458 0.012501132 -3.8349409e-24)
(1.0329344 0.014151999 -2.1674687e-22)
(1.0286078 0.012877683 -1.0253528e-22)
(1.0261733 0.010327765 1.2680272e-21)
(1.0251096 0.007801595 8.7909113e-22)
(1.0247363 0.0057849224 6.1319352e-22)
(1.0245761 0.0043033214 -1.4251491e-22)
(1.0244083 0.0032302471 -8.886949e-22)
(1.0241385 0.0024347372 -2.6929796e-23)
(1.0238063 0.0017860436 3.3660218e-22)
(1.023421 0.0012578105 0)
(1.0230626 0.0007221448 -8.3824227e-22)
(1.0227544 0.00028215082 -3.1439698e-24)
(1.0462995 -0.051931164 -6.1771747e-21)
(1.1043492 0.0082415766 3.853258e-20)
(1.0989653 0.088956027 -2.6746431e-20)
(1.0404567 0.097433907 -5.9543593e-21)
(0.9874951 0.059902785 -6.0883855e-21)
(0.98201087 0.013838306 0)
(1.0049126 -0.012229461 -1.5120251e-22)
(1.0291075 -0.016300854 1.0085477e-21)
(1.0442494 -0.0074232295 -7.9063383e-22)
(1.0477406 0.0050464291 -1.4933223e-21)
(1.0427582 0.013841907 7.9286865e-22)
(1.0352163 0.016954564 3.0266674e-22)
(1.0291003 0.015692476 -2.3540062e-22)
(1.0257122 0.012443174 6.3931775e-22)
(1.0244086 0.0091560343 -7.1083201e-22)
(1.024156 0.0065779973 -1.4139449e-21)
(1.024246 0.0047749198 -2.7097103e-22)
(1.024303 0.0035613053 -3.1003239e-22)
(1.024216 0.0027251475 8.6260581e-22)
(1.0239648 0.0021124231 -2.378562e-22)
(1.0236306 0.0015970589 -7.1001736e-22)
(1.0232385 0.0011649322 7.6607421e-22)
(1.0228791 0.00068641652 -5.8434954e-22)
(1.0225648 0.00028670747 -1.8097535e-24)
(1.0263401 -0.060115259 8.1954404e-22)
(1.0950035 0.0070651011 3.6990071e-20)
(1.0851143 0.099900493 9.0306915e-22)
(1.0357231 0.11758882 2.5668437e-20)
(0.97675202 0.07434897 3.1655228e-21)
(0.96648411 0.014393444 -8.4225596e-21)
(0.99526006 -0.020333284 -2.1824551e-22)
(1.0272307 -0.026074901 -1.6641583e-21)
(1.048178 -0.014880355 4.8407313e-22)
(1.054371 0.0021842942 -9.1728118e-22)
(1.0485888 0.015325341 7.3992236e-22)
(1.0383841 0.020618224 -3.4417645e-22)
(1.0297674 0.019442648 5.7351454e-22)
(1.0249767 0.015219869 -7.1449004e-23)
(1.0232822 0.010842868 -1.0744395e-21)
(1.0231898 0.0074653033 -2.0686722e-23)
(1.0236256 0.0051940284 -5.7083683e-23)
(1.0240287 0.0037750599 -4.4379835e-22)
(1.0241892 0.0028939223 0)
(1.0241125 0.0023041155 -1.0033683e-22)
(1.0238422 0.0018631819 -2.8890395e-23)
(1.0234869 0.0014601177 5.8768025e-23)
(1.0230786 0.0011059533 -3.4776272e-23)
(1.0227108 0.00066927586 8.3504315e-22)
(1.0223831 0.00029127816 4.722119e-22)
(1.0036876 -0.067339189 9.7045805e-21)
(1.0789283 0.0054508258 -2.7293106e-20)
(1.0630588 0.1121675 -9.07457e-21)
(1.0193455 0.1369112 -3.0090421e-21)
(0.96413398 0.09081526 1.1344885e-20)
(0.94872502 0.015763947 1.5344334e-21)
(0.98323769 -0.030249602 -3.2330549e-22)
(1.02467 -0.038211219 1.5169417e-22)
(1.0527997 -0.024545312 -2.1654062e-21)
(1.0627722 -0.0019291954 -4.765419e-22)
(1.0563092 0.016970164 -1.3295899e-21)
(1.0426636 0.025403162 3.3444109e-23)
(1.0306179 0.024449836 -1.6384603e-22)
(1.0238615 0.018901011 -3.4063408e-22)
(1.0215816 0.012993602 -3.5845285e-22)
(1.0216883 0.0084824973 1.4418568e-21)
(1.0226084 0.0055504796 2.1935957e-21)
(1.023498 0.0038368001 5.7396425e-22)
(1.0240371 0.0028924197 7.950407e-22)
(1.0241916 0.0023512849 2.2249202e-23)
(1.0240684 0.0019868335 -9.1490529e-22)
(1.0237519 0.001689647 -2.0908058e-22)
(1.023364 0.0013751371 6.195814e-22)
(1.0229321 0.0010774396 -7.2769137e-22)
(1.0225512 0.0006666553 6.2911631e-22)
(1.0222073 0.00029279537 -3.4349642e-23)
(0.9798624 -0.073736333 -3.4547728e-22)
(1.0578803 0.0042001333 -3.0901172e-20)
(1.0423704 0.12451637 3.4915967e-20)
(1.001027 0.15342915 -2.1962694e-20)
(0.95181584 0.10790009 -1.2166125e-21)
(0.93056284 0.017147832 1.0047753e-20)
(0.96927155 -0.04223605 1.7173822e-21)
(1.0211464 -0.052970552 2.6955953e-21)
(1.0580319 -0.036660391 5.5331159e-21)
(1.0730635 -0.0075846069 3.0403663e-21)
(1.0662862 0.018811121 -6.3608769e-23)
(1.048288 0.031649054 2.5932607e-21)
(1.0316508 0.031093048 -1.190287e-21)
(1.0222338 0.023766388 -5.1741279e-22)
(1.0191124 0.015754522 -2.9737906e-22)
(1.0194666 0.0096738501 3.0089308e-22)
(1.0210487 0.0058190957 -4.9610242e-23)
(1.022623 0.0036959806 4.4311828e-23)
(1.0236944 0.0026645157 1.7286758e-22)
(1.0242016 0.0021989272 7.1937878e-23)
(1.024264 0.0019576705 0)
(1.024057 0.0017770254 -3.2737649e-22)
(1.0236776 0.0015837262 -4.6848581e-23)
(1.0232518 0.0013372651 0)
(1.022792 0.0010740226 8.9300549e-22)
(1.0223964 0.00067501605 4.9841067e-24)
(1.0220354 0.00029294938 -4.5938923e-22)
(0.95525311 -0.079366752 -3.2708791e-21)
(1.0341312 0.0034006162 -2.1611782e-21)
(1.0177123 0.13651178 3.3912668e-20)
(0.97996773 0.16894465 -3.9271782e-21)
(0.93714041 0.12277616 -1.7026937e-21)
(0.91291386 0.020340256 -1.1243905e-20)
(0.95319348 -0.055676145 -2.1612608e-22)
(1.0162846 -0.070357417 -4.7588326e-22)
(1.0633755 -0.05118162 -2.2618426e-21)
(1.0848192 -0.014878639 -6.5098758e-21)
(1.0785363 0.020818799 5.1848696e-21)
(1.0554396 0.039701562 2.025682e-22)
(1.0328565 0.039792162 7.2823181e-23)
(1.0199195 0.030124862 -4.7183305e-22)
(1.0156545 0.019295677 -8.7646427e-22)
(1.0163018 0.011078866 -2.8761786e-22)
(1.0187706 0.0059667917 -1.5000526e-21)
(1.0212842 0.0032758062 -1.0515913e-21)
(1.0231049 0.0021323117 -4.2429437e-22)
(1.0241039 0.00177978 -7.5129768e-22)
(1.0244485 0.0017239328 -3.2051395e-22)
(1.0243649 0.0017137744 1.0967639e-22)
(1.0240564 0.0016645234 3.0108283e-23)
(1.0236062 0.0015344689 0)
(1.023144 0.0013370331 0)
(1.0226555 0.0010900939 -6.5251109e-23)
(1.0222422 0.00069245861 8.0432451e-22)
(1.021866 0.00029590641 8.7908066e-22)
(0.93033338 -0.084325368 0)
(1.0090868 0.002805997 -1.5194209e-20)
(0.99133979 0.14804084 -2.9472233e-20)
(0.95504323 0.18359285 -8.3946309e-21)
(0.91595452 0.13689067 -3.2518326e-21)
(0.89455278 0.023458752 1.3063315e-21)
(0.93524943 -0.069954147 -1.828883e-21)
(1.009437 -0.08983978 1.4845336e-21)
(1.0678081 -0.067880611 -7.8547742e-21)
(1.097055 -0.0235247 1.4372707e-21)
(1.0921202 0.023292452 -5.9641078e-22)
(1.0636575 0.05006404 -1.4272825e-21)
(1.0340773 0.051027382 1.4330917e-21)
(1.0166651 0.038310377 -1.0710978e-21)
(1.0109242 0.023783574 -3.1659235e-22)
(1.0119388 0.01273742 -1.0212406e-21)
(1.0155651 0.0059373218 -1.5703554e-22)
(1.0193425 0.0024825811 -3.3699821e-22)
(1.0221904 0.0011837476 -4.4100607e-23)
(1.0238802 0.0010036839 -4.0384559e-22)
(1.0246105 0.00121845 -2.1054671e-22)
(1.0247134 0.0014614519 -1.6265527e-22)
(1.0244634 0.0016027553 2.8306642e-23)
(1.0240472 0.001626954 7.2234584e-22)
(1.0235347 0.0015327935 2.2918462e-22)
(1.0230404 0.001364262 -1.4404612e-23)
(1.0225195 0.001121933 -8.4555228e-22)
(1.0220859 0.00071779896 5.2803442e-22)
(1.0216973 0.00030372775 -1.312107e-21)
(0.90550778 -0.088622208 5.5749996e-21)
(0.98350203 0.0021168374 0)
(0.96439312 0.15886776 0)
(0.92902292 0.19701393 0)
(0.89311752 0.1495631 2.655565e-21)
(0.87502241 0.028266919 0)
(0.91641051 -0.084950551 -1.0573368e-21)
(1.0004227 -0.11132652 -3.141968e-21)
(1.0708581 -0.086800021 -1.8875488e-20)
(1.1093225 -0.033653449 2.9382674e-20)
(1.1061009 0.026674918 -7.8091812e-21)
(1.071328 0.063411202 2.0089759e-21)
(1.0344431 0.065350819 -1.7195863e-22)
(1.0120942 0.048692589 1.873909e-21)
(1.0045651 0.029384938 2.0188434e-21)
(1.0060828 0.014673047 -2.2552482e-22)
(1.0111969 0.0056627503 -1.1746264e-21)
(1.0166342 0.0011901351 2.5667201e-22)
(1.0208657 -0.00031538103 7.5104587e-22)
(1.0235028 -0.00025708812 4.8293392e-22)
(1.0247707 0.00035461638 1.9080735e-22)
(1.0251147 0.00096287902 -1.6266363e-22)
(1.0249488 0.0013818845 -2.8567788e-22)
(1.0245391 0.0015953618 2.0485072e-22)
(1.0240257 0.0016334555 1.3691243e-23)
(1.0234693 0.0015690009 1.6453952e-22)
(1.0229354 0.0014130986 -6.4124566e-22)
(1.0223809 0.001165806 -3.7066844e-24)
(1.0219271 0.00074873574 -2.0404764e-21)
(1.021528 0.00031509388 -7.8788875e-22)
(0.87886005 -0.09310565 -4.2826024e-21)
(0.95813043 0.0023009879 -2.0609304e-20)
(0.93757811 0.16887123 0)
(0.90285453 0.20933633 0)
(0.86968577 0.16054708 0)
(0.85624695 0.033230228 0)
(0.89804766 -0.099745633 0)
(0.98930492 -0.13447595 9.0869444e-22)
(1.0726708 -0.10847573 6.0612195e-21)
(1.1224861 -0.046458801 -4.3747399e-20)
(1.1225914 0.030472048 3.2707111e-22)
(1.0789588 0.080204551 -8.4452597e-21)
(1.0323505 0.083078309 6.517633e-21)
(1.0053876 0.061599437 1.995423e-21)
(0.99614651 0.036244931 -2.6726043e-22)
(0.99839504 0.016885927 5.095749e-22)
(1.0054105 0.0050537752 -2.2674091e-22)
(1.0129761 -0.00074724992 5.6163822e-22)
(1.0190293 -0.0025369005 -5.7894409e-22)
(1.0229471 -0.0021552523 -2.0269308e-22)
(1.0249518 -0.00099194775 -1.8698352e-23)
(1.0256234 0.00014969532 -3.7408208e-22)
(1.0255438 0.0009618807 -2.3450621e-23)
(1.0251263 0.0014406555 9.9151135e-23)
(1.024573 0.0016521165 -1.1603544e-22)
(1.0239868 0.0016866096 -5.1210267e-22)
(1.0233939 0.0016424098 -1.8014421e-22)
(1.0228191 0.0014794373 2.8010806e-22)
(1.0222386 0.0012159195 5.140086e-25)
(1.0217668 0.00078220664 1.4690229e-21)
(1.0213577 0.00032751528 5.1142744e-22)
(0.85044428 -0.097540481 4.5745206e-21)
(0.93099114 0.0010019436 -2.3405581e-21)
(0.91178016 0.17769943 -2.2232137e-20)
(0.87737928 0.2204878 -2.2857144e-20)
(0.84640696 0.17034543 0)
(0.83724259 0.034988191 0)
(0.88033268 -0.11401844 -9.9232121e-22)
(0.9762047 -0.15820694 -8.0311788e-21)
(1.0710772 -0.13200483 2.6644993e-20)
(1.136267 -0.062623732 -5.2949347e-20)
(1.1451879 0.032481538 -9.6250596e-22)
(1.0933204 0.099288898 1.4985202e-20)
(1.0303609 0.10444258 6.3520636e-23)
(0.99537254 0.076944071 -1.4852306e-22)
(0.98510301 0.044448599 -1.6469043e-21)
(0.98850511 0.019327324 -9.6418566e-23)
(0.99793811 0.0039964488 2.8034619e-21)
(1.008173 -0.0034972731 -8.0045594e-23)
(1.0165692 -0.0056764246 -1.4719937e-21)
(1.0221839 -0.0048854905 -1.5073715e-22)
(1.0251905 -0.0029702938 -7.6231393e-22)
(1.0263052 -0.0010821594 1.3289853e-22)
(1.0263262 0.0003044545 -5.330638e-23)
(1.0258544 0.0011457914 -2.8021196e-22)
(1.0252287 0.0015841312 -8.3981251e-23)
(1.0245674 0.0017494352 -1.7488776e-22)
(1.0239363 0.0017895007 -1.3702533e-22)
(1.0233015 0.0017368871 -1.4550644e-22)
(1.0226977 0.0015502146 3.8060943e-22)
(1.0220957 0.0012670308 -2.7578752e-23)
(1.0216057 0.00081576993 7.087582e-22)
(1.0211868 0.00033931131 5.4064804e-23)
(0.82182219 -0.10171972 -4.0986341e-21)
(0.90187663 -0.0015490773 1.4359475e-22)
(0.88532213 0.18588526 2.7580485e-20)
(0.85318618 0.23061825 3.808478e-20)
(0.82435359 0.17876069 0)
(0.81772501 0.036108307 0)
(0.86269408 -0.1282166 0)
(0.9614929 -0.18154229 -8.2837363e-22)
(1.0646303 -0.15595787 -5.0562895e-20)
(1.1422444 -0.080136316 -5.9310853e-20)
(1.1687844 0.031539567 -1.1609287e-21)
(1.1187794 0.11828912 4.1251949e-21)
(1.0371665 0.12863657 -1.975049e-20)
(0.98407625 0.0947824 4.9924061e-21)
(0.9706809 0.053764327 -1.0889579e-21)
(0.97604713 0.021886989 0)
(0.9885122 0.0023419026 7.9935816e-22)
(1.0020303 -0.0072421635 -7.0968865e-22)
(1.0133626 -0.0099537353 -4.7372142e-22)
(1.0211823 -0.0086686697 1.9691482e-22)
(1.0255333 -0.0057723597 1.7499603e-22)
(1.0272536 -0.0028557813 3.3782451e-22)
(1.0273933 -0.000659859 2.1206757e-22)
(1.026813 0.00070957073 1.5389902e-22)
(1.026028 0.0014381027 5.0663509e-23)
(1.025254 0.0017685765 -5.5793018e-23)
(1.0245331 0.001884576 2.0813418e-23)
(1.023872 0.0019103026 -7.4332067e-24)
(1.0232084 0.001818056 3.7636974e-22)
(1.022581 0.0016179443 2.8715338e-22)
(1.0219524 0.0013179529 1.2788667e-23)
(1.0214443 0.00084810938 -1.9880515e-21)
(1.0210161 0.00034986838 7.6040651e-22)
(0.79325834 -0.10548993 -7.6743575e-21)
(0.87041508 -0.0064939217 0)
(0.85752837 0.1927854 2.6701321e-20)
(0.82928761 0.24037763 6.4488102e-20)
(0.80383325 0.18604517 -1.7142943e-20)
(0.79886515 0.036577613 -1.0435411e-21)
(0.84486046 -0.14197694 -3.9347975e-20)
(0.94544952 -0.20391222 1.4133744e-20)
(1.0538327 -0.17952978 1.2492733e-20)
(1.1401161 -0.097697124 1.3730387e-19)
(1.1733757 0.02679817 -5.520531e-20)
(1.1484271 0.13753432 -4.8124906e-20)
(1.0551963 0.15503199 1.7399366e-21)
(0.97905609 0.11590295 4.9925283e-22)
(0.95304616 0.063866397 -1.5331057e-21)
(0.96064433 0.024353436 4.2115567e-22)
(0.97689539 -9.4800588e-05 3.9179258e-22)
(0.99436538 -0.012173578 1.8715788e-22)
(1.0092844 -0.015597061 -1.6892499e-22)
(1.0199029 -0.01375449 3.0564419e-23)
(1.0260353 -0.0096185277 4.3476576e-22)
(1.0285852 -0.0053339616 9.9959876e-23)
(1.0288826 -0.0020096438 -1.7608654e-22)
(1.0281171 0.00010604371 3.5263335e-22)
(1.0270617 0.0012490936 1.3979044e-22)
(1.0260677 0.0017709302 2.7230416e-23)
(1.0252176 0.0019738092 3.2967255e-23)
(1.0244752 0.0020381648 3.3546627e-23)
(1.0237953 0.0020195502 1.2526115e-22)
(1.0231121 0.0019017925 -4.0980447e-23)
(1.0224572 0.0016897157 1.9236565e-22)
(1.021807 0.0013677624 1.8033419e-23)
(1.0212826 0.0008785739 8.0544495e-22)
(1.0208461 0.00035919364 -1.4201748e-21)
(0.76573382 -0.1087248 7.1929096e-21)
(0.83682157 -0.010242648 -7.4193553e-22)
(0.82869755 0.19798123 1.7773498e-21)
(0.80583796 0.25004672 -3.6898948e-20)
(0.78377591 0.19421464 7.3729898e-20)
(0.78076789 0.03547712 7.9685864e-20)
(0.82661156 -0.15437334 6.3965236e-21)
(0.92831636 -0.22504257 0)
(1.0393044 -0.20223104 3.9545944e-20)
(1.1321694 -0.11468255 1.856774e-19)
(1.1723412 0.021259734 6.6411443e-21)
(1.1675835 0.15590398 2.4236406e-20)
(1.0754682 0.18575269 0)
(0.98356541 0.14224024 3.1722118e-21)
(0.93526867 0.076293088 2.1066942e-21)
(0.94184967 0.026208949 -6.6231108e-22)
(0.96292914 -0.0034925457 -3.167107e-21)
(0.98502295 -0.018478631 0)
(1.0042142 -0.02282928 5.4935813e-22)
(1.018298 -0.020402813 6.8603485e-22)
(1.0267496 -0.014764866 -1.4940769e-22)
(1.0304385 -0.0087082497 4.0981289e-22)
(1.0309659 -0.0038550924 0)
(1.0299278 -0.00068699728 8.0280214e-23)
(1.0284472 0.0010365482 1.9912559e-22)
(1.0270873 0.0018177538 -1.680736e-23)
(1.0259985 0.0020987271 4.8677307e-23)
(1.0251389 0.0021778931 -1.0625878e-23)
(1.0244017 0.0021732728 -2.338909e-24)
(1.0237139 0.0021169406 3.8084028e-22)
(1.0230116 0.0019879252 -8.0987047e-22)
(1.0223326 0.0017567213 -4.980152e-22)
(1.0216618 0.0014139714 0)
(1.021122 0.00090676503 -3.1514608e-23)
(1.0206774 0.000367465 -4.2188693e-22)
(0.740083 -0.11167644 1.0256036e-20)
(0.80378635 -0.011641444 -2.3139267e-20)
(0.80038371 0.20246574 3.0533469e-20)
(0.78273702 0.2587405 -1.0408612e-20)
(0.76453319 0.2047614 2.5676961e-20)
(0.76236701 0.037706495 1.1502586e-20)
(0.81028219 -0.16817378 5.7013604e-20)
(0.91014819 -0.24490603 3.6167406e-21)
(1.0220063 -0.22338612 0)
(1.1184223 -0.13114152 -6.1361036e-20)
(1.167419 0.01769361 6.9469525e-20)
(1.1627218 0.17272922 -7.3777481e-21)
(1.0839458 0.21900895 1.8574448e-20)
(0.98896467 0.1748927 -7.8990149e-21)
(0.92163278 0.093063678 3.1626558e-21)
(0.91933067 0.027925671 9.173173e-22)
(0.94642937 -0.0082281037 -5.6637904e-21)
(0.97390631 -0.026328999 -1.6761457e-21)
(0.9980426 -0.031845915 1.2834649e-21)
(1.0163094 -0.028871091 -1.30046e-21)
(1.0277197 -0.021486095 5.4210456e-22)
(1.0329632 -0.013210168 -5.2212487e-22)
(1.0338518 -0.0063286847 0)
(1.032449 -0.0017092356 2.5974603e-23)
(1.0303466 0.00083976992 5.0747622e-23)
(1.0284144 0.0019683299 4.4667165e-23)
(1.0269341 0.0023320905 -1.2158104e-22)
(1.0258578 0.0023768846 -4.4789617e-23)
(1.0250387 0.0023414984 1.8940148e-23)
(1.0243223 0.0022818638 0)
(1.0236331 0.0022080905 -2.9348724e-22)
(1.0229128 0.0020633585 -8.812095e-22)
(1.0222105 0.0018169273 1.3749903e-21)
(1.0215182 0.0014564105 -4.5979762e-22)
(1.0209623 0.00093296853 6.1188919e-23)
(1.0205108 0.00037483147 1.5059124e-21)
(0.71685081 -0.1142819 -1.0403637e-20)
(0.77336895 -0.013611561 -4.9816476e-22)
(0.77382204 0.20705482 -1.5251773e-20)
(0.761163 0.26646492 -4.7925168e-22)
(0.74644552 0.21375632 -1.0776297e-19)
(0.74446415 0.045132876 -1.1295785e-19)
(0.79041317 -0.17633122 -8.23025e-22)
(0.89243658 -0.26367319 3.1927002e-20)
(1.0029305 -0.24339261 5.8354618e-21)
(1.1002846 -0.14654175 6.0647918e-20)
(1.1551021 0.016186966 1.2585831e-22)
(1.1431369 0.1906045 -3.0866512e-20)
(1.0760796 0.24996622 1.6057235e-21)
(0.98948748 0.20961625 -1.4524366e-20)
(0.91253703 0.11654788 1.6990378e-21)
(0.89472717 0.029770081 -2.2139911e-22)
(0.92717738 -0.01425027 1.2162639e-21)
(0.96097871 -0.035879988 1.5321355e-21)
(0.99068526 -0.042822396 -1.0138927e-21)
(1.0138689 -0.039396807 -1.9038009e-22)
(1.0289701 -0.030074936 3.8859643e-22)
(1.0363077 -0.019103687 -2.7220349e-22)
(1.0377787 -0.0096007317 2.2722468e-22)
(1.0359331 -0.0030088505 0)
(1.0329665 0.00069754063 -4.8983762e-22)
(1.0301905 0.0023209752 -1.757763e-23)
(1.0280937 0.0027725082 -1.8506165e-22)
(1.0266621 0.0027338372 2.1941033e-22)
(1.0256818 0.0025774703 -7.9525144e-24)
(1.024933 0.0024563874 -4.0988251e-23)
(1.0242465 0.002369474 9.5825993e-23)
(1.0235558 0.0022879625 -2.9167522e-22)
(1.0228162 0.0021312067 7.9629778e-24)
(1.0220886 0.0018736661 1.3999697e-21)
(1.0213744 0.001496143 -9.3346917e-24)
(1.0208043 0.0009573594 -4.249891e-23)
(1.0203461 0.00038145679 5.4355774e-22)
(0.6966386 -0.11654698 -8.3023213e-22)
(0.74547769 -0.015275652 2.3610322e-20)
(0.75007224 0.21101751 -2.0499464e-20)
(0.74169882 0.27307798 5.4827414e-21)
(0.73018435 0.22204149 2.3629031e-22)
(0.72836985 0.05068266 -7.8631785e-24)
(0.76925415 -0.18061889 3.9070006e-20)
(0.87000179 -0.28018373 -5.746698e-21)
(0.98263427 -0.26027414 0)
(1.0789098 -0.16150063 -1.3591227e-20)
(1.1371135 0.015087383 0)
(1.122922 0.20824154 0)
(1.0593103 0.27794848 -2.1833027e-20)
(0.98556242 0.2426129 7.9984739e-22)
(0.908084 0.14403347 1.6240885e-21)
(0.87251599 0.036082926 7.9499561e-23)
(0.90437696 -0.022926694 0)
(0.9465189 -0.047239962 -8.7465771e-22)
(0.98210449 -0.055837327 -1.701153e-23)
(1.0109201 -0.052176072 -4.1318913e-23)
(1.0305113 -0.040809167 -6.4986262e-22)
(1.040614 -0.026686002 -3.7698495e-22)
(1.0430032 -0.013878301 -2.2378586e-23)
(1.0406814 -0.004658495 -4.577552e-22)
(1.036567 0.00066055558 -1.1728438e-22)
(1.0325956 0.0029883629 4.8075342e-23)
(1.0295803 0.0035608185 1.8849781e-22)
(1.027583 0.0033645285 -1.6051599e-22)
(1.0263324 0.0029917741 -3.4745644e-24)
(1.0255007 0.0026934227 -3.0815546e-22)
(1.0248369 0.0025289862 -7.1924562e-24)
(1.0241809 0.0024369079 -2.9514288e-23)
(1.0234842 0.0023556712 2.1146584e-22)
(1.0227217 0.0021943961 7.9966741e-22)
(1.0219669 0.0019264367 -2.7919566e-21)
(1.0212327 0.0015326379 -5.7888082e-22)
(1.0206483 0.00098027185 -5.2533063e-22)
(1.0201841 0.0003874875 0)
(0.68012049 -0.11854818 2.209913e-20)
(0.7209383 -0.016662566 -2.6941621e-22)
(0.72941345 0.21480584 -1.4274823e-20)
(0.72516306 0.27845369 4.2097429e-21)
(0.71649998 0.2290135 8.0576829e-20)
(0.71440137 0.056120083 6.8310872e-20)
(0.74956343 -0.18487184 -8.3227164e-22)
(0.84572543 -0.29554367 -7.5945627e-20)
(0.95721196 -0.27891503 -8.4015801e-21)
(1.0543447 -0.17176521 -1.2632367e-19)
(1.1139669 0.01326004 5.2601896e-23)
(1.099899 0.22489779 0)
(1.0393424 0.30308382 0)
(0.97424728 0.27176262 1.2545314e-20)
(0.90523815 0.1724172 -1.2972401e-20)
(0.85565642 0.044764067 -4.8743503e-21)
(0.87972332 -0.031253307 1.3346766e-21)
(0.92993986 -0.060738063 1.9120933e-22)
(0.97235221 -0.070950817 2.5546909e-22)
(1.0073809 -0.067321249 -1.482852e-21)
(1.0322939 -0.05393904 -9.2101414e-23)
(1.0459797 -0.036262608 -3.1176977e-22)