/*--------------------------------*- C++ -*----------------------------------*\
| =========                 |                                                 |
| \\      /  F ield         | OpenFOAM: The Open Source CFD Toolbox           |
|  \\    /   O peration     | Version:  5.0                                   |
|   \\  /    A nd           | Web:      www.OpenFOAM.org                      |
|    \\/     M anipulation  |                                                 |
\*---------------------------------------------------------------------------*/
FoamFile
{
    version     2.0;
    format      ascii;
    class       volVectorField;
    location    "340";
    object      U_0;
}
// * * * * * * * * * * * * * * * * * * * * * * * * * * * * * * * * * * * * * //

dimensions      [0 1 -1 0 0 0 0];

internalField   nonuniform List<vector> 
9200
(
(1.0388709 0.00074187908 -1.5856133e-24)
(1.039051 0.0023656484 7.6348878e-22)
(1.0366371 0.00074364953 0)
(1.0393325 0.0037659634 -4.0341339e-22)
(1.0367928 0.0023912756 6.6493894e-22)
(1.0356518 0.00073391995 0)
(1.0397186 0.0051632049 -4.0534517e-23)
(1.03706 0.0038113155 1.0547736e-23)
(1.0357953 0.0023737079 0)
(1.0342026 0.00070754084 0)
(1.0401594 0.0064428989 8.3278198e-22)
(1.0374168 0.0052352103 6.1690806e-22)
(1.036047 0.0037886313 3.7772664e-22)
(1.0343228 0.0023005192 2.3051147e-23)
(1.0330895 0.00067291798 2.2356279e-25)
(1.0406507 0.0076403212 7.9788429e-22)
(1.0378535 0.0065553785 -3.0611715e-23)
(1.0363823 0.0052127704 1.2608364e-21)
(1.0345472 0.0036756865 5.1721827e-22)
(1.0331938 0.002192374 1.6525691e-23)
(1.0319876 0.00063466084 -9.6936091e-22)
(1.0411664 0.0087174384 8.2024785e-22)
(1.03838 0.0078148069 9.0726811e-22)
(1.0367921 0.0065520222 -7.6045158e-22)
(1.0348333 0.0050608586 -5.5659432e-23)
(1.0333986 0.0035025503 4.6742544e-22)
(1.0320773 0.0020647512 4.7422943e-22)
(1.0310185 0.00060188366 8.3773088e-23)
(1.0417186 0.009639563 3.988023e-22)
(1.0390085 0.0089957913 7.4917667e-22)
(1.0372892 0.0078606925 9.0844031e-22)
(1.0351713 0.0063777945 5.0499066e-23)
(1.0336511 0.0048148794 -1.2041316e-21)
(1.0322648 0.0032954259 -5.3457793e-22)
(1.0311021 0.0019457007 -5.4561503e-22)
(1.0301229 0.00057769838 8.9948676e-22)
(1.0423104 0.010356162 -1.0840525e-21)
(1.0397811 0.010070849 8.0095346e-22)
(1.0378811 0.0091481674 4.3624626e-23)
(1.0355577 0.0076846614 4.357968e-22)
(1.0339367 0.0060596586 1.1927767e-22)
(1.0324902 0.004513148 -1.7944393e-21)
(1.031283 0.003102183 1.53007e-22)
(1.0302064 0.0018492534 -9.266516e-22)
(1.0292976 0.00056089906 -1.9070902e-21)
(1.0429007 0.010837488 8.1494833e-22)
(1.0407561 0.011051538 -3.4826686e-22)
(1.0385861 0.010428222 -4.4864924e-23)
(1.035975 0.0090134325 -1.8312949e-22)
(1.0342368 0.0072828652 -1.8467447e-22)
(1.0327371 0.0056555183 2.032528e-22)
(1.0315033 0.0042298496 6.2840586e-22)
(1.0303852 0.0029481122 1.0492811e-21)
(1.0293853 0.0017804642 5.9537755e-22)
(1.0285243 0.00054729805 1.5376608e-22)
(1.0435151 0.011071172 -3.981841e-22)
(1.0421147 0.011863074 1.4921311e-22)
(1.0394557 0.011767068 6.2033985e-22)
(1.0364164 0.010415194 -7.3313289e-22)
(1.0344981 0.00851453 5.3258237e-22)
(1.0329738 0.0067439768 -1.6384499e-21)
(1.0317495 0.0052754767 6.6151629e-23)
(1.0306099 0.0040072283 1.5776202e-21)
(1.0295621 0.0028432989 -7.8556824e-22)
(1.0286155 0.0017327764 1.7304077e-21)
(1.027796 0.00053385206 -2.5895367e-22)
(1.0445191 0.010716654 9.781355e-23)
(1.0436131 0.012495932 -4.1572561e-22)
(1.0403441 0.013283294 -7.6347268e-22)
(1.0368558 0.011998071 0)
(1.0346816 0.0097999675 3.3010535e-23)
(1.0331374 0.0077945051 -2.9820782e-22)
(1.0319954 0.0062376788 -3.2269436e-22)
(1.0308708 0.0049860786 -7.8044595e-22)
(1.0297924 0.003864438 -2.1561759e-22)
(1.028786 0.0027766157 -9.9529273e-22)
(1.0278864 0.0016945877 -6.7521121e-22)
(1.0271094 0.0005196099 1.5621529e-22)
(1.0457337 0.0097750624 6.164089e-23)
(1.0455474 0.013335808 -8.6156134e-23)
(1.0412529 0.015052988 0)
(1.0371861 0.013836942 0)
(1.0346516 0.011194317 -1.8582325e-22)
(1.0331822 0.0088094085 -1.9828114e-22)
(1.032186 0.00711276 -4.2189845e-22)
(1.0311569 0.0058711061 9.2551102e-22)
(1.030066 0.0048177678 9.641716e-23)
(1.0290132 0.0037830561 2.5928605e-24)
(1.0280456 0.0027268002 1.1088903e-21)
(1.0271936 0.0016537325 -1.189063e-21)
(1.0264656 0.00050382157 2.4684284e-21)
(1.0470723 0.0081882698 -9.0705366e-22)
(1.0483321 0.014203429 4.2661954e-23)
(1.0424634 0.017094902 -3.4001067e-22)
(1.0373919 0.015980895 1.3261294e-22)
(1.0343586 0.012739882 -7.3623041e-23)
(1.0330177 0.0098001109 -1.453733e-22)
(1.0322852 0.0078646333 2.5830598e-22)
(1.0314293 0.0066490604 1.5707078e-23)
(1.0303902 0.0056878712 1.0435612e-21)
(1.0292854 0.004739185 9.7213728e-22)
(1.0282602 0.0037267229 3.0748627e-22)
(1.0273381 0.0026714278 8.9025478e-22)
(1.0265404 0.0016000892 6.0410857e-22)
(1.025868 0.00048450232 -6.7492716e-22)
(1.0488112 0.0059995608 5.3331959e-22)
(1.0519725 0.015074196 1.5862429e-21)
(1.0440669 0.019583869 -3.3931708e-22)
(1.0374614 0.018558209 5.7383336e-23)
(1.033737 0.014501523 -6.2650397e-23)
(1.0325508 0.010727136 2.7345017e-22)
(1.0322176 0.0084707484 2.4859986e-22)
(1.031674 0.0072669927 -3.2978637e-22)
(1.0307451 0.0064635401 -9.8986164e-23)
(1.0296283 0.0056328592 -1.1649128e-22)
(1.0285161 0.0046945434 -1.8321053e-23)
(1.0275302 0.0036590478 -1.4609836e-22)
(1.0266687 0.0025922565 -1.1313004e-21)
(1.0259335 0.0015269427 5.7009929e-22)
(1.0253215 0.00045975111 -5.1347206e-22)
(1.0507898 0.002734301 2.3711605e-21)
(1.0564744 0.015805102 -1.9380139e-21)
(1.046109 0.022751767 2.3155271e-22)
(1.037331 0.021794408 -1.1927803e-22)
(1.0325929 0.016579028 -6.6484826e-23)
(1.0316253 0.011599691 -5.1882342e-22)
(1.0319446 0.0088370842 -5.0263539e-23)
(1.0318701 0.0076666159 3.4563146e-23)
(1.0311424 0.0070880965 -2.012788e-22)
(1.0300397 0.0064624336 -2.7354554e-22)
(1.0288475 0.0056236383 -1.9813539e-21)
(1.0277536 0.0046322473 4.0070107e-22)
(1.0268331 0.0035526423 3.5213645e-22)
(1.0260465 0.0024779097 1.8121505e-22)
(1.0253801 0.0014324026 4.2011883e-23)
(1.0248306 0.00042985498 5.6937253e-22)
(1.0532186 -0.00093332797 0)
(1.0617062 0.016612766 -2.6716754e-21)
(1.0485633 0.026806197 8.4161179e-22)
(1.0369271 0.025900136 0)
(1.0307606 0.019081851 0)
(1.0300753 0.012424798 0)
(1.0313084 0.008860648 1.1793533e-22)
(1.0321116 0.0077578693 4.641072e-22)
(1.0316403 0.0074949451 3.7181702e-22)
(1.0305696 0.0071834998 5.9193433e-22)
(1.0292644 0.0065317407 9.7905531e-23)
(1.0280379 0.0055910239 4.3357156e-22)
(1.0270102 0.0045113026 6.2396344e-24)
(1.0261833 0.003390841 -4.0409899e-22)
(1.0254811 0.0023260354 -1.2336718e-22)
(1.0248856 0.001320021 -2.7738606e-22)
(1.0243969 0.00039727337 0)
(1.0558259 -0.0054234235 4.5805144e-21)
(1.0673585 0.017216344 6.3388964e-21)
(1.0511918 0.03191447 -2.4860832e-21)
(1.0360766 0.031105185 9.8597022e-22)
(1.0280696 0.022149074 1.0550327e-21)
(1.0277025 0.01317604 0)
(1.030214 0.0084657701 7.9852946e-22)
(1.0322176 0.0073291813 -2.5294062e-22)
(1.0323952 0.0076151791 3.8254477e-22)
(1.0313378 0.0077347739 4.3767898e-22)
(1.029845 0.0074040412 -3.5391627e-22)
(1.0283911 0.0065755653 1.2842922e-22)
(1.0272212 0.0054736993 7.0653327e-22)
(1.0263092 0.0043059492 -1.3357417e-21)
(1.0255954 0.0031701459 -3.8242336e-22)
(1.0249802 0.0021432306 -1.8643111e-21)
(1.024452 0.0011976653 -7.4375347e-22)
(1.0240186 0.00036489498 -7.1191844e-22)
(1.059692 -0.010654932 -3.491202e-22)
(1.074327 0.017881234 4.3604393e-21)
(1.0537264 0.038355086 1.1029278e-21)
(1.0343979 0.037618066 1.7356265e-22)
(1.0242733 0.025919465 -2.1355752e-22)
(1.024275 0.01384914 -5.8965987e-22)
(1.0285061 0.007518851 -2.0277642e-21)
(1.0321679 0.006286602 -1.0840432e-21)
(1.0333671 0.0073025449 -1.4949572e-22)
(1.0323321 0.0080898032 -6.2926126e-22)
(1.0306623 0.0082443337 -1.0036706e-22)
(1.028881 0.0076196031 -7.8741292e-22)
(1.0274498 0.0064954209 1.1014076e-22)
(1.026437 0.0052279801 1.1798519e-22)
(1.0256797 0.0040128206 1.7757545e-22)
(1.0250816 0.0029014753 2.8154744e-22)
(1.0245469 0.0019427892 -6.1363215e-22)
(1.0240779 0.0010749452 2.4878679e-23)
(1.0236907 0.00033506135 -6.7218601e-22)
(1.0636591 -0.018832332 -3.9361636e-21)
(1.0850869 0.018031076 -8.4237849e-21)
(1.0575124 0.046055719 1.174831e-20)
(1.0317828 0.045541307 -6.8123827e-22)
(1.0190745 0.03051022 -9.3264319e-23)
(1.0195226 0.014423666 -2.7133926e-22)
(1.0260037 0.0058697638 2.7251707e-22)
(1.0319466 0.004420687 -3.3732248e-24)
(1.0345446 0.0063835306 -6.1145845e-23)
(1.0337756 0.0083485137 2.5694574e-22)
(1.0316847 0.0091199434 -1.0051355e-21)
(1.0294997 0.0088014127 2.7658676e-22)
(1.0277249 0.0076472904 4.334708e-22)
(1.0265198 0.0062187211 -3.9190575e-23)
(1.0257331 0.0048454181 1.2585042e-22)
(1.0251412 0.0036478599 8.895594e-22)
(1.0246476 0.0026061636 -1.7321243e-22)
(1.0241795 0.0017409197 1.009953e-21)
(1.023758 0.00096059605 2.6735871e-22)
(1.0234066 0.00030993365 7.0215871e-22)
(1.06947 -0.025748304 -3.6626071e-22)
(1.1003125 0.018001194 -1.7243902e-20)
(1.0658375 0.055034821 1.2183345e-21)
(1.0297152 0.054979185 -4.9965045e-22)
(1.0122413 0.035895941 -1.4190617e-21)
(1.0131989 0.014888532 -1.2338223e-21)
(1.0225007 0.0033467885 2.453826e-21)
(1.0314993 0.0015014684 2.0730709e-21)
(1.0360477 0.0046671605 3.6018188e-22)
(1.0358279 0.0082602639 0)
(1.0331836 0.010058695 6.8075144e-22)
(1.030274 0.010198455 3.0974241e-22)
(1.027998 0.0090227508 -5.8317663e-22)
(1.0265483 0.0073449987 5.2262062e-23)
(1.0256945 0.0057314807 -4.1193802e-22)
(1.0251491 0.0043551888 7.0229038e-22)
(1.0247035 0.003241704 1.5764399e-22)
(1.0242923 0.0023090357 -2.990212e-22)
(1.0238721 0.0015529121 5.9767821e-22)
(1.0234848 0.0008611447 4.6215388e-23)
(1.0231583 0.00029173898 6.7196265e-22)
(1.0671085 -0.034421052 2.9906466e-21)
(1.1068495 0.013432054 -1.7321181e-20)
(1.0805012 0.064884544 -1.0908543e-20)
(1.0314555 0.066189168 4.1018323e-21)
(1.0043029 0.042328025 -3.2595415e-21)
(1.0050182 0.015215821 -7.5788902e-23)
(1.0177986 -0.00023342701 0)
(1.0307669 -0.0027156931 2.4247395e-22)
(1.0379782 0.0019161647 -2.1939495e-23)
(1.0386349 0.0076988753 7.9131285e-22)
(1.0353828 0.011079952 3.8034285e-22)
(1.0314176 0.011862362 6.4058783e-23)
(1.0283172 0.01070069 -7.4472214e-23)
(1.0264657 0.0086886942 3.4526557e-22)
(1.0255224 0.0067088656 -2.0391155e-22)
(1.025032 0.005077374 2.1962597e-22)
(1.0247014 0.0038063228 -8.8669547e-23)
(1.0243656 0.0028306399 5.4006148e-22)
(1.0240088 0.0020325323 1.2645909e-22)
(1.0236161 0.0013904515 1.7838497e-23)
(1.0232495 0.00078094783 3.5566079e-22)
(1.0229376 0.00028215259 0)
(1.0589463 -0.043959514 4.0447744e-22)
(1.1074261 0.0097198313 1.1494156e-20)
(1.097489 0.075890191 -4.834066e-22)
(1.0376106 0.079626021 5.5857144e-21)
(0.99668934 0.050483609 -4.0368863e-21)
(0.99467091 0.015412146 1.7886893e-21)
(1.0117048 -0.0050410481 -3.0979936e-22)
(1.0296412 -0.0084926239 1.3414644e-21)
(1.04045 -0.0021327988 2.6141591e-23)
(1.0424189 0.0065023761 -6.4163097e-23)
(1.0385019 0.012187779 -2.9907938e-24)
(1.0330744 0.013971303 -2.031496e-22)
(1.0287372 0.012827195 -9.7740052e-23)
(1.0262503 0.01034874 1.2206647e-21)
(1.0251394 0.0078454955 8.3898056e-22)
(1.0247359 0.0058282642 5.8085101e-22)
(1.0245606 0.0043369011 -1.3682853e-22)
(1.0243875 0.0032529219 -8.3916926e-22)
(1.0241171 0.0024485005 -2.5245e-23)
(1.0237858 0.0017932125 3.1921997e-22)
(1.0234015 0.001260433 0)
(1.0230437 0.00072235458 -8.0007363e-22)
(1.0227363 0.00028108218 -2.8350312e-24)
(1.0443247 -0.053324278 -6.8073741e-21)
(1.1042925 0.004645872 3.9646148e-20)
(1.100716 0.086644042 -2.6939503e-20)
(1.0433632 0.097587108 -6.3707633e-21)
(0.98915111 0.061531121 -5.5233177e-21)
(0.9818486 0.015632725 0)
(1.0039279 -0.011236368 -1.3468263e-22)
(1.028036 -0.016113301 1.0468916e-21)
(1.0434824 -0.0077847508 -6.8974049e-22)
(1.0474437 0.0044900041 -1.4673034e-21)
(1.0428231 0.013379477 7.4951906e-22)
(1.0354347 0.016689172 2.9598842e-22)
(1.0293084 0.015619598 -2.2605547e-22)
(1.0258401 0.01247776 6.1025837e-22)
(1.0244628 0.0092241114 -6.7286443e-22)
(1.0241629 0.0066438076 -1.3448472e-21)
(1.024229 0.004824747 -2.6808704e-22)
(1.0242777 0.0035938086 -2.9182846e-22)
(1.0241902 0.0027440396 8.1026038e-22)
(1.0239411 0.0021219506 -2.2404765e-22)
(1.0236092 0.0016010129 -6.7355478e-22)
(1.0232187 0.0011652614 7.3043102e-22)
(1.0228602 0.00068528253 -5.5915196e-22)
(1.0225473 0.00028557435 -1.5682516e-24)
(1.0244207 -0.06161467 1.3233937e-21)
(1.0952577 0.0029414577 3.888236e-20)
(1.0874964 0.097018406 1.0531758e-21)
(1.0392397 0.1176951 2.7534781e-20)
(0.97900392 0.076418871 2.8680843e-21)
(0.96637487 0.016748608 -8.5788228e-21)
(0.99397711 -0.019043345 -1.9795778e-22)
(1.0258273 -0.025809146 -1.9129131e-21)
(1.0471299 -0.015343595 5.3568611e-22)
(1.0539355 0.0014070596 -8.864925e-22)
(1.0486787 0.014653263 6.7907633e-22)
(1.0387148 0.020230978 -3.7205973e-22)
(1.0300909 0.019338415 5.5037405e-22)
(1.0251802 0.015275913 -6.8726936e-23)
(1.0233725 0.010947616 -1.0312887e-21)
(1.0232071 0.007564919 -1.7802592e-23)
(1.0236056 0.0052682375 -5.6513723e-23)
(1.0239958 0.0038222579 -4.1636271e-22)
(1.0241561 0.0029200733 0)
(1.0240836 0.0023165363 -9.4635221e-23)
(1.0238177 0.0018674121 -2.7251084e-23)
(1.0234656 0.0014604672 5.5577165e-23)
(1.023059 0.0011040964 -3.4009186e-23)
(1.0226923 0.00066710662 7.9878859e-22)
(1.0223662 0.00029059654 4.5350935e-22)
(1.0020451 -0.068925478 9.0236669e-21)
(1.0794378 0.0009502963 -2.4475447e-20)
(1.0657043 0.10884285 -9.7598854e-21)
(1.0228061 0.13698592 -3.1438959e-21)
(0.96669196 0.093380981 1.1312922e-20)
(0.94866326 0.018845103 1.6601445e-21)
(0.98159383 -0.028583754 -2.9744496e-22)
(1.0228616 -0.037847493 1.7042522e-22)
(1.0514019 -0.025122522 -1.9098802e-21)
(1.0621487 -0.0029856014 -5.4044884e-22)
(1.0564287 0.016008668 -1.3081821e-21)
(1.0431537 0.024843333 4.2636046e-23)
(1.0311073 0.024304252 -1.4057996e-22)
(1.0241738 0.018991054 -3.2783295e-22)
(1.021724 0.013153424 -3.4756123e-22)
(1.0217201 0.0086318822 1.3842576e-21)
(1.0225835 0.0056607883 2.1092097e-21)
(1.0234531 0.0039056732 5.3658905e-22)
(1.023992 0.0029290451 7.4154271e-22)
(1.0241539 0.0023673776 2.1227094e-23)
(1.0240386 0.0019913327 -8.5821035e-22)
(1.0237278 0.0016886922 -1.9767861e-22)
(1.0233433 0.0013718989 5.8871232e-22)
(1.0229133 0.0010737247 -6.9522236e-22)
(1.0225335 0.0006637968 6.0301365e-22)
(1.0221911 0.00029263474 -3.2920701e-23)
(0.97846033 -0.075427827 -3.2070405e-22)
(1.0585974 -0.00076959935 -2.7163813e-20)
(1.0452087 0.12079129 3.8635051e-20)
(1.0042333 0.15351975 -2.2399645e-20)
(0.95442018 0.11082643 -6.588543e-23)
(0.93061947 0.021027805 1.0489092e-20)
(0.96719834 -0.040066867 1.9832682e-21)
(1.018871 -0.052501269 2.9060339e-21)
(1.0562266 -0.037371462 5.0099976e-21)
(1.0722056 -0.0089883716 2.9333962e-21)
(1.066446 0.017461603 -3.2931465e-23)
(1.0490011 0.03085212 2.5965978e-21)
(1.0323682 0.030895556 -1.1972474e-21)
(1.0226947 0.023908517 -4.9207977e-22)
(1.0193268 0.015995176 -2.8679123e-22)
(1.019518 0.009895196 2.9289167e-22)
(1.0210157 0.0059816548 -5.7972847e-23)
(1.0225595 0.0037964136 5.4552358e-23)
(1.0236306 0.0027162636 1.5551948e-22)
(1.0241497 0.0022197902 7.0364891e-23)
(1.0242252 0.0019619778 0)
(1.024028 0.0017734327 -3.0610472e-22)
(1.0236552 0.0015783683 -4.3359269e-23)
(1.0232324 0.0013310017 0)
(1.0227742 0.0010689327 8.5359781e-22)
(1.0223796 0.00067171537 3.977473e-24)
(1.0220199 0.00029288089 -4.4292194e-22)
(0.95409032 -0.081155735 -3.1558743e-21)
(1.0350164 -0.0020720015 -2.2227704e-21)
(1.0206319 0.13255147 3.1280378e-20)
(0.98325304 0.16902857 -3.9407611e-21)
(0.93979851 0.12601653 -1.7846889e-21)
(0.91313358 0.025107584 -1.1448891e-20)
(0.95081241 -0.053039783 -2.2548427e-22)
(1.0135257 -0.069799563 -8.2038064e-22)
(1.0611376 -0.052070197 -2.1816503e-21)
(1.0837135 -0.016721906 -6.2394e-21)
(1.0787699 0.018948196 5.3346612e-21)
(1.0564606 0.038587849 2.8545297e-22)
(1.0338797 0.039534506 1.2411077e-22)
(1.0205803 0.030345458 -4.6008734e-22)
(1.0159655 0.019651536 -8.4949231e-22)
(1.0163786 0.011402023 -2.7604981e-22)
(1.0187247 0.0062031761 -1.4619845e-21)
(1.0211928 0.0034213036 -9.7716137e-22)
(1.0230125 0.0022057118 -3.9650626e-22)
(1.0240298 0.0018070449 -7.2010453e-22)
(1.0243955 0.0017270001 -2.9471334e-22)
(1.0243282 0.0017063767 1.0351245e-22)
(1.0240301 0.0016540372 2.8071429e-23)
(1.0235861 0.0015253934 0)
(1.0231259 0.0013287014 0)
(1.0226389 0.0010840874 -6.2217602e-23)
(1.0222267 0.00068885071 7.7399189e-22)
(1.0218511 0.00029549144 8.4922157e-22)
(0.92931509 -0.086209263 0)
(1.0101057 -0.0029775811 -1.5619583e-20)
(0.99439108 0.14380008 -2.754186e-20)
(0.95832573 0.18370836 -8.6162581e-21)
(0.91853211 0.14042638 -3.4203814e-21)
(0.89484916 0.029069292 1.3797012e-21)
(0.93265148 -0.066699977 -1.7657859e-21)
(1.0061768 -0.089194335 7.9195936e-22)
(1.0651251 -0.06898427 -6.9891088e-21)
(1.0957065 -0.02590329 1.2646757e-21)
(1.0925074 0.020734386 -6.0859185e-22)
(1.0651235 0.048532137 -1.3850781e-21)
(1.0355101 0.050701873 1.604547e-21)
(1.0175888 0.038644804 -1.050851e-21)
(1.0113606 0.024299388 -3.0960748e-22)
(1.0120472 0.013201057 -9.971075e-22)
(1.0154993 0.0062754557 -1.4782132e-22)
(1.0192106 0.0026908935 -3.3669566e-22)
(1.022056 0.0012876653 -1.2989095e-23)
(1.0237724 0.0010396398 -3.9589144e-22)
(1.0245352 0.0012188003 -1.9081306e-22)
(1.0246643 0.0014473415 -1.4896034e-22)
(1.0244311 0.0015853001 2.6536981e-23)
(1.0240254 0.0016122648 6.7304844e-22)
(1.0235165 0.0015207098 2.1380137e-22)
(1.0230238 0.0013547316 -1.2048416e-23)
(1.0225043 0.0011154107 -8.1105153e-22)
(1.0220715 0.00071406218 5.0932606e-22)
(1.0216832 0.00030292324 -1.2707457e-21)
(0.90459489 -0.090614567 5.2243388e-21)
(0.98461586 -0.0038312913 0)
(0.9675244 0.15440858 0)
(0.93226655 0.19719571 0)
(0.89550042 0.15338752 2.6564075e-21)
(0.87531657 0.034819945 0)
(0.91370555 -0.081025647 -9.83222e-22)
(0.99662914 -0.11055278 -3.0162711e-21)
(1.0676703 -0.088095256 -1.7353726e-20)
(1.1076262 -0.036614084 2.8648299e-20)
(1.1066629 0.023253556 -7.6844483e-21)
(1.0734082 0.061356641 1.9959092e-21)
(1.0364148 0.064961142 -2.8526938e-22)
(1.0133551 0.049188318 1.848973e-21)
(1.0051581 0.030117584 1.9519583e-21)
(1.0062282 0.015325065 -2.1762405e-22)
(1.0111017 0.0061376442 -1.1505021e-21)
(1.0164449 0.0014837315 2.3339364e-22)
(1.0206708 -0.0001693299 7.3011999e-22)
(1.0233454 -0.00020933645 4.5734111e-22)
(1.0246615 0.00035009764 1.6929693e-22)
(1.0250462 0.00093784705 -1.5459865e-22)
(1.0249074 0.0013532655 -2.5719956e-22)
(1.0245132 0.0015708129 1.8626701e-22)
(1.0240076 0.0016165978 1.1617611e-23)
(1.0234532 0.0015547017 1.5516495e-22)
(1.0229209 0.0014029649 -6.1208427e-22)
(1.0223669 0.0011593325 2.434974e-25)
(1.0219137 0.00074516902 -1.9711987e-21)
(1.0215146 0.00031415809 -7.6476917e-22)
(0.87805819 -0.095198129 -4.2680584e-21)
(0.95927099 -0.0038809545 -1.3454193e-20)
(0.94071045 0.16425964 0)
(0.90602575 0.20960231 0)
(0.87186565 0.16466599 0)
(0.8564538 0.040548399 0)
(0.89525555 -0.095069434 0)
(0.98504134 -0.13353445 8.6696433e-22)
(1.0688918 -0.10990795 5.2574353e-21)
(1.1201865 -0.049959521 -4.2660002e-20)
(1.1230395 0.026064068 2.8191871e-22)
(1.0815576 0.077560291 -8.4047728e-21)
(1.0349388 0.08266591 6.7219055e-21)
(1.0070533 0.062324422 1.8474122e-21)
(0.99692705 0.03726639 -2.5943509e-22)
(0.99857915 0.017784381 4.9915132e-22)
(1.0052727 0.0057076221 -2.3612543e-22)
(1.012708 -0.00034081331 5.5016859e-22)
(1.0187504 -0.0023339628 -5.4089596e-22)
(1.022719 -0.0020915349 -1.8614841e-22)
(1.0247928 -0.0010042309 -1.6000041e-23)
(1.0255255 0.00010756787 -3.4823397e-22)
(1.0254883 0.0009158929 -2.2162956e-23)
(1.0250952 0.0014018671 8.8230943e-23)
(1.0245551 0.0016248423 -1.0626756e-22)
(1.0239726 0.0016664992 -4.7444369e-22)
(1.0233808 0.0016268315 -1.683992e-22)
(1.0228065 0.0014697023 2.6728148e-22)
(1.0222256 0.001210112 9.2564952e-25)
(1.0217541 0.00077913555 1.4219025e-21)
(1.0213448 0.00032671946 4.9694887e-22)
(0.84975273 -0.099739663 4.8837553e-21)
(0.93203225 -0.0057852334 -1.3844339e-21)
(0.91478203 0.17297677 -2.1133746e-20)
(0.88043677 0.2208537 -2.3268103e-20)
(0.84841268 0.17473055 0)
(0.83739904 0.043085641 0)
(0.8774711 -0.1085757 -9.0960475e-22)
(0.9716146 -0.15707991 -6.7926311e-21)
(1.0668473 -0.13360753 2.4549451e-20)
(1.1334204 -0.066618368 -5.1872631e-20)
(1.1450937 0.027048196 -8.1635267e-22)
(1.0960419 0.096063884 1.5165948e-20)
(1.033458 0.10405928 -4.7985478e-23)
(0.99745984 0.077990429 -1.2232871e-22)
(0.98608802 0.045849466 -1.5854517e-21)
(0.9887233 0.02054033 -9.5058469e-23)
(0.99773952 0.0048780884 2.7599038e-21)
(1.0077998 -0.0029452488 -7.9548918e-23)
(1.0161767 -0.0053984679 -1.4382502e-21)
(1.0218576 -0.0048003165 -8.7325891e-23)
(1.0249605 -0.0029941342 -7.3187106e-22)
(1.0261641 -0.0011498769 1.1504327e-22)
(1.0262495 0.00023174037 -2.6654538e-23)
(1.025816 0.001085245 -2.5626809e-22)
(1.0252098 0.0015407159 -8.2119884e-23)
(1.0245562 0.001720382 -1.5769126e-22)
(1.0239257 0.0017677678 -1.2592438e-22)
(1.0232909 0.0017233916 -1.3958803e-22)
(1.0226861 0.0015420007 3.6500201e-22)
(1.0220835 0.001262241 -2.8348957e-23)
(1.0215935 0.00081342846 6.8883633e-22)
(1.0211743 0.00033880182 5.263138e-23)
(0.82125182 -0.10400008 -4.0327882e-21)
(0.90262684 -0.0090234399 1.4267408e-22)
(0.88815798 0.18101098 2.5566826e-20)
(0.85609627 0.23109724 3.8450105e-20)
(0.8261969 0.18339696 0)
(0.81784978 0.044811974 0)
(0.85972843 -0.12210406 0)
(0.95669457 -0.18023346 -8.0150418e-22)
(1.0601605 -0.15777952 -4.8516573e-20)
(1.1391818 -0.084723656 -5.8725275e-20)
(1.1682715 0.024945375 -9.6520164e-22)
(1.1214723 0.11436525 4.1341577e-21)
(1.0406703 0.12828345 -2.0560104e-20)
(0.98661079 0.096239751 5.2678509e-21)
(0.97185438 0.055640547 -1.0945535e-21)
(0.97628398 0.023492659 0)
(0.98822755 0.0035050219 7.9034312e-22)
(1.0015207 -0.0065073793 -6.9600339e-22)
(1.0128208 -0.009579002 -4.3956338e-22)
(1.0207234 -0.0085549678 1.9120466e-22)
(1.0252042 -0.0058123953 1.4100011e-22)
(1.0270504 -0.0029604422 3.2181761e-22)
(1.0272852 -0.00077228107 1.8481345e-22)
(1.0267638 0.00061610913 1.2671887e-22)
(1.0260088 0.0013706349 5.4967299e-23)
(1.0252469 0.0017243272 -5.1085088e-23)
(1.0245277 0.0018547184 1.8265743e-23)
(1.0238651 0.0018908124 -7.0738945e-24)
(1.0231992 0.0018070869 3.6041971e-22)
(1.0225703 0.0016111803 2.7338075e-22)
(1.0219408 0.0013143332 1.4626963e-23)
(1.0214324 0.00084661777 -1.9366737e-21)
(1.0210038 0.00034968026 7.4309618e-22)
(0.79282766 -0.10784879 -7.4874655e-21)
(0.87109011 -0.01403852 0)
(0.86020831 0.18765584 2.5909285e-20)
(0.83203286 0.24093972 6.5309123e-20)
(0.80556045 0.19091365 -1.7806203e-20)
(0.79898043 0.04579295 -9.6266876e-22)
(0.84178439 -0.13517562 -3.6911044e-20)
(0.94051799 -0.20245309 1.2771237e-20)
(1.0492583 -0.18159271 1.2320366e-20)
(1.1370686 -0.10284468 1.3453829e-19)
(1.1733158 0.01918786 -5.4705066e-20)
(1.1511444 0.13265277 -4.7542023e-20)
(1.059275 0.15450243 1.701362e-21)
(0.98225349 0.1177621 8.4687704e-22)
(0.95444793 0.06631939 -1.4409075e-21)
(0.96086139 0.026428625 4.1418035e-22)
(0.97649185 0.0014019466 3.7727745e-22)
(0.99368294 -0.011216255 2.1047417e-22)
(1.0085526 -0.015100408 -1.6708193e-22)
(1.01927 -0.013603032 2.3657719e-23)
(1.0255715 -0.0096799278 4.172141e-22)
(1.0282948 -0.005490055 5.6582882e-23)
(1.0287293 -0.0021792585 -1.6657384e-22)
(1.0280519 -3.6073478e-05 3.4205636e-22)
(1.0270427 0.0011460348 1.0706665e-22)
(1.0260674 0.0017031342 1.7118685e-23)
(1.0252206 0.0019307412 2.3595975e-23)
(1.0244752 0.0020109659 2.783901e-23)
(1.023791 0.0020044228 1.1611313e-22)
(1.0231043 0.0018926271 -3.9905614e-23)
(1.0224474 0.0016847816 1.8573565e-22)
(1.0217958 0.0013655629 1.6836428e-23)
(1.0212709 0.0008779882 7.861922e-22)
(1.0208339 0.0003593085 -1.3908882e-21)
(0.76542687 -0.11114827 7.0304873e-21)
(0.83759666 -0.018230629 -5.5610015e-22)
(0.83119758 0.19243009 1.9673734e-21)
(0.8083966 0.25059806 -3.6887639e-20)
(0.78539029 0.19922595 7.5558954e-20)
(0.78082806 0.045266787 8.0202388e-20)
(0.82347264 -0.14691299 5.9615408e-21)
(0.92326064 -0.22356957 0)
(1.0347492 -0.20452719 3.7852447e-20)
(1.1291971 -0.12039979 1.7613018e-19)
(1.1723255 0.01260761 7.0054598e-21)
(1.1700464 0.14981296 2.3936368e-20)
(1.0805942 0.18479925 0)
(0.98773502 0.14434139 3.1436259e-21)
(0.93722774 0.079422779 1.9331247e-21)
(0.94200917 0.028823154 -6.6110867e-22)
(0.96236498 -0.0016058278 -3.0691438e-21)
(0.98412679 -0.017259817 0)
(1.0032473 -0.022182908 5.2557631e-22)
(1.0174431 -0.020201908 6.5134586e-22)
(1.0261073 -0.014852746 -1.9766935e-22)
(1.0300285 -0.0089335114 3.8631051e-22)
(1.0307486 -0.0041047777 0)
(1.0298395 -0.00089911517 5.2278241e-23)
(1.0284287 0.00088180575 1.9764706e-22)
(1.0270975 0.0017159257 -1.6574052e-23)
(1.0260144 0.0020359939 3.4733517e-23)
(1.02515 0.0021404784 -3.9693255e-25)
(1.0244054 0.0021526165 -1.6150712e-24)
(1.0237112 0.0021056922 3.576917e-22)
(1.0230045 0.00198185 -7.7486997e-22)
(1.0223228 0.0017542696 -4.7917277e-22)
(1.0216505 0.001413332 0)
(1.0211102 0.00090706928 -3.0773484e-23)
(1.0206651 0.00036785496 -4.142737e-22)
(0.73987287 -0.11412865 1.0056728e-20)
(0.80457877 -0.02011703 -1.6625542e-20)
(0.80265462 0.196491 2.7959046e-20)
(0.78504521 0.2593132 -9.8289634e-21)
(0.76604399 0.20986205 2.6048972e-20)
(0.76247258 0.047818093 1.1244343e-20)
(0.80712787 -0.16020484 5.3757226e-20)
(0.90507562 -0.24345186 3.2539539e-21)
(1.0175796 -0.22590524 0)
(1.1152799 -0.1375865 -6.5224753e-20)
(1.1673258 0.0078557805 7.0339633e-20)
(1.1659943 0.1655208 -7.110007e-21)
(1.0902848 0.21757344 1.9591928e-20)
(0.99406249 0.17717414 -8.5540195e-21)
(0.9246014 0.097028454 3.2163199e-21)
(0.91948422 0.031214564 8.5614417e-22)
(0.94564741 -0.0059108736 -5.5375716e-21)
(0.97275568 -0.024808913 -1.6330939e-21)
(0.99679321 -0.031019688 1.2952689e-21)
(1.0151794 -0.028605405 -1.3034814e-21)
(1.0268471 -0.021604381 5.7289747e-22)
(1.0323921 -0.013525248 -5.0065516e-22)
(1.0335456 -0.0066874724 0)
(1.032328 -0.0020198483 1.8457624e-23)
(1.0303293 0.0006109147 4.986521e-23)
(1.0284408 0.0018176393 5.4088147e-23)
(1.0269694 0.0022409465 -1.1200852e-22)
(1.025886 0.002325151 -4.0386779e-23)
(1.0250552 0.0023139225 2.532844e-23)
(1.0243282 0.0022679863 0)
(1.023631 0.002201254 -2.7314965e-22)
(1.0229056 0.0020609562 -8.4234113e-22)
(1.0222006 0.0018167787 1.3409665e-21)
(1.0215067 0.001457238 -4.5206171e-22)
(1.0209504 0.00093410914 5.9401208e-23)
(1.0204983 0.00037546802 1.4802279e-21)
(0.7167255 -0.11674639 -1.0151735e-20)
(0.77402554 -0.022132731 -4.5974813e-22)
(0.77592652 0.20094515 -1.3782732e-20)
(0.76320573 0.26705482 -5.0789566e-22)
(0.74785164 0.21889633 -1.0663063e-19)
(0.7446006 0.055635206 -1.1267564e-19)
(0.78734188 -0.16769719 -7.6986895e-22)
(0.88745363 -0.26229219 3.2178402e-20)
(0.99863165 -0.24607782 5.7803891e-21)
(1.0972346 -0.15343918 6.016909e-20)
(1.1552165 0.005202146 4.8311586e-23)
(1.147421 0.1823423 -3.1296442e-20)
(1.0826076 0.24809879 1.3184547e-21)
(0.99492071 0.21218831 -1.4974209e-20)
(0.91657528 0.12143878 1.685247e-21)
(0.89517559 0.033976688 -1.5164366e-22)
(0.9260771 -0.011441269 1.1256484e-21)
(0.95952609 -0.034031009 1.4872784e-21)
(0.98910504 -0.041785149 -1.0097709e-21)
(1.0124065 -0.039046437 -1.9274022e-22)
(1.0278072 -0.030223989 4.1789684e-22)
(1.0355246 -0.019530479 -2.8859624e-22)
(1.0373507 -0.010104144 2.2163754e-22)
(1.0357661 -0.0034551453 0)
(1.0329511 0.00036423875 -4.5000804e-22)
(1.0302412 0.0021005328 4.985644e-24)
(1.0281584 0.002640241 -1.8642584e-22)
(1.0267165 0.0026608321 2.3300627e-22)
(1.0257182 0.0025404277 -6.9578034e-24)
(1.0249524 0.0024393899 -4.796871e-23)
(1.0242529 0.0023626068 8.3141399e-23)
(1.0235535 0.0022862394 -2.8603886e-22)
(1.0228088 0.0021319541 6.6515447e-24)
(1.0220785 0.001875688 1.3669723e-21)
(1.0213627 0.0014983956 -1.280313e-23)
(1.020792 0.00095926214 -4.205496e-23)
(1.0203331 0.00038230822 5.3530457e-22)
(0.69658641 -0.11901062 -8.2555354e-22)
(0.74599847 -0.023884332 2.2649923e-20)
(0.75195266 0.20492512 -1.959172e-20)
(0.74343554 0.27371357 4.2383357e-21)
(0.7313831 0.2273617 2.5978317e-22)
(0.72851056 0.061534879 -8.7493766e-23)
(0.76639396 -0.17112581 3.7878191e-20)
(0.86511232 -0.27871011 -6.9410621e-21)
(0.97860469 -0.26322248 0)
(1.0760519 -0.1688623 -1.3218959e-20)
(1.1375253 0.0030095872 0)
(1.1277686 0.19908338 0)
(1.0655503 0.27586065 -2.2599848e-20)
(0.99085788 0.24542538 8.0924999e-22)
(0.91282726 0.14972018 1.7347764e-21)
(0.87350697 0.04140502 3.3815362e-23)
(0.90285162 -0.019609777 0)
(0.94472179 -0.045033546 -9.0392201e-22)
(0.98014533 -0.054558041 -4.91026e-24)
(1.0090646 -0.051718047 -3.1281934e-23)
(1.0289891 -0.040986789 -6.9279201e-22)
(1.0395554 -0.027247935 -4.0139117e-22)
(1.04241 -0.014568579 -7.0821137e-24)
(1.0404498 -0.0052878834 -3.9872561e-22)
(1.0365544 0.00018227548 -1.0945201e-22)
(1.0326818 0.002669839 4.9141616e-23)
(1.0296888 0.0033703812 1.7690986e-22)
(1.0276766 0.003261353 -1.6655067e-22)
(1.0263991 0.0029416314 -4.697826e-24)
(1.0255412 0.0026725847 -3.2190721e-22)
(1.0248568 0.0025227209 -1.4997437e-23)
(1.0241865 0.0024372423 -3.2168162e-23)
(1.0234809 0.0023588012 1.8967625e-22)
(1.0227135 0.002198384 7.8043392e-22)
(1.021956 0.0019307125 -2.7267183e-21)
(1.0212204 0.0015362037 -5.6476903e-22)
(1.0206355 0.00098281948 -5.1608825e-22)
(1.0201707 0.00038850981 0)
(0.68012259 -0.12100372 2.1453263e-20)
(0.72131351 -0.025218562 -2.8541348e-22)
(0.73077586 0.20841529 -1.4394789e-20)
(0.72656104 0.2791206 2.9831308e-21)
(0.71750522 0.23449258 7.8098485e-20)
(0.71453366 0.067311731 6.8027422e-20)
(0.74702881 -0.17464756 -7.1470317e-22)
(0.84102145 -0.29386866 -8.4368208e-20)
(0.95339616 -0.28190574 -8.2890004e-21)
(1.0518666 -0.17969446 -1.2340727e-19)
(1.1146722 0.00076774359 -2.2867047e-22)
(1.1050686 0.21479739 0)
(1.0455675 0.30093034 0)
(0.97942394 0.27475173 1.2792605e-20)
(0.91058169 0.178688 -1.3798355e-20)
(0.8572534 0.051561618 -5.0529456e-21)
(0.87799416 -0.027143526 1.7334148e-21)
(0.92769189 -0.058211568 2.9285116e-22)
(0.96998584 -0.069404393 2.7320796e-22)
(1.0050812 -0.066729109 -1.487812e-21)
(1.0303474 -0.054135772 -9.1660515e-23)