/*--------------------------------*- C++ -*----------------------------------*\
| =========                 |                                                 |
| \\      /  F ield         | OpenFOAM: The Open Source CFD Toolbox           |
|  \\    /   O peration     | Version:  5.0                                   |
|   \\  /    A nd           | Web:      www.OpenFOAM.org                      |
|    \\/     M anipulation  |                                                 |
\*---------------------------------------------------------------------------*/
FoamFile
{
    version     2.0;
    format      ascii;
    class       volVectorField;
    location    "340";
    object      UMean;
}
// * * * * * * * * * * * * * * * * * * * * * * * * * * * * * * * * * * * * * //

dimensions      [0 1 -1 0 0 0 0];

internalField   nonuniform List<vector> 
9200
(
(1.0317963 0.00043287654 -2.3444564e-24)
(1.031997 0.0013860838 4.2777715e-22)
(1.0305537 0.00041457251 0)
(1.0323098 0.0022594148 -2.3093574e-22)
(1.0307104 0.0013375036 3.6909316e-22)
(1.0299982 0.00040256923 0)
(1.0327186 0.0031263254 -2.2329333e-23)
(1.0309766 0.0021800213 -8.9234178e-24)
(1.0301455 0.0012920932 0)
(1.0292366 0.00037497051 0)
(1.0331948 0.0040107317 5.0311255e-22)
(1.0313047 0.0030025137 4.1668125e-22)
(1.0303887 0.0021080108 2.1246932e-22)
(1.0293603 0.0012045079 1.209245e-23)
(1.0286381 0.00035238617 3.0381126e-25)
(1.033712 0.004881507 4.7481339e-22)
(1.0316856 0.0038425223 4.8599661e-24)
(1.0306883 0.002895523 7.2956208e-22)
(1.0295755 0.0019725709 3.1239968e-22)
(1.028753 0.0011215593 2.5356542e-23)
(1.0280917 0.00032348164 -4.4576495e-22)
(1.0342314 0.0057851213 5.9014562e-22)
(1.032095 0.0046510493 5.1420069e-22)
(1.0310324 0.0037007196 -4.3210257e-22)
(1.0298374 0.0026990686 -3.715803e-23)
(1.0289479 0.0018420707 2.3267311e-22)
(1.0281942 0.0010178781 2.4059897e-22)
(1.0276003 0.00029555627 4.9240127e-23)
(1.0347267 0.0066911716 4.3646197e-22)
(1.0325077 0.0054796299 4.8121388e-22)
(1.0314008 0.0044656808 5.5666749e-22)
(1.0301375 0.0034509962 7.0963489e-23)
(1.0291822 0.0025099957 -6.6210397e-22)
(1.02837 0.0016819391 -2.9280207e-22)
(1.0276954 0.00091340319 -2.0432276e-22)
(1.0271983 0.00026556123 3.4330501e-22)
(1.0351778 0.007619549 -8.1966843e-22)
(1.032913 0.0062889338 4.0381397e-22)
(1.0317628 0.0052432187 6.7879159e-23)
(1.0304605 0.0041581824 2.3702678e-22)
(1.0294474 0.0032083643 1.5865236e-22)
(1.0285807 0.002281636 -9.1083808e-22)
(1.0278557 0.0015197642 -9.4400891e-23)
(1.0272877 0.00079916222 -3.2210428e-22)
(1.026839 0.0002365161 -6.6713063e-22)
(1.0355381 0.0085488292 7.2629744e-22)
(1.0332834 0.0071011215 -2.2575112e-23)
(1.0321001 0.005991055 -3.9975802e-23)
(1.0307797 0.0048817523 -2.3859354e-22)
(1.029733 0.0038567683 -1.1577367e-22)
(1.028816 0.0029195108 2.6810433e-22)
(1.0280466 0.0020505786 3.0882119e-22)
(1.0274357 0.0013427395 4.4580109e-22)
(1.0269244 0.00068624184 2.6337347e-22)
(1.0265606 0.00020731327 6.572604e-23)
(1.0357437 0.0094657423 -3.2490595e-22)
(1.0335957 0.0078863281 2.4610957e-22)
(1.0323969 0.0067315784 3.0288062e-22)
(1.0310871 0.0055782826 -4.3689123e-22)
(1.0300131 0.0045196476 1.3997639e-22)
(1.0290687 0.0035037649 -7.3364004e-22)
(1.0282566 0.0026265625 8.9834042e-23)
(1.0276116 0.0017987547 5.6794e-22)
(1.0270623 0.0011675456 -2.5224497e-22)
(1.0266453 0.00056987878 5.9699009e-22)
(1.026322 0.00017972031 -5.424071e-23)
(1.0358614 0.010363934 9.9414938e-24)
(1.0337602 0.0086374678 -4.6563802e-22)
(1.0326315 0.0074483272 -4.7803497e-22)
(1.0313744 0.0062655253 0)
(1.0302828 0.0051514246 2.4745517e-23)
(1.0293145 0.0041058415 -3.0588124e-22)
(1.0284828 0.0031465176 -1.3261358e-22)
(1.0278005 0.0023072784 -2.8275924e-22)
(1.0272262 0.0015498167 -3.0600135e-22)
(1.0267768 0.00098649361 -3.0499404e-22)
(1.0264073 0.00045775167 -1.7790965e-22)
(1.0261504 0.00015324672 4.6312224e-23)
(1.0358484 0.011237875 2.0847627e-23)
(1.0338361 0.0093799005 5.331834e-23)
(1.0327743 0.0081433295 0)
(1.0316289 0.0069256448 0)
(1.0305213 0.0057756077 -7.2106648e-23)
(1.0295507 0.0046820402 -3.0309341e-22)
(1.0286972 0.0036859122 -1.5940752e-23)
(1.028003 0.0027581524 4.0469683e-22)
(1.0273975 0.0019909777 5.5389684e-23)
(1.0269341 0.0012916804 3.660985e-24)
(1.0265346 0.00081165427 2.0030965e-22)
(1.0262397 0.00034716083 -9.5633503e-23)
(1.026013 0.000129043 3.9250691e-22)
(1.0352634 0.011949905 -2.3799281e-22)
(1.0338869 0.010148217 6.949966e-24)
(1.032808 0.0087906651 -1.2103179e-22)
(1.0317896 0.0075448753 5.124249e-23)
(1.0307227 0.0063802955 -2.0885999e-23)
(1.0297636 0.0052572988 -1.260854e-22)
(1.0289014 0.0042008156 1.4183926e-22)
(1.0281905 0.0032319413 2.1351652e-23)
(1.0275801 0.002372215 5.792604e-22)
(1.0270931 0.0016612642 5.4649113e-22)
(1.0266884 0.0010419873 7.8021628e-23)
(1.0263671 0.00063842801 2.352294e-22)
(1.0261078 0.00024353404 1.3865729e-22)
(1.0259274 0.00010697898 -8.0652546e-23)
(1.0338444 0.012431718 -4.6071411e-22)
(1.0337096 0.010882883 2.8088464e-22)
(1.0327523 0.0093971196 -1.853069e-22)
(1.0318273 0.0081299499 2.5102443e-23)
(1.0308538 0.006964453 -3.1000209e-23)
(1.0299426 0.0058151612 1.7891952e-22)
(1.0290802 0.0047181841 1.4696696e-22)
(1.0283647 0.0036846718 -1.7784393e-22)
(1.0277426 0.0027777933 -1.4385734e-22)
(1.0272609 0.001969128 -8.1528386e-23)
(1.0268388 0.0013408531 -4.7304585e-24)
(1.0265233 0.00079320828 -1.7265413e-22)
(1.0262378 0.0004755051 -1.4721806e-22)
(1.0260313 0.0001456402 3.1286298e-23)
(1.0258693 8.7746216e-05 -2.5051536e-23)
(1.0315625 0.012681741 6.48864e-22)
(1.0328464 0.01144228 -6.105208e-22)
(1.0326004 0.010018273 9.6713684e-23)
(1.0317459 0.0086726892 -1.3560927e-22)
(1.0308833 0.0075197428 6.3171221e-23)
(1.0300599 0.006356398 -3.7709256e-22)
(1.0292193 0.0052225517 -9.8406988e-23)
(1.0285103 0.0041437354 4.3455532e-23)
(1.0278896 0.0031655556 -7.5984651e-23)
(1.027403 0.0023030105 -4.2883217e-22)
(1.0269955 0.0015751738 -5.2757243e-22)
(1.0266714 0.001019019 -1.8762515e-22)
(1.0264002 0.00055824122 2.8996333e-23)
(1.0261687 0.00032064339 7.2956653e-23)
(1.0259838 5.7085662e-05 6.6574419e-23)
(1.0258476 7.1399192e-05 9.9975273e-24)
(1.0285821 0.012841424 0)
(1.0312447 0.011834253 -6.2664835e-22)
(1.0319177 0.010557554 3.3068575e-22)
(1.0315903 0.0092196049 0)
(1.0307586 0.0080317614 0)
(1.0300912 0.0068745986 0)
(1.0293097 0.0057214609 7.5992759e-23)
(1.0286124 0.0045934788 2.913354e-22)
(1.0280042 0.0035621687 6.0173256e-22)
(1.0275243 0.0026206676 2.2895503e-22)
(1.0271211 0.0018348546 1.5816785e-22)
(1.0268236 0.0011766567 1.1723737e-22)
(1.0265508 0.00071277833 6.1402761e-23)
(1.026344 0.00033319842 -3.4493477e-23)
(1.026131 0.00017979818 -6.315728e-23)
(1.0259763 -2.2348761e-05 2.8830413e-24)
(1.0258461 5.8297415e-05 0)
(1.0253996 0.012926189 4.6935938e-22)
(1.0287757 0.012032706 1.4013357e-21)
(1.0304746 0.010925599 -1.111686e-21)
(1.0310786 0.0097582883 -1.5976291e-22)
(1.0305383 0.0085420412 -9.7354526e-23)
(1.0299529 0.0073532351 0)
(1.0293323 0.0062053871 3.1921305e-22)
(1.0286687 0.0050444893 -2.3147571e-22)
(1.0280715 0.0039541402 -1.7362041e-22)
(1.0276077 0.0029488005 8.1651649e-22)
(1.0272217 0.0020797702 -1.2712294e-22)
(1.0269389 0.0013583844 2.022952e-22)
(1.0267038 0.00079458488 -9.4509796e-23)
(1.0265045 0.00041633678 -1.6319199e-22)
(1.0263232 0.00012710405 -1.9873854e-22)
(1.0261386 5.2443718e-05 1.0759195e-22)
(1.0259903 -9.0551874e-05 6.4308873e-24)
(1.0258667 4.8575845e-05 4.1449221e-23)
(1.0227082 0.013037722 -6.8641285e-23)
(1.0256878 0.012091966 6.3770849e-22)
(1.0282265 0.011193334 3.4388241e-22)
(1.0298532 0.010142134 -5.9042748e-22)
(1.0300778 0.0090724562 2.6912866e-23)
(1.0296642 0.0078122626 -4.158993e-22)
(1.0291926 0.0066583689 -9.1468032e-22)
(1.0286715 0.0054879942 -7.7381258e-22)
(1.0280944 0.0043518441 -3.5472631e-22)
(1.0276402 0.0032774851 -3.9390456e-22)
(1.0272792 0.0023362329 -2.0125943e-22)
(1.0270231 0.0015248746 -1.4282865e-22)
(1.0268143 0.00089697834 -3.2864994e-22)
(1.0266664 0.00042095785 1.1781576e-22)
(1.0264992 0.0001419781 1.5002552e-22)
(1.0263549 -6.1212752e-05 -3.2071104e-23)
(1.02617 -5.7784378e-05 7.2347785e-23)
(1.0260295 -0.00014723211 -2.2195649e-23)
(1.0258996 4.2379095e-05 6.4937151e-23)
(1.0198808 0.013132645 -7.0428926e-22)
(1.0229308 0.012089369 -9.263239e-22)
(1.0253759 0.011335584 3.4515312e-21)
(1.0278474 0.010412887 2.4490487e-22)
(1.029023 0.0095017937 -3.4124915e-22)
(1.0291942 0.0083056431 -1.9502465e-22)
(1.028841 0.0070752187 3.2965517e-23)
(1.0285394 0.0059127275 -2.9272225e-22)
(1.0280704 0.0047480485 -1.4068891e-22)
(1.0276252 0.003614671 -6.1590083e-22)
(1.0272817 0.0025967101 -3.6739319e-22)
(1.0270572 0.001702384 2.3934415e-22)
(1.0268889 0.00098250959 1.7410176e-22)
(1.0267804 0.00044103251 -1.9365028e-23)
(1.0266767 7.1578517e-05 1.580858e-22)
(1.0265548 -0.00011227369 -1.8938676e-22)
(1.0264142 -0.00022600058 1.8133733e-22)
(1.0262315 -0.00015048988 -1.2315683e-22)
(1.0260824 -0.00019134727 -2.5968792e-23)
(1.0259428 3.9717505e-05 -8.1968011e-23)
(1.0148868 0.013129953 -8.6583289e-24)
(1.020767 0.012249064 -1.605503e-21)
(1.0226521 0.011388815 9.816574e-23)
(1.0251502 0.010575943 -8.8820728e-22)
(1.0272109 0.0098226681 -1.5484903e-22)
(1.028245 0.0087516848 3.1577681e-22)
(1.0283155 0.0075205351 -1.1777792e-22)
(1.0281598 0.0062885254 6.9174782e-22)
(1.0279429 0.0051375262 6.3217283e-22)
(1.0275641 0.0039570371 0)
(1.0272323 0.0028688507 2.7439403e-22)
(1.0270302 0.001887325 6.556222e-22)
(1.0269057 0.0010775362 2.1231925e-22)
(1.0268527 0.00044102681 -5.9214941e-22)
(1.0268017 9.6558012e-06 -8.1105778e-23)
(1.0267571 -0.00025655089 -1.4196887e-22)
(1.0266436 -0.00033822509 1.7986729e-22)
(1.0265109 -0.00036678258 1.4049471e-22)
(1.0263089 -0.00022378855 -1.494453e-22)
(1.0261478 -0.00022260569 1.7638163e-24)
(1.0259903 4.0608296e-05 -8.7998665e-23)
(1.0066708 0.012615963 1.6326153e-21)
(1.0171596 0.012041584 -1.7640804e-21)
(1.020496 0.011443923 -2.393836e-21)
(1.0225338 0.010666329 2.2800887e-21)
(1.0246538 0.010041384 1.1738787e-21)
(1.0265846 0.0091013047 -2.5301182e-22)
(1.0274224 0.0079662701 0)
(1.0275599 0.0066740193 -6.0094164e-22)
(1.0275754 0.005481488 -5.1955703e-22)
(1.0274273 0.0043029895 -9.3783654e-23)
(1.0271328 0.0031511008 3.7840765e-22)
(1.0269458 0.0020861288 3.0550139e-22)
(1.026856 0.0011813721 -1.2687819e-22)
(1.0268582 0.00044649186 6.768151e-23)
(1.0268803 -7.7724462e-05 2.6669008e-22)
(1.0269034 -0.00040128783 -2.4737787e-22)
(1.0268781 -0.00055239354 2.0707523e-23)
(1.0267786 -0.00053534442 -1.9203355e-22)
(1.0266269 -0.00048045846 5.6458479e-23)
(1.0264027 -0.00027711914 7.2979635e-24)
(1.0262186 -0.0002407153 -7.1759924e-23)
(1.0260389 4.5013197e-05 0)
(0.9959349 0.012096838 5.0323686e-22)
(1.0094482 0.011607269 1.2869716e-21)
(1.0177115 0.011451525 -3.7556311e-23)
(1.0205164 0.010725748 2.9471311e-21)
(1.0220077 0.010192468 1.0094597e-21)
(1.0241504 0.0093532557 -6.3506508e-22)
(1.0258765 0.0083334064 5.8677358e-22)
(1.0266617 0.0070824122 -6.1358247e-22)
(1.026909 0.0057987759 -1.7957366e-22)
(1.0270925 0.0046226451 7.3545674e-23)
(1.0269733 0.0034438024 -3.2809991e-23)
(1.0268044 0.0023006419 -7.7897093e-22)
(1.0267415 0.0013001225 -1.5470333e-23)
(1.0267905 0.00046055501 1.1127238e-21)
(1.0268838 -0.00016546159 1.758792e-22)
(1.0269985 -0.00057882049 -1.3490904e-22)
(1.0270545 -0.0007775969 -1.0804426e-22)
(1.0270553 -0.00081544285 3.9952443e-22)
(1.0269375 -0.00069894576 4.8572421e-23)
(1.0267651 -0.00056611169 -1.2906938e-22)
(1.026504 -0.00030983674 0)
(1.0262918 -0.00024569621 1.7084916e-22)
(1.0260846 5.292535e-05 4.6245151e-24)
(0.98270464 0.011502817 -2.1651647e-21)
(0.9986989 0.010859694 4.5704777e-21)
(1.0112627 0.011105336 -4.9112944e-21)
(1.0182542 0.010797935 -1.9057867e-21)
(1.0200092 0.010326079 3.2741387e-21)
(1.021475 0.0095526777 0)
(1.0235551 0.0086014065 1.3178918e-22)
(1.0252131 0.007439863 -6.3149823e-22)
(1.0259719 0.0061436266 -2.0508651e-22)
(1.0264135 0.004880419 7.1035455e-22)
(1.0266691 0.0037339919 1.224956e-22)
(1.0266064 0.0025316925 -3.1853071e-22)
(1.0265615 0.0014389583 4.2653845e-22)
(1.0266485 0.00048943572 -4.7329784e-23)
(1.0268073 -0.00024715309 3.1553485e-22)
(1.0270101 -0.00076444251 -8.4996073e-24)
(1.0271766 -0.0010447685 -7.0320657e-22)
(1.0272732 -0.0011188523 1.7615858e-22)
(1.0272635 -0.0010389451 -7.5209392e-22)
(1.0271273 -0.00082748435 3.264536e-22)
(1.0269138 -0.00062253332 3.4104407e-22)
(1.0266101 -0.00032182823 -2.483558e-22)
(1.0263629 -0.00023780194 1.1031196e-22)
(1.0261244 6.3976499e-05 4.7869456e-24)
(0.9674152 0.010819554 -2.1036948e-22)
(0.9864148 0.010385156 4.7371018e-21)
(1.0015415 0.010284449 8.2434837e-22)
(1.0128388 0.010670544 1.3425057e-20)
(1.0181957 0.010537297 -2.9191244e-21)
(1.0193941 0.0097251988 3.8675416e-21)
(1.0208387 0.0088231554 1.1865424e-22)
(1.0230042 0.0077055549 1.9247703e-21)
(1.0245997 0.006474032 -4.3675502e-22)
(1.0254122 0.0051491708 -1.2263473e-22)
(1.0260361 0.0039570881 3.6940749e-22)
(1.0263085 0.0027789254 7.5441944e-22)
(1.0263188 0.0015990841 4.5188509e-23)
(1.0264313 0.00054109446 -9.3172066e-23)
(1.0266464 -0.00031674016 -4.0796242e-22)
(1.0269343 -0.00094997671 1.1567657e-22)
(1.0272088 -0.0013298831 -1.3588634e-22)
(1.0274345 -0.0014752085 3.0475244e-22)
(1.0275322 -0.0014156858 0)
(1.0275123 -0.0012205689 3.4220842e-23)
(1.0273314 -0.00091904432 1.2938883e-23)
(1.0270716 -0.00064930383 -2.6201768e-23)
(1.0267156 -0.0003133433 7.4845253e-24)
(1.0264287 -0.00021743516 -1.6024061e-22)
(1.0261557 7.8142072e-05 -3.4048576e-23)
(0.95081555 0.010091566 1.6189098e-21)
(0.97202085 0.009799396 -3.2663387e-21)
(0.98928724 0.0096615117 -2.3046559e-21)
(1.0035616 0.010006347 -2.0251273e-21)
(1.0139685 0.010545396 -1.2634152e-20)
(1.0178043 0.0099923814 -5.6201718e-22)
(1.0186344 0.0090208418 1.1445103e-22)
(1.020253 0.0079198836 -1.8193327e-22)
(1.0224967 0.0067216123 -1.354657e-21)
(1.0240668 0.0054342481 3.2943455e-22)
(1.0249921 0.0041500007 -1.6840617e-22)
(1.0257431 0.0029880471 -9.2195174e-23)
(1.0260001 0.0017861558 -4.6410009e-22)
(1.0261401 0.00061844305 -1.0563387e-22)
(1.0263994 -0.00036338501 -3.8175174e-22)
(1.026763 -0.0011281316 5.4218432e-22)
(1.0271462 -0.0016235721 1.2994641e-21)
(1.0275001 -0.0018614912 -4.5913094e-22)
(1.0277439 -0.0018577723 -7.7385892e-22)
(1.027843 -0.0016650289 1.5121164e-23)
(1.0277809 -0.0013573665 7.8239617e-22)
(1.0275511 -0.00097243221 2.271233e-22)
(1.0272309 -0.00064656243 -3.4414746e-22)
(1.0268171 -0.00028492077 2.2596999e-22)
(1.0264862 -0.00018519083 -1.0349218e-22)
(1.0261764 9.4883261e-05 5.2271549e-24)
(0.93363626 0.0093431661 -7.397301e-23)
(0.95605098 0.0092110907 -4.1691402e-21)
(0.97511716 0.0088871126 1.0102769e-20)
(0.99186269 0.0093701572 -1.2545549e-20)
(1.0056156 0.010103182 1.3046589e-20)
(1.0145807 0.0101679 -7.1440334e-21)
(1.0170968 0.009300943 -3.2003993e-21)
(1.0178988 0.0081201996 -2.7615058e-21)
(1.0197379 0.0069121348 2.8411752e-21)
(1.0220648 0.0056558319 7.4687209e-22)
(1.0236088 0.0043660894 -1.1094318e-22)
(1.0247066 0.0031187787 1.6402777e-22)
(1.0254895 0.001975071 2.9573291e-22)
(1.0257767 0.00072896495 -5.4283364e-22)
(1.0260658 -0.00038249107 -4.3761927e-23)
(1.0264941 -0.001285764 2.9498474e-22)
(1.0269781 -0.0019171634 -5.35289e-22)
(1.0274646 -0.0022674133 6.4437298e-22)
(1.0278568 -0.0023432387 -4.7510472e-22)
(1.0281176 -0.0021884962 1.5954563e-22)
(1.0281819 -0.001862222 0)
(1.0280739 -0.0014469015 3.7118885e-22)
(1.0277751 -0.00098763115 1.0410619e-23)
(1.0273884 -0.00061481156 0)
(1.026911 -0.00023747032 -2.7732682e-22)
(1.026533 -0.00014182551 -2.0084068e-23)
(1.0261846 0.0001140544 -8.3133917e-24)
(0.91631353 0.0086507493 -6.3153002e-22)
(0.93938619 0.008641706 -3.9689856e-22)
(0.95949164 0.0082270593 9.9469809e-21)
(0.97840452 0.0085991613 -1.2087523e-21)
(0.99433733 0.0093840268 3.5405158e-21)
(1.0071565 0.0099772907 1.0440844e-20)
(1.0146733 0.009581966 4.0669347e-22)
(1.0163116 0.0083762524 3.7694299e-21)
(1.0172163 0.0070853488 -3.8226993e-22)
(1.0193334 0.0058161127 -1.9247925e-21)
(1.0217001 0.0045687047 9.7805901e-22)
(1.0232513 0.0032529324 -6.6703657e-23)
(1.0245401 0.0020769591 -2.1600407e-22)
(1.0252805 0.00086822356 -7.2608604e-23)
(1.0256501 -0.00036554928 -7.0567873e-22)
(1.0261252 -0.0014166576 -1.1161271e-24)
(1.0267007 -0.0021962065 -1.4489104e-21)
(1.0273137 -0.0026833471 9.5010835e-22)
(1.0278637 -0.0028617319 2.6649443e-22)
(1.0282923 -0.0027704992 -5.8276572e-22)
(1.0285303 -0.0024599293 5.6398408e-22)
(1.0285552 -0.0020036174 3.6078984e-23)
(1.0283751 -0.0014891363 -2.9400434e-23)
(1.0280014 -0.00096466823 0)
(1.0275392 -0.00055519032 0)
(1.0269943 -0.00017213255 2.4102376e-23)
(1.0265672 -8.8096051e-05 -6.222225e-23)
(1.0261791 0.00013521097 5.8186596e-23)
(0.89922386 0.0079760358 0)
(0.92250448 0.0080686714 -2.6748304e-21)
(0.9432099 0.0075537012 -1.0279536e-20)
(0.96330141 0.0080798655 -8.1646314e-21)
(0.98124316 0.0087158824 -1.5393963e-20)
(0.99653125 0.0092507579 -1.7047901e-21)
(1.0083644 0.0095548317 6.3046524e-21)
(1.0144581 0.0087135841 8.7969065e-21)
(1.0155456 0.0073195698 -6.0763475e-21)
(1.0166191 0.0059514778 8.3138246e-22)
(1.0190202 0.0047010966 -1.5267418e-22)
(1.0213798 0.0034292347 -3.3585381e-22)
(1.0230364 0.0021304891 3.4493939e-22)
(1.0244361 0.00096190849 -1.7810275e-22)
(1.0251308 -0.00030797795 8.6969023e-24)
(1.0256588 -0.0015113573 -7.7792585e-22)
(1.0263101 -0.0024527044 8.256243e-23)
(1.0270423 -0.003093556 -6.7212468e-22)
(1.0277472 -0.0034029562 1.2867081e-21)
(1.0283574 -0.0034006742 -7.5863396e-22)
(1.0287805 -0.0031329928 4.914644e-22)
(1.028989 -0.0026673931 3.2454442e-22)
(1.0289427 -0.0020886048 2.2565582e-24)
(1.0286851 -0.0014827359 -1.0920446e-21)
(1.0282228 -0.00090480221 -2.43545e-22)
(1.02768 -0.00046902803 4.3256e-23)
(1.0270647 -9.0196357e-05 1.9716438e-22)
(1.0265871 -2.5288069e-05 -5.1293861e-24)
(1.0261591 0.00015785365 -1.7993058e-22)
(0.88266077 0.0072797903 1.930807e-21)
(0.90572046 0.0072858136 0)
(0.92659425 0.006732462 0)
(0.94729548 0.0072867346 0)
(0.96653411 0.0082115537 4.5970388e-21)
(0.98388404 0.0087135915 -1.4059119e-20)
(0.9985164 0.0088485744 3.6511057e-22)
(1.0094407 0.0087701517 8.6640859e-23)
(1.0140835 0.0076554775 -1.2351819e-20)
(1.0148022 0.006174722 8.3926261e-21)
(1.016113 0.0048122585 -2.3216498e-21)
(1.0187558 0.003543351 5.4316073e-22)
(1.0210962 0.0022370702 -3.9914991e-22)
(1.0229638 0.00095352878 3.2431087e-22)
(1.024363 -0.00024394683 8.2421835e-22)
(1.025093 -0.0015635677 6.6316934e-23)
(1.0258065 -0.0026757723 -9.3795587e-22)
(1.0266448 -0.0034886845 -3.3274192e-22)
(1.0275 -0.0039501413 8.0063336e-22)
(1.0282927 -0.0040687602 8.9322186e-23)
(1.0289197 -0.0038703518 -5.8979696e-22)
(1.0293282 -0.0034244743 -9.2712989e-23)
(1.0294713 -0.0028086938 8.9266434e-22)
(1.0293466 -0.0021136915 -6.0395766e-22)
(1.0289919 -0.0014298525 8.2123033e-24)
(1.028436 -0.00080942333 -1.7317877e-22)
(1.0278076 -0.00035816585 3.1728646e-22)
(1.0271201 6.832456e-06 1.0487428e-22)
(1.0265916 4.5789269e-05 -7.2300025e-23)
(1.0261245 0.00018171013 -1.5945537e-22)
(0.8654933 0.0064852735 -1.2381978e-22)
(0.88932226 0.0065365087 -3.3844834e-21)
(0.90989792 0.005894146 0)
(0.93080233 0.0065635551 0)
(0.95079796 0.0074124263 0)
(0.96964833 0.008187329 0)
(0.98637172 0.0083308347 0)
(1.0004722 0.0081768677 -1.6675787e-25)
(1.0103138 0.0078213309 6.8078443e-21)
(1.0135465 0.006483598 -1.3394889e-20)
(1.0140625 0.0050448753 9.3081337e-23)
(1.0156689 0.0036524307 -2.3042549e-21)
(1.018506 0.0023392256 2.7456608e-21)
(1.0209137 0.00094626431 -4.3668109e-22)
(1.0230388 -0.00028618406 -4.0990503e-23)
(1.0243516 -0.0015776698 3.3681762e-22)
(1.0251913 -0.0028589755 -5.3617833e-22)
(1.0261196 -0.0038564056 5.0080707e-22)
(1.0271151 -0.0044930685 1.2136092e-22)
(1.0280887 -0.004757049 1.7063554e-22)
(1.0289253 -0.0046626557 7.8753387e-23)
(1.0295572 -0.0042630039 2.1826132e-22)
(1.0299114 -0.0036402954 -8.6068491e-24)
(1.0299795 -0.0028796275 -3.6502251e-22)
(1.0297512 -0.0020816842 1.1515805e-22)
(1.0292933 -0.0013301905 9.9293041e-22)
(1.0286359 -0.00068073188 2.2282314e-22)
(1.0279193 -0.00022452434 -1.4239414e-22)
(1.027159 0.00011737185 1.2608252e-23)
(1.0265802 0.00012411263 1.3558231e-22)
(1.0260753 0.00020663199 1.1866162e-22)
(0.84750897 0.0054818328 -2.1349769e-21)
(0.87222731 0.0056819278 -8.0352594e-22)
(0.89346955 0.0051018149 -1.1307165e-20)
(0.9141496 0.0058017733 -1.8482816e-20)
(0.93453764 0.0067207886 0)
(0.95418123 0.007401971 0)
(0.97265904 0.0077368847 -7.7393343e-23)
(0.9889155 0.0075978087 -1.5567594e-20)
(1.0024133 0.0074045994 1.949606e-20)
(1.0107575 0.006759348 -1.7444582e-20)
(1.0128401 0.00532051 -2.1747687e-22)
(1.0132877 0.0039056767 5.2762688e-21)
(1.0152652 0.0024432549 -6.6933058e-22)
(1.0182953 0.0010004871 1.9398548e-22)
(1.0209439 -0.00040947723 3.0607884e-22)
(1.0231868 -0.0016415663 -1.4698688e-23)
(1.0244371 -0.0029952952 1.4578709e-21)
(1.0254666 -0.0041892212 -8.3219941e-23)
(1.0265893 -0.0050176806 -1.5290595e-21)
(1.0277367 -0.005454338 1.7273108e-21)
(1.0287852 -0.0054915496 -8.1566749e-22)
(1.029651 -0.0051749593 -5.2818262e-22)
(1.0302449 -0.0045710314 1.4941488e-21)
(1.0305318 -0.0037749064 4.5558065e-22)
(1.0304949 -0.002882044 -3.115456e-22)
(1.0301561 -0.0019912816 6.4085576e-22)
(1.0295819 -0.0011871064 2.9789678e-22)
(1.0288188 -0.00052019706 9.6100699e-23)
(1.0280127 -7.0132196e-05 -1.4520679e-22)
(1.0271805 0.00023972804 -5.2355113e-23)
(1.0265523 0.00020858037 1.5596404e-22)
(1.0260109 0.00023168685 1.6400127e-23)
(0.82955463 0.0043043526 7.2559296e-22)
(0.85434511 0.0048668509 3.6064077e-21)
(0.87619343 0.0042451894 1.6466181e-20)
(0.89775664 0.0051049089 2.2985337e-20)
(0.91805117 0.0059742167 0)
(0.93809704 0.0066868904 0)
(0.95750338 0.0069455676 0)
(0.97572124 0.0069215143 2.2569051e-21)
(0.99154117 0.0067569809 -2.3766093e-20)
(1.0041089 0.0065705955 -1.8954397e-20)
(1.0108244 0.005723156 -1.6478561e-22)
(1.0119504 0.0041720097 1.4071521e-21)
(1.012454 0.0026973805 -9.9466398e-21)
(1.0149181 0.001072441 3.3449236e-21)
(1.0181995 -0.00048597356 -2.2545917e-22)
(1.0212097 -0.00185333 0)
(1.0233832 -0.0031204493 2.7040421e-22)
(1.024679 -0.0044784081 -4.4996546e-22)
(1.0259206 -0.005515278 -6.7801212e-23)
(1.0272319 -0.006146004 2.4366393e-22)
(1.0284889 -0.0063453834 -7.6823771e-22)
(1.0295951 -0.006141661 3.3778676e-22)
(1.0304444 -0.0055945042 -8.4267346e-22)
(1.0309835 -0.0047873991 -1.1720125e-21)
(1.0311687 -0.0038286625 5.1523607e-22)
(1.0310169 -0.0028132752 5.2078368e-23)
(1.0305492 -0.0018469165 -4.7223498e-23)
(1.0298546 -0.0010025823 1.1408479e-23)
(1.0289826 -0.0003311511 -2.6007833e-22)
(1.0280867 0.00010232555 -1.7095907e-22)
(1.0271839 0.00037232412 7.3114296e-23)
(1.0265078 0.00029806217 -5.9147117e-22)
(1.0259303 0.00025477834 3.2127443e-22)
(0.81184394 0.00325908 5.2618893e-22)
(0.83638631 0.0036568995 3.3245425e-22)
(0.85807878 0.0034399751 2.7785654e-20)
(0.88046022 0.0042952623 4.5585637e-20)
(0.90176781 0.0052996316 -9.8708456e-21)
(0.92172588 0.0059335506 -1.0600657e-21)
(0.94158911 0.0061680776 -3.9647937e-20)
(0.96093226 0.0060882075 1.8869042e-20)
(0.97886109 0.0059747694 2.7268542e-21)
(0.994142 0.00590501 4.7805288e-20)
(1.0055662 0.0057790112 -1.6014858e-20)
(1.0104495 0.0047278197 -1.7101706e-20)
(1.0108438 0.0029722111 1.381424e-22)
(1.0116251 0.0012813006 3.9727642e-21)
(1.0146965 -0.0004945233 2.351245e-21)
(1.0183593 -0.0021113508 1.437797e-22)
(1.0216698 -0.0033783441 2.9877891e-23)
(1.023678 -0.0047259915 2.4119979e-22)
(1.0251049 -0.0059768372 -1.6929246e-22)
(1.0265715 -0.0068209665 -5.3994552e-23)
(1.0280297 -0.0072087666 6.3397799e-22)
(1.0293771 -0.007151434 -1.5797394e-21)
(1.0304929 -0.006692167 -1.473321e-22)
(1.0313049 -0.0059126324 7.8034256e-22)
(1.0317507 -0.0049104374 -1.628904e-21)
(1.0318204 -0.0037980343 -5.7281902e-22)
(1.0315305 -0.0026781333 -5.1956744e-22)
(1.0309286 -0.0016488514 -1.3846399e-22)
(1.0301064 -0.00078035604 -2.7957205e-22)
(1.0291246 -0.00011661593 2.8425988e-24)
(1.0281396 0.00029096264 -2.4762579e-23)
(1.0271687 0.00051344436 -1.9747499e-23)
(1.0264469 0.00039165124 2.9499971e-22)
(1.0258363 0.00027744071 -6.9979784e-22)
(0.7948368 0.0022458696 -8.2738235e-22)
(0.81856603 0.0026762605 -5.1303698e-22)
(0.83990375 0.0023207043 -3.2041573e-20)
(0.86233494 0.0035205668 -2.2705993e-20)
(0.88442709 0.0044757764 3.8300962e-20)
(0.90551049 0.005287145 4.7823029e-20)
(0.92531959 0.0053596338 5.5915595e-21)
(0.94518979 0.0052304804 0)
(0.96447744 0.0050863713 2.1257787e-20)
(0.98197553 0.0050367116 6.6863185e-20)
(0.99656428 0.0051491264 2.5136335e-21)
(1.0065806 0.0050334592 8.4012844e-21)
(1.0096595 0.0037189498 0)
(1.0095385 0.0015773918 -5.1794524e-22)
(1.0109175 -0.00037579773 -6.779497e-21)
(1.0147011 -0.0022894667 -2.7414221e-22)
(1.0188726 -0.0037984 9.5633935e-22)
(1.0222003 -0.0050280929 0)
(1.0241155 -0.0063940764 4.1794671e-22)
(1.025749 -0.0074702604 9.0404228e-22)
(1.0274043 -0.0080686024 -1.2155681e-21)
(1.0289883 -0.0081876567 6.5414019e-22)
(1.0303757 -0.0078524501 0)
(1.0314768 -0.0071324718 -1.5409033e-21)
(1.0322088 -0.0061250669 7.6535192e-22)
(1.0325429 -0.0049355898 -5.2691085e-23)
(1.0324695 -0.0036870622 -6.8491109e-22)
(1.0320336 -0.0024758981 6.0346653e-22)
(1.0312859 -0.0014027988 2.1755191e-23)
(1.0303346 -0.00052347628 -6.8208256e-22)
(1.029243 0.00012040293 5.1411119e-22)
(1.0281712 0.00049304166 1.2523224e-22)
(1.027135 0.00066146563 0)
(1.0263696 0.00048858867 -1.2110442e-23)
(1.0257296 0.00029939688 -2.384205e-22)
(0.77856096 0.0012167492 -5.7469011e-22)
(0.80141074 0.0019411 1.9287159e-21)
(0.82196456 0.001185606 -2.9896495e-20)
(0.84410261 0.0027129207 -7.8774314e-21)
(0.86622607 0.0037085104 1.0226172e-20)
(0.88812329 0.0044562727 6.4602881e-21)
(0.90917443 0.0046885126 4.2073931e-20)
(0.92900794 0.004338532 2.0941261e-22)
(0.94895457 0.0041718722 0)
(0.96803781 0.0041319093 -2.546832e-20)
(0.98494518 0.0042713777 2.1292663e-20)
(0.99860107 0.0045873672 -1.3974879e-21)
(1.0068783 0.0042264454 8.7308075e-21)
(1.0083721 0.0024333253 -8.7889139e-21)
(1.0082066 -9.345179e-05 -4.0224411e-21)
(1.010473 -0.0023109314 -4.3649695e-21)
(1.0150469 -0.0042261289 5.5645167e-21)
(1.019721 -0.0055456701 4.8153155e-22)
(1.0227953 -0.0068022859 6.4905328e-22)
(1.0247563 -0.008084669 -1.972639e-21)
(1.0266046 -0.0089156533 1.620946e-21)
(1.0284246 -0.0092368396 -1.7506228e-21)
(1.0300828 -0.0090578918 0)
(1.0314823 -0.008435508 -4.1441404e-22)
(1.0325214 -0.0074547446 1.8246059e-22)
(1.0331505 -0.0062253913 8.6713451e-22)
(1.0333408 -0.0048652628 1.5353919e-22)
(1.0331125 -0.0034946032 8.8382317e-23)
(1.0325148 -0.0022133775 4.5122965e-22)
(1.0316189 -0.0011105259 0)
(1.0305362 -0.00023607771 6.0383596e-22)
(1.0293368 0.00037678859 5.7943828e-22)
(1.0281811 0.00070628071 3.2209972e-22)
(1.0270832 0.0008148631 -2.67466e-22)
(1.0262765 0.00058803445 1.1468924e-23)
(1.0256125 0.00032230315 9.0320826e-22)
(0.76322638 0.00030821152 7.0422706e-22)
(0.78523654 0.0011416538 -1.8418599e-22)
(0.80464409 0.0004686413 8.9767382e-21)
(0.82615846 0.0015806095 3.2791533e-22)
(0.84773577 0.0030233715 -4.487163e-20)
(0.86983245 0.0037271023 -4.7822084e-20)
(0.89173443 0.003844397 -1.6589506e-22)
(0.91293395 0.0036005755 3.2492264e-20)
(0.93288418 0.003215757 1.8557982e-22)
(0.95278836 0.0031724445 2.4921593e-20)
(0.97148259 0.003398349 -3.7355417e-23)
(0.98756707 0.0038147069 -1.1480803e-20)
(0.99994238 0.0041092474 -1.341847e-21)
(1.0063329 0.0031341003 -9.1510446e-21)
(1.0067718 0.00076046799 3.0670442e-20)
(1.0070004 -0.0021437962 4.4325057e-22)
(1.0104175 -0.0044804486 -3.5625262e-21)
(1.0158831 -0.0062165692 -1.8552551e-21)
(1.0207326 -0.0073651105 9.2700087e-23)
(1.0235223 -0.0086648331 -3.3095326e-22)
(1.0256236 -0.0097407587 6.9112817e-22)
(1.0276775 -0.010287363 -2.1253647e-21)
(1.0296083 -0.01029505 1.8806339e-21)
(1.0313093 -0.0098037 0)
(1.0326695 -0.0088888038 9.0216611e-22)
(1.0336196 -0.0076509656 1.7888084e-21)
(1.0341088 -0.006214584 -8.3176651e-22)
(1.0341391 -0.0046978296 1.5839175e-21)
(1.0337357 -0.0032274176 2.6661329e-23)
(1.0329716 -0.0018916097 -5.2194603e-22)
(1.0319219 -0.00077837901 -6.647448e-22)
(1.0307094 7.8343588e-05 -8.2467502e-24)
(1.0294051 0.00064938245 -4.1881902e-23)
(1.0281694 0.00092821072 4.2484039e-22)
(1.0270138 0.00097223408 -1.3272367e-22)
(1.0261685 0.00068931346 -3.634568e-23)
(1.0254841 0.00034871218 3.5927133e-22)
(0.74973808 -0.00061453609 -2.0498881e-22)
(0.77030839 0.00031480922 -1.5772568e-21)
(0.78830519 -0.00019889056 1.1538239e-20)
(0.80867917 0.00096185322 6.3147033e-21)
(0.8295508 0.002064308 -3.5699264e-22)
(0.85103821 0.0030887251 3.0366914e-22)
(0.87335013 0.0031232407 2.6278059e-20)
(0.8954389 0.0027358861 -1.2365057e-20)
(0.9168988 0.0024036514 0)
(0.9368703 0.0021828555 -5.6668345e-21)
(0.95659297 0.0024391018 0)
(0.97460777 0.0030177076 0)
(0.98964059 0.0035139787 -1.2159415e-20)
(1.0005027 0.0033848359 1.4628839e-21)
(1.0050859 0.0016051225 6.5115755e-21)
(1.0050585 -0.0013879116 8.6458632e-21)
(1.0061312 -0.0045207266 -1.0294026e-20)
(1.0108884 -0.0068101487 -3.4339434e-21)
(1.0172025 -0.0081961015 -1.308924e-21)
(1.021782 -0.0092962638 8.4211965e-23)
(1.0244389 -0.010533841 -1.228329e-21)
(1.0267379 -0.011329988 1.1620333e-21)
(1.0289442 -0.011548958 2.2918643e-22)
(1.0309499 -0.011222904 -8.1671092e-22)
(1.0326393 -0.010408893 -7.6422613e-23)
(1.0339287 -0.0092023462 4.1405554e-22)
(1.0347479 -0.0077199799 -1.0764492e-22)
(1.0350764 -0.0060901702 -9.9340789e-22)
(1.034922 -0.0044394157 -8.2176128e-23)
(1.0343354 -0.0028862032 -1.5999303e-21)
(1.0333958 -0.0015183879 -3.3304354e-22)
(1.0321934 -0.00040907671 -1.2878182e-22)
(1.0308527 0.0004156149 -7.1898392e-22)
(1.0294478 0.0009351494 1.5982463e-22)
(1.0281365 0.0011567909 -8.9240175e-22)
(1.0269279 0.0011323533 -1.9070691e-22)
(1.026047 0.00079129162 -3.1549492e-22)
(1.0253458 0.00037544442 0)
(0.7397513 -0.0015267056 -1.1340593e-21)
(0.75726846 -0.00059723449 -1.7578951e-22)
(0.77317876 -0.00077766778 2.9081215e-21)
(0.79209617 0.00041557322 5.1406957e-21)
(0.81182798 0.001318991 2.2702271e-20)
(0.8325744 0.0023736823 1.9279346e-20)