/*--------------------------------*- C++ -*----------------------------------*\
| =========                 |                                                 |
| \\      /  F ield         | OpenFOAM: The Open Source CFD Toolbox           |
|  \\    /   O peration     | Version:  5.0                                   |
|   \\  /    A nd           | Web:      www.OpenFOAM.org                      |
|    \\/     M anipulation  |                                                 |
\*---------------------------------------------------------------------------*/
FoamFile
{
    version     2.0;
    format      ascii;
    class       volSymmTensorField;
    location    "340";
    object      UPrime2Mean;
}
// * * * * * * * * * * * * * * * * * * * * * * * * * * * * * * * * * * * * * //

dimensions      [0 2 -2 0 0 0 0];

internalField   nonuniform List<symmTensor> 
9200
(
(0.00044133734 1.6771689e-05 -4.9645349e-26 1.3852073e-06 -3.7766656e-27 3.2246313e-47)
(0.00045169864 5.4843558e-05 1.5411608e-23 1.5652252e-05 1.9247976e-24 6.3862368e-43)
(0.00035175059 1.4331858e-05 0 1.340365e-06 0 0)
(0.00046771767 8.8048286e-05 -8.4041626e-24 4.0467685e-05 -1.6670613e-24 1.8354073e-43)
(0.00035943091 4.7017131e-05 1.1937724e-23 1.5408673e-05 1.7760667e-24 4.7579928e-43)
(0.00031073454 1.3230941e-05 0 1.2781419e-06 0 0)
(0.00049415199 0.00012397614 -8.3980175e-25 8.1379226e-05 -2.2001775e-25 1.7032202e-45)
(0.00037214816 7.4750226e-05 8.4132861e-26 3.9588455e-05 -7.9136939e-26 1.7139246e-45)
(0.00031798751 4.3002885e-05 0 1.4692375e-05 0 0)
(0.0002635629 1.138502e-05 0 1.1965598e-06 0 0)
(0.00052867734 0.00015852277 1.9045324e-23 0.00013611196 6.649373e-24 8.4023772e-43)
(0.00039316323 0.00010356559 1.2146588e-23 7.9288325e-05 4.6710897e-24 5.214215e-43)
(0.00032891372 6.8018588e-05 6.3274394e-24 3.756767e-05 1.8364972e-24 1.5235303e-43)
(0.00026959963 3.7078916e-05 3.3561232e-25 1.3919705e-05 6.9028845e-26 5.4274992e-46)
(0.0002277504 1.0056933e-05 2.0119129e-27 1.1273179e-06 3.6556925e-28 2.7820795e-49)
(0.00057444774 0.00019470847 1.850627e-23 0.00021209893 7.3077071e-24 7.1222056e-43)
(0.00042125226 0.00012966265 -3.6660931e-25 0.00013155102 2.7114634e-25 5.2705106e-45)
(0.00034705305 9.3596054e-05 2.155365e-23 7.4863429e-05 8.8493651e-24 1.7213862e-42)
(0.00027962882 5.8342429e-05 7.4916892e-24 3.5394465e-05 2.731988e-24 2.9454128e-43)
(0.00023375981 3.2552499e-05 1.2987807e-25 1.3109489e-05 9.916562e-26 2.0763284e-45)
(0.00019634431 8.706961e-06 -1.1086593e-23 1.0550403e-06 -8.5334017e-25 9.4551477e-43)
(0.00063163964 0.00023018404 2.4020777e-23 0.00031207855 1.3434949e-23 1.2786149e-42)
(0.00045936143 0.00015501003 1.8025604e-23 0.00020305906 8.0321705e-24 8.3043787e-43)
(0.00037136638 0.00011598359 -1.3213693e-23 0.00012327052 -6.5767325e-24 6.0005752e-43)
(0.00029672145 7.9620294e-05 -7.967779e-25 7.0226564e-05 -4.5298585e-25 3.8472189e-45)
(0.00024329979 5.0970199e-05 6.054092e-24 3.3110339e-05 2.1880367e-24 2.1335906e-43)
(0.00020194862 2.8134119e-05 5.294492e-24 1.2348749e-05 1.439152e-24 2.1995079e-43)
(0.00017069823 7.5614292e-06 7.5967276e-25 9.901564e-07 7.8113854e-26 6.9352403e-45)
(0.00070332856 0.00026414692 1.8208914e-23 0.00044470248 1.6668705e-23 1.1815547e-42)
(0.00050982497 0.00017730162 1.5947761e-23 0.0002956859 1.0374885e-23 6.8456456e-43)
(0.0004046068 0.00013670755 1.6113608e-23 0.00018851253 1.0687209e-23 9.2310752e-43)
(0.0003202038 9.7621674e-05 4.7738122e-25 0.00011487648 1.1802002e-24 2.4674635e-44)
(0.00025950135 6.9150724e-05 -1.525861e-23 6.5389319e-05 -8.2580754e-24 1.3977002e-42)
(0.00021109725 4.3968929e-05 -5.8069341e-24 3.1059267e-05 -2.6186351e-24 2.7476159e-43)
(0.00017623174 2.4361072e-05 -5.7781955e-24 1.162789e-05 -1.5609711e-24 3.2536245e-43)
(0.00014889766 6.5049056e-06 8.0971605e-24 9.3272501e-07 7.7895578e-25 8.6983087e-43)
(0.00079256513 0.0002942949 -3.4813633e-23 0.00061836793 -2.5862644e-23 2.2666092e-42)
(0.00057771335 0.00019589916 1.7044411e-23 0.00041724728 6.0456769e-24 5.8210005e-43)
(0.00044897265 0.00015341402 4.6139778e-25 0.00027127998 2.4953111e-24 4.0233432e-44)
(0.00035318215 0.00011368934 6.6498851e-24 0.00017452549 4.301633e-24 1.7443451e-43)
(0.00028186564 8.4183837e-05 3.6630434e-25 0.00010625998 2.2192013e-24 1.0422605e-43)
(0.00022682159 5.9497192e-05 -2.0234448e-23 6.1199379e-05 -1.1706926e-23 3.0115797e-42)
(0.00018516861 3.8070878e-05 2.9711527e-24 2.9111367e-05 3.4409403e-25 1.8615849e-43)
(0.00015423469 2.0902535e-05 -8.6357992e-24 1.1025311e-05 -2.6955449e-24 9.7307902e-43)
(0.00013125095 5.5741476e-06 -1.4950418e-23 8.8115595e-07 -1.6556722e-24 4.0738419e-42)
(0.00090197864 0.00031547271 2.9576787e-23 0.00084243237 3.1454171e-23 1.9843258e-42)
(0.00066932041 0.00020830604 -9.2678275e-24 0.00057493438 9.4964408e-24 5.986919e-43)
(0.00050904187 0.00016547943 -5.6340526e-25 0.00037743436 -1.5246792e-24 7.9631742e-45)
(0.00039818555 0.00012599095 3.0846278e-25 0.00024953712 -7.2606235e-24 4.0288934e-43)
(0.00031346221 9.7267786e-05 -2.0820686e-24 0.00016038993 -2.1356705e-24 3.3567241e-44)
(0.00024879863 7.2300853e-05 -1.4183233e-25 9.8978257e-05 3.0390634e-24 2.4290686e-43)
(0.00020045121 5.1491228e-05 6.2041336e-24 5.7246443e-05 4.037602e-24 3.6689564e-43)
(0.00016289602 3.2715632e-05 9.2825647e-24 2.7514465e-05 4.8016252e-24 1.1052174e-42)
(0.00013644438 1.7847278e-05 4.3331368e-24 1.0487256e-05 1.7488851e-24 3.4846523e-43)
(0.00011648348 4.7081046e-06 9.307497e-25 8.3685502e-07 1.3322881e-25 2.4032566e-44)
(0.0010340398 0.00032281201 -1.495799e-23 0.0011279906 -1.4640749e-23 3.7915812e-43)
(0.00079226234 0.00021014262 -2.8746475e-24 0.00077871438 2.0150755e-23 7.602024e-43)
(0.00059105301 0.00017098634 1.4635445e-23 0.00051213494 5.5559988e-24 4.1926339e-43)
(0.00046029716 0.00013426505 -1.0559013e-23 0.00034531964 -1.1275796e-23 4.8823625e-43)
(0.00035686399 0.00010687971 1.2335795e-23 0.00022768412 1.8235022e-24 7.090734e-43)
(0.00028002732 8.3475075e-05 -2.1977669e-23 0.00014874366 -1.4232035e-23 2.6851503e-42)
(0.00022178358 6.263549e-05 -2.0494131e-25 9.2235032e-05 8.079955e-25 2.2173329e-44)
(0.00017767963 4.4291339e-05 1.5460755e-23 5.4099789e-05 9.8003154e-24 2.7874225e-42)
(0.00014481814 2.8023512e-05 -6.5245771e-24 2.6098079e-05 -3.6089725e-24 7.2881104e-43)
(0.00012149916 1.4980042e-05 1.1398554e-23 1.0054085e-05 5.1662971e-24 3.3748513e-42)
(0.00010481509 3.9299527e-06 -1.5386096e-24 7.959697e-07 -2.315455e-25 9.4059594e-44)
(0.0011956995 0.00033570554 4.985851e-24 0.0015011019 -2.739596e-24 7.1274197e-44)
(0.00095165647 0.00019547905 1.5452904e-23 0.0010420304 -4.3370062e-23 2.927103e-42)
(0.00070320847 0.00016759789 -1.1746189e-23 0.00068482793 -2.0158336e-23 7.1638523e-43)
(0.00054639049 0.00013717983 0 0.0004667408 0 0)
(0.00041691318 0.00011297969 1.5751811e-26 0.00031301244 7.0846439e-25 2.212674e-45)
(0.00032303584 9.1944558e-05 1.9396474e-24 0.00021019979 -5.8933377e-24 3.7199385e-43)
(0.00025197066 7.251014e-05 -4.0799679e-24 0.00013820783 -2.8417967e-24 1.1488889e-43)
(0.0001983229 5.409694e-05 -8.1769364e-24 8.6985086e-05 -5.9699409e-24 6.9670778e-43)
(0.00015903194 3.8017319e-05 4.5971279e-25 5.1332142e-05 -1.350898e-24 1.5912931e-43)
(0.00012953356 2.3615585e-05 -6.966771e-24 2.497059e-05 -4.6725783e-24 1.1979701e-42)
(0.00010966668 1.2371221e-05 -3.8831706e-24 9.6615219e-06 -2.0787266e-24 5.8985323e-43)
(9.5433174e-05 3.1961496e-06 6.656882e-25 7.5918898e-07 1.3807701e-25 3.0056836e-44)
(0.0013621342 0.00035659844 3.0479778e-24 0.0019729425 1.0147317e-24 1.0402413e-44)
(0.0011550711 0.0001681014 -2.6119435e-23 0.0013884009 1.6974449e-23 1.1715958e-42)
(0.0008518928 0.00014936086 0 0.00090649332 0 0)
(0.00066607532 0.00013343149 0 0.00062245695 0 0)
(0.00049987579 0.00011468488 -7.6830361e-24 0.00042079556 -4.985401e-25 1.6247802e-43)
(0.00038244561 9.797106e-05 1.1119266e-23 0.00028789369 -7.5216426e-24 1.1592209e-42)
(0.00029332009 8.0321197e-05 -1.1794788e-23 0.00019471613 -2.682256e-24 8.6099681e-43)
(0.00022751757 6.3040914e-05 9.5652429e-24 0.00013011551 8.6261819e-24 8.6711826e-43)
(0.00017876942 4.6693519e-05 5.9977816e-25 8.2433285e-05 7.6172849e-25 7.6348206e-45)
(0.00014311925 3.2074933e-05 -5.6787849e-27 4.9184011e-05 1.3337641e-26 1.8973451e-47)
(0.00011734815 1.9603557e-05 7.1260907e-24 2.3959721e-05 5.4749503e-24 1.8736594e-42)
(0.00010013035 9.864739e-06 -6.1936672e-24 9.3286764e-06 -3.9482555e-24 2.5163906e-42)
(8.8382889e-05 2.5329658e-06 8.7126265e-24 7.2342931e-07 2.2551553e-24 9.2984183e-42)
(0.0014154815 0.00028797812 -4.9876932e-23 0.002476311 -6.9140403e-24 3.0629591e-42)
(0.0014063409 0.00014992561 6.5934468e-24 0.0018515077 -1.9570907e-24 4.5650695e-44)
(0.0010394818 0.00011289241 -3.6839127e-23 0.0011938936 6.2966572e-24 1.7652386e-42)
(0.00082776386 0.00011869978 2.4725204e-23 0.00082385331 -5.3224276e-24 1.0548881e-42)
(0.00061496902 0.00011159449 -1.4584278e-23 0.00055945308 2.7081889e-24 5.1520762e-43)
(0.00046414046 0.0001010359 4.9189131e-24 0.00038606646 -3.9506449e-24 1.6659844e-43)
(0.00035020135 8.6376085e-05 3.3324345e-24 0.00026604568 3.3568093e-24 6.383822e-44)
(0.00026732029 7.0629144e-05 -2.1672504e-25 0.00018296179 2.3252177e-25 1.3172074e-45)
(0.00020648834 5.4805551e-05 7.027697e-24 0.00012323385 9.9735416e-24 8.9508166e-43)
(0.00016187921 3.9621386e-05 5.0820867e-24 7.8983273e-05 7.5818387e-24 7.7915646e-43)
(0.00013027324 2.6628438e-05 1.9566125e-24 4.7276696e-05 2.0907527e-24 1.2888536e-43)
(0.00010746385 1.5717998e-05 4.0797006e-24 2.3113587e-05 4.3558574e-24 1.0395534e-42)
(9.2959587e-05 7.5554566e-06 2.0220762e-24 9.0030798e-06 1.9206055e-24 5.0459765e-43)
(8.317571e-05 1.9125053e-06 -1.6002133e-24 6.8877436e-07 -6.2242509e-25 7.4208771e-43)
(0.0013137877 6.3578826e-05 4.3709675e-23 0.0029453115 -1.4774359e-22 1.2029386e-41)
(0.0016364876 0.00011854419 2.7992048e-22 0.0024438134 -7.4864396e-23 6.7079448e-41)
(0.0012749211 7.3130909e-05 5.8205313e-24 0.0015713807 -2.0869404e-23 3.5227694e-43)
(0.0010335606 8.6149027e-05 -4.7081507e-24 0.0010866867 2.9954091e-24 3.8600468e-44)
(0.00077279195 0.00010152177 2.2688062e-24 0.00074048831 -1.9226403e-24 1.6040932e-44)
(0.0005768797 0.00010103334 -9.9046936e-24 0.00051276408 6.9763055e-24 4.0542323e-43)
(0.00042793737 9.0425958e-05 3.7495408e-24 0.00035616305 3.9380664e-24 6.7377513e-44)
(0.00032160072 7.7220447e-05 -3.7716455e-24 0.0002495934 -4.3488753e-24 1.0548982e-43)
(0.00024399198 6.2058929e-05 1.334605e-24 0.00017312907 -1.1706571e-24 4.7340523e-44)
(0.00018812602 4.6875056e-05 -4.1382057e-25 0.00011809866 -1.0830694e-24 1.056834e-44)
(0.00014797711 3.3070762e-05 -1.274272e-25 7.5969478e-05 -1.5729851e-25 4.7020597e-46)
(0.00011975546 2.1264609e-05 8.517839e-26 4.5717039e-05 -6.5115659e-25 3.005468e-44)
(9.9978259e-05 1.2120664e-05 -4.3275544e-24 2.2294713e-05 -5.8993092e-24 2.126871e-42)
(8.767739e-05 5.3416859e-06 1.4392126e-24 8.6925453e-06 1.9509242e-24 5.9741595e-43)
(7.9710426e-05 1.3584959e-06 -6.6170658e-25 6.5352975e-07 -4.7727312e-25 4.7597422e-43)
(0.0011851485 -0.00025899501 5.9458691e-23 0.0033530842 4.7296797e-23 1.110891e-41)
(0.0016854916 -1.4322644e-05 -1.8798867e-22 0.003083858 -1.5658701e-23 2.8659124e-41)
(0.0015487019 5.6615108e-05 9.3093793e-23 0.0020850636 -2.0714473e-23 7.2552557e-42)
(0.0012821688 4.0600865e-05 -6.5832389e-23 0.0014333385 3.3316127e-24 4.1543261e-42)
(0.00097762109 7.6895199e-05 3.8178384e-23 0.00097948628 -2.300674e-24 1.8349184e-42)
(0.00073172639 9.6896872e-05 -3.2436343e-23 0.00067954742 -1.3528034e-23 1.8506073e-42)
(0.00053447985 9.2419818e-05 3.0183777e-23 0.00047271295 -1.8034383e-24 2.3449328e-42)
(0.00039522961 8.268722e-05 -1.1638571e-24 0.00033367683 7.1345872e-25 9.2280916e-45)
(0.00029493203 6.8846513e-05 -3.0482749e-24 0.00023591701 -2.6715124e-24 6.40274e-44)
(0.0002234015 5.3754097e-05 3.4737803e-24 0.00016586096 -2.6268642e-24 3.3839532e-43)
(0.00017257434 3.9373054e-05 -1.5643548e-23 0.00011369373 -2.0826417e-23 5.7276801e-42)
(0.00013645051 2.6482468e-05 4.3075767e-24 7.3574091e-05 4.582809e-24 7.8189249e-43)
(0.00011169445 1.6237765e-05 1.532822e-24 4.4210488e-05 2.674849e-24 2.3153884e-43)
(9.4445272e-05 8.6339374e-06 3.0929391e-25 2.1523135e-05 8.5495691e-25 3.6648726e-44)
(8.4187813e-05 3.3207934e-06 -4.4916238e-26 8.364024e-06 7.1539765e-26 4.9899497e-45)
(7.7663765e-05 8.5640418e-07 6.5209963e-26 6.1767898e-07 5.269259e-25 6.129346e-43)
(0.0011616578 -0.00060396329 0 0.0036935357 0 0)
(0.0016410301 -0.0002530288 -2.6856985e-22 0.003726685 4.6717377e-23 6.4898132e-41)
(0.001690875 -1.090243e-06 -2.9335027e-24 0.0027060557 6.5971637e-23 1.8904826e-42)
(0.0015689813 1.5703816e-05 0 0.001909628 0 0)
(0.0012230177 3.2163497e-05 0 0.0012985016 0 0)
(0.00093642602 8.2116297e-05 0 0.00090272348 0 0)
(0.00068109005 9.2240374e-05 -4.0387719e-24 0.00062692497 2.822047e-24 4.9119372e-44)
(0.00049541958 8.6967208e-05 1.1419354e-23 0.00044235386 1.0141823e-23 4.7512371e-43)
(0.00036369753 7.5134491e-05 -1.3628979e-23 0.0003149734 7.1486065e-24 1.3376422e-42)
(0.00027090097 6.0593365e-05 7.2711203e-24 0.00022586457 8.3716933e-24 5.1617923e-43)
(0.00020536578 4.5581688e-05 -1.076665e-24 0.00015974379 7.5581817e-25 3.7619243e-44)
(0.00015949955 3.1630598e-05 2.6283019e-24 0.00011028467 4.6959747e-24 2.693067e-43)
(0.00012744847 2.0201414e-05 -3.245577e-25 7.1287381e-05 -1.9497461e-25 8.4683223e-45)
(0.00010570551 1.1274224e-05 -1.1249513e-24 4.2806226e-05 -3.1295347e-24 3.0525017e-43)
(9.0775047e-05 5.4356783e-06 -5.3624572e-26 2.0710374e-05 -5.6484464e-25 1.6325165e-44)
(8.2184365e-05 1.438675e-06 -9.4239868e-27 8.0207929e-06 -9.7138175e-25 1.5604943e-43)
(7.6869266e-05 4.2179299e-07 0 5.8071612e-07 0 0)
(0.0013773703 -0.00089611753 4.3826336e-23 0.0039937247 -8.8383693e-23 1.9064566e-41)
(0.0015824387 -0.00056151302 3.5134967e-22 0.0043456657 2.6003161e-23 1.4608141e-40)
(0.0016924192 -0.00016464751 -5.0478949e-22 0.0033633612 4.8563349e-23 2.0573012e-40)
(0.0017753684 -7.6551831e-06 -2.3066255e-22 0.0025351681 5.2198832e-23 3.7784228e-41)
(0.001510252 -4.8161954e-06 -1.5086684e-22 0.0017392165 1.5237172e-23 1.7898059e-41)
(0.0011831693 4.2981912e-05 0 0.0012026864 0 0)
(0.0008790513 8.5619066e-05 -6.1435569e-23 0.00083544951 1.4818055e-23 5.4956973e-42)
(0.00063293385 9.0111828e-05 1.209473e-23 0.00058610776 -6.5750079e-24 4.1643526e-43)
(0.0004567765 8.0828817e-05 3.5003178e-23 0.00041692498 6.6938102e-24 3.6990457e-42)
(0.00033460426 6.7422924e-05 -1.5347435e-23 0.00030113783 7.0098402e-24 1.9050324e-42)
(0.00024930842 5.2054183e-05 -3.621814e-24 0.00021747914 -5.1843629e-24 1.8430287e-43)
(0.00019000244 3.6929686e-05 -1.1281885e-24 0.00015510622 8.0792977e-25 5.1511153e-44)
(0.00014903188 2.4077392e-05 5.2635631e-24 0.0001070751 9.3677378e-24 1.4919131e-42)
(0.00012068143 1.385855e-05 -4.026302e-24 6.9197952e-05 -1.3139019e-23 3.2648643e-42)
(0.00010170328 6.6669524e-06 -1.005839e-25 4.1310919e-05 -2.4690233e-24 1.5631855e-43)
(8.8697596e-05 2.4222874e-06 -8.7248208e-26 1.9865542e-05 -1.0669209e-23 7.8192502e-42)
(8.1490788e-05 -2.3186286e-07 8.9787272e-25 7.6488438e-06 -2.5996425e-24 1.1319741e-42)
(7.7068663e-05 4.94142e-08 1.4848348e-24 5.4281222e-07 -6.3679475e-25 1.0524658e-42)
(0.0019624088 -0.0010545224 -6.6922474e-25 0.0042626024 1.7590298e-24 1.3357751e-43)
(0.0016346376 -0.00090418339 1.7494733e-22 0.0049201761 -6.2678042e-23 4.6433108e-41)
(0.0016467186 -0.00040019944 5.5101847e-23 0.0040498284 5.7721483e-23 4.5186629e-42)
(0.0018288577 -0.00012441636 -2.7211385e-22 0.0032287343 -1.5273935e-24 5.256285e-41)
(0.0017556543 -2.0123637e-05 2.7882534e-23 0.0023478849 -3.1708024e-24 5.3481872e-43)
(0.0014666856 -9.2830048e-06 -1.676923e-23 0.0016151281 -5.0332812e-23 2.1408759e-42)
(0.0011246717 5.6285396e-05 1.2138658e-22 0.0011180297 -6.8748663e-23 2.0297317e-41)
(0.00082164341 8.9992053e-05 1.1121876e-22 0.0007813767 -2.3955019e-23 1.9102123e-41)
(0.00058414912 8.6048358e-05 2.3490574e-23 0.00055146316 -5.6695708e-24 1.3766558e-42)
(0.0004204639 7.421883e-05 -8.261745e-24 0.00039776477 -1.3780148e-23 6.1069376e-43)
(0.00030796829 5.8880037e-05 3.0862868e-24 0.00028963093 -1.2754749e-24 9.1476585e-44)
(0.00023054541 4.2679859e-05 -8.2909979e-24 0.00021122771 -1.2468895e-23 1.232931e-42)
(0.00017733031 2.8189982e-05 4.1270237e-24 0.00015083228 3.778537e-24 5.2175038e-43)
(0.00014103756 1.6249255e-05 -1.7311968e-25 0.00010420767 8.1718679e-25 1.329933e-44)
(0.00011606923 7.8728834e-06 -1.4237851e-25 6.6962167e-05 1.1697993e-24 2.9149328e-44)
(9.9477874e-05 2.2456307e-06 2.9431744e-26 3.9749544e-05 2.4282293e-24 2.0445541e-43)
(8.8015242e-05 -2.6077441e-07 7.8803335e-25 1.894864e-05 -3.5644154e-24 9.2082769e-43)
(8.1854711e-05 -1.7090365e-06 -3.7914307e-26 7.2512455e-06 8.6042531e-26 3.5512456e-45)
(7.808625e-05 -2.5426001e-07 2.0332179e-24 5.0420609e-07 -5.7439323e-25 9.6267591e-43)
(0.002947534 -0.001099602 -1.8774779e-23 0.0045580686 2.1276047e-23 5.5142695e-42)
(0.0020117978 -0.0011661898 -1.6852683e-22 0.0054815884 4.3448003e-23 5.4139228e-41)
(0.001656518 -0.00068795785 8.2368158e-22 0.0047300901 4.2741856e-23 8.8310837e-40)
(0.0018165846 -0.00031467581 1.4416863e-22 0.0039754015 -5.6767308e-23 1.6553215e-41)
(0.0018652189 -9.8189286e-05 -7.7612583e-23 0.0030701177 -5.660347e-23 5.5510505e-42)
(0.0017365574 -3.8465899e-05 -7.7086792e-24 0.0022021012 -3.6587911e-23 7.8157679e-43)
(0.0014048362 -5.1791337e-06 -3.0032347e-23 0.0015043867 5.0837752e-24 7.4784214e-43)
(0.0010650507 7.2438424e-05 -4.4860497e-23 0.0010487384 -2.6135673e-23 2.7442332e-42)
(0.00076041454 9.0105113e-05 1.5138183e-23 0.00073405372 -3.0035852e-24 3.8797011e-43)
(0.00053758285 8.0980765e-05 5.4998714e-23 0.00052452079 3.23891e-24 7.5451157e-42)
(0.00038677745 6.6080857e-05 -1.8355958e-23 0.00038177391 -2.1606155e-23 2.1920037e-42)
(0.00028432359 4.9029248e-05 -3.6791647e-25 0.00028108968 4.0533905e-24 7.7189311e-44)
(0.00021470569 3.2809104e-05 2.0836197e-24 0.00020559131 6.3342971e-24 2.2699374e-43)
(0.00016746025 1.8879886e-05 -6.4473745e-26 0.00014711835 -4.6568938e-25 1.5685312e-45)
(0.00013543492 8.7091963e-06 -3.6917301e-25 0.00010112816 6.5085118e-25 2.2999657e-44)
(0.00011348475 2.0076626e-06 3.5893545e-25 6.46282e-05 1.060272e-23 2.4996531e-42)
(9.8789037e-05 -1.7262417e-06 1.1711436e-25 3.8028066e-05 -1.9311269e-24 2.2486719e-43)
(8.8504426e-05 -2.6578899e-06 -2.6898562e-24 1.7968457e-05 5.8583316e-24 2.5373394e-42)
(8.309078e-05 -2.9547602e-06 -9.5299458e-25 6.8271112e-06 9.3390144e-25 1.65731e-43)
(7.9708507e-05 -4.9164938e-07 -2.7639857e-24 4.6516444e-07 5.7362592e-25 1.0641071e-42)
(0.0040708479 -0.0011135376 1.3123885e-24 0.0048637299 4.5657644e-23 7.9356641e-43)
(0.0028828438 -0.0013028552 -3.167546e-22 0.006096915 1.4725879e-22 1.2968452e-40)
(0.001925703 -0.00095366202 -1.0530376e-22 0.0054068831 2.6927954e-22 2.2692374e-41)
(0.001806295 -0.00056984021 -2.3293091e-22 0.0047578806 -8.745662e-24 5.3849997e-41)
(0.0018971218 -0.00025484542 4.9212336e-23 0.0038692288 -1.1735619e-22 5.5683669e-42)
(0.0018939715 -0.00010111202 1.5577927e-22 0.0029436246 1.1528463e-23 1.6048941e-41)
(0.0016963636 -5.9809261e-05 -3.2866319e-22 0.0020600276 3.4755512e-23 7.4373676e-41)
(0.0013472811 1.1624303e-05 -3.983474e-22 0.001411335 6.2000837e-23 1.3572228e-40)
(0.00099658023 8.3386667e-05 2.0310722e-23 0.00098653405 4.7508445e-23 3.0106928e-42)
(0.00070012563 8.7636215e-05 0 0.00069561625 0 0)
(0.00049392888 7.3618137e-05 1.5971654e-23 0.00050187776 1.8257089e-23 1.2143007e-42)
(0.00035631336 5.6062611e-05 -1.2182628e-23 0.00036978195 3.715003e-24 1.0488045e-42)
(0.00026398833 3.8152946e-05 -1.142013e-23 0.00027355436 -1.3575538e-23 1.7998877e-42)
(0.0002020562 2.1993172e-05 6.608356e-24 0.00020083605 6.5431439e-24 1.2743762e-42)
(0.00016028852 9.6822203e-06 -8.1162998e-25 0.00014314549 -6.0297488e-24 3.0536369e-43)
(0.0001322032 1.1521038e-06 5.2008562e-25 9.7918194e-05 1.0705197e-23 1.6484407e-42)
(0.00011264647 -3.3333077e-06 -4.5132343e-25 6.2016634e-05 9.5141256e-25 4.1436624e-44)
(9.9481108e-05 -5.3403974e-06 8.7621363e-25 3.6166795e-05 -2.8400112e-24 3.5510405e-43)
(8.9952939e-05 -4.6832094e-06 -2.3076072e-24 1.6920087e-05 3.4466995e-24 1.0122309e-42)
(8.4977478e-05 -3.9723628e-06 -2.6713201e-25 6.3817542e-06 1.8383628e-25 5.9540749e-45)
(8.1768491e-05 -6.6226421e-07 -3.1207286e-24 4.2624728e-07 5.1127384e-25 9.6440835e-43)
(0.0051809242 -0.0011535757 1.8914886e-22 0.0051677199 1.1338451e-22 2.5562751e-41)
(0.004069823 -0.0014206214 -4.0727914e-22 0.0067994475 1.1802553e-22 9.7628408e-41)
(0.0026860883 -0.0011426783 -3.5000386e-22 0.0061340572 -4.8743525e-23 1.6623933e-40)
(0.0019813276 -0.0008147497 3.5702343e-22 0.0055673481 1.7158267e-22 1.829272e-40)
(0.0019156206 -0.00048235545 3.2474537e-22 0.0047420555 -1.2432151e-23 9.0980346e-41)
(0.0019730963 -0.00023916369 -2.3141883e-23 0.0037880675 -8.150417e-23 2.6307641e-42)
(0.0019020763 -0.00012198877 0 0.0028037813 0 0)
(0.0016580033 -7.0559905e-05 -7.2219844e-24 0.0019296041 -1.0801629e-22 7.3880429e-42)
(0.0012814578 3.4680101e-05 9.1397671e-23 0.0013292186 -4.3427588e-23 9.2395675e-42)
(0.00092445099 8.9228645e-05 1.1543823e-22 0.00093307122 3.0193346e-23 1.6591853e-41)
(0.00064246278 8.1496428e-05 -1.9444409e-24 0.00066281587 1.5178441e-23 4.5520168e-43)
(0.00045395183 6.3763595e-05 -1.0325383e-23 0.00048448884 7.5589539e-25 4.1968109e-43)
(0.0003296645 4.4366076e-05 1.8669038e-24 0.00035939773 -5.8765223e-25 3.1705597e-44)
(0.00024728834 2.5829055e-05 2.2682493e-24 0.00026737254 6.6378769e-24 2.2039825e-43)
(0.00019252658 1.0973007e-05 -2.9972423e-24 0.00019582255 -6.8814488e-24 5.8723085e-43)
(0.00015593492 2.426221e-07 1.0604305e-24 0.00013903516 6.0116612e-24 5.1580031e-43)
(0.00013101707 -5.8488292e-06 1.3714074e-25 9.4269333e-05 -1.4068772e-24 2.8128195e-44)
(0.00011348308 -8.2934273e-06 -1.9061257e-24 5.916284e-05 6.9453391e-24 1.1282701e-42)
(0.00010126517 -8.4154729e-06 -6.9242656e-25 3.4149189e-05 1.07944e-24 4.0437292e-44)
(9.2139226e-05 -6.3488751e-06 -1.3976309e-25 1.5817045e-05 1.3004681e-25 1.3732498e-45)
(8.7339096e-05 -4.7506696e-06 -1.8812479e-24 5.9210939e-06 1.1284988e-24 3.1058487e-43)
(8.4099126e-05 -7.692826e-07 0 3.8800657e-07 0 0)
(0.0062333061 -0.001219261 1.1216458e-22 0.0055124171 1.288964e-22 1.033334e-41)
(0.0051604616 -0.0016617066 3.124917e-22 0.0075594822 -5.1474062e-23 3.877312e-41)
(0.0039121109 -0.0012716024 1.1091179e-23 0.0069992719 -5.9646948e-23 6.224422e-43)
(0.0026114608 -0.00098302512 4.1165552e-22 0.0064448305 -2.1842674e-23 1.9015223e-40)
(0.0020724319 -0.00072765459 2.4227241e-22 0.0056774381 -1.512972e-22 5.7874882e-41)
(0.0020341988 -0.00045272435 -1.6477461e-22 0.0047351503 -2.6387868e-23 2.1763364e-41)
(0.0020285475 -0.00024922167 5.0749552e-24 0.0036859005 2.3512109e-22 1.8030639e-41)
(0.0019091108 -0.00015150001 -3.9365427e-22 0.0026574902 -3.158293e-23 9.9569034e-41)
(0.0016014805 -6.6914834e-05 -7.0116963e-23 0.0018076792 -3.0948905e-23 4.2223551e-42)
(0.0012103948 5.9267234e-05 -1.7017533e-23 0.0012597051 3.2592644e-24 2.8490415e-43)
(0.0008511328 8.7940385e-05 2.4546292e-24 0.00088528686 -9.0784269e-25 1.0603935e-44)
(0.00058899762 7.2073043e-05 3.53179e-23 0.00063689018 -6.882126e-24 3.4014806e-42)
(0.00041851026 5.1485473e-05 -1.6568234e-24 0.00046962608 -2.4331414e-24 2.1855136e-44)
(0.00030723595 3.0607996e-05 -7.5379781e-24 0.00035103176 1.5439123e-23 1.7149029e-42)
(0.00023430619 1.2865857e-05 3.1618282e-24 0.00026102053 1.675147e-23 1.3240157e-42)
(0.00018636734 -5.9864156e-07 1.5989422e-24 0.00019071147 1.3494483e-23 1.3708556e-42)
(0.00015403751 -8.6870378e-06 4.442826e-25 0.0001342963 -1.3987866e-24 2.1356451e-44)
(0.00013190318 -1.2488491e-05 3.3038239e-24 9.0238109e-05 -1.4943933e-23 3.4534498e-42)
(0.00011559949 -1.2557917e-05 1.3769379e-25 5.6024338e-05 -4.5133715e-25 9.6932929e-45)
(0.00010395583 -1.09886e-05 -2.0007557e-24 3.2002392e-05 2.930764e-24 3.776295e-43)
(9.4869139e-05 -7.6223769e-06 0 1.4673513e-05 0 0)
(8.9995511e-05 -5.2954983e-06 4.7666687e-24 5.4526208e-06 -2.3780778e-24 1.5502844e-42)
(8.6560425e-05 -8.1619693e-07 9.0269139e-26 3.5107945e-07 -8.5706554e-27 2.9234534e-46)
(0.0070846517 -0.0012921091 -6.0740473e-22 0.005881063 -1.8826012e-22 1.4059298e-40)
(0.0061484997 -0.0020391565 1.06251e-21 0.0083872459 1.8495054e-22 3.9786974e-40)
(0.0050220163 -0.0014867826 -7.407336e-22 0.0079874762 -1.7558543e-22 2.335887e-40)
(0.0038068025 -0.0010803813 -1.9412007e-22 0.007484865 -2.213214e-22 3.7801512e-41)
(0.0026364449 -0.00090571972 3.8508137e-22 0.0067085095 1.8373337e-22 1.7548964e-40)
(0.0021950858 -0.00070545582 0 0.0057810461 0 0)
(0.0021500351 -0.00045071668 -4.7247657e-24 0.0046945125 7.3883651e-23 1.3699444e-42)
(0.0020864741 -0.00027726993 -1.3693047e-22 0.0035667518 -1.368381e-22 1.9873794e-41)
(0.0019051373 -0.00017985432 -2.7450523e-22 0.0025012024 1.2067257e-23 4.7283498e-41)
(0.0015412774 -4.2112664e-05 -2.7422374e-22 0.0017023206 8.1855921e-23 5.9693041e-41)
(0.0011316354 7.5579523e-05 6.2217937e-23 0.0011964013 3.4924641e-23 4.652418e-42)
(0.00078021036 8.0734757e-05 4.1569993e-23 0.00084572397 7.4484978e-24 2.7493883e-42)
(0.00054112576 5.9453836e-05 -2.8157309e-23 0.00061487321 -1.0431434e-23 2.3387922e-42)
(0.00038803677 3.6464184e-05 1.1718105e-23 0.00045771921 1.7941959e-23 1.3576124e-42)
(0.00028929513 1.5634588e-05 -1.1028139e-23 0.00034275247 -2.3171472e-23 3.0659014e-42)
(0.00022535727 -1.060878e-06 -3.690376e-24 0.00025471022 -3.2458331e-23 5.3682525e-42)
(0.00018321691 -1.1808658e-05 2.485693e-24 0.0001847727 3.1242597e-24 7.4282696e-43)
(0.00015472785 -1.7338821e-05 1.2024004e-24 0.00012901259 -6.9930992e-24 5.3508827e-43)
(0.00013435686 -1.8283617e-05 -5.5541285e-24 8.5732579e-05 1.6768921e-23 5.0709636e-42)
(0.00011890168 -1.6205647e-05 1.6472646e-24 5.2641075e-05 -3.4396665e-24 5.1821801e-43)
(0.00010729876 -1.2972778e-05 5.079357e-24 2.97535e-05 -6.0012591e-24 1.8125605e-42)
(9.7944245e-05 -8.5134165e-06 -4.8347257e-24 1.3508348e-05 3.6006773e-24 1.5475672e-42)
(9.2796725e-05 -5.6131713e-06 3.2955561e-24 4.9844166e-06 -1.4280466e-24 6.8842865e-43)
(8.9030406e-05 -8.067608e-07 8.0759676e-26 3.1587003e-07 -6.3321377e-27 1.9122666e-46)
(0.0077920054 -0.0013838246 -1.6144576e-22 0.0062546224 -2.7007478e-22 2.7310884e-41)
(0.0071345751 -0.002354516 1.077029e-21 0.0092618917 6.2704389e-23 3.3582786e-40)
(0.0059352235 -0.0017905756 1.8418916e-22 0.0090742483 -3.6676741e-22 2.4470726e-41)
(0.0050219144 -0.0012293133 1.6899543e-21 0.0087120074 3.489406e-22 1.1224679e-39)
(0.0038081311 -0.0010059157 -2.7750839e-22 0.0079367352 -2.7822039e-22 6.9826114e-41)
(0.0027100249 -0.00090051004 4.6699759e-22 0.0069495258 2.2265623e-22 2.2779312e-40)
(0.0023491269 -0.00070771103 -1.1895066e-23 0.0058400384 9.1402573e-23 1.6667435e-42)
(0.002272555 -0.00047216615 5.5773264e-22 0.0046295805 1.0050131e-22 2.1444279e-40)
(0.0021445248 -0.00031359357 -5.8216549e-23 0.0034212808 -1.2651157e-22 8.4413498e-42)
(0.0018971005 -0.00019062608 -1.377681e-22 0.0023469748 -1.4485994e-23 1.2193108e-41)
(0.0014723388 -5.9625154e-06 3.3409232e-23 0.0016139729 6.4394514e-23 3.8757298e-42)
(0.0010478544 8.1071485e-05 -1.2232301e-22 0.0011400461 2.1115303e-24 1.6983315e-41)
(0.00071480353 6.8251892e-05 1.8102847e-23 0.00081194969 1.8674261e-23 9.6892896e-43)
(0.00049932738 4.3325908e-05 2.6066033e-24 0.00059710924 -4.7809405e-25 2.8505164e-44)
(0.00036302173 1.9472909e-05 -2.5689385e-24 0.00044640821 -2.3051519e-23 1.3817315e-42)
(0.00027617527 -8.3246671e-07 -1.4804597e-24 0.00033479238 -2.7839478e-24 7.0138723e-44)
(0.00022014248 -1.4902843e-05 6.8937861e-25 0.00024740954 7.9079276e-25 3.0528288e-44)
(0.0001833055 -2.289592e-05 1.5966925e-24 0.00017811774 -1.323088e-23 1.4057861e-42)
(0.00015740699 -2.503779e-05 0 0.0001230034 0 0)
(0.0001383888 -2.3352961e-05 8.9776404e-25 8.0806787e-05 -1.6938551e-24 4.3153711e-44)
(0.0001229967 -1.9048725e-05 2.8288377e-25 4.9058175e-05 -3.7491015e-25 3.6203324e-45)
(0.00011108472 -1.438754e-05 -5.5787242e-25 2.7439911e-05 5.2199598e-25 1.3156715e-44)
(0.00010119639 -9.0259411e-06 -3.6119797e-26 1.2342278e-05 -1.6798946e-26 4.1401624e-45)
(9.5609124e-05 -5.717665e-06 -5.326948e-24 4.5243279e-06 1.9724159e-24 1.4142972e-42)
(9.1409965e-05 -7.4552702e-07 -2.5677375e-24 2.8320056e-07 2.1689445e-25 3.509589e-43)
(0.0084209306 -0.0014917083 5.1830421e-22 0.0066167509 2.4004735e-22 1.0561988e-40)
(0.0080274265 -0.0026557637 -6.7027538e-22 0.010168733 2.4038471e-23 1.1895788e-40)
(0.0067817172 -0.0021217377 -3.4728978e-22 0.010254381 2.1960366e-23 3.4708196e-41)
(0.0059756958 -0.0015183219 -2.3968448e-22 0.01007439 -4.5818303e-23 1.8583206e-41)
(0.0051650174 -0.0011469796 -1.3786118e-21 0.0094167182 -3.6297041e-22 7.4545254e-40)
(0.0038472293 -0.0010056376 -1.147366e-22 0.0083472577 2.0824191e-22 1.1077402e-41)
(0.0028519482 -0.00091966709 -2.0324505e-23 0.0071396654 1.2125275e-22 2.3860157e-42)
(0.0025282489 -0.00073314484 -3.4001881e-23 0.005865643 -1.5145661e-23 9.5154532e-43)
(0.0023915073 -0.00051020024 -4.2832083e-22 0.0045300432 -7.1663234e-23 1.1906355e-40)
(0.0022062777 -0.00034910433 -2.7825621e-23 0.0032540613 1.3684578e-22 6.8958734e-42)
(0.0018701785 -0.00017457505 -1.4803282e-22 0.0022039824 -4.3482734e-23 1.5333279e-41)
(0.0013927749 3.0245816e-05 2.466005e-23 0.0015422925 -3.3427867e-24 5.1912239e-43)
(0.00096394318 7.504032e-05 5.290415e-23 0.0010887097 -1.0697547e-24 3.6829438e-42)
(0.00065663667 5.1090888e-05 -2.546272e-24 0.00078440942 -9.7120641e-24 1.5047335e-43)
(0.00046424423 2.4410774e-05 8.4083331e-24 0.00058085142 -1.9357715e-24 3.8212135e-43)
(0.00034379932 3.2703414e-07 2.8151324e-25 0.00043592262 3.2732589e-23 2.8489588e-42)
(0.00026770598 -1.7643834e-05 -8.7753743e-24 0.00032576859 3.683009e-23 5.4779496e-42)
(0.00021896492 -2.8877751e-05 -1.4618887e-24 0.00023925104 2.2390282e-23 3.0425679e-42)
(0.00018597501 -3.2988751e-05 -6.5415737e-24 0.00017042538 2.7117798e-23 6.120976e-42)
(0.00016217912 -3.1926391e-05 -1.9079729e-25 0.00011634177 3.001498e-25 1.1555026e-45)
(0.0001434242 -2.7365734e-05 1.1190677e-23 7.5524001e-05 -1.7714266e-23 5.7055446e-42)