/*--------------------------------*- C++ -*----------------------------------*\
| =========                 |                                                 |
| \\      /  F ield         | OpenFOAM: The Open Source CFD Toolbox           |
|  \\    /   O peration     | Version:  5.0                                   |
|   \\  /    A nd           | Web:      www.OpenFOAM.org                      |
|    \\/     M anipulation  |                                                 |
\*---------------------------------------------------------------------------*/
FoamFile
{
    version     2.0;
    format      ascii;
    class       volScalarField;
    location    "260";
    object      p;
}
// * * * * * * * * * * * * * * * * * * * * * * * * * * * * * * * * * * * * * //

dimensions      [0 2 -2 0 0 0 0];

internalField   nonuniform List<scalar> 
9200
(
0.001026308
0.0010412186
0.0026689864
0.0010523563
0.0027041311
0.0044381028
0.0010776938
0.002741511
0.0044912998
0.0060410693
0.0011007808
0.0028114218
0.004554911
0.0061080893
0.0076138091
0.001125762
0.0028925419
0.0046638506
0.0061931626
0.0076930799
0.009078787
0.0011432662
0.0029932109
0.0047937333
0.0063331971
0.0077967124
0.0091675652
0.010456255
0.0011512757
0.0031036934
0.0049517283
0.0065036253
0.0079634511
0.0092854748
0.010552018
0.011741599
0.0011515917
0.0032172543
0.0051300453
0.0067125433
0.0081682374
0.0094716145
0.010680098
0.011842693
0.012940852
0.0011334731
0.0033085468
0.0053285652
0.0069587521
0.0084200301
0.0096994541
0.010878327
0.011978595
0.013046253
0.014057541
0.0010572514
0.0033661703
0.0055339078
0.0072459102
0.0087204493
0.0099752995
0.011117802
0.012185294
0.01318884
0.014166405
0.015096261
0.00086473742
0.0034463558
0.0057345558
0.0075767107
0.0090748718
0.010298831
0.011400822
0.012432874
0.013403095
0.01431488
0.015207841
0.01606135
0.00053314647
0.0035138491
0.0059387818
0.0079758847
0.0094943987
0.010674074
0.01172286
0.01272017
0.013659206
0.014535884
0.015361659
0.016174883
0.016957162
5.8574862e-05
0.0034933127
0.0061397159
0.0084427009
0.0099952859
0.011111824
0.012081907
0.013038794
0.013951094
0.01479971
0.015588703
0.016333755
0.017071738
0.017788013
-0.00056883732
0.0033361532
0.0062983176
0.0089663307
0.010588151
0.011631131
0.012489231
0.013383978
0.01426663
0.015094994
0.015860389
0.016567182
0.017235179
0.017902499
0.018558301
-0.0013673389
0.0030076707
0.0063663181
0.0095410463
0.011295648
0.012241326
0.01293417
0.013749157
0.014590387
0.015407925
0.016163683
0.016848286
0.017474764
0.018069399
0.018671334
0.019272488
-0.0023521923
0.0024364774
0.0062792647
0.010154502
0.012143807
0.012966691
0.0134455
0.014062609
0.014896503
0.015717697
0.016485403
0.017166049
0.017767132
0.018313608
0.018840023
0.019382536
0.019935022
-0.0035379651
0.0015955071
0.005968212
0.010792869
0.013161556
0.01383487
0.014037639
0.01437321
0.015173482
0.015996812
0.016804448
0.017508336
0.018101641
0.018616447
0.019086303
0.019550978
0.0200405
0.020550285
-0.0054917351
0.00044243909
0.0053537946
0.011460562
0.014383682
0.014877515
0.014717548
0.014715577
0.015375784
0.016250122
0.017095431
0.017855297
0.018471441
0.018967663
0.019396176
0.019796005
0.020206452
0.02064963
0.021122618
-0.0075032177
-0.0011071405
0.0043294982
0.012153545
0.015817848
0.016125838
0.015510614
0.015059682
0.015461387
0.016424322
0.017358386
0.018195877
0.018861297
0.019365234
0.019760708
0.020108433
0.02044655
0.020810746
0.021214298
0.021656254
-0.0097740337
-0.0034460888
0.0027818493
0.012780789
0.017444207
0.017597246
0.016440814
0.01538992
0.015434459
0.016449258
0.01755347
0.018527028
0.019273438
0.019800362
0.020179798
0.020479736
0.020756545
0.021042176
0.021368269
0.021738835
0.022155096
-0.013026139
-0.0068721236
0.0005233416
0.013178598
0.019257865
0.019296478
0.017518496
0.015698268
0.015257414
0.016283502
0.017632121
0.018812181
0.019696333
0.020276187
0.02064978
0.020912335
0.021127589
0.021344712
0.021587468
0.021883547
0.022227356
0.022622766
-0.016157139
-0.011349349
-0.0026694626
0.013168275
0.02136579
0.021210749
0.018755773
0.015972696
0.014869311
0.015865211
0.01753756
0.01902515
0.020114629
0.020785731
0.021173258
0.021403656
0.021563886
0.021708792
0.021877822
0.022087286
0.02236079
0.022683567
0.023062886
-0.018751593
-0.016030222
-0.0062111782
0.012620703
0.023913977
0.023319776
0.02015083
0.016203141
0.014203254
0.015106573
0.017200284
0.019129919
0.020516877
0.021332483
0.021752135
0.021957538
0.02206299
0.022139804
0.022228812
0.022361113
0.022545932
0.022803626
0.023111244
0.023478957
-0.020897088
-0.020480999
-0.010072982
0.011686368
0.026977013
0.02556106
0.021672796
0.016376901
0.013169948
0.013891354
0.016542864
0.019088417
0.020890303
0.021917538
0.022394126
0.022578382
0.022628432
0.02263457
0.022646903
0.022693499
0.022799104
0.02296695
0.023216126
0.023514631
0.023873888
-0.022652708
-0.0250301
-0.014134605
0.010677517
0.030073278
0.027895011
0.023256347
0.016466823
0.011663138
0.012054632
0.015470842
0.018848725
0.021227513
0.02254925
0.02310996
0.023274353
0.023263058
0.023195022
0.023127847
0.023092206
0.023108051
0.023195706
0.023355267
0.023603132
0.023896725
0.024250157
-0.024061022
-0.029515508
-0.018100285
0.0095661049
0.032213713
0.030207729
0.024805625
0.016399593
0.0095220035
0.0094064256
0.01387931
0.018337258
0.02150797
0.023232936
0.023913198
0.024056691
0.023972691
0.023820989
0.023671651
0.023552421
0.023482778
0.023477303
0.023557077
0.023717055
0.023967516
0.024259195
0.024610268
-0.02514985
-0.033691467
-0.021859357
0.0083689244
0.033191845
0.032019847
0.026142117
0.016050697
0.0065483749
0.0057728094
0.011650579
0.017448978
0.021693071
0.023968786
0.024813898
0.024937443
0.024764643
0.024514063
0.024274927
0.024072777
0.023917373
0.023823734
0.023809181
0.023889511
0.024054223
0.024310706
0.024604472
0.024956268
-0.025916443
-0.037412225
-0.025324287
0.0070402687
0.033427085
0.03341991
0.027063184
0.01534967
0.0027073287
0.00087485466
0.0086474638
0.016022541
0.021715385
0.024753502
0.025824392
0.025929013
0.025645822
0.025274766
0.024933389
0.024646814
0.02441071
0.024229307
0.024118914
0.024106476
0.024192227
0.02436645
0.024635553
0.024935505
0.025289857
-0.026387224
-0.040606381
-0.02837393
0.0055903347
0.03286913
0.034551763
0.027426151
0.014319444
-0.0019301961
-0.0052243294
0.004686658
0.013901466
0.021481648
0.025566438
0.02695011
0.027039979
0.026623291
0.026100191
0.02563874
0.025263942
0.024954216
0.024693932
0.024491705
0.024377712
0.024367891
0.024465364
0.02465837
0.024945907
0.025254691
0.025612841
-0.026471044
-0.043230911
-0.030915502
0.0040290279
0.031592501
0.034696201
0.02711283
0.012873516
-0.0075433787
-0.012797808
-0.00067883308
0.010828514
0.020856347
0.026378785
0.028180806
0.028271096
0.027696921
0.026989032
0.026379888
0.025908959
0.025533165
0.02520906
0.02492679
0.024713025
0.024601738
0.024598086
0.02471851
0.024936698
0.025244675
0.025563837
0.025926797
-0.026295713
-0.0454201
-0.032861639
0.0023441987
0.029622334
0.033875487
0.026121624
0.010870043
-0.014532257
-0.022542709
-0.0081938233
0.0065918019
0.01952356
0.027131849
0.029488259
0.029606866
0.028859396
0.027930663
0.02714136
0.026560732
0.026127074
0.025758897
0.025416984
0.025114698
0.024895897
0.024787775
0.024806108
0.024958322
0.025203812
0.025533146
0.025864387
0.026232926
-0.025718823
-0.047298738
-0.034493097
0.00049826208
0.027016973
0.03233162
0.024443542
0.0080916614
-0.022024526
-0.033910946
-0.018726721
0.00077064728
0.01739279
0.027661598
0.030799271
0.031009461
0.030089857
0.028907213
0.027901209
0.027191131
0.026706531
0.026320378
0.02594822
0.025580064
0.025259507
0.02503734
0.024944421
0.02499632
0.025182777
0.025458971
0.025812947
0.026157657
0.026532144
-0.024608712
-0.047803353
-0.03593431
-0.0020607449
0.02389826
0.029940675
0.02211432
0.004547396
-0.029627162
-0.04614633
-0.031598652
-0.0071377941
0.014361058
0.027810562
0.032020101
0.032391085
0.031341886
0.02988759
0.028627944
0.027763515
0.02723226
0.026858956
0.026498692
0.026098886
0.025695944
0.025357205
0.025140313
0.025077678
0.025170234
0.02539538
0.025706439
0.026086389
0.026444823
0.02682529
-0.023071382
-0.046845009
-0.036658835
-0.0049541593
0.01933037
0.027182103
0.019177274
0.00050643259
-0.03732195
-0.059175329
-0.045886682
-0.017716697
0.0097607047
0.027644708
0.032995303
0.033645265
0.032541461
0.030821778
0.029279278
0.028231408
0.027652889
0.027329148
0.027033476
0.026654998
0.026202479
0.025758254
0.025408443
0.025212827
0.025190703
0.025330489
0.025601009
0.025949154
0.026354575
0.026726669
0.027112981
-0.02118561
-0.044646587
-0.036544947
-0.0079525786
0.014124597
0.023234501
0.015785149
-0.0036987225
-0.045025035
-0.072050285
-0.060149412
-0.029591599
0.0035650252
0.026796138
0.033822317
0.034617716
0.033585751
0.031643314
0.029798626
0.028537378
0.027904924
0.027668777
0.027507643
0.027219166
0.026772662
0.0262478
0.025765588
0.025419118
0.025258182
0.025287298
0.0254817
0.025800885
0.026186643
0.026618087
0.027003923
0.027395585
-0.019008416
-0.041516468
-0.035624403
-0.01098009
0.0081864557
0.018538486
0.011837448
-0.008001989
-0.052489798
-0.084187613
-0.073974576
-0.041415983
-0.0032365201
0.024559122
0.034012071
0.035267077
0.034345078
0.032253354
0.03010503
0.028598349
0.027898961
0.027792752
0.02785406
0.027755936
0.027389367
0.026828894
0.02622604
0.02571859
0.025392442
0.02528112
0.025372075
0.025627039
0.0259972
0.026421371
0.026878338
0.027277154
0.027673584
-0.01655004
-0.037693469
-0.034053945
-0.014048135
0.0017610961
0.012429736
0.0077984625
-0.011244477
-0.059883781
-0.095328073
-0.087077945
-0.053157806
-0.010538161
0.020770228
0.033469206
0.035079662
0.03464293
0.032544305
0.030101273
0.028316102
0.027525315
0.027588926
0.027981917
0.028198439
0.028025454
0.027498192
0.026803961
0.026132178
0.025619422
0.025333674
0.025287629
0.025449393
0.025769502
0.026192155
0.026654888
0.027135847
0.02754668
0.027947108
-0.013844209
-0.033138304
-0.031867504
-0.017144405
-0.0051448234
0.00520781
0.0027709826
-0.013717804
-0.064671698
-0.10571002
-0.099845602
-0.064320365
-0.018194198
0.016306299
0.031894287
0.034010752
0.034223827
0.032397218
0.029675592
0.027585503
0.026670006
0.026928218
0.02777581
0.028467313
0.028635837
0.028245002
0.027509386
0.02668392
0.025965746
0.025474145
0.025250909
0.025283522
0.025524013
0.025911769
0.026387384
0.026887228
0.027390861
0.027812764
0.028216274
-0.010993533
-0.027925982
-0.029021008
-0.020160914
-0.012423769
-0.0029654134
-0.0032228877
-0.016472636
-0.068561207
-0.1131007
-0.11232198
-0.074819485
-0.026085703
0.01135159
0.029045629
0.032348918
0.032946058
0.031683297
0.028720929
0.026296111
0.025198433
0.025648054
0.027076843
0.028452299
0.029156532
0.029046015
0.028348508
0.027395658
0.026463259
0.025732912
0.025291933
0.025150318
0.025272262
0.025597676
0.026056032
0.026584271
0.027119442
0.027643953
0.028075551
0.028481276
-0.02224011
-0.0080725197
-0.025639681
-0.022953212
-0.019967147
-0.012019087
-0.010024376
-0.02004487
-0.071717158
-0.12033049
-0.12321804
-0.083842635
-0.033883031
0.0057255444
0.025073781
0.029906932
0.030827634
0.030229018
0.027154253
0.024317451
0.022960538
0.023544877
0.025677459
0.027988451
0.029489096
0.029863446
0.029319342
0.028288245
0.027143203
0.026146677
0.025442327
0.025079152
0.025036163
0.025260314
0.025675173
0.026205023
0.026783761
0.027352103
0.027895167
0.028335075
0.028741948
-0.021783078
-0.016234433
-0.0051684967
-0.025374542
-0.027723738
-0.021823535
-0.017683343
-0.024676378
-0.074022777
-0.12509851
-0.13455984
-0.091659115
-0.041395795
-7.2920106e-05
0.019820196
0.026606226
0.02782012
0.027879255
0.024898571
0.021533513
0.019788481
0.020375167
0.023303245
0.026864041
0.029494196
0.030634064
0.030409013
0.029376974
0.028037933
0.026753252
0.025742178
0.025101932
0.024843186
0.024918735
0.02525528
0.025761018
0.026360039
0.026986393
0.027585087
0.028144551
0.028591321
0.028998393
-0.027293516
-0.017598567
-0.01014772
-0.0023212786
-0.035460085
-0.032143762
-0.025968381
-0.030092441
-0.075662122
-0.12760155
-0.14305881
-0.10154764
-0.050893259
-0.0060699638
0.013834404
0.02241936
0.023841359
0.024564358
0.021867714
0.017850194
0.015532862
0.015861013
0.019597555
0.024776246
0.028990112
0.031262138
0.031587532
0.030669185
0.029175512
0.027593118
0.026233575
0.025260508
0.02472395
0.024597409
0.02480779
0.025259656
0.025855922
0.026521496
0.027192367
0.027818707
0.028392131
0.028844219
0.02925049
-0.042991143
-0.028650965
-0.013321269
-0.0041302559
0.00042055508
-0.042737082
-0.034531893
-0.035684259
-0.076556773
-0.12817689
-0.14960968
-0.11107139
-0.061597389
-0.015890149
0.007547626
0.017415767
0.018970507
0.02020557
0.017997655
0.013243278
0.010064491
0.0097252064
0.014122056
0.021305752
0.027697303
0.031602045
0.032800596
0.032158138
0.030577247
0.028703074
0.026962216
0.025598518
0.024718727
0.024324491
0.024355123
0.024708101
0.025276343
0.025961568
0.026690119
0.027401998
0.028052859
0.02863775
0.029093645
0.02949812
-0.053257788
-0.050258697
-0.029413051
-0.008975469
0.0017073589
0.0030159388
-0.043175627
-0.040900755
-0.076664581
-0.12644452
-0.15353927
-0.11948682
-0.071582667
-0.026050508
-0.0027745438
0.012309478
0.013031073
0.014858185
0.013255355
0.0077506181
0.0033529584
0.0016456487
0.0063106365
0.015910882
0.025212772
0.031419795
0.033947829
0.033814333
0.032251012
0.030114275
0.027970331
0.026164134
0.02487034
0.024137144
0.023921171
0.024124482
0.024623747
0.025308499
0.026079372
0.026866616
0.027615426
0.028287379
0.028881262
0.029339459
0.029741274
-0.051382719
-0.064722448
-0.056896555
-0.029668513
-0.0047214414
0.0071402998
0.0054669752
-0.045529643
-0.0759357
-0.12222789
-0.15272593
-0.1252067
-0.079886374
-0.037048781
-0.012456867
0.0032603508
0.0067131443
0.0084986945
0.0077014019
0.001492127
-0.0046324247
-0.0087446315
-0.0047873416
0.0077294274
0.021070688
0.030395572
0.034862668
0.035569967
0.034181927
0.031842697
0.0292934
0.027001781
0.025227722
0.024075104
0.02353943
0.023527461
0.02391161
0.02455978
0.025358172
0.026210256
0.0270512
0.027832341
0.028522047
0.029122442
0.029581506
0.029979762
-0.049490093
-0.05874294
-0.073757085
-0.062761222
-0.02952535
-0.00073604445
0.011961759
0.0077444892
-0.074043182
-0.11613308
-0.14743762
-0.12770914
-0.086150956
-0.047687229
-0.024010037
-0.0059612872
-0.0020194438
0.0016127957
0.0013194938
-0.0054603271
-0.013769727
-0.021836222
-0.019844657
-0.0044857446
0.014493067
0.028070186
0.035318704
0.037302288
0.036316532
0.033883644
0.030951741
0.028148345
0.025834866
0.024186578
0.023242339
0.02294381
0.023152826
0.023723538
0.024519643
0.02542706
0.026354638
0.027243679
0.028052477
0.028756495
0.029361071
0.029819675
0.030213571
-0.070805263
-0.052769146
-0.065031713
-0.08176951
-0.067618747
-0.029012692
0.0029373017
0.016091532
0.009800236
-0.10823025
-0.13965078
-0.12733533
-0.090075014
-0.057747581
-0.03628951
-0.018138563
-0.010151369
-0.0068329893
-0.005444023
-0.013014781
-0.024250693
-0.036908924
-0.038271134
-0.019549629
0.0054389856
0.02319853
0.034796323
0.038812913
0.038549229
0.036191188
0.032951515
0.029622472
0.026731607
0.024514273
0.023077049
0.022403509
0.022367201
0.022807454
0.023566275
0.024505794
0.025516156
0.026512368
0.027443514
0.02827535
0.028990453
0.02959704
0.030053824
0.03044248
-0.098773898
-0.066225483
-0.055108758
-0.070160786
-0.088379042
-0.071299466
-0.028119622
0.0063671137
0.01952195
0.011614153
-0.12920523
-0.12365274
-0.091218104
-0.066885752
-0.049290578
-0.032225633
-0.021031858
-0.01432265
-0.012922978
-0.020760032
-0.035697554
-0.053858047
-0.058990318
-0.037214544
-0.00611061
0.015608689
0.032470169
0.039679289
0.040699973
0.038669315
0.035251835
0.031444769
0.027911001
0.025114028
0.023077573
0.021941071
0.02157761
0.021822411
0.022500441
0.023443393
0.024520287
0.025625697
0.026682793
0.027650074
0.0285006
0.029223836
0.029830132
0.030283576
0.030666352
-0.11665871
-0.087922857
-0.060474588
-0.056189772
-0.07402807
-0.09321861
-0.073844736
-0.026901161
0.0095109576
0.022233068
0.013179875
-0.1166678
-0.089596145
-0.074670674
-0.062563487
-0.048092847
-0.034856653
-0.023867135
-0.019443032
-0.027920537
-0.048385926
-0.070846031
-0.081329717
-0.058882333
-0.021834342
0.0049022547
0.028729668
0.039485387
0.042429908
0.041151902
0.037764689
0.033578163
0.029439161
0.025870998
0.02327811
0.021587874
0.020810293
0.020784133
0.021322732
0.022238573
0.023358607
0.024564017
0.025755078
0.02686517
0.027863162
0.02872834
0.029456292
0.030059577
0.030508482
0.030885354
-0.10712749
-0.10225368
-0.076310717
-0.05381052
-0.055998011
-0.076486933
-0.096593383
-0.07509558
-0.025492024
0.012292599
0.024061138
0.014449522
-0.086296569
-0.080967921
-0.075742285
-0.065114031
-0.050939449
-0.036501161
-0.027333688
-0.033501423
-0.05736313
-0.089416536
-0.10360443
-0.083475685
-0.042511244
-0.0098561756
0.022346941
0.038203013
0.043379807
0.043351086
0.040338132
0.035942985
0.031264453
0.027024606
0.023666271
0.021369225
0.02008872
0.01971084
0.020042722
0.0208787
0.022025829
0.023315047
0.024636656
0.025903373
0.027059478
0.02808295
0.028957814
0.029686222
0.030284501
0.030729072
0.031110348
-0.081754013
-0.095588978
-0.087042917
-0.064207377
-0.046641719
-0.054474265
-0.077362097
-0.097475377
-0.075059874
-0.023912493
0.014787176
0.025491216
0.015385866
-0.086017339
-0.088479913
-0.082816544
-0.069295593
-0.051745848
-0.037254621
-0.040124163
-0.063883075
-0.1011011
-0.1276188
-0.1094557
-0.066438307
-0.026935893
0.012512861
0.034646803
0.043412906
0.044972369
0.042744522
0.038408034
0.03331694
0.028421344
0.024315356
0.021296642
0.019433057
0.018616775
0.018668972
0.019369031
0.020498017
0.021864658
0.023311548
0.024737115
0.026070671
0.027266102
0.02830801
0.029186026
0.029911977
0.03050627
0.030957212
0.031345178
-0.089234508
-0.075451382
-0.08296857
-0.071574864
-0.052053454
-0.039159761
-0.051568834
-0.076757875
-0.095532196
-0.073905553
-0.022114729
0.017146231
0.029178737
0.016161105
-0.10038066
-0.10117143
-0.089881484
-0.069297601
-0.049083167
-0.048155545
-0.070052766
-0.11219047
-0.14409138
-0.13904079
-0.094057165
-0.045206019
0.00057075626
0.027823822
0.041456131
0.045847467
0.044751284
0.040789704
0.035486405
0.030016462
0.025172689
0.021395778
0.018854026
0.017514867
0.017206872
0.017707667
0.018774342
0.020185715
0.021757967
0.023346983
0.024865601
0.026257734
0.027482712
0.028533405
0.029410412
0.030136571
0.030739514
0.03119427
0.031583539
-0.11075638
-0.090252465
-0.06830925
-0.06979117
-0.056447183
-0.040105262
-0.03135811
-0.047443032
-0.074668075
-0.091946998
-0.071620686
-0.01990874
0.019175587
0.032425674
0.016657049
-0.119829
-0.11189741
-0.088973174
-0.062596028
-0.057431825
-0.076608793
-0.12070764
-0.16582383
-0.16452923
-0.12441508
-0.066736258
-0.0137576
0.019148655
0.03653093
0.045084258
0.045974832
0.042842581
0.037615771
0.031718459
0.026187214
0.021636803
0.018360871
0.016409048
0.015660018
0.01589031
0.016843592
0.018267241
0.019944334
0.021704627
0.0234216
0.025023616
0.026461348
0.027701771
0.02875557
0.029636707
0.030381063
0.030979862
0.031436572
0.031825195
-0.13768404
-0.11941742
-0.089136176
-0.060913962
-0.056729083
-0.042050679
-0.028424899
-0.023386898
-0.042443538
-0.071126361
-0.086806189
-0.068657054
-0.016991603
0.020776477
0.032127709
0.016770149
-0.13481678
-0.11009913
-0.077576354
-0.067466911
-0.084041911
-0.12780407
-0.18086428
-0.20078283
-0.15298915
-0.089477258
-0.030217387
0.0088109834
0.030157805
0.042249223
0.045884603
0.044235634
0.039474432
0.033385801
0.027275745
0.021974168
0.017929442
0.01529879
0.014024576
0.013910899
0.014691246
0.01608919
0.017852412
0.019773979
0.02170473
0.023538059
0.02520726
0.026670514
0.027918334
0.028984215
0.029896035
0.030631316
0.031227662
0.03168321
0.032070129
-0.15775546
-0.15406452
-0.12590969
-0.08632816
-0.053314011
-0.044306945
-0.028836079
-0.017137198
-0.015535459
-0.036941668
-0.066669826
-0.081354806
-0.064236153
-0.013966251
0.02175976
0.030241928
0.01661078
-0.13207969
-0.093900542
-0.077775398
-0.091710424
-0.13472918
-0.19254988
-0.22591394
-0.1940413
-0.11155946
-0.047505471
-0.0027145155
0.022342822
0.037573877
0.044432931
0.044661911
0.04082491
0.034825404
0.028310442
0.022333207
0.017517807
0.014159897
0.012290178
0.011756654
0.012301748
0.013628037
0.015452343
0.01753015
0.0196762
0.021762261
0.02369213
0.025400998
0.026878038
0.028147643
0.029264811
0.030159899
0.030891689
0.031480578
0.031934317
0.032318125
-0.15428199
-0.17991174
-0.16772944
-0.13019848
-0.082593737
-0.045690672
-0.032679927
-0.017148626
-0.0066139409
-0.0079408825
-0.031374985
-0.062693994
-0.07511973
-0.05892737
-0.010860649
0.022022151
0.02732623
0.01630443
-0.11041711
-0.087678161
-0.099005803
-0.14095856
-0.20144574
-0.24900821
-0.23261771
-0.14449259
-0.070665011
-0.015227422
0.013004503
0.031137635
0.041322477
0.043724378
0.04141361
0.035829739
0.029132211
0.022602099
0.017058762
0.012951233
0.010429173
0.009407419
0.0096525714
0.010858657
0.01271244
0.014935284
0.01730286
0.019657435
0.021873635
0.023862706
0.025593987
0.027106477
0.028455693
0.029548885
0.030436887
0.0311578
0.031739158
0.032189321
0.032569108
-0.12506068
-0.17540307
-0.19917488
-0.17851086
-0.13221449
-0.078257679
-0.037886571
-0.021959388
-0.0070371931
0.002833792
-0.0010382693
-0.026435698
-0.057975089
-0.068427636
-0.052618308
-0.007818267
0.021581095
0.024659851
0.015882836
-0.096763043
-0.10583704
-0.14561664
-0.20644175
-0.26693956
-0.2693868
-0.18340215
-0.10019445
-0.035494
0.0025159056
0.023267471
0.035978098
0.041286567
0.040916347
0.036118086
0.029551158
0.022644776
0.016453886
0.011610646
0.0083986548
0.0068293998
0.0067129953
0.0077478177
0.009597386
0.01194852
0.014541925
0.017180077
0.019712869
0.022010882
0.024033624
0.025818271
0.027450088
0.028766828
0.029849682
0.03072014
0.0314309
0.03200246
0.032448216
0.032822823
-0.10485234
-0.13678957
-0.19254416
-0.21486355
-0.18622069
-0.13206536
-0.073525641
-0.030279652
-0.013003692
0.0012211873
0.010522519
0.005451631
-0.022537883
-0.052170193
-0.061079578
-0.045456549
-0.004977738
0.020552405
0.021526717
0.015433951
-0.11184367
-0.14760284
-0.20684359
-0.27814764
-0.29756999
-0.22383855
-0.13205702
-0.056912308
-0.015926332
0.013961399
0.028907043
0.037160332
0.038632884
0.035491648
0.029320863
0.022286665
0.015585836
0.010049877
0.0061382084
0.0039752838
0.0034416044
0.0042544641
0.006062777
0.0085235681
0.011342834
0.014285041
0.017157357
0.019803466
0.022149573
0.024249064
0.026207051
0.027797105
0.029098824
0.030157172
0.031011692
0.03170974
0.032270457
0.032710457
0.033079138
-0.1160449
-0.1114744
-0.1452817
-0.20423727
-0.22779925
-0.18973791
-0.13003644
-0.068848654
-0.023737178
-0.0065788896
0.0077006357
0.017656422
0.0095593607
-0.018441156
-0.045675864
-0.052906454
-0.037678309
-0.0025537013
0.019181619
0.018052716
0.014776296
-0.14649391
-0.20269594
-0.27932632
-0.3302867
-0.26239863
-0.16140606
-0.082986833
-0.031919266
-0.0041578964
0.021763854
0.030663752
0.035228543
0.033498311
0.028215632
0.021326141
0.014300269
0.0081676531
0.0035658995
0.00078284156
-0.00021537536
0.00032863756
0.0020598986
0.0046093236
0.0076521397
0.010914439
0.014158767
0.017183605
0.019895182
0.022349517
0.024694909
0.026600659
0.028170089
0.029437737
0.03047444
0.031309948
0.031994215
0.032542384
0.032975901
0.033337818
-0.14248742
-0.11690175
-0.11628954
-0.14957489
-0.21032303
-0.23352335
-0.18821958
-0.12641392
-0.064500127
-0.018374604
-0.0012823567
0.014176862
0.022221858
0.013279802
-0.014216432
-0.038663082
-0.044194375
-0.029833107
-0.00059285152
0.017526929
0.015002891
0.013555649
-0.19400939
-0.26972657
-0.33532379
-0.2947468
-0.18913669
-0.10922779
-0.053737372
-0.01831417
0.0047923873
0.023882723
0.02874501
0.030032819
0.025894988
0.019567269
0.01243514
0.0058285176
0.00059217999
-0.0028278666
-0.0043251762
-0.0040912283
-0.0024708948
0.00014817812
0.0034119479
0.0070105743
0.010656259
0.01409572
0.017210572
0.020069726
0.022867953
0.02514795
0.027026467
0.028549831
0.02978785
0.03079939
0.031614743
0.032283411
0.032817996
0.033244071
0.033598724
-0.18161749
-0.13519099
-0.11366966
-0.11858686
-0.14957845
-0.20965379
-0.22543995
-0.18258243
-0.12142968
-0.059960401
-0.014149457
0.004994084
0.018819537
0.026310884
0.016714968
-0.010072369
-0.03112116
-0.0351823
-0.022546549
0.00098726372
0.015482358
0.012759266
0.011622585
-0.25256894
-0.3219485
-0.31008283
-0.21163788
-0.13502563
-0.076013329
-0.038551507
-0.0088722756
0.0093024588
0.021587002
0.024100938
0.022309313
0.016717181
0.0098185594
0.0029058678
-0.002905612
-0.0069413189
-0.0089699541
-0.0090796852
-0.0075999229
-0.0049290158
-0.0014446801
0.00250698
0.0065858442
0.010477906
0.014039475
0.017345912
0.02068038
0.023396134
0.02564111
0.027458273
0.02894226
0.030146607
0.031131884
0.031924967
0.03257699
0.033096684
0.033514921
0.033861533
-0.23036665
-0.1654426
-0.12501369
-0.10734177
-0.11576798
-0.14564768
-0.20018902
-0.21322625
-0.17379212
-0.11469231
-0.055077745
-0.0095977628
0.010207093
0.022938727
0.029693605
0.019719613
-0.0060898926
-0.023277368
-0.025959713
-0.015801494
0.0022097254
0.0132819
0.010921304
0.0093379503
-0.2978019
-0.30734375
-0.22688697
-0.15722842
-0.098348293
-0.05959963
-0.028283576
-0.0034876723
0.0084202239
0.017236552
0.016647656
0.01271883
0.006240586
-0.00075189489
-0.0070223375
-0.011674526
-0.014236261
-0.014724518
-0.013410221
-0.010701329
-0.0069946143
-0.0026692929
0.0018752866
0.006259815
0.010304942
0.014140567
0.018075989
0.021302285
0.023974726
0.026138559
0.027904278
0.02934427
0.030513927
0.031470774
0.032240135
0.032874279
0.033378557
0.033787849
0.034126031
-0.26750488
-0.20341008
-0.14698538
-0.11219927
-0.09826974
-0.1077632
-0.13752481
-0.18284438
-0.19722827
-0.1622763
-0.10637676
-0.048861685
-0.0043449156
0.014888491
0.02607416
0.032223989
0.022311104
-0.002136481
-0.015283214
-0.017553526
-0.01019124
0.0030925666
0.011245097
0.0092410616
0.0073069642
-0.29085872
-0.23439549
-0.17093694
-0.1184749
-0.081370413
-0.048906545
-0.023525779
-0.0022511269
0.0056789534
0.010195529
0.0069663425
0.0016495467
-0.0052888071
-0.011902316
-0.017099319
-0.020241907
-0.021120313
-0.019997328
-0.017260188
-0.013324478
-0.0086011288
-0.0035531964
0.00136289
0.0059380405
0.010337224
0.015014209
0.01881505
0.021988048
0.024554617
0.026651698
0.028360675
0.029755937
0.030888551
0.03181531
0.032559536
0.033175696
0.033662591
0.034062573
0.034391948
-0.26341412
-0.2318248
-0.17442696
-0.12715332
-0.097843505
-0.086462131
-0.096704256
-0.12614357
-0.16184774
-0.17867162
-0.14698402
-0.098323723
-0.039525423
0.00072632358
0.018748599
0.028319393
0.033705206
0.024385481
0.0017204472
-0.0080189152
-0.010404947
-0.0058265706
0.0038528598
0.0095322279
0.0076965749
0.0056465636
-0.23130749
-0.17502675
-0.13449166
-0.10202227
-0.071111622
-0.045028602
-0.020855926
-0.0055024613
0.00031783608
0.00071228886
-0.004432678
-0.010756183
-0.017622153
-0.023370611
-0.027048616
-0.028389929
-0.027467741
-0.024709643
-0.020532754
-0.015380395
-0.0097865438
-0.0042955048
0.00085174706
0.0058847574
0.011402662
0.015891788
0.019634659
0.022670979
0.025151266
0.027176011
0.028827865
0.03017584
0.031269462
0.032164925
0.032884112
0.033479587
0.033948485
0.034338595
0.034659043
-0.21606711
-0.22886872
-0.19494495
-0.14491587
-0.10657571
-0.082450731
-0.073059875
-0.08340821
-0.11273895
-0.1407579
-0.15614248
-0.13429298
-0.0853818
-0.030672115
0.00546805
0.02181101
0.029674328
0.033608215
0.025033411
0.0056506465
-0.0027598801
-0.004922297
-0.0023551285
0.0044127836
0.0081161993
0.0063348211
0.0043263446
-0.17242834
-0.1446012
-0.1196737
-0.093077959
-0.068576529
-0.045617092
-0.022752384
-0.0088831356
-0.0076419307
-0.010972597
-0.01747087
-0.02426947
-0.030493844
-0.034838952
-0.036599812
-0.03595164
-0.033169258
-0.028731534
-0.023110288
-0.016919748
-0.010806555
-0.0050426618
0.00068998447
0.0071867458
0.012454774
0.016874009
0.020445116
0.023371075
0.02575965
0.027712281
0.029304118
0.030602743
0.031656331
0.032521151
0.03321154
0.033785644
0.034235585
0.034615557
0.034927073
-0.16381753
-0.19152859
-0.19249569
-0.15902059
-0.11694581
-0.08612753
-0.066555385
-0.058957092
-0.068756636
-0.097318043
-0.12110217
-0.13747774
-0.11700274
-0.072528604
-0.022051058
0.0096231843
0.024048285
0.030281296
0.032166418
0.024097957
0.0088877967
0.00066011998
-0.0013078641
0.0003800064
0.0047613801
0.006973366
0.005195931
0.0033053874
-0.1477746
-0.13186322
-0.112953
-0.093238772
-0.073574964
-0.047310908
-0.026087973
-0.013726765
-0.01837917
-0.024677301
-0.031992139
-0.038641472
-0.043551592
-0.045968881
-0.045534847
-0.042777366
-0.03805053
-0.031908416
-0.025058184
-0.018268358
-0.011841941
-0.0053397778
0.0022886993
0.0084468702
0.013642234
0.017838257
0.021273299
0.02408335
0.026380974
0.028258375
0.029788103
0.031036679
0.032051531
0.032880632
0.033541547
0.034092969
0.03452349
0.034893068
0.035195802
-0.14424974
-0.15002594
-0.1631341
-0.15702759
-0.12597155
-0.091287926
-0.06655434
-0.0509465
-0.044929181
-0.053268137
-0.079768329
-0.10620182
-0.11656367
-0.099458313
-0.059335142
-0.014024289
0.013064151
0.025487052
0.030291337
0.030131794
0.022680849
0.010714988
0.0034792119
0.0013527938
0.0023430315
0.0049618103
0.0060568685
0.0042837719
0.0025462604
-0.13792503
-0.12925093
-0.11756091
-0.1027488
-0.078100379
-0.050821728
-0.027165779
-0.022283125
-0.03150253
-0.040332817
-0.04774749
-0.053507864
-0.056383663
-0.056468389
-0.05365096
-0.048634502
-0.041907212
-0.034318523
-0.02678669
-0.019648549
-0.012303777
-0.0033716244
0.0037974025
0.0098854981
0.01479639
0.018821683
0.022113153
0.024809053
0.027013237
0.028812974
0.030280313
0.031481037
0.032450586
0.033243158
0.033873
0.034401088
0.034811789
0.03517079
0.035464838
-0.13922435
-0.135518
-0.13240905
-0.13395473
-0.12405994
-0.096591076
-0.068189623
-0.048601299
-0.036493471
-0.031028129
-0.038821633
-0.063867379
-0.089105993
-0.095762889
-0.080943221
-0.046138413
-0.0067245695
0.015693058
0.026130598
0.029539095
0.028070428
0.021326217
0.01170427
0.0056006254
0.0033910001
0.0038505058
0.0050628369