/*--------------------------------*- C++ -*----------------------------------*\
| =========                 |                                                 |
| \\      /  F ield         | OpenFOAM: The Open Source CFD Toolbox           |
|  \\    /   O peration     | Version:  5.0                                   |
|   \\  /    A nd           | Web:      www.OpenFOAM.org                      |
|    \\/     M anipulation  |                                                 |
\*---------------------------------------------------------------------------*/
FoamFile
{
    version     2.0;
    format      ascii;
    class       surfaceScalarField;
    location    "260";
    object      phi;
}
// * * * * * * * * * * * * * * * * * * * * * * * * * * * * * * * * * * * * * //

dimensions      [0 3 -1 0 0 0 0];

internalField   nonuniform List<scalar> 
18180
(
-0.0019018272
-1.3896784
-0.003702388
-1.2997004
-0.0018506116
-1.3878278
-0.0053923645
-1.2156795
-0.0036045975
-1.2979464
-0.0017619154
-1.3860659
-0.0069943004
-1.1371948
-0.0052661549
-1.2140179
-0.003433814
-1.2962745
-0.0016360179
-1.3844299
-0.0084904932
-1.06386
-0.0068535224
-1.1356075
-0.0050252256
-1.2124265
-0.0031898089
-1.2947207
-0.0014992549
-1.3829306
-0.0098642796
-0.9953338
-0.0083716614
-1.0623418
-0.0065566585
-1.134076
-0.0046700509
-1.2109463
-0.0029193782
-1.2933006
-0.0013644473
-1.3815662
-0.011080165
-0.931297
-0.009822844
-0.99388261
-0.0080458505
-1.0608526
-0.0060985491
-1.1326475
-0.0042680101
-1.2095976
-0.0026502534
-1.2920148
-0.0012485389
-1.3803176
-0.012104185
-0.87147369
-0.011203699
-0.92991614
-0.0095155423
-0.99241292
-0.0074974155
-1.0594538
-0.0055596015
-1.131356
-0.0038639099
-1.208384
-0.0024175471
-1.2908458
-0.0011552198
-1.3791624
-0.012910818
-0.81559899
-0.012511302
-0.87016608
-0.011002473
-0.92842921
-0.0089010819
-0.99100926
-0.0068086162
-1.0582048
-0.0050107733
-1.1302091
-0.0035153003
-1.2072862
-0.0022318047
-1.2897692
-0.0010812697
-1.3780811
-0.013391778
-0.76347504
-0.013718434
-0.81439186
-0.012564618
-0.86860394
-0.010366075
-0.92696422
-0.0080377925
-0.98978008
-0.0060938768
-1.0571217
-0.0045403683
-1.129184
-0.0032421272
-1.2062759
-0.002089079
-1.2887614
-0.0010188105
-1.3770623
-0.013445316
-0.71484545
-0.014892686
-0.76230079
-0.014311182
-0.81264529
-0.011959886
-0.86701013
-0.0092794023
-0.92572261
-0.00711493
-0.98875903
-0.0054893157
-1.0561727
-0.0041829627
-1.1282432
-0.0030392652
-1.2053257
-0.0019732822
-1.2878069
-0.00096047927
-1.3761019
-0.012984886
-0.66959947
-0.016202608
-0.71353553
-0.016397523
-0.76021445
-0.013788659
-0.81081652
-0.01056752
-0.86572201
-0.0080720711
-0.92476547
-0.006346915
-0.98790143
-0.00505139
-1.0553043
-0.0039312808
-1.1273512
-0.0028792551
-1.2044198
-0.0018666834
-1.2869007
-0.00090074069
-1.3752011
-0.011899527
-0.62756206
-0.017767265
-0.66803482
-0.018836366
-0.71109669
-0.015906598
-0.75809651
-0.011937642
-0.8094464
-0.0089598386
-0.86483424
-0.0070877458
-0.92402464
-0.0058276386
-0.98712518
-0.0047660146
-1.0544696
-0.0037408389
-1.1264896
-0.0027316298
-1.2035548
-0.0017550098
-1.2860464
-0.00083576742
-1.3743653
-0.010112036
-0.58848551
-0.019611955
-0.62571737
-0.021748534
-0.66512265
-0.018397323
-0.70860597
-0.013414816
-0.75661934
-0.0097483119
-0.80865793
-0.0076749478
-0.86424704
-0.0064793292
-0.92337295
-0.0055287936
-0.9863624
-0.0045631122
-1.0536473
-0.0035648205
-1.1256564
-0.0025730895
-1.2027367
-0.0016294692
-1.2852527
-0.00076379653
-1.3736016
-0.0075670631
-0.55215564
-0.021737255
-0.58636021
-0.025403567
-0.62206234
-0.021447728
-0.66207224
-0.015066853
-0.70695393
-0.010378769
-0.75598888
-0.0080445389
-0.80828833
-0.0069583933
-0.86376798
-0.0061923996
-0.92270934
-0.0053421998
-0.98558331
-0.0043768866
-1.0528352
-0.0033686095
-1.1248609
-0.0023900621
-1.2019761
-0.0014875031
-1.284529
-0.00068595519
-1.3729156
-0.0042849924
-0.5182719
-0.024187683
-0.54970522
-0.030055711
-0.58170807
-0.025258681
-0.61825139
-0.016964151
-0.66017495
-0.010834098
-0.7064986
-0.0080695405
-0.75596388
-0.007172473
-0.80807426
-0.0067072765
-0.8632531
-0.0060636656
-0.92198788
-0.0051780699
-0.98478213
-0.0041593416
-1.0520445
-0.0031320739
-1.1241189
-0.0021787932
-1.2012848
-0.0013326965
-1.2838823
-0.00060600952
-1.3723096
-0.00019521162
-0.48660143
-0.027015072
-0.51544451
-0.035941094
-0.54381983
-0.030039513
-0.57692724
-0.019186111
-0.61602943
-0.011063509
-0.65994553
-0.0076408819
-0.70692726
-0.0070172201
-0.75611913
-0.0069877037
-0.80779383
-0.0066926335
-0.86262413
-0.0059789464
-0.921187
-0.0049667753
-0.9839747
-0.0038775101
-1.051299
-0.002850553
-1.1234471
-0.0019456177
-1.2006719
-0.0011731195
-1.2833152
-0.00052875552
-1.3717808
0.0049066197
-0.45728152
-0.03031502
-0.48330149
-0.043294594
-0.50809101
-0.035990736
-0.53786861
-0.021829403
-0.57428394
-0.011003799
-0.61608914
-0.0066345587
-0.66095186
-0.0063242083
-0.70762027
-0.0070394639
-0.75606737
-0.0072253341
-0.80726113
-0.0067944568
-0.86180862
-0.0058278801
-0.9203259
-0.0046537029
-0.98319851
-0.0035220419
-1.0506276
-0.0025337392
-1.122859
-0.0017039284
-1.2001411
-0.0010185497
-1.2828254
-0.0004583357
-1.3713225
0.011595706
-0.43090299
-0.033861397
-0.45373514
-0.052220764
-0.47437532
-0.043244502
-0.50083724
-0.024982627
-0.53471539
-0.010588214
-0.57469953
-0.0048875178
-0.61783618
-0.0049388045
-0.66233726
-0.0067250243
-0.70793471
-0.007701596
-0.75559111
-0.0076922336
-0.80636335
-0.0068008658
-0.86083564
-0.0055062704
-0.91947333
-0.004220351
-0.9825002
-0.0031095121
-1.0500518
-0.0022017865
-1.1223611
-0.0014694544
-1.1996902
-0.00087768464
-1.282406
-0.0003975661
-1.3709249
0.019881994
-0.40708603
-0.037005122
-0.42775926
-0.062749384
-0.44320652
-0.05191655
-0.46570327
-0.028678649
-0.49714122
-0.0097384638
-0.53556514
-0.0022130246
-0.57737402
-0.0026640035
-0.62011098
-0.005857578
-0.66320471
-0.0080948121
-0.70754149
-0.0086953783
-0.75458796
-0.0079662488
-0.80519797
-0.0065036408
-0.85983827
-0.0049832443
-0.91871044
-0.00369199
-0.98191772
-0.0026715866
-1.049582
-0.001878382
-1.1219522
-0.0012559344
-1.199312
-0.00075646006
-1.2820471
-0.00034806385
-1.3705769
0.028473813
-0.38301655
-0.038647107
-0.40544405
-0.074961382
-0.41554727
-0.062374387
-0.43274868
-0.032988151
-0.46139377
-0.0083822872
-0.4984974
0.0015964781
-0.53937464
0.00073113672
-0.58076916
-0.0042663058
-0.62170225
-0.0083221454
-0.66297738
-0.0098592744
-0.7063776
-0.0093731797
-0.75318103
-0.007715342
-0.80398627
-0.0058654666
-0.85895604
-0.0043069134
-0.91809551
-0.0031208281
-0.98146848
-0.0022436143
-1.0492168
-0.0015841881
-1.1216239
-0.0010726241
-1.1989958
-0.00065769788
-1.2817375
-0.00031035812
-1.3702665
0.037409739
-0.35790246
-0.038461659
-0.383202
-0.089258793
-0.39114663
-0.075385713
-0.40253594
-0.03834047
-0.42739636
-0.0064288796
-0.46334717
0.0067501428
-0.50365106
0.0055105515
-0.54415405
-0.0017486838
-0.58328678
-0.0082898987
-0.6217345
-0.01126801
-0.66156864
-0.01115306
-0.70459772
-0.0092291042
-0.75166727
-0.0069246662
-0.80292707
-0.0049860134
-0.85827694
-0.0035613339
-0.91765501
-0.0025624473
-0.98114964
-0.0018562506
-1.0489447
-0.0013334125
-1.1213632
-0.00092377609
-1.1987297
-0.00058151862
-1.2814663
-0.00028365398
-1.3699829
0.046382706
-0.33285771
-0.037964192
-0.35839993
-0.10442642
-0.36803437
-0.091807853
-0.3747245
-0.045719725
-0.39515669
-0.0038914497
-0.42993379
0.013439453
-0.47003648
0.011922033
-0.51006254
0.0019231688
-0.54782591
-0.0078967702
-0.58367991
-0.012993278
-0.62000923
-0.013474933
-0.65924677
-0.011196638
-0.70263018
-0.0082467848
-0.75034515
-0.0057665782
-0.8021465
-0.004001204
-0.85783707
-0.0028319884
-0.91738547
-0.0020621283
-0.98094377
-0.0015305256
-1.0487476
-0.001132862
-1.1211541
-0.00080947902
-1.1985018
-0.00052601974
-1.281224
-0.0002656939
-1.3697172
0.054652911
-0.30742623
-0.039128366
-0.33169354
-0.11995665
-0.34286969
-0.11174676
-0.34809547
-0.055915027
-0.36452919
-0.0010082933
-0.39803984
0.021870305
-0.43836465
0.020220996
-0.47833545
0.0070146252
-0.515154
-0.0070295569
-0.54869312
-0.015119765
-0.58155343
-0.016540603
-0.61694356
-0.013801547
-0.65664186
-0.0099447136
-0.70093226
-0.0066980431
-0.74941369
-0.0044488136
-0.80169889
-0.00304004
-0.85762902
-0.0021865136
-0.91726108
-0.0016496102
-0.98082468
-0.001276223
-1.0486042
-0.00098237453
-1.1209812
-0.00072700786
-1.1983008
-0.0004879597
-1.2810017
-0.00025348296
-1.3694637
0.06223564
-0.28244983
-0.041463514
-0.30509108
-0.13597358
-0.31567662
-0.13252945
-0.322087
-0.068593255
-0.33541724
0.0020283834
-0.36756587
0.032290716
-0.40846025
0.030643668
-0.44878732
0.013792409
-0.48511323
-0.0055501693
-0.51663339
-0.017757662
-0.54605522
-0.020598521
-0.57749551
-0.017272526
-0.61347258
-0.012159839
-0.65442673
-0.0078370723
-0.69979323
-0.0049117203
-0.74895078
-0.0031677218
-0.80157121
-0.0022025919
-0.85761294
-0.0016682542
-0.91724244
-0.0013373013
-0.9807636
-0.0010924366
-1.0484942
-0.00087651502
-1.1208317
-0.00067177025
-1.198117
-0.0004633861
-1.2807918
-0.00024454278
-1.3692191
0.069007371
-0.25836348
-0.043867836
-0.2800455
-0.15131556
-0.2897491
-0.15125959
-0.29694648
-0.082336567
-0.30834369
0.0052736437
-0.3386625
0.044867322
-0.38014248
0.043379012
-0.4211956
0.02248004
-0.45747495
-0.0033003969
-0.487363
-0.021017304
-0.51337375
-0.025938515
-0.54071523
-0.021871494
-0.57289654
-0.01505976
-0.61057266
-0.0092534581
-0.65301035
-0.0053937969
-0.69931115
-0.0031870474
-0.74893146
-0.0020723497
-0.80170145
-0.0015519609
-0.85772924
-0.0012928249
-0.91728691
-0.0011223062
-0.98073374
-0.00096981834
-1.0484009
-0.00080731549
-1.1206961
-0.00063779556
-1.1979426
-0.00044845934
-1.2805879
-0.00023790658
-1.3689812
0.07500077
-0.23569418
-0.046325988
-0.25590533
-0.16604481
-0.26531624
-0.16795726
-0.27305143
-0.095685154
-0.28359789
0.0083874329
-0.31145748
0.059457693
-0.35325287
0.058448672
-0.39521214
0.033090149
-0.43180571
-0.00021336695
-0.46056198
-0.025056167
-0.48332414
-0.03289581
-0.50641645
-0.027892219
-0.53469451
-0.018824527
-0.56913177
-0.011021674
-0.60880444
-0.0058944039
-0.65250974
-0.0030587286
-0.69943947
-0.0017429479
-0.74926086
-0.0012528231
-0.80200059
-0.0011077611
-0.8579143
-0.001052434
-0.91735679
-0.00099071009
-0.98071284
-0.00089439623
-1.0483138
-0.00076636971
-1.1205676
-0.00061875023
-1.1977723
-0.00044035664
-1.2803854
-0.00023378834
-1.3687474
0.080300259
-0.21464986
-0.048713181
-0.23330699
-0.18000624
-0.2419439
-0.18358029
-0.24969321
-0.10832075
-0.26041583
0.010736359
-0.28594682
0.075642278
-0.32764206
0.07565549
-0.37045969
0.045507139
-0.40762913
0.0036019713
-0.43562104
-0.030175798
-0.45544235
-0.04186972
-0.47435023
-0.035666287
-0.49864238
-0.02364988
-0.52986915
-0.013218856
-0.56693459
-0.0064053981
-0.60829345
-0.002729169
-0.6528393
-0.0011449243
-0.70003749
-0.00070568484
-0.749808
-0.00073343602
-0.80237492
-0.0008539295
-0.85811281
-0.00092461321
-0.91742288
-0.00092157771
-0.98068566
-0.00085170886
-1.0482284
-0.00074550079
-1.1204408
-0.00060959828
-1.197603
-0.00043717394
-1.280182
-0.00023214298
-1.3685153
0.084992728
-0.1952825
-0.050959958
-0.21240308
-0.19308743
-0.22022579
-0.19785115
-0.22767304
-0.11967365
-0.23834031
0.012461501
-0.26214098
0.092940463
-0.303245
0.094863411
-0.34684998
0.059873144
-0.38482569
0.0081730703
-0.41220023
-0.036818713
-0.42897813
-0.053313737
-0.44399833
-0.045532025
-0.46448449
-0.029739453
-0.49255281
-0.015914611
-0.5271734
-0.0069115246
-0.56642846
-0.0021309231
-0.60889169
-0.0001911586
-0.65379306
0.00017378014
-0.70091696
-0.00010388958
-0.75043754
-0.00048532029
-0.80274353
-0.00075362898
-0.85828379
-0.00087970002
-0.91746476
-0.00089129036
-0.98064608
-0.00083017448
-1.0481438
-0.00073802747
-1.1203124
-0.00060721253
-1.197433
-0.00043685368
-1.2799773
-0.00023197371
-1.3682833
0.089151694
-0.17757968
-0.052989237
-0.19325322
-0.20523013
-0.20026038
-0.21080922
-0.20726772
-0.12955693
-0.21778977
0.014253738
-0.24013255
0.11086002
-0.28006053
0.11597177
-0.32435336
0.076656166
-0.36363301
0.014361023
-0.39101364
-0.044750455
-0.40426848
-0.06755237
-0.4147395
-0.057725867
-0.43180449
-0.037271286
-0.45695266
-0.019159654
-0.48930776
-0.0073819507
-0.52670297
-0.0011838536
-0.56737553
0.0012235948
-0.61030645
0.0014917974
-0.65511108
0.0008664584
-0.70188731
0.00010972592
-0.75103259
-0.00044942111
-0.80304773
-0.00076143494
-0.85840206
-0.00088410902
-0.91747194
-0.00088240952
-0.98059385
-0.00082900758
-1.0480528
-0.00074065939
-1.1201789
-0.00060842259
-1.1972614
-0.00043726808
-1.279772
-0.00023203137
-1.3680513
0.091851974
-0.18927402
-0.054715824
-0.17585309
-0.21640241
-0.18208094
-0.22252654
-0.18854306
-0.13809004
-0.19873461
0.016518163
-0.22005419
0.12888973
-0.25816226
0.13816609
-0.30225485
0.09574333
-0.34344053
0.023400217
-0.3726722
-0.052409662
-0.38335444
-0.084155259
-0.38766559
-0.072270304
-0.40019506
-0.046275066
-0.42280071
-0.02296665
-0.45314566
-0.0077604698
-0.48892925
0.00020524626
-0.52809207
0.00322007
-0.56937201
0.0033712772
-0.61218593
0.002283052
-0.65652767
0.0010047541
-0.70278233
2.6700838e-05
-0.75150871
-0.00055611439
-0.80325305
-0.0008304016
-0.85845576
-0.00090971992
-0.91744463
-0.00089421276
-0.98052864
-0.00084102275
-1.0479524
-0.00074522955
-1.1200421
-0.00060926156
-1.1970894
-0.00043706713
-1.279567
-0.00023153918
-1.3678197
0.094750154
-0.1834228
-0.055935021
-0.18805482
-0.22661804
-0.16563746
-0.23303743
-0.17157005
-0.14537975
-0.18125335
0.019379942
-0.20159639
0.14642679
-0.23759125
0.16041085
-0.28040703
0.11532809
-0.32183961
0.034999928
-0.35504024
-0.058346617
-0.36673525
-0.10204315
-0.36546655
-0.089249538
-0.37068636
-0.05663395
-0.38983618
-0.027243952
-0.41852341
-0.0079582814
-0.45294785
0.0021438868
-0.49086789
0.0059268536
-0.53079885
0.0059529697
-0.5719537
0.0042732189
-0.61417609
0.0022917616
-0.65781468
0.00072567483
-0.70348131
-0.00024753239
-0.75181729
-0.00073649649
-0.80334696
-0.00091999185
-0.85844549
-0.00094723323
-0.91739161
-0.00091692261
-0.98045274
-0.00084996278
-1.0478477
-0.00074569545
-1.1199057
-0.00060854481
-1.1969179
-0.00043582215
-1.2793627
-0.00023024035
-1.3675895
0.097732356
-0.17735191
-0.056265586
-0.18309224
-0.2359848
-0.17868806
-0.24241736
-0.15625753
-0.15158687
-0.16536293
0.022642013
-0.18451543
0.16316948
-0.21833908
0.18199381
-0.2591742
0.13480044
-0.29987937
0.046640017
-0.3334797
-0.062194393
-0.35119246
-0.1208142
-0.3479642
-0.10907972
-0.34563637
-0.068893619
-0.35842669
-0.031786278
-0.38529385
-0.0078452368
-0.41863645
0.004752764
-0.45555673
0.0094763211
-0.49441735
0.0093874977
-0.53423338
0.0069819499
-0.57466243
0.004083874
-0.61596821
0.001713994
-0.658803
0.00018733234
-0.70391617
-0.00060931737
-0.75194447
-0.00093214308
-0.80333481
-0.0010080887
-0.85838464
-0.00098766254
-0.91732087
-0.00093329972
-0.98036941
-0.00085120727
-1.0477422
-0.00074542862
-1.1197688
-0.00060701242
-1.1967467
-0.00043323661
-1.2791597
-0.00022815184
-1.3673614
0.10079003
-0.17120949
-0.05597109
-0.17764641
-0.24439826
-0.17467878
-0.25255596
-0.16854946
-0.15683473
-0.15100967
0.026078862
-0.16879977
0.17903506
-0.20038101
0.20243443
-0.23877971
0.15384699
-0.27822075
0.05798682
-0.31122617
-0.063942731
-0.33173136
-0.14054679
-0.33145987
-0.13198816
-0.32505575
-0.084686089
-0.3298439
-0.036818946
-0.35339402
-0.0072232843
-0.3859158
0.0081588074
-0.4220425
0.013995698
-0.46007611
0.01382604
-0.4988559
0.010568524
-0.53781996
0.0065142097
-0.57709277
0.0030751404
-0.61732935
0.0007800237
-0.65939569
-0.00045512828
-0.70407036
-0.00097167368
-0.75190494
-0.001103521
-0.80323937
-0.0010792871
-0.85829301
-0.0010133575
-0.91724081
-0.00093643794
-0.98028418
-0.0008500004
-1.0476376
-0.00074314702
-1.1196327
-0.00060299734
-1.196577
-0.00042918047
-1.2789587
-0.00022539795
-1.367136
0.10386754
-0.16524973
-0.055218054
-0.17196253
-0.25165418
-0.17039049
-0.26157215
-0.16566259
-0.16633062
-0.15905358
0.029596044
-0.15452685
0.19387407
-0.18363878
0.22146716
-0.21941374
0.17190655
-0.25683928
0.068685131
-0.28891906
-0.066634069
-0.30853484
-0.15971505
-0.31256309
-0.15744904
-0.305999
-0.10484493
-0.30489691
-0.043621356
-0.32304149
-0.0059168348
-0.35470047
0.012493715
-0.39025071
0.019598689
-0.42764549
0.01940986
-0.46565993
0.015197907
-0.50348528
0.0097347817
-0.54104053
0.0049115314
-0.57892916
0.0015729832
-0.61812231
-0.00028006567
-0.65957075
-0.0010714733
-0.70397056
-0.0012718307
-0.75173663
-0.0012249942
-0.80309367
-0.0011171382
-0.85818923
-0.0010166504
-0.9171606
-0.00093061609
-0.98020356
-0.00084426569
-1.0475365
-0.00073655538
-1.1194991
-0.0005967748
-1.1964094
-0.00042393145
-1.2787602
-0.00022215201
-1.3669138
0.10692258
-0.15970018
-0.054025583
-0.1664422
-0.25750828
-0.16610842
-0.26930016
-0.16266248
-0.17481011
-0.1571831
0.02532669
-0.15478422
0.20769173
-0.16834451
0.23904918
-0.2012208
0.18866751
-0.23617469
0.078512894
-0.26666704
-0.07101456
-0.28453857
-0.17840848
-0.28984141
-0.18353187
-0.28648026
-0.12802854
-0.28281539
-0.053673364
-0.2948449
-0.0040436363
-0.32491468
0.017905355
-0.36011211
0.026369008
-0.39702103
0.026261729
-0.43449736
0.021032471
-0.47149449
0.013912461
-0.50766296
0.0073466581
-0.54347565
0.0026201944
-0.57997637
-9.2037141e-05
-0.61831034
-0.0012737999
-0.65936843
-0.0015670915
-0.7036753
-0.0014732086
-0.75148841
-0.0012829163
-0.80292789
-0.0011182207
-0.85808766
-0.0010024406
-0.91708878
-0.00091743446
-0.98013039
-0.00083337251
-1.0474397
-0.00072759702
-1.1193683
-0.00058917048
-1.1962442
-0.00041783372
-1.2785645
-0.0002185608
-1.3666952
0.1099435
-0.15468788
-0.052402182
-0.16132358
-0.26191562
-0.16203486
-0.27567535
-0.15973323
-0.18222832
-0.15524428
0.021525601
-0.15338201
0.21441053
-0.16150302
0.25500912
-0.18430445
0.20396765
-0.21652094
0.087392862
-0.24505466
-0.075930474
-0.26175113
-0.19647305
-0.26647401
-0.20696314
-0.26641014
-0.15140114
-0.26310766
-0.066904167
-0.26958459
-0.0023645302
-0.29652401
0.024640957
-0.33165029
0.034376002
-0.36811911
0.034468628
-0.40522793
0.028217768
-0.44168265
0.019223149
-0.47680518
0.010527157
-0.51084346
0.0039937948
-0.54484926
0.00010789902
-0.58017631
-0.001629778
-0.61795436
-0.0020591171
-0.6588764
-0.0018898058
-0.7032587
-0.001563111
-0.75120822
-0.0012786366
-0.80276747
-0.0010885826
-0.85800152
-0.0009750359
-0.91703118
-0.00089768669
-0.98006608
-0.00081939529
-1.0473479
-0.00071692485
-1.1192405
-0.00058036225
-1.1960816
-0.00041107588
-1.278372
-0.00021478978
-1.3664805
0.11288648
-0.15030596
-0.050422429
-0.15666764
-0.26491291
-0.1583263
-0.28070607
-0.15700414
-0.18852796
-0.15343358
0.018188881
-0.15190756
0.22116238
-0.16013387
0.267574
-0.17406791
0.21763198
-0.19796877
0.095168269
-0.22429635
-0.081084218
-0.23990092
-0.21375771
-0.24446646
-0.22753258
-0.24590458
-0.17321749
-0.24459379
-0.082317005
-0.24769482
-0.001805585
-0.27014353
0.032745961
-0.30462901
0.043614785
-0.34088907
0.044063512
-0.37771399
0.036863005
-0.41387317
0.025839139
-0.44829864
0.014621173
-0.48089919
0.0057888605
-0.51263853
0.00032154633
-0.5450629
-0.002204268
-0.57960182
-0.0028344819
-0.617179
-0.0025593232
-0.65820688
-0.0020262511
-0.70279556
-0.0015481031
-0.75093875
-0.0012219018
-0.80263415
-0.0010357541
-0.8579408
-0.00093784292
-0.91699102
-0.00087372271
-0.98001175
-0.0008033529
-1.0472614
-0.0007047365
-1.1191162
-0.00057070087
-1.195922
-0.00040406057
-1.2781827
-0.00021099755
-1.3662695
0.11576171
-0.14674985
-0.047990902
-0.15273748
-0.26648101
-0.15509954
-0.28440673
-0.15462564
-0.1936688
-0.1518633
0.015411797
-0.1506565
0.22772067
-0.15846584
0.27983161
-0.17239148
0.23293231
-0.18936824
0.10192042
-0.20472092
-0.086338121
-0.21904244
-0.23021206
-0.22344657
-0.24644908
-0.22554996
-0.19302781
-0.22609426
-0.098728899
-0.2281819
-0.0033343165
-0.24616609
0.041777278
-0.27917485
0.054225528
-0.31523975
0.054987406
-0.35181296
0.047032906
-0.38788389
0.033920412
-0.42195444
0.019818353
-0.45349582
0.0081272617
-0.48323759
0.00056258145
-0.51287956
-0.0030652762
-0.54420189
-0.003999802
-0.5784365
-0.0035881363
-0.61615018
-0.0027606264
-0.65747251
-0.001991876
-0.70235179
-0.0014463953
-0.75071426
-0.0011260205
-0.80254389
-0.00096750114
-0.85791114
-0.00089519319
-0.91696955
-0.00084799863
-0.9799671
-0.00078619202
-1.04718
-0.00069201746
-1.1189948
-0.00056098408
-1.1957651
-0.0003970848
-1.2779966
-0.00020731635
-1.3660621
-0.14418685
0.11859409
-0.04505265
-0.14968811
-0.26665831
-0.15256018
-0.28681316
-0.1526931
-0.19766753
-0.15062691
0.013342046
-0.14979355
0.23395525
-0.15689108
0.29153332
-0.17016755
0.24764908
-0.18710825
0.11739658
-0.2048444
-0.091243954
-0.19981509
-0.24556975
-0.20368476
-0.26385689
-0.20603875
-0.21093763
-0.20764014
-0.11471206
-0.2101111
-0.0070793001
-0.22443692
0.050924101
-0.25531291
0.066172371
-0.29112169
0.067174619
-0.32742697
0.058746927
-0.36352698
0.043607731
-0.39757121
0.026329212
-0.4284653
0.011168657
-0.45653722
0.00086208082
-0.48353709
-0.0042929045
-0.51165193
-0.005687726
-0.54251397
-0.0051081124
-0.57691652
-0.0038766164
-0.61503419
-0.0026927826
-0.6567716
-0.0018189966
-0.70197919
-0.0012817527
-0.75055853
-0.0010065598
-0.80250483
-0.00089290512
-0.85791343
-0.0008518175
-0.91696573
-0.00082208501
-0.97993121
-0.00076920186
-1.0471028
-0.00067958712
-1.1188762
-0.00055145578
-1.1956107
-0.00039036306
-1.2778136
-0.00020383201
-1.3658583
-0.14754445
-0.041695052
-0.1426408
0.12139203
-0.26553868
-0.15080773
-0.28805846
-0.15131488
-0.20059691
-0.14976373
0.011921873
-0.14920673
0.23995419
-0.1557925
0.30229864
-0.16765639
0.26152389
-0.18404235
0.13228847
-0.20200014
-0.0825322
-0.21355616
-0.25982564
-0.1855592
-0.27967466
-0.18786699
-0.22699251
-0.18998387
-0.12931811
-0.19303408
-0.012372545
-0.20481785
0.059570546
-0.23308336
0.07929768
-0.26843822
0.080517023
-0.3044641
0.071951614
-0.34063165
0.05502069
-0.37493994
0.034380007
-0.405622
0.015115595
-0.43241224
0.00127792
-0.45695306
-0.0059686308
-0.48186137
-0.0080545014
-0.50928516
-0.0072804582
-0.54034162
-0.0055091556
-0.57528398
-0.003752637
-0.61397434
-0.0024106323
-0.65617997
-0.0015482563
-0.70171268
-0.0010812513
-0.75048383
-0.00087910307
-0.80251863
-0.00081905788
-0.85794619
-0.00080976968
-0.91697805
-0.00079746356
-0.97990295
-0.00075322234
-1.0470292
-0.0006678111
-1.1187599
-0.00054249191
-1.1954586
-0.00038409901
-1.2776333
-0.00020061422
-1.3656577
-0.14973383
-0.2633493
-0.1464379
-0.037897949
-0.1423825
0.12404265
-0.28836822
-0.15049798
-0.20256133
-0.14935046
0.011096193
-0.14893805
0.24571929
-0.15497183
0.31178243
-0.16527629
0.27414139
-0.1802739
0.14620964
-0.19796352
-0.073050227
-0.21148211
-0.26457964
-0.20880216
-0.29406283
-0.17117103
-0.24124825
-0.17361125
-0.14222593
-0.17707606
-0.018322895
-0.18708373
0.067366379
-0.21261369
0.093339951
-0.24712563
0.094909459
-0.28283065
0.086514232
-0.31902672
0.068223401
-0.35383436
0.044202648
-0.38476258
0.020219736
-0.41072614
0.0019091119
-0.43304343
-0.0081781583
-0.45474353
-0.011286314
-0.47862955
-0.010299981
-0.50626563
-0.0078199644
-0.53803081
-0.0052926234
-0.57374399
-0.0033063073
-0.61307866
-0.0019803142
-0.65574791
-0.0012231947
-0.70157074
-0.00086917355
-0.75049376
-0.00075425489
-0.80258343
-0.00074870143
-0.85800726
-0.00077123894
-0.91700427
-0.00077540799
-0.97988076
-0.00073883648
-1.0469581
-0.0006571978
-1.1186452
-0.00053438981
-1.1953083
-0.00037839755
-1.2774555
-0.00019768838
-1.36546
-0.15031414
-0.28778791
-0.14983775
-0.25994945
-0.14621604
-0.034064414
-0.14296286
0.12661877
-0.20364048
-0.14941882
0.010978731
-0.149233
0.25114479
-0.15436355
0.31996837
-0.16315777
0.28502713
-0.17616203
0.15862333
-0.19268759
-0.063691885
-0.20732187
-0.26790127
-0.20816048
-0.30664835
-0.19621664
-0.2538381
-0.15858118
-0.15350545
-0.16233173
-0.024315543
-0.17108341
0.074242882
-0.19396023
0.10790162
-0.22717535
0.11023931
-0.26245549
0.10225832
-0.29857475
0.083226778
-0.33403009
0.056023425
-0.36565514
0.026780128
-0.39132298
0.0028998322
-0.41171686
-0.011011759
-0.43020983
-0.015606296
-0.45042355
-0.014402008
-0.47452753
-0.011000229
-0.50308537
-0.0074536709
-0.53586977
-0.0046038235
-0.57244648
-0.0026417297
-0.61241725
-0.0014695766
-0.65550153
-0.00088144733
-0.70155847
-0.00066302141
-0.750585
-0.00063727271
-0.80269486
-0.0006856016
-0.85809289
-0.0007384323
-0.91704125
-0.00075687533
-0.97986273
-0.0007267147
-1.0468886
-0.00064813228
-1.1185314
-0.00052724632
-1.1951594
-0.00037330694
-1.2772799
-0.00019505451
-1.365265
-0.15040008
-0.20355454
-0.15159977
-0.2860259
-0.15049437
-0.25567112
-0.14682175
-0.030205524
-0.1444138
0.12889022
0.011784822
-0.15022491
0.25619288
-0.15428108
0.3269646
-0.16135978
0.29386376
-0.1719944
0.16933991
-0.18687861
-0.054499995
-0.20187948
-0.26983247
-0.20539066
-0.31788802
-0.19692081
-0.27123948
-0.17881527
-0.16340765
-0.14867898
-0.029964805
-0.15668247
0.080191248
-0.17703178
0.12256905
-0.20862766
0.1263225
-0.24325854
0.11897451
-0.27917167
0.099960258
-0.31530823
0.070042939
-0.34804961
0.035145648
-0.37402066
0.0044516502
-0.39287479
-0.014554762
-0.40817386
-0.021271681
-0.42454444
-0.019865168
-0.44496039
-0.015271796
-0.47025596
-0.010395344
-0.50014369
-0.0064118407
-0.53406175
-0.0036031906
-0.57148502
-0.00186192
-0.61202491
-0.00093611379
-0.65544686
-0.00055126434
-0.70167022
-0.00047274354
-0.75074953
-0.00053370765
-0.80284676
-0.00063365483
-0.85819767
-0.00071263728
-0.91708549
-0.00074270363
-0.97984674
-0.00071731487
-1.0468194
-0.00064069104
-1.118418
-0.00052113821
-1.1950116
-0.00036883207
-1.2771061
-0.00019270008
-1.3650723
-0.15221418
0.013598919
-0.15288307
-0.20227124
-0.15337742
-0.28314285
-0.1518222
-0.25067068
-0.14806051
-0.026558813
-0.14657705
0.13064987
0.26089512
-0.15492716
0.33265001
-0.15996649
0.30063079
-0.16812682
0.1780138
-0.18066829
-0.045683809
-0.1956948
-0.27015838
-0.20155357
-0.32761349
-0.19566519
-0.28708407
-0.18107622
-0.18458562
-0.1576373
-0.035048171
-0.14359561
0.085280357
-0.16177158
0.13699565
-0.19145837
0.14289242
-0.22519758
0.13640807
-0.26069211
0.11817028
-0.2973817
0.086256274
-0.33152156
0.045566561
-0.35847052
0.0068271945
-0.37639621
-0.018865711
-0.38856384
-0.028588134
-0.40085741
-0.027023302
-0.41738631
-0.020887707
-0.43934447
-0.014292283
-0.46635902
-0.0088463163
-0.49770922
-0.0049387042
-0.53272624
-0.0024433224
-0.57090361
-0.0010536656
-0.61190735
-0.00042373755
-0.65557439
-0.00025002349
-0.70189294
-0.00030599711
-0.75097724
-0.00044956159
-0.80303085
-0.00059460514
-0.8583157
-0.00069459296
-0.9171336
-0.00073323017
-0.97983082
-0.00071063938
-1.0467495
-0.00063489818
-1.1183042
-0.00051603152
-1.1948644
-0.00036492542
-1.2769339
-0.00019058496
-1.3648817
-0.15639033
0.26507128
-0.15506448
0.015780336
-0.15610635
-0.19954231
-0.15589744
-0.2790676
-0.15375698
-0.24497421
-0.1498199
-0.023315955
-0.14929516
0.13185264
0.33683295
-0.15911009
0.30540158
-0.16473728
0.18447555
-0.17458858
-0.03790932
-0.18844278
-0.26944169
-0.19641149
-0.33591178
-0.19325528
-0.3012398
-0.18150945
-0.20422355
-0.16143829
-0.056424078
-0.13626139
0.089952623
-0.14826788
0.1508112
-0.17558713
0.15967132
-0.20823728
0.15423409
-0.2430236
0.13736568
-0.2798875
0.10406698
-0.3151924
0.057738819
-0.34369382
0.0099698154
-0.36161314
-0.024036874
-0.37122504
-0.037882506
-0.37926947
-0.036267385
-0.39161333
-0.028134458
-0.41013955
-0.019326873
-0.43430989
-0.012024964
-0.46318037
-0.00671961
-0.49592831
-0.0032554621
-0.5319141
-0.0012518854
-0.57070539
-0.00028230328
-0.61204879
3.9266639e-05
-0.65586368
1.1419233e-05
-0.70221036
-0.00017092534
-0.75125587
-0.00038755832
-0.8032379
-0.00056890404
-0.85844139
-0.00068445791
-0.91718237
-0.00072834715
-0.97981311
-0.00070665255
-1.0466777
-0.00063071624
-1.1181896
-0.00051184349
-1.1947175
-0.00036151666
-1.276763
-0.00018867132
-1.364693
-0.1589487
0.33939131
-0.15794074
0.26794753
-0.15906317
0.018737164
-0.16016793
-0.19527183
-0.15914124
-0.27368333
-0.15635324
-0.23844088
-0.15220708
-0.020404027
-0.15246853
0.13246249
0.30822731
-0.16193581
0.18853481
-0.16879654
-0.031622505
-0.18087539
-0.26751489
-0.19036957
-0.3426412
-0.18968208
-0.31366126
-0.18083382
-0.22225159
-0.1634814
-0.077303505
-0.14055887
0.078681583
-0.12499035
0.16413339
-0.16159006
0.17632737
-0.19224317
0.17205904
-0.22606222
0.15684105
-0.26249897
0.12227611
-0.29809664
0.070483034
-0.32793662
0.01284778
-0.34657178
-0.030931575
-0.35471844
-0.049651192
-0.35945636
-0.048058224
-0.36747863
-0.037332675
-0.38241511
-0.025680431
-0.403786
-0.016055699
-0.43027915
-0.0090110259
-0.46088896
-0.0043316438
-0.49485213
-0.0015432573
-0.53162272
-0.00012357527
-0.57086412
0.00040907954
-0.6124186
0.00043751832
-0.65628978
0.00022246005
-0.70260374
-7.2071531e-05
-0.75157136
-0.00034788516
-0.80345891
-0.00055634354
-0.85856951
-0.00068188476
-0.91722883
-0.00072778124
-0.97979199
-0.00070517381
-1.0466033
-0.00062792988
-1.1180735
-0.00050843657
-1.1945706
-0.00035851359
-1.2765931
-0.00018690831
-1.3645061
-0.15982195
0.30910056
-0.15870675
0.34015733
-0.16091264
0.269797
-0.1637864
0.022355638
-0.16490426
-0.18950881
-0.16314594
-0.26689063
-0.15960037
-0.23104759
-0.15512493
-0.017747621
-0.15607273
0.13239982
0.1902067
-0.16360769
-0.026918679
-0.17350037
-0.26448281
-0.18390747
-0.34764041
-0.18537036
-0.32411158
-0.17923176
-0.23855266
-0.16453275
-0.0969677
-0.14381721
0.065980162
-0.12785744
0.16669201
-0.12754898
0.19262918
-0.17789188
0.18949644
-0.20968058
0.175872
-0.24509317
0.13992876
-0.28015162
0.082210367
-0.30982397
0.014409438
-0.32949828
-0.041856715
-0.33564664
-0.065092095
-0.33927754
-0.06295228
-0.3445623
-0.048852917
-0.35595839
-0.033524327
-0.37457121
-0.021024316
-0.39881738
-0.011860789
-0.42742939
-0.005693761
-0.45952684
-0.0019311202
-0.49446427
6.3637452e-05
-0.53180994
0.00088018497
-0.57133523
0.00099837199
-0.61297945
0.00075776106
-0.65682508
0.00037728423
-0.7030531
-9.2909128e-06
-0.75190995
-0.00032957907
-0.80368568
-0.00055607174
-0.85869532
-0.00068620607
-0.91727041
-0.00073108127
-0.97976608
-0.00070581715
-1.0465254
-0.00062631198
-1.1179556