/*--------------------------------*- C++ -*----------------------------------*\
| =========                 |                                                 |
| \\      /  F ield         | OpenFOAM: The Open Source CFD Toolbox           |
|  \\    /   O peration     | Version:  5.0                                   |
|   \\  /    A nd           | Web:      www.OpenFOAM.org                      |
|    \\/     M anipulation  |                                                 |
\*---------------------------------------------------------------------------*/
FoamFile
{
    version     2.0;
    format      ascii;
    class       surfaceScalarField;
    location    "260";
    object      phi_0;
}
// * * * * * * * * * * * * * * * * * * * * * * * * * * * * * * * * * * * * * //

dimensions      [0 3 -1 0 0 0 0];

internalField   nonuniform List<scalar> 
18180
(
-0.0019003392
-1.3896548
-0.0036992719
-1.299678
-0.0018496786
-1.3878051
-0.0053875216
-1.2156579
-0.0036023823
-1.2979253
-0.0017622548
-1.3860429
-0.0069874397
-1.1371736
-0.0052622682
-1.2139981
-0.0034342335
-1.2962533
-0.0016375912
-1.3844053
-0.0084811142
-1.0638384
-0.0068470917
-1.1355888
-0.0050253769
-1.2124069
-0.0031928486
-1.2946981
-0.0015011734
-1.3829041
-0.0098514779
-0.99531087
-0.0083611377
-1.0623244
-0.0065559003
-1.1340583
-0.0046744211
-1.2109253
-0.0029233185
-1.2932759
-0.001365831
-1.3815383
-0.011062478
-0.93127146
-0.009805496
-0.99386651
-0.0080430436
-1.0608372
-0.0061041813
-1.1326285
-0.0042740802
-1.2095746
-0.0026533002
-1.2919885
-0.001248872
-1.3802894
-0.012079018
-0.87144444
-0.011174989
-0.92990197
-0.0095086028
-0.99240095
-0.0075042654
-1.0594371
-0.0055682462
-1.1313344
-0.003868778
-1.2083591
-0.002418525
-1.2908188
-0.0011544461
-1.379135
-0.012873724
-0.81556479
-0.012464258
-0.87015517
-0.010987718
-0.92842285
-0.0089090882
-0.99099613
-0.0068207111
-1.0581847
-0.0050179726
-1.1301852
-0.0035169625
-1.2072607
-0.0022303807
-1.2897429
-0.0010797324
-1.3780552
-0.013335129
-0.76343548
-0.013642035
-0.81438701
-0.012536764
-0.86860613
-0.010375353
-0.92695659
-0.0080549786
-0.98976186
-0.0061043348
-1.0570983
-0.0045429312
-1.1291592
-0.0032398681
-1.2062512
-0.0020858242
-1.2887368
-0.0010169821
-1.3770383
-0.013358692
-0.71480339
-0.014770996
-0.76230652
-0.014262492
-0.81266128
-0.011971018
-0.86701046
-0.0093047966
-0.92570677
-0.0071305811
-0.98873562
-0.0054930907
-1.0561481
-0.0041795851
-1.1282195
-0.0030339869
-1.205303
-0.0019692453
-1.2877845
-0.00095879342
-1.3760795
-0.012853128
-0.66955702
-0.016019998
-0.71355439
-0.016320262
-0.76024875
-0.013804192
-0.81082811
-0.010606041
-0.86570922
-0.0080962969
-0.92474105
-0.006352727
-0.98787598
-0.0050464358
-1.0552813
-0.0039234069
-1.1273301
-0.0028727539
-1.2043995
-0.0018629596
-1.2868804
-0.0008995697
-1.3751799
-0.01170274
-0.6275171
-0.01750235
-0.66807467
-0.018721901
-0.71115275
-0.015931016
-0.75812192
-0.011997864
-0.80943628
-0.0089978749
-0.86480764
-0.0070972118
-0.92399657
-0.0058206251
-0.98710179
-0.0047547801
-1.0544499
-0.0037312859
-1.1264715
-0.0027257306
-1.2035367
-0.0017524987
-1.2860274
-0.00083540639
-1.3743445
-0.0098270228
-0.58843663
-0.019230633
-0.62578881
-0.021587368
-0.6652092
-0.018434158
-0.70864961
-0.013508603
-0.75661118
-0.00980753
-0.80862663
-0.0076908938
-0.86421396
-0.0064697963
-0.9233474
-0.0055130486
-0.98634352
-0.0045497285
-1.0536315
-0.0035562509
-1.125641
-0.0025691989
-1.20272
-0.0016287519
-1.2852341
-0.00076437221
-1.3735801
-0.0071681266
-0.55210377
-0.02119489
-0.58647237
-0.025185202
-0.62219098
-0.021503809
-0.66213955
-0.015208969
-0.70694925
-0.01047165
-0.75594706
-0.0080712926
-0.80824623
-0.0069460984
-0.86373766
-0.0061706908
-0.92268975
-0.0053235004
-0.98556975
-0.0043647947
-1.0528229
-0.0033630645
-1.1248471
-0.0023890571
-1.2019597
-0.0014887393
-1.2845097
-0.00068735559
-1.3728928
-0.0037435595
-0.5182196
-0.02343093
-0.54986773
-0.029767861
-0.58188971
-0.025345905
-0.61834888
-0.017175097
-0.66017342
-0.010978033
-0.70644286
-0.0081132998
-0.75590506
-0.0071583899
-0.80803394
-0.0066784317
-0.86322991
-0.0060372143
-0.92197604
-0.0051608429
-0.9847737
-0.0041514491
-1.0520346
-0.0031308059
-1.1241054
-0.0021808838
-1.2012676
-0.0013356062
-1.2838615
-0.00060793547
-1.3722848
0.00052375832
-0.4865531
-0.025981765
-0.51566877
-0.035570054
-0.54406553
-0.03017375
-0.57706186
-0.019493037
-0.61603094
-0.011280291
-0.65987116
-0.0077129834
-0.70684318
-0.006998905
-0.75606454
-0.0069486479
-0.80776372
-0.0066541316
-0.862613
-0.0059533163
-0.92118356
-0.004955353
-0.9839698
-0.0038758915
-1.0512895
-0.0028538052
-1.1234325
-0.0019503163
-1.2006529
-0.0011770958
-1.2832923
-0.00053085201
-1.371754
0.005842453
-0.4572233
-0.028944129
-0.48359074
-0.042829946
-0.50840888
-0.03619273
-0.53804656
-0.022266011
-0.57428889
-0.011321665
-0.61598957
-0.006748172
-0.66083597
-0.006300372
-0.70754171
-0.0069796883
-0.7560335
-0.0071652622
-0.80725259
-0.0067539577
-0.86181235
-0.0058104686
-0.92032845
-0.004651425
-0.98319426
-0.0035271042
-1.0506162
-0.0025407822
-1.122842
-0.0017102516
-1.2001197
-0.0010228603
-1.2828003
-0.0004602898
-1.3712937
0.012775879
-0.43079398
-0.032087854
-0.45407957
-0.051655935
-0.47476475
-0.043539559
-0.50106205
-0.025588764
-0.5347238
-0.011043303
-0.57456725
-0.0050595164
-0.61767822
-0.0049104408
-0.6622259
-0.0066289316
-0.70789247
-0.0076112346
-0.75558753
-0.007627772
-0.80637877
-0.0067731856
-0.86084964
-0.005503048
-0.91947683
-0.0042280363
-0.98249333
-0.0031199669
-1.050037
-0.0022111577
-1.1223411
-0.0014762467
-1.1996663
-0.00088166463
-1.2823789
-0.00039913051
-1.3708946
0.021324717
-0.40690444
-0.034734711
-0.42814712
-0.06206946
-0.44366605
-0.052326309
-0.465978
-0.029499538
-0.49715127
-0.010375537
-0.53539157
-0.0024644738
-0.57716229
-0.002631992
-0.61995667
-0.0057113997
-0.66314343
-0.0079595226
-0.70754418
-0.0085977302
-0.75461757
-0.007923967
-0.80522799
-0.0064992851
-0.8598534
-0.0049950263
-0.91870983
-0.0037076458
-0.98190565
-0.0026852367
-1.0495629
-0.0018883704
-1.121929
-0.00126216
-1.1992858
-0.00075962246
-1.2820184
-0.00034905399
-1.3705455
0.030101447
-0.38278469
-0.035756238
-0.40588292
-0.074121347
-0.41609523
-0.062902824
-0.43308953
-0.03407407
-0.46140347
-0.0092529832
-0.49827382
0.00123977
-0.53909581
0.0007651728
-0.58055946
-0.0040540901
-0.62161398
-0.0081166807
-0.66298627
-0.0097146082
-0.7064273
-0.0093096202
-0.75323191
-0.007710109
-0.80401717
-0.0058840855
-0.85896434
-0.0043303701
-0.91808711
-0.0031407964
-0.98145009
-0.0022579356
-1.0491933
-0.0015932387
-1.1215979
-0.0010775395
-1.1989679
-0.00065976248
-1.2817077
-0.00031068318
-1.3702348
0.039221284
-0.35767269
-0.034880873
-0.38366005
-0.088171753
-0.39183251
-0.07600884
-0.40298922
-0.039748286
-0.42741531
-0.0075913479
-0.4630651
0.0062587441
-0.5032928
0.0055445793
-0.54387522
-0.0014508886
-0.58316266
-0.0079820976
-0.62174856
-0.011054271
-0.66164661
-0.011057921
-0.704679
-0.0092219966
-0.75172003
-0.00695383
-0.80294742
-0.0050215015
-0.85827321
-0.003590746
-0.91763716
-0.0025829161
-0.98112511
-0.001868947
-1.0489176
-0.0013403696
-1.1213351
-0.00092696873
-1.1987007
-0.00058240213
-1.281436
-0.00028337583
-1.3699514
0.048429594
-0.33270038
-0.033650974
-0.35890259
-0.10290226
-0.36892954
-0.092496434
-0.37534492
-0.047518258
-0.39521925
-0.0054210622
-0.4295856
0.012780214
-0.46958657
0.011951847
-0.50970007
0.0023297588
-0.54765587
-0.0074463799
-0.58369838
-0.012678361
-0.62012447
-0.013334269
-0.65937026
-0.011187159
-0.70271384
-0.0082916786
-0.75038218
-0.0058201772
-0.80214875
-0.0040448531
-0.8578191
-0.002861566
-0.91735851
-0.0020797687
-0.98091429
-0.0015399019
-1.0487181
-0.0011370959
-1.1211249
-0.00081081837
-1.1984723
-0.00052580833
-1.2811936
-0.00026502662
-1.3696864
0.056964691
-0.30735646
-0.0340769
-0.33227445
-0.11795136
-0.34385349
-0.11253923
-0.34888675
-0.05819926
-0.36466391
-0.0030212051
-0.3976191
0.02100522
-0.43781061
0.020240177
-0.4778749
0.0075560283
-0.51492633
-0.0063866153
-0.54871563
-0.014659445
-0.58171729
-0.016334694
-0.61712405
-0.013789765
-0.65676766
-0.010013715
-0.7009918
-0.0067787182
-0.74942364
-0.004513708
-0.80167989
-0.0030831422
-0.85759753
-0.0022112969
-0.91722698
-0.0016620812
-0.98079211
-0.0012813929
-1.0485738
-0.00098380293
-1.120952
-0.0007265859
-1.1982715
-0.00048686639
-1.2809717
-0.00025267733
-1.3694337
0.064788208
-0.28241948
-0.035731473
-0.30570189
-0.13362041
-0.31660541
-0.13345271
-0.32294001
-0.071488572
-0.33559743
-0.00061884639
-0.36706627
0.031175022
-0.4077889
0.030645754
-0.44821618
0.014496965
-0.48481584
-0.0046549638
-0.51665799
-0.017093296
-0.54628178
-0.020301298
-0.57775069
-0.017259515
-0.6136543
-0.012265183
-0.65451619
-0.0079576821
-0.69981284
-0.0050077971
-0.74892955
-0.0032306916
-0.80153234
-0.0022377598
-0.85757106
-0.0016849123
-0.91720415
-0.0013434867
-0.98073002
-0.0010933707
-1.0484642
-0.00087545619
-1.1208031
-0.00066988116
-1.1980885
-0.00046168839
-1.2807627
-0.00024374083
-1.36919
0.071774467
-0.25837298
-0.037483155
-0.2806678
-0.14874686
-0.29057544
-0.15231917
-0.29773894
-0.085843055
-0.30858552
0.0018698764
-0.33808616
0.043457237
-0.37934849
0.043367466
-0.42051062
0.023381212
-0.45710043
-0.0020817642
-0.48738904
-0.020071821
-0.51367946
-0.025517764
-0.54106531
-0.021860909
-0.5731493
-0.015219031
-0.61070045
-0.0094319077
-0.65304197
-0.0055346261
-0.69928601
-0.0032787309
-0.74888151
-0.0021225103
-0.80164759
-0.0015744028
-0.85768157
-0.0012999994
-0.91724764
-0.0011222232
-0.98070116
-0.00096720452
-1.0483725
-0.00080426369
-1.1206687
-0.0006348918
-1.1979153
-0.00044641215
-1.28056
-0.00023709305
-1.3689529
0.077957677
-0.23573462
-0.03933502
-0.25652111
-0.16330706
-0.26610759
-0.16911201
-0.2737826
-0.099694222
-0.28388778
0.0041209442
-0.31083659
0.057720428
-0.35234935
0.058441606
-0.39442263
0.034232813
-0.43136222
0.0014179107
-0.4606001
-0.023728502
-0.48373236
-0.032312247
-0.50688498
-0.02789123
-0.53503499
-0.019061489
-0.56930684
-0.011282076
-0.60885028
-0.0060982173
-0.65247838
-0.0031910175
-0.69937372
-0.001814481
-0.74918954
-0.0012833433
-0.80193865
-0.0011158053
-0.85786577
-0.0010504571
-0.91731941
-0.00098534179
-0.98068303
-0.00088928369
-1.0482875
-0.00076189907
-1.1205417
-0.00061530182
-1.1977464
-0.00043814024
-1.280359
-0.0002328995
-1.36872
0.083426785
-0.21471266
-0.041167458
-0.23390219
-0.17714181
-0.24268637
-0.18485358
-0.25036602
-0.11275323
-0.26072359
0.0055519096
-0.28531874
0.073530572
-0.32664674
0.07566572
-0.36957346
0.046935022
-0.40712484
0.0057518875
-0.43569619
-0.028337542
-0.45599106
-0.041079327
-0.47496528
-0.035687005
-0.49908921
-0.023995744
-0.53010074
-0.013592147
-0.56699677
-0.006695677
-0.60825282
-0.0029175127
-0.65275188
-0.0012463518
-0.69994185
-0.0007474641
-0.74972542
-0.0007422072
-0.80231225
-0.00084844675
-0.85806778
-0.0009149924
-0.91738976
-0.0009126476
-0.98065966
-0.00084512647
-1.0482042
-0.00074022944
-1.1204168
-0.00060594576
-1.1975786
-0.00043495589
-1.2801569
-0.00023120987
-1.3684888
0.08827028
-0.19535737
-0.042911104
-0.21296901
-0.19012818
-0.22091582
-0.1992605
-0.22827945
-0.12451622
-0.23860303
0.0063539119
-0.26152559
0.09038079
-0.30216896
0.094875169
-0.34585618
0.061583597
-0.38422204
0.010921295
-0.41229424
-0.034336103
-0.42969763
-0.05227971
-0.44479068
-0.0455957
-0.46505658
-0.03023526
-0.49284969
-0.016439669
-0.52725322
-0.0073175773
-0.56637487
-0.0023946337
-0.6087757
-0.00033343641
-0.6536648
0.00011646263
-0.70080578
-0.00011321287
-0.75035441
-0.00047402867
-0.80268667
-0.00073714494
-0.85824563
-0.00086472555
-0.91743768
-0.00088093137
-0.98062386
-0.00082261176
-1.0481219
-0.00073242335
-1.1202903
-0.00060365457
-1.1974099
-0.00043483593
-1.2799533
-0.0002311169
-1.3682577
0.092560488
-0.1776559
-0.044489413
-0.19377906
-0.20220274
-0.20089444
-0.21236355
-0.20781277
-0.13478574
-0.21800992
0.0072960308
-0.23954515
0.10778949
-0.27893429
0.11596261
-0.3232564
0.078594848
-0.36286744
0.017722292
-0.39102303
-0.041533049
-0.4050973
-0.066266557
-0.41571079
-0.057872756
-0.43251363
-0.03797026
-0.45732158
-0.01988456
-0.4894048
-0.0079389964
-0.5266318
-0.0015464924
-0.56722301
0.0010267533
-0.61013589
0.001413344
-0.65496168
0.00085676602
-0.70177576
0.0001300407
-0.75095848
-0.00042212479
-0.80300169
-0.00073744209
-0.85837291
-0.00086707156
-0.91745154
-0.00087127565
-0.98057519
-0.00082075903
-1.0480335
-0.00073532989
-1.1201586
-0.000605339
-1.1972394
-0.00043561977
-1.2797488
-0.00023136473
-1.3680263
0.095350402
-0.18932006
-0.045812272
-0.17633304
-0.21332455
-0.18265725
-0.22423009
-0.1890279
-0.14368701
-0.1989115
0.0087690418
-0.21948293
0.12528487
-0.25704054
0.13815567
-0.30112734
0.097889896
-0.34255145
0.027355
-0.37250014
-0.048391286
-0.3841648
-0.082613758
-0.3887501
-0.072555412
-0.40102813
-0.047243556
-0.42324033
-0.023949365
-0.45325678
-0.0085092985
-0.4888345
-0.00028375037
-0.52789454
0.0029522673
-0.56914852
0.0032646373
-0.61198718
0.0022731554
-0.65637807
0.0010384699
-0.70268419
7.0456878e-05
-0.75145107
-0.00051818584
-0.80322095
-0.00080310681
-0.85843687
-0.00089247759
-0.91743034
-0.00088254306
-0.98051341
-0.00083339009
-1.0479355
-0.0007410133
-1.1200229
-0.00060687567
-1.1970681
-0.00043587048
-1.2795443
-0.00023111659
-1.3677952
0.098322124
-0.18346206
-0.046649548
-0.18848278
-0.22349895
-0.16615864
-0.23488667
-0.17200068
-0.15133167
-0.18138324
0.010894907
-0.20103737
0.14231975
-0.23651781
0.16041422
-0.27929909
0.11777298
-0.32101042
0.039554851
-0.3547513
-0.053414649
-0.36747678
-0.10017391
-0.36660465
-0.089676412
-0.3716291
-0.057939372
-0.39033231
-0.028548817
-0.41864088
-0.0089443427
-0.45282173
0.0014981982
-0.49061644
0.0055689425
-0.53051122
0.0058093389
-0.57169322
0.004262986
-0.61397702
0.0023444184
-0.65768402
0.0007935185
-0.70340725
-0.00018857344
-0.75178068
-0.00069385949
-0.8033302
-0.00089286134
-0.85843649
-0.00093040576
-0.91738247
-0.00090620206
-0.9804406
-0.00084423874
-1.0478322
-0.00074251913
-1.1198873
-0.00060684718
-1.1968972
-0.00043510936
-1.2793403
-0.00023006616
-1.3675651
0.10136681
-0.17739657
-0.046616673
-0.18349493
-0.23276177
-0.17921996
-0.24440608
-0.15663923
-0.15787366
-0.16545869
0.013492294
-0.18398063
0.1586141
-0.21733171
0.18199446
-0.25809805
0.13754174
-0.29906785
0.051708198
-0.33316377
-0.056231366
-0.35193459
-0.11845332
-0.34919737
-0.10954152
-0.34673954
-0.070577082
-0.35899139
-0.033478199
-0.38540293
-0.0091155343
-0.41846969
0.0039189166
-0.45524245
0.0090070357
-0.49405454
0.0091961383
-0.53389801
0.0069707138
-0.57440095
0.0041621983
-0.61579479
0.0018159519
-0.65870645
0.00027704531
-0.70387287
-0.00054396994
-0.75193057
-0.00089014468
-0.80333291
-0.00098296697
-0.85838393
-0.00097272542
-0.91731595
-0.0009253295
-0.98035951
-0.00084711419
-1.0477276
-0.00074322827
-1.1197509
-0.00060609511
-1.1967262
-0.00043301715
-1.2791374
-0.00022820524
-1.3673369
0.10447982
-0.17127301
-0.045990061
-0.17802318
-0.24107131
-0.1751854
-0.2545778
-0.16904824
-0.1634406
-0.15107229
0.016327898
-0.16829429
0.17407695
-0.19944349
0.20241915
-0.2377564
0.15686772
-0.27742403
0.063607931
-0.31096758
-0.056925551
-0.33246958
-0.13751402
-0.33287389
-0.13233194
-0.32640695
-0.086742044
-0.33057457
-0.038979985
-0.3534896
-0.0088218743
-0.38569659
0.0071061697
-0.42165694
0.013392658
-0.45962807
0.013574178
-0.49843258
0.010554606
-0.53748191
0.0066259113
-0.57686466
0.0032239259
-0.61720277
0.00091352314
-0.65934293
-0.00035680548
-0.70406003
-0.00090806261
-0.75191265
-0.0010660461
-0.80324983
-0.0010583938
-0.85829826
-0.0010025442
-0.91723874
-0.00093129728
-0.98027532
-0.00084748872
-1.0476234
-0.00074223433
-1.1196148
-0.00060289033
-1.1965563
-0.00042941664
-1.2789362
-0.00022564613
-1.3671113
0.10759995
-0.16532263
-0.044963179
-0.1722999
-0.24823851
-0.17085597
-0.26362658
-0.16613662
-0.17310611
-0.15938273
0.019310488
-0.15405488
0.18855089
-0.18276822
0.22144496
-0.2184693
0.17521617
-0.25610485
0.07500583
-0.28882193
-0.05851694
-0.30937619
-0.15586534
-0.31411826
-0.15764741
-0.30755842
-0.10725139
-0.30589761
-0.046393983
-0.32316058
-0.0078954829
-0.35441599
0.011196313
-0.38978673
0.018839375
-0.42710366
0.019082558
-0.46513645
0.0151779
-0.50305587
0.0098880324
-0.54074403
0.0051226987
-0.57876344
0.0017671407
-0.61805639
-0.00013493053
-0.6595648
-0.000976773
-0.70399132
-0.0012164433
-0.75176225
-0.0011953013
-0.80311293
-0.0011025165
-0.85819829
-0.0010102327
-0.9171598
-0.000928074
-0.98019474
-0.00084361805
-1.047522
-0.00073681631
-1.1194809
-0.00059736138
-1.1963884
-0.00042455623
-1.2787372
-0.00022255942
-1.3668887
0.11068169
-0.15977129
-0.043557827
-0.16672798
-0.25401711
-0.1665213
-0.27138287
-0.16309968
-0.18174562
-0.15749711
0.01455001
-0.15462225
0.20204209
-0.16754608
0.23904633
-0.20036959
0.19225913
-0.23551226
0.085548604
-0.26664763
-0.061885594
-0.28545328
-0.17386076
-0.29138077
-0.18367922
-0.28808645
-0.13076957
-0.28404024
-0.057234962
-0.29505663
-0.0065066643
-0.3245494
0.016342178
-0.35956186
0.025431872
-0.39637923
0.025841864
-0.43386296
0.021000287
-0.47095884
0.014114971
-0.50728281
0.0076384846
-0.54325981
0.0028965673
-0.57989286
0.00011876295
-0.61831008
-0.001134745
-0.65940683
-0.0014859305
-0.70372183
-0.001430524
-0.75152703
-0.0012628575
-0.80295258
-0.0011102038
-0.85809832
-0.0010000998
-0.91708777
-0.00091748086
-0.98012088
-0.00083437448
-1.0474244
-0.00072883783
-1.1193494
-0.00059035978
-1.1962226
-0.00041878326
-1.278541
-0.00021908836
-1.3666696
0.11371638
-0.15475338
-0.041774187
-0.16155493
-0.25835701
-0.16238808
-0.27777913
-0.16012504
-0.18930439
-0.15554091
0.010288901
-0.153236
0.20823782
-0.16081799
0.25504966
-0.18354941
0.20782372
-0.21593418
0.095117092
-0.24508075
-0.065861922
-0.2626713
-0.19146023
-0.26785382
-0.2071396
-0.26792039
-0.15445166
-0.26440436
-0.07131199
-0.26996321
-0.005470612
-0.29609268
0.022799645
-0.33100686
0.033244674
-0.36737466
0.033938291
-0.40447566
0.0281648
-0.44102747
0.019481045
-0.47632492
0.010919768
-0.51056409
0.0043790459
-0.54474229
0.00040899719
-0.5801831
-0.0014286637
-0.61801616
-0.0019415331
-0.65895123
-0.0018286426
-0.70332371
-0.0015353951
-0.75125449
-0.0012686241
-0.80279416
-0.0010868303
-0.85801159
-0.00097649832
-0.91702876
-0.00090009365
-0.98005516
-0.00082180803
-1.0473315
-0.00071905992
-1.1192207
-0.00058206372
-1.1960593
-0.00041226758
-1.2783478
-0.00021539507
-1.3664542
0.11665893
-0.15035861
-0.039693255
-0.15683431
-0.26129311
-0.15861883
-0.2828225
-0.15734471
-0.19572601
-0.15370342
0.006530543
-0.15178256
0.2144662
-0.15946438
0.26744902
-0.17321735
0.22173422
-0.19745991
0.10353632
-0.22435341
-0.070126269
-0.2408164
-0.20837341
-0.24575811
-0.22769893
-0.24729449
-0.17649473
-0.24587732
-0.087462028
-0.24825432
-0.0057346246
-0.2696992
0.030582504
-0.30387554
0.042284899
-0.34004709
0.04340515
-0.37684152
0.036777257
-0.41308812
0.026155318
-0.44770175
0.015135689
-0.48054084
0.0063152177
-0.51250026
0.00074427784
-0.54507757
-0.0019177835
-0.57969398
-0.0026662368
-0.61729146
-0.0024725074
-0.65830736
-0.0019880701
-0.70287104
-0.0015357153
-0.7509874
-0.0012214657
-0.80265953
-0.0010397423
-0.85794834
-0.00094271861
-0.91698613
-0.00087808838
-0.97999888
-0.00080698334
-1.0472435
-0.00070758486
-1.1190952
-0.00057276078
-1.1958988
-0.00040540479
-1.2781578
-0.0002116389
-1.3662426
0.11951914
-0.14678342
-0.037220523
-0.15283134
-0.26279903
-0.1553284
-0.28652783
-0.1549135
-0.20097049
-0.15210023
0.003379358
-0.15055224
0.22050843
-0.15782478
0.27958326
-0.17159862
0.2369514
-0.18843454
0.11087532
-0.20479891
-0.074564172
-0.2199155
-0.22451908
-0.22467074
-0.24661021
-0.22684683
-0.19647235
-0.22731686
-0.10445528
-0.22888407
-0.0082093697
-0.24577958
0.039206492
-0.27832319
0.052710874
-0.31430152
0.054182201
-0.35082414
0.046897578
-0.38696184
0.034291509
-0.42122431
0.0204742
-0.45304026
0.0088320958
-0.48305772
0.0011469462
-0.51290293
-0.0026620456
-0.54433331
-0.0037619217
-0.57859829
-0.0034663836
-0.61629758
-0.0027085674
-0.65758686
-0.0019768262
-0.70242993
-0.0014484294
-0.75076044
-0.0011341168
-0.80256515
-0.00097631196
-0.85791475
-0.00090274514
-0.91696148
-0.00085392814
-0.97995193
-0.00079075449
-1.0471604
-0.0006953481
-1.1189726
-0.00056326934
-1.1957409
-0.000398501
-1.277971
-0.00020795667
-1.3660346
-0.14420019
0.12232554
-0.034293398
-0.14971054
-0.26291059
-0.15271977
-0.2889311
-0.15292513
-0.2050512
-0.1508328
0.00097294915
-0.14969382
0.22626271
-0.15630652
0.29119337
-0.16943488
0.25159694
-0.18624416
0.12656801
-0.20412722
-0.078735519
-0.20062756
-0.23960389
-0.20483069
-0.26404317
-0.20723777
-0.21455127
-0.20876792
-0.12089037
-0.21088177
-0.012943947
-0.22414949
0.047816886
-0.25438997
0.06447922
-0.29009153
0.066210356
-0.32632967
0.058537425
-0.36246399
0.044021621
-0.39669195
0.027141186
-0.42789129
0.012093923
-0.45630209
0.0016581717
-0.48356894
-0.0037320678
-0.51183291
-0.0053555706
-0.54273966
-0.0049396177
-0.57712506
-0.0038067094
-0.61519944
-0.0026751182
-0.65688857
-0.0018252983
-0.70205306
-0.0012961549
-0.7505984
-0.0010213343
-0.80252013
-0.00090524128
-0.85791225
-0.00086136982
-0.91695403
-0.00082928354
-0.9799134
-0.00077439077
-1.0470813
-0.00068322229
-1.1188526
-0.00055384517
-1.1955856
-0.00039177455
-1.2777871
-0.00020443855
-1.3658302
-0.14750761
-0.030985978
-0.14263071
0.12508557
-0.26171602
-0.15090511
-0.2901573
-0.15149357
-0.20803679
-0.14993954
-0.00075587079
-0.14910398
0.23184487
-0.15527598
0.30189112
-0.16700427
0.26541245
-0.1832504
0.14163956
-0.20131571
-0.069276026
-0.21358671
-0.25359039
-0.18664106
-0.27991984
-0.18895402
-0.23078703
-0.19100201
-0.13585979
-0.1937985
-0.019192326
-0.20463339
0.05578834
-0.23212095
0.077411038
-0.26732179
0.079390339
-0.30327152
0.071637555
-0.3394298
0.055454933
-0.3738973
0.035354674
-0.40490544
0.016306182
-0.43210355
0.0023477601
-0.45699168
-0.0051971426
-0.48210387
-0.0075957265
-0.50959276
-0.0070505099
-0.54062877
-0.0054171105
-0.57551466
-0.0037331457
-0.61414141
-0.0024240624
-0.65628981
-0.0015723319
-0.70177688
-0.0011050881
-0.75051464
-0.00089870428
-0.80252667
-0.00083410174
-0.85793952
-0.0008209017
-0.91696242
-0.00080546793
-0.97988233
-0.00075879128
-1.0470058
-0.00067157048
-1.1187349
-0.00054486082
-1.1954325
-0.00038543879
-1.2776061
-0.0002011602
-1.365629
-0.14978177
-0.25944185
-0.14634206
-0.027274627
-0.14236063
0.12769511
-0.29042669
-0.15063573
-0.21003938
-0.14949098
-0.0018527039
-0.1488427
0.23725503
-0.15451414
0.31135013
-0.16473499
0.27797536
-0.17956718
0.15573212
-0.19734296
-0.059143537
-0.2114482
-0.25754512
-0.20963198
-0.29441666
-0.17214424
-0.24521716
-0.17452389
-0.14907366
-0.17778814
-0.026008322
-0.1869825
0.06280399
-0.21164904
0.091221506
-0.24593142
0.093626424
-0.28155787
0.086060108
-0.31769407
0.068642773
-0.35261764
0.045334926
-0.38387755
0.021721299
-0.41032056
0.0033287204
-0.43308451
-0.0071272157
-0.4550616
-0.010658347
-0.47904125
-0.0099905937
-0.50665267
-0.0077015582
-0.53834432
-0.0052734747
-0.57397433
-0.0033313826
-0.61323409
-0.0020190861
-0.65584305
-0.0012606277
-0.70162134
-0.00089974115
-0.75051361
-0.00077748292
-0.80258329
-0.00076579627
-0.85799463
-0.00078337205
-0.91698451
-0.00078384579
-0.97985727
-0.00074453996
-1.0469328
-0.00066090246
-1.1186188
-0.00053663721
-1.1952813
-0.00037961196
-1.2774277
-0.00019815378
-1.3654309
-0.15039949
-0.28980897
-0.14982624
-0.25595768
-0.14608236
-0.0235529
-0.14293023
0.13023116
-0.21116538
-0.14950973
-0.0021952423
-0.14914844
0.24237758
-0.15396526
0.31955722
-0.16272123
0.28880154
-0.17556118
0.16829052
-0.19212558
-0.049240618
-0.20724588
-0.26004144
-0.20895187
-0.30668186
-0.19736679
-0.25797091
-0.15939049
-0.16062523
-0.16297233
-0.032747258
-0.1710492
0.068844818
-0.19302333
0.10549427
-0.2259218
0.10881257
-0.26111756
0.10162668
-0.29712445
0.083580185
-0.33263148
0.057290885
-0.3645736
0.028635596
-0.39079185
0.0047614236
-0.41175326
-0.0095919184
-0.43061981
-0.014753835
-0.45096611
-0.013991693
-0.47504015
-0.010852099
-0.50350213
-0.0074393448
-0.53617845
-0.0046474801
-0.57265823
-0.0027024383
-0.61255074
-0.0015270003
-0.65557668
-0.00092814072
-0.70159294
-0.00069827328
-0.75059282
-0.00066311955
-0.80268596
-0.00070384215
-0.85807416
-0.0007509988
-0.91701736
-0.00076538452
-0.97983643
-0.00073230344
-1.0468614
-0.00065163874
-1.1185038
-0.00052928927
-1.1951316
-0.00037435345
-1.2772515
-0.00019542458
-1.3652355
-0.15043018
-0.21113469
-0.15162466
-0.28801055
-0.1504287
-0.25161135
-0.14665695
-0.019826178
-0.14437531
0.13245908
-0.0015697655
-0.1501352
0.2471896
-0.15396046
0.32660898
-0.16101702
0.29760836
-0.17152805
0.17909355
-0.1863642
-0.039633273
-0.20173292
-0.26116047
-0.20612685
-0.31763205
-0.19800168
-0.27509851
-0.18023919
-0.17077255
-0.14924317
-0.039023747
-0.15669584
0.073939917
-0.1761443
0.11981155
-0.20734061
0.12476307
-0.24187231
0.11813385
-0.27762472
0.10018621
-0.31373047
0.071408447
-0.34674904
0.03739121
-0.37332921
0.0068637677
-0.39289419
-0.012649725
-0.40869545
-0.020122067
-0.42525158
-0.019328364
-0.44562944
-0.015092762
-0.47079949
-0.010393906
-0.50054757
-0.0064845453
-0.53434139
-0.003695996
-0.57166467
-0.0019481538
-0.61212958
-0.0010059867
-0.65549883
-0.00060386543
-0.70168735
-0.00051111232
-0.75074482
-0.00056080814
-0.802829
-0.00065218543
-0.85817297
-0.00072512332
-0.91705762
-0.00075095165
-0.97981778
-0.00072258762
-1.0467904
-0.00064388512
-1.1183892
-0.00052291044
-1.1949831
-0.00036968053
-1.2770772
-0.00019296597
-1.3650425
-0.15212486
0.00012491771
-0.15288854
-0.20987081
-0.15333567
-0.28510358
-0.15169787
-0.24657042
-0.14786769
-0.016333794
-0.14654022
0.13417612
0.25176022
-0.15470582
0.33237185
-0.15972333
0.3044029
-0.16781156
0.18782678
-0.18026128
-0.030506387
-0.19549108
-0.26068388
-0.20220952
-0.32711026
-0.19664865
-0.29066913
-0.18243106
-0.19181836
-0.15919338
-0.044637742
-0.14362917
0.078195451
-0.16095137
0.13382837
-0.19016112
0.14120637
-0.22378392
0.13534097
-0.25907943
0.11822554
-0.29566405
0.087700867
-0.33002289
0.048257632
-0.35761547
0.0099217058
-0.37638715
-0.016328539
-0.38921538
-0.027048683
-0.40176884
-0.026330969
-0.41824897
-0.020681076
-0.44004113
-0.014317238
-0.46687615
-0.0089634662
-0.49806865
-0.0050775144
-0.53295987
-0.0025703084
-0.57104252
-0.0011561477
-0.61197942
-0.00050086014
-0.65560184
-0.0003060421
-0.70189242
-0.00034563721
-0.75096
-0.00047662449
-0.80300456
-0.00061274642
-0.85828535
-0.00070656688
-0.91710201
-0.00074095558
-0.97979941
-0.00071543694
-1.0467189
-0.00063768369
-1.1182745
-0.00051748672
-1.1948352
-0.00036555689
-1.2769046
-0.00019074238
-1.3648518
-0.1562861
0.25592146
-0.15499733
0.0022337074
-0.15605301
-0.20715346
-0.15577955
-0.2810219
-0.15356398
-0.24087414
-0.14959701
-0.013276999
-0.14925621
0.13532758
0.33664529
-0.15897926
0.30924776
-0.16456818
0.19432519
-0.17430997
-0.02254351
-0.18822415
-0.25920688
-0.19696808
-0.33518375
-0.19413602
-0.30453898
-0.1827788
-0.21129264
-0.16295678
-0.066349965
-0.13748115
0.082057095
-0.14749082
0.14718539
-0.17430839
0.15786513
-0.20681988
0.15294592
-0.24138887
0.13726117
-0.27811507
0.10565568
-0.31361887
0.061011074
-0.34277633
0.013958112
-0.36165187
-0.020662328
-0.37205336
-0.035835292
-0.38042877
-0.035387107
-0.3927127
-0.027911616
-0.41101843
-0.019399976
-0.43495839
-0.012208221
-0.4636314
-0.0069234053
-0.49622276
-0.0034388873
-0.53209129
-0.0013993665
-0.5707993
-0.00039324705
-0.61208704
-4.1093156e-05
-0.65586679
-4.5559804e-05
-0.7021925
-0.00020993777
-0.75122668
-0.00041365119
-0.80320366
-0.00058610243
-0.85840581
-0.00069558267
-0.91714738
-0.00073534672
-0.9797795
-0.00071084501
-1.0466457
-0.00063302743
-1.1181589
-0.00051295222
-1.1946879
-0.00036192171
-1.2767335
-0.00018871976
-1.364663
-0.15893621
0.3392954
-0.15795035
0.25887447
-0.15901398
0.00519467
-0.16005445
-0.20287857
-0.15893778
-0.27564811
-0.15608002
-0.23439112
-0.15194218
-0.010591028
-0.15242603
0.13588092
0.31217276
-0.16190427
0.19839703
-0.16864002
-0.016193134
-0.18066035
-0.25664594
-0.19078509
-0.34171262
-0.19043922
-0.31668225
-0.18199276
-0.22915635
-0.16491509
-0.087416684
-0.14189006
0.069706959
-0.12513102
0.16004415
-0.16034957
0.17440596
-0.19084922
0.17058134
-0.2244553
0.1566329
-0.2607606
0.1241845
-0.29664388
0.074570935
-0.32717873
0.018069403
-0.34688762
-0.026366774
-0.35594743
-0.046931104
-0.36095755
-0.046951011
-0.36886487
-0.037117097
-0.38350722
-0.025835439
-0.40458297
-0.016335045
-0.43083157
-0.0093046283
-0.46125018
-0.0045915042
-0.49507014
-0.0017516552
-0.531739
-0.00028021673
-0.57091233
0.00029533906
-0.61242347
0.00035690513
-0.65626925
0.00016703233
-0.70256947
-0.00010909979
-0.75153123
-0.00037231036
-0.80341745
-0.00057216989
-0.85852923
-0.00069190776
-0.91719082
-0.00073389907
-0.97975645
-0.00070867764
-1.0465701
-0.00062972931
-1.1180422
-0.00050918491
-1.1945406
-0.00035869119
-1.2765635
-0.00018685074
-1.3644762
-0.15991882
0.31315537
-0.15879358
0.34013863
-0.16103039
0.26089089
-0.16376451
0.0089047347
-0.16473558
-0.19708076
-0.16285832
-0.26886981
-0.15925075
-0.22708255
-0.15482399
-0.0081930744
-0.15603009
0.13575517
0.20006673
-0.16357397
-0.011535868
-0.17329729
-0.25314416
-0.18416213
-0.34650667
-0.18599104
-0.32685908
-0.18026238
-0.24528367
-0.16586544
-0.10718299
-0.14514878
0.055945904
-0.12812901
0.16172224
-0.12680912
0.19059869
-0.1765423
0.18788543
-0.20815331
0.17563775
-0.24346015
0.14226341
-0.27883951
0.087159148
-0.30923209
0.021143618
-0.33025294
-0.035617778
-0.33763662
-0.061526013
-0.34135252
-0.061589063
-0.3463195
-0.04868466
-0.3572973
-0.03381163
-0.37553103
-0.021439986
-0.39947803
-0.012275976
-0.42786022
-0.006054481
-0.4597872
-0.0022204988
-0.4946013
-0.0001530847
-0.53186613
0.00072229544
-0.57133929
0.0008865001
-0.61295306
0.00068046559
-0.65678269
0.00032547218
-0.70300404
-4.3460065e-05
-0.75186008
-0.00035179478
-0.80363782
-0.00057020668
-0.85865093
-0.00069494031
-0.91722978
-0.00073621063
-0.97972891
-0.00070858287
-1.0464912