/*--------------------------------*- C++ -*----------------------------------*\
| =========                 |                                                 |
| \\      /  F ield         | OpenFOAM: The Open Source CFD Toolbox           |
|  \\    /   O peration     | Version:  5.0                                   |
|   \\  /    A nd           | Web:      www.OpenFOAM.org                      |
|    \\/     M anipulation  |                                                 |
\*---------------------------------------------------------------------------*/
FoamFile
{
    version     2.0;
    format      ascii;
    class       volScalarField;
    location    "260";
    object      pMean;
}
// * * * * * * * * * * * * * * * * * * * * * * * * * * * * * * * * * * * * * //

dimensions      [0 2 -2 0 0 0 0];

internalField   nonuniform List<scalar> 
9200
(
0.00048776719
0.00050864732
0.0012304256
0.00053216196
0.0012758891
0.0020142567
0.00057368289
0.0013300434
0.002082148
0.0026842367
0.00062627719
0.0014179906
0.002172311
0.0027704625
0.0033044946
0.00069124612
0.001526751
0.002310428
0.0028902393
0.0034061121
0.0038371675
0.00077186707
0.0016528799
0.0024808194
0.0030673593
0.0035515227
0.0039500897
0.0042927498
0.00086543753
0.0017974853
0.0026746832
0.0032868648
0.0037618721
0.0041167374
0.0044147516
0.0046707393
0.0009682639
0.0019521157
0.0028905361
0.0035363507
0.0040224527
0.004354133
0.0045992964
0.0047987484
0.0049751236
0.0010711854
0.0021123441
0.0031165572
0.003813909
0.0043160994
0.004649352
0.0048587654
0.0049974083
0.0051067224
0.0052114394
0.001157694
0.0022656395
0.0033478766
0.0041032247
0.0046397346
0.004981125
0.0051829347
0.0052741391
0.0053162256
0.005343819
0.0053846516
0.0011866092
0.0023944027
0.0035659225
0.0043919342
0.0049737729
0.0053464125
0.0055471941
0.0056224919
0.0056056133
0.0055605431
0.0055151429
0.005501459
0.0011077759
0.0024693529
0.0037426536
0.004657922
0.0053046417
0.0057239462
0.0059491363
0.0060148926
0.0059731945
0.0058575494
0.0057353308
0.0056271177
0.0055675986
0.00092381764
0.0024607847
0.0038458742
0.0048766887
0.00561036
0.0061002587
0.0063657787
0.0064501712
0.0063886721
0.0062390901
0.0060347297
0.0058466716
0.0056855439
0.005590565
0.00068361721
0.0023496823
0.00385384
0.0050179632
0.0058694873
0.0064521915
0.0067840158
0.0069046159
0.0068530832
0.0066726439
0.0064242635
0.0061426996
0.0059002478
0.0056977349
0.0055760554
0.00045429974
0.0021127456
0.0037292191
0.00504818
0.0060494325
0.0067589165
0.0071816986
0.0073654897
0.0073425625
0.007161621
0.0068695918
0.0065335441
0.0061869158
0.0059030201
0.0056695932
0.0055317895
0.00022296959
0.0017674798
0.0034257086
0.0049303758
0.0061131071
0.006987579
0.0075386853
0.0078124098
0.0078452519
0.0076823503
0.0073771943
0.0069837387
0.00657187
0.006173811
0.0058610477
0.0056088653
0.0054632828
-7.3492771e-06
0.0013616056
0.0029747515
0.004626523
0.006022158
0.0070992838
0.0078221128
0.0082246858
0.0083418643
0.0082246782
0.0079245794
0.0075029377
0.0070188635
0.0065449885
0.0061094851
0.005781932
0.0055211604
0.0053777954
-0.00023538589
0.00095119852
0.0024566738
0.0041493057
0.0057417227
0.0070539676
0.0079932327
0.0085699775
0.0088107867
0.0087699469
0.0085024974
0.0080695723
0.0075411471
0.0069798376
0.0064587927
0.0060012879
0.0056715438
0.0054140563
0.0052806178
-0.00046254122
0.00057261323
0.0019057853
0.0035675314
0.0052677259
0.0068201614
0.0080099137
0.0088101219
0.0092223156
0.0092969805
0.0090931284
0.008676538
0.0081187193
0.0074954545
0.0068719251
0.0063201778
0.0058555784
0.0055376796
0.0052930703
0.0051778471
-0.00077080467
0.00018734292
0.0013555541
0.0029168946
0.0046473095
0.0063772091
0.0078367987
0.0089033981
0.009538594
0.0097776226
0.0096766612
0.0093074252
0.0087465527
0.0080735585
0.0073701082
0.0067014782
0.0061357253
0.0056802802
0.0053860625
0.0051647092
0.0050742539
-0.0010904019
-0.00019493697
0.00079989078
0.0022317871
0.0039254482
0.0057515522
0.0074464238
0.008800239
0.0097167947
0.01017577
0.010226552
0.0099435096
0.0094101631
0.0087118419
0.0079371517
0.0071705021
0.0064750445
0.0059133805
0.0054815336
0.0052238133
0.0050340125
0.0049745435
-0.0013208954
-0.00056566741
0.00019466487
0.0015182491
0.0031343932
0.0049927723
0.006847024
0.0084780832
0.0097013397
0.010445633
0.010708547
0.010560144
0.010092037
0.0093976375
0.0085737385
0.0077136066
0.0069029565
0.0062004798
0.0056600429
0.0052672379
0.0050563301
0.0049061529
0.0048825982
-0.001467984
-0.00089593128
-0.00049850575
0.00070718849
0.0022886458
0.0041279612
0.0060794272
0.0079332142
0.0094628516
0.01053551
0.011075304
0.011124695
0.010769286
0.010115666
0.0092693453
0.0083343525
0.0074084191
0.0065748986
0.0058852747
0.0053841441
0.0050432982
0.004889508
0.0047853373
0.0048018603
-0.001609969
-0.0012332779
-0.0012493681
-0.00027018634
0.0013194245
0.0031736733
0.0051631599
0.0071804567
0.0089842689
0.010393248
0.011277521
0.011592104
0.011412513
0.010845189
0.010010916
0.0090248889
0.0079980759
0.0070283941
0.0061942185
0.0055382994
0.005092328
0.0048166872
0.0047280668
0.0046753309
0.0047350628
-0.0017697772
-0.0016651851
-0.0020513761
-0.0013611649
0.00013235869
0.0020755053
0.004120623
0.0062389856
0.0082645871
0.0099900766
0.011246381
0.011908324
0.011978808
0.011558741
0.01078047
0.0097747828
0.0086671494
0.0075708216
0.0065815152
0.0057702062
0.0051673347
0.0047927652
0.0045927774
0.0045764965
0.0045792105
0.0046843513
-0.0019653865
-0.0021721491
-0.0029063778
-0.0025048465
-0.0012508747
0.00071940617
0.0029019781
0.0051266516
0.0073172861
0.0093232514
0.010940643
0.012008709
0.012410927
0.012217691
0.011552315
0.010568487
0.009407799
0.008200275
0.0070602907
0.0060773317
0.0053117495
0.0047815048
0.004491643
0.004377159
0.0044384494
0.0044994844
0.0046514478
-0.0022122832
-0.0027855735
-0.0038650527
-0.0036984289
-0.0027193722
-0.0009157767
0.0013892195
0.0038117428
0.0061521041
0.0083892343
0.010349275
0.011828129
0.012650501
0.012765167
0.012292083
0.011383699
0.01020752
0.0089121156
0.0076313191
0.0064758531
0.0055256334
0.004828839
0.0043882221
0.0041960098
0.0041742824
0.0043170159
0.0044381255
0.0046377311
-0.0024942114
-0.0034885549
-0.0049326113
-0.0050214838
-0.0042490084
-0.002678037
-0.00046688819
0.0021681494
0.0047491972
0.007186236
0.0094533409
0.011328673
0.012611632
0.013137491
0.012947953
0.012188458
0.01104676
0.0096970159
0.0082936295
0.0069693808
0.0058279095
0.0049374489
0.0043303661
0.0039959595
0.0039111008
0.0039882035
0.0042147061
0.0043966368
0.0046437602
-0.0027891894
-0.0042509625
-0.0060691754
-0.0064349827
-0.0059233
-0.0045378404
-0.0025228743
0.0001193071
0.0029829797
0.0056960317
0.0082413329
0.010495398
0.012230417
0.013257244
0.013449218
0.012936564
0.011897159
0.010538527
0.0090411038
0.0075604895
0.0062252782
0.0051284783
0.0043232783
0.0038264104
0.0036110339
0.0036422106
0.0038220871
0.0041334356
0.0043759492
0.0046690391
-0.0031195651
-0.0050289358
-0.0072108488
-0.0078801686
-0.0076881088
-0.0065570365
-0.0047197111
-0.0022301888
0.00075320482
0.0038164198
0.0066852446
0.0093047735
0.0114894
0.013029401
0.013727704
0.013559647
0.01271735
0.011411867
0.0098604812
0.008246273
0.0067233933
0.0054116837
0.004389688
0.0036946215
0.0033252135
0.003240798
0.0033934321
0.0036786233
0.0040745016
0.0043764101
0.004713087
-0.0034518462
-0.0058309148
-0.008345309
-0.0093246731
-0.00947273
-0.0086762777
-0.0070815477
-0.0047715243
-0.0018806768
0.0014246826
0.0047194371
0.0077139461
0.010344909
0.012404898
0.013672616
0.013978485
0.013444695
0.012279241
0.010730294
0.0090170599
0.0073229312
0.0057955893
0.0045419648
0.0036245437
0.0030617227
0.0028355386
0.0028906192
0.0031689224
0.0035599278
0.0040386831
0.0043980556
0.0047768733
-0.0037049152
-0.0066495083
-0.0095061473
-0.010756156
-0.011251284
-0.010818594
-0.0095517698
-0.007476594
-0.0047644279
-0.0014737474
0.0021998341
0.0056963731
0.0087530993
0.011333819
0.013192945
0.014104225
0.013992351
0.013085529
0.011617172
0.0098548648
0.0080174752
0.006284335
0.0047917267
0.0036310331
0.0028452627
0.0024350778
0.0023642553
0.0025658313
0.0029716609
0.0034673631
0.0040263764
0.0044408437
0.0048611186
-0.0038383685
-0.0073613448
-0.010707071
-0.012207434
-0.013014475
-0.012947084
-0.012050085
-0.010292636
-0.0078216208
-0.0046974894
-0.00093117052
0.0030862443
0.0067064156
0.009775886
0.012232503
0.013802134
0.014279461
0.013745977
0.012471293
0.010730384
0.0087933374
0.0068748787
0.0051461851
0.0037282251
0.0026931975
0.002064611
0.0018236208
0.0019185067
0.0022702373
0.0028037317
0.003401769
0.0040376341
0.0045043735
0.0049650883
-0.0039008383
-0.0079288685
-0.011789887
-0.013712318
-0.01478922
-0.015053289
-0.014525367
-0.013146242
-0.010985041
-0.0081096656
-0.0044872059
-0.00023348127
0.0040179044
0.0077230354
0.01073649
0.012983071
0.014172833
0.014165124
0.013217351
0.01159871
0.009624424
0.0075574095
0.0056056832
0.00392625
0.0026215638
0.0017434392
0.0012939147
0.0012363397
0.0015034714
0.0020074633
0.0026665851
0.0033635382
0.0040722187
0.0045881157
0.0050860936
-0.0039174867
-0.0084013981
-0.012685876
-0.01514774
-0.016635728
-0.017170971
-0.016970989
-0.015974911
-0.014198484
-0.011628697
-0.0082435566
-0.004071116
0.00056282426
0.0049952818
0.0086982743
0.011573791
0.013524908
0.014243652
0.013750994
0.012393957
0.010471044
0.0083096818
0.0061638218
0.0042288277
0.0026433499
0.0014892449
0.00079566261
0.00054431426
0.00068041739
0.0011243019
0.0017797424
0.0025612192
0.0033525206
0.0041294184
0.0046917507
0.0052213451
-0.0039097503
-0.0088199623
-0.01342627
-0.016421116
-0.018433235
-0.019366745
-0.01942429
-0.018763467
-0.017389775
-0.015215129
-0.012131262
-0.0081625864
-0.0034883788
0.001467875
0.0059725531
0.0095671824
0.012240131
0.013795303
0.013970177
0.013016115
0.011273966
0.0090967458
0.0068026818
0.0046330316
0.0027652702
0.0013174787
0.00034785238
-0.00013642839
-0.00017477356
0.0001627261
0.00078441288
0.0015889878
0.0024880476
0.0033682106
0.0042079132
0.0048135381
0.0053694187
-0.0039044228
-0.0091684411
-0.01409393
-0.017496287
-0.020076137
-0.021523181
-0.021973318
-0.021561728
-0.02053825
-0.018789434
-0.016101109
-0.012411187
-0.0078712327
-0.0027282561
0.0024251664
0.0068651927
0.010292296
0.012672216
0.013725372
0.013340653
0.011942617
0.009864059
0.0074912472
0.00512459
0.0029875647
0.0012374669
-3.1971259e-05
-0.00078611489
-0.001040811
-0.0008544704
-0.00031164823
0.00048701376
0.0014360723
0.0024469177
0.0034098471
0.00430654
0.0049515614
0.0055285602
-0.0039097499
-0.0094501587
-0.014665952
-0.018452303
-0.021495923
-0.023555285
-0.024488368
-0.02447157
-0.023693885
-0.022316315
-0.020069965
-0.016756608
-0.012445684
-0.0073525172
-0.0018703481
0.0033288463
0.0076191999
0.010824416
0.012801958
0.013254885
0.012349351
0.010531538
0.0081804599
0.0056765803
0.0032999799
0.0012527076
-0.00033204597
-0.001385409
-0.0018977078
-0.0019062274
-0.0014876154
-0.00073804751
0.00023374608
0.0013214632
0.0024369661
0.0034762194
0.0044240138
0.0051043297
0.0056977942
-0.0039309693
-0.0096729922
-0.015133827
-0.019282951
-0.022724935
-0.025345711
-0.026917394
-0.027355588
-0.026980512
-0.025848796
-0.023990851
-0.021117452
-0.017144126
-0.012227371
-0.0066963838
-0.0010327432
0.0041100635
0.008194167
0.011099072
0.012540897
0.012363321
0.010981558
0.0087976864
0.0062453289
0.0036797222
0.0013566464
-0.00054588503
-0.0019204398
-0.0027247293
-0.0029727895
-0.0027231749
-0.002067793
-0.0011135781
2.5939192e-05
0.001244817
0.0024572118
0.0035659361
0.0045589021
0.0052702158
0.005876927
-0.0098379179
-0.0039766625
-0.015485837
-0.019966702
-0.023811636
-0.026876366
-0.029093252
-0.030174715
-0.030239962
-0.029525243
-0.027917844
-0.025434554
-0.021880393
-0.01726126
-0.011844883
-0.0060175463
-0.00028099946
0.0047206609
0.0085345141
0.011023128
0.01182036
0.011058415
0.0092362597
0.006763785
0.0040869878
0.0015304907
-0.00067643044
-0.0023818477
-0.0035062541
-0.0040327005
-0.0039991591
-0.0034830928
-0.0025904675
-0.0014359542
-0.00013626702
0.0012055266
0.0025063955
0.003677476
0.0047097524
0.0054477335
0.0060653793
-0.015712948
-0.0099219823
-0.0040506259
-0.020479122
-0.024708822
-0.028231251
-0.030958343
-0.032739362
-0.033441667
-0.033172541
-0.032010274
-0.029754833
-0.026573318
-0.022351395
-0.017188651
-0.011390376
-0.0053817244
0.00033154563
0.0051053709
0.0085635628
0.010510146
0.01061988
0.009342733
0.0071349628
0.004461249
0.0017390357
-0.00073845553
-0.0027693811
-0.0042301908
-0.005068748
-0.005294038
-0.0049658762
-0.0041793002
-0.0030519607
-0.0017041397
-0.00025299314
0.0012022162
0.0025829396
0.0038092016
0.0048750895
0.0056355717
0.0062619626
-0.020787307
-0.015789494
-0.0099194535
-0.0041428984
-0.025374538
-0.029346912
-0.032579147
-0.034959115
-0.036403412
-0.036770709
-0.036063622
-0.034264961
-0.031281486
-0.027409032
-0.022618013
-0.017017528
-0.010948792
-0.0048501345
0.00073884133
0.0051911856
0.0081925187
0.0094872676
0.0089483765
0.0072187795
0.004712515
0.0019264169
-0.00076253976
-0.0030934477
-0.0048931658
-0.0060665607
-0.0065893192
-0.0064947583
-0.0058638025
-0.0048063798
-0.0034499691
-0.0019175646
-0.00032534369
0.0012333586
0.0026850969
0.0039594125
0.0050534032
0.0058325958
0.0064654816
-0.025772051
-0.020864569
-0.015707345
-0.0098447851
-0.0042478665
-0.030189796
-0.033925425
-0.036851954
-0.038974126
-0.040131946
-0.040079047
-0.038741041
-0.03619792
-0.032496097
-0.028027781
-0.022767181
-0.016831389
-0.010586808
-0.0045038784
0.00086346927
0.0048847638
0.0073302974
0.0079094149
0.0068300457
0.0047142968
0.0020096667
-0.00080021053
-0.0033803158
-0.0055014262
-0.0070195786
-0.0078687061
-0.0080507674
-0.0076230622
-0.0066852138
-0.0053605376
-0.0037831513
-0.0020768953
-0.0003546752
0.0012970567
0.0028110357
0.004126391
0.005243116
0.0060374377
0.006674783
-0.030709431
-0.025879278
-0.020704722
-0.015482322
-0.0096958181
-0.0043486137
-0.034954225
-0.038425522
-0.041126322
-0.043043938
-0.043855532
-0.043187402
-0.041094261
-0.037823129
-0.033489143
-0.028510563
-0.022878068
-0.016696615
-0.010381439
-0.0044255872
0.0005982363
0.004102237
0.0059199028
0.0058057773
0.0042888675
0.0018730834
-0.00092758753
-0.0036763026
-0.0060767144
-0.0079301891
-0.0091226002
-0.0096159797
-0.0094382242
-0.0086687427
-0.0074244097
-0.0058392056
-0.0040512629
-0.0021832297
-0.00034294952
0.0013913403
0.0029588272
0.0043083979
0.0054427648
0.0062487951
0.006888638
-0.035603957
-0.030873482
-0.025692248
-0.020323921
-0.015125499
-0.0094556296
-0.0044175638
-0.039636905
-0.042920122
-0.045453651
-0.047110778
-0.04739482
-0.045962815
-0.043136763
-0.039219534
-0.034339885
-0.028941866
-0.023020749
-0.016694415
-0.010426759
-0.0047171777
-0.00015470592
0.0027888183
0.0039170789
0.0032272006
0.00135225
-0.0012523995
-0.0040516803
-0.0066598638
-0.0088150189
-0.010349513
-0.011177991
-0.011290179
-0.010738622
-0.0096236809
-0.0080771478
-0.0062409745
-0.0042550475
-0.0022384063
-0.00029223901
0.0015140031
0.0031264364
0.0045036517
0.0056509082
0.0064654883
0.0071059731
-0.040407378
-0.035825896
-0.030673234
-0.025216411
-0.019739796
-0.014636611
-0.009121099
-0.0044171598
-0.044297689
-0.04745403
-0.049773646
-0.051014562
-0.050596731
-0.048428367
-0.04494464
-0.040462315
-0.035120628
-0.029385488
-0.023268607
-0.016924547
-0.01082844
-0.0054953785
-0.001461347
0.00088685689
0.00134356
0.00022604371
-0.0019267295
-0.0046069577
-0.007314601
-0.0097093215
-0.011561074
-0.012731446
-0.013164078
-0.012875074
-0.011941178
-0.010481489
-0.008640726
-0.0065656573
-0.0043960253
-0.0022445542
-0.00020497565
0.0016627119
0.0033116762
0.0047103726
0.0058662814
0.0066865098
0.007325794
-0.045167015
-0.04067395
-0.035607837
-0.030121245
-0.024471701
-0.018974462
-0.014016704
-0.0086958687
-0.0043254347
-0.048974139
-0.051971077
-0.053946724
-0.054597324
-0.053487284
-0.050661144
-0.046594383
-0.041611756
-0.035900834
-0.02993402
-0.023739839
-0.017508017
-0.011723086
-0.0068468336
-0.0033597445
-0.0016131118
-0.0017098182
-0.0031581275
-0.0054819337
-0.0081354545
-0.0106701
-0.012786242
-0.014282908
-0.015050895
-0.015061331
-0.014356917
-0.013036926
-0.011237622
-0.0091137238
-0.006814283
-0.0044762145
-0.0022042086
-8.3881594e-05
0.0018347938
0.0035124592
0.0049271644
0.0060878667
0.0069108305
0.0075471359
-0.049915412
-0.04545106
-0.040419566
-0.034971623
-0.029242443
-0.023487485
-0.018036945
-0.013274327
-0.0081406812
-0.0040744005
-0.053617516
-0.056347639
-0.057828146
-0.057881697
-0.056140449
-0.052731397
-0.048133975
-0.042743556
-0.036768368
-0.030697748
-0.024565595
-0.018596984
-0.013217197
-0.0088012189
-0.0058438003
-0.0046717412
-0.0051802658
-0.0068660669
-0.0092504922
-0.011785176
-0.014075413
-0.015854916
-0.016951975
-0.017285011
-0.016852816
-0.015723988
-0.014018893
-0.011889229
-0.0094959672
-0.006988493
-0.0044980724
-0.0021204367
6.783802e-05
0.0020277844
0.0037272768
0.0051530271
0.0063144059
0.0071370288
0.0077690546
-0.054608845
-0.050188698
-0.045131556
-0.0396759
-0.033955466
-0.028063217
-0.022299672
-0.016927454
-0.012332102
-0.0073815876
-0.0036713449
-0.058121886
-0.060445867
-0.061448913
-0.060940976
-0.058629893
-0.054686306
-0.049636501
-0.043929084
-0.037844334
-0.031820854
-0.025911056
-0.020322641
-0.015328106
-0.011336507
-0.0088941115
-0.0082209199
-0.0090079591
-0.010836454
-0.013173442
-0.015507633
-0.017490357
-0.018883227
-0.019542268
-0.019413646
-0.018523814
-0.016966612
-0.014882319
-0.012434843
-0.0097885043
-0.0070907076
-0.0044649173
-0.0019969573
0.00024730296
0.0022400776
0.0039551589
0.0053862926
0.0065436676
0.0073636939
0.0079911541
-0.059156283
-0.054846586
-0.049771865
-0.044249704
-0.038498606
-0.032577297
-0.026626041
-0.020868835
-0.01556405
-0.011132581
-0.0064262119
-0.0032094171
-0.06236019
-0.064298446
-0.064863793
-0.063845979
-0.060999247
-0.056583169
-0.051164582
-0.045299564
-0.039285509
-0.033480048
-0.027924809
-0.022703619
-0.018021281
-0.014463761
-0.012479903
-0.012163231
-0.013135146
-0.014999341
-0.01719401
-0.019259364
-0.020879782
-0.021842412
-0.022030783
-0.021419028
-0.020061918
-0.018077493
-0.015624109
-0.01287414
-0.0099933819
-0.0071243515
-0.0043809966
-0.0018371783
0.00045288542
0.0024707594
0.0041937867
0.0056233394
0.006773613
0.0075912749
0.0082245184
-0.063451616
-0.059351445
-0.054310731
-0.048716908
-0.042869668
-0.036901879
-0.030867017
-0.024860097
-0.019131034
-0.013954307
-0.0097220985
-0.0054123175
-0.0027342821
-0.066368835
-0.067965998
-0.068125675
-0.066638319
-0.063305009
-0.058493919
-0.052852556
-0.047016671
-0.041261966
-0.035847156
-0.030639076
-0.025693954
-0.021296271
-0.018135683
-0.016519745
-0.016412207
-0.017484237
-0.01928592
-0.021262969
-0.023001858
-0.024212057
-0.024706752
-0.024396781
-0.023285802
-0.021456959
-0.019051319
-0.016242425
-0.013208252
-0.010113932
-0.007094137
-0.004250265
-0.0016426817
0.00068374668
0.0027165685
0.0044375926
0.0058611678
0.0070062936
0.0078353011
0.0084726546
-0.067529991
-0.063615211
-0.058687717
-0.053059165
-0.047096813
-0.041017173
-0.034867115
-0.028730393
-0.022738804
-0.017133793
-0.012174918
-0.0082753938
-0.0043802589
-0.0022248942
-0.070217921
-0.07149084
-0.071274357
-0.069372461
-0.065608549
-0.060540383
-0.054870787
-0.049261147
-0.04394973
-0.038969013
-0.034015437
-0.029256121
-0.025111717
-0.022268644
-0.02088817
-0.020902469
-0.021982871
-0.023641678
-0.025339588
-0.026701501
-0.02745974
-0.027453244
-0.026622232
-0.025000945
-0.022700813
-0.019884288
-0.016736938
-0.013440256
-0.01015513
-0.0070043146
-0.0040741739
-0.0014142199
0.00093530663
0.0029693841
0.0046824138
0.0061046881
0.0072645086
0.0080940935
0.0087292204
-0.071470961
-0.067674677
-0.062833527
-0.057229575
-0.051172752
-0.044957664
-0.038621521
-0.032332707
-0.026196673
-0.020361866
-0.014985813
-0.010394867
-0.0068149871
-0.0032996914
-0.0017058261
-0.07394303
-0.074904379
-0.074355289
-0.072094594
-0.068041336
-0.062902516
-0.057426399
-0.052227445
-0.047430157
-0.042823499
-0.037989139
-0.033330994
-0.02939774
-0.026761953
-0.025510389
-0.025566069
-0.026579041
-0.028022173
-0.029389046
-0.030329142
-0.030597835
-0.030061221
-0.028690967
-0.026553353
-0.023787119
-0.020574239
-0.017109699
-0.013575236
-0.010121755
-0.0068562206
-0.0038533083
-0.0011579349
0.0011961999
0.0032238569
0.0049371901
0.006390028
0.0075364274
0.0083629817
0.0089939127
-0.075307053
-0.071615392
-0.066786198
-0.061179151
-0.055065901
-0.048706199
-0.042162874
-0.035657083
-0.029371223
-0.023426487
-0.017829386
-0.012848281
-0.0085898925
-0.0052877907
-0.0022125116
-0.0012025005
-0.077572944
-0.078239378
-0.077414194
-0.074935235
-0.070782063
-0.065800183
-0.060711352
-0.056021515
-0.051707534
-0.047331757
-0.042459571
-0.037871086
-0.034078042
-0.03151062
-0.03030639
-0.030338078
-0.031218097
-0.03239004
-0.033380956
-0.033859198
-0.033604109
-0.032512126
-0.03058886
-0.027933448
-0.024711389
-0.02112192
-0.017365528
-0.013617995
-0.01001479
-0.006650075
-0.0035955792
-0.00088916207
0.0014596874
0.0034940212
0.0052564382
0.0066892303
0.0078208344
0.0086407066
0.009266767
-0.079068073
-0.075469086
-0.070637492
-0.064946047
-0.058749512
-0.052266678
-0.045501644
-0.038739602
-0.032260409
-0.026193717
-0.020497508
-0.015318985
-0.010663747
-0.0067058788
-0.00370218
-0.0011639074
-0.00071672912
-0.081124983
-0.081543005
-0.080589573
-0.078083507
-0.07406407
-0.069452698
-0.064872694
-0.060675354
-0.05668314
-0.052338433
-0.047347179
-0.042816252
-0.039022443
-0.036414541
-0.03520513
-0.035163437
-0.035859624
-0.036716271
-0.037289981
-0.03726859
-0.03645821
-0.034789022
-0.032303186
-0.029133726
-0.025472239
-0.021531106
-0.017509082
-0.013568819
-0.0098337176
-0.0063957731
-0.0033211535
-0.0006163024
0.0017464758
0.0038584737
0.005590373
0.007003847
0.0081141992
0.0089275447
0.0095474494
-0.082752037
-0.079262704
-0.074416647
-0.06862277
-0.062263714
-0.055607667
-0.048636838
-0.041599325
-0.034879759
-0.028653735
-0.022861935
-0.017607706
-0.012739116
-0.0083881683
-0.0047598206
-0.002127329
-0.00019124247
-0.00024845976
-0.084624841
-0.08494411
-0.084078344
-0.081757137
-0.078118611
-0.074034017
-0.069952501
-0.066080785
-0.062202248
-0.057733375
-0.052607895
-0.04801126
-0.044074404
-0.041408008
-0.040151502
-0.040010595
-0.040473442
-0.040976347
-0.041093946
-0.040536173
-0.039140844
-0.036875565
-0.033822794
-0.030150355
-0.026072432
-0.021805648
-0.017539638
-0.013426343
-0.0095903986
-0.006119197
-0.0030406304
-0.00031040718
0.0021667723
0.0042391245
0.0059433202
0.0073270114
0.0084176217
0.0092227879
0.0098358021
-0.08637156
-0.082983856
-0.078146947
-0.072240543
-0.065695623
-0.058768027
-0.051555238
-0.044249544
-0.037271032
-0.03083251
-0.02489771
-0.019591766
-0.014637416
-0.010059447
-0.0060428868
-0.0027971754
-0.00062940091
0.00070402703
0.00021356291
-0.088197169
-0.088663932
-0.088100662
-0.086198345
-0.083156768
-0.079626881
-0.075859769
-0.072092749
-0.0680896
-0.063450826
-0.058110793
-0.053289957
-0.049139646
-0.046436658
-0.045114356
-0.044845608
-0.045038236
-0.045150201
-0.044772114
-0.043641467
-0.041632605
-0.038756902
-0.035140584
-0.030983925
-0.026514245
-0.021943135
-0.017454229
-0.013204867
-0.0093176243
-0.0058337474
-0.0027147265
0.00017831016
0.0026061945
0.004643441
0.0063040045
0.0076611373
0.0087299344
0.0095263778
0.010131451
-0.090040901
-0.086624874
-0.081807243
-0.075821447
-0.06907908
-0.061848619
-0.054296138
-0.046696571
-0.039454633
-0.03277342
-0.026646783
-0.021227615
-0.016234707
-0.011552692
-0.0072936722
-0.003670156
-0.00090201314
0.00076565075
0.0014846786
0.00070629141
-0.092076483
-0.092932218
-0.092903874
-0.091666674
-0.089293984
-0.086127011
-0.082451192
-0.078519144
-0.074222241
-0.069375309
-0.063686939
-0.058560056
-0.054192899
-0.051477242
-0.050080074
-0.049651357
-0.04953904
-0.04921944
-0.0483041
-0.046562697
-0.043914785
-0.040422368
-0.036254566
-0.031635046
-0.026792345
-0.021938527
-0.017269248
-0.012944978
-0.0090323352
-0.0054875406
-0.0021434802
0.00069020375
0.003074715
0.0050542161
0.006676349
0.0080044028
0.0090510644
0.0098376687
0.010434161
-0.094001523
-0.090293528
-0.085375672
-0.079331409
-0.072447711
-0.064893075
-0.056959717
-0.048983905
-0.041442003
-0.03451109
-0.028156447
-0.022564547
-0.017485441
-0.012758545
-0.0083729483
-0.0045010207
-0.0013705438
0.00084964631
0.0020667981
0.002166152
0.001191912
-0.09651301
-0.098026572
-0.098775406
-0.098306591
-0.096442497
-0.093369301
-0.089538049
-0.085164965
-0.080470782
-0.075332319
-0.06920253
-0.063724598
-0.059234896
-0.056507088
-0.055037531
-0.054413863
-0.053960671
-0.053165682
-0.05166726
-0.049277961
-0.045972956
-0.041866945
-0.037162323
-0.032094168
-0.026898398
-0.021810524
-0.017034871
-0.012667835
-0.0086672429
-0.0048183342
-0.0015430469
0.0012380491
0.0035477387
0.005477171
0.0070578605
0.0083568543
0.0093801864
0.010156411
0.010743578
-0.098522593
-0.094236293
-0.088946898
-0.082736067
-0.075750251
-0.067929335
-0.059589214
-0.051215292
-0.043296146
-0.036072605
-0.029479528
-0.023667235
-0.018434934
-0.013620187
-0.0091836899
-0.0051768681
-0.0017891604
0.00077126414
0.0024859668
0.0032036377
0.0027504044
0.0015617546
-0.10178356
-0.10420446
-0.10587394
-0.10606599
-0.10440451
-0.10119258
-0.096876676
-0.091860178
-0.086712435
-0.08116733
-0.074526094
-0.068739191
-0.064276242
-0.061507448
-0.059972647
-0.059128171
-0.058289093
-0.056967016
-0.054837394
-0.051769388
-0.047798816
-0.043083662
-0.037848925
-0.032347774
-0.026853551
-0.021620163
-0.016777857
-0.012287411
-0.0078826294
-0.0041118554
-0.00089852147
0.0017876799
0.0040331267
0.0059092014
0.0074485712
0.0087175303
0.0097169088
0.010481999
0.011059483
-0.1038782
-0.09872662
-0.09277373
-0.086136197
-0.078928048
-0.070896662
-0.062207887
-0.053429754
-0.045107057
-0.037517155
-0.030636776
-0.024587258
-0.019155284
-0.014185806
-0.0096704353
-0.0056037011
-0.002069922
0.00074169338
0.0027600399
0.003938584
0.0041076603
0.003185072
0.0017506653
-0.10813488
-0.11164003
-0.11417943
-0.11473574
-0.11301412
-0.10932023
-0.10423691
-0.098449008
-0.092839515
-0.086748964
-0.079620312
-0.073684689
-0.069280771
-0.066504319
-0.064892046
-0.06378496
-0.062505451
-0.060598622
-0.057793908
-0.054025247
-0.04938031
-0.04405055
-0.038294703
-0.032419244
-0.026731402
-0.021399552
-0.016389104
-0.011368486
-0.0070499376
-0.0033511811
-0.00025597934
0.0023497286
0.0045271394
0.0063504232
0.0078474157
0.0090859048
0.010060573
0.010814345
0.011381305
-0.11029021
-0.10403362
-0.097124738
-0.089767217
-0.082083717
-0.073711922
-0.064731236
-0.055621807
-0.046901297
-0.03891922
-0.031680603
-0.025354548
-0.019696179
-0.014526871
-0.0098667846
-0.0057310372
-0.0021194077
0.00084001072
0.0030665315
0.0045153043
0.0050967561
0.0047342562
0.0034532363
0.0018157763
-0.11574267
-0.12033248
-0.12350454
-0.12412919
-0.12201781
-0.11750051
-0.11144072
-0.10487274
-0.098727361
-0.09204683
-0.084516289
-0.078577077
-0.074249767
-0.071513337
-0.069795747
-0.068370499
-0.066586693
-0.064038661
-0.060522499
-0.056028363
-0.05068598
-0.04473984
-0.038524081
-0.032396999
-0.026570663
-0.021011469
-0.015315244
-0.010387517
-0.0061507682
-0.0025974407
0.00039868877
0.0029197052
0.0050300607
0.0067996395
0.0082537194
0.009461387
0.010411354
0.011152698
0.011708733
-0.1179427
-0.11036146
-0.10223837
-0.093868084
-0.085416925
-0.076479873
-0.067081632
-0.057704167
-0.048661926
-0.040306514
-0.032683733
-0.026024173
-0.020093336
-0.014697813
-0.0098512501
-0.0055843725
-0.001900498
0.0011431683
0.0034848839
0.005100368
0.0058948598
0.0058998594
0.0050973838
0.0035335994
0.0017805522
-0.12462794
-0.13011575
-0.13364058
-0.13400505
-0.13113281
-0.12549792
-0.11840261
-0.11106346
-0.10429446
-0.097043315
-0.089204925
-0.083450316
-0.079231347
-0.076553362
-0.074674482
-0.072865657
-0.070511782
-0.067271912
-0.063000798
-0.057735199
-0.051677132
-0.045177396
-0.038642056
-0.032327208
-0.026199885
-0.019761303
-0.014161448
-0.0093249605
-0.0052649873
-0.001832078
0.0010601667
0.0034981568
0.0055405596
0.0072560748
0.0086670321
0.0098445723
0.010767974
0.011496548
0.012041322
-0.12689166
-0.11789513
-0.10833381
-0.098681431
-0.089162595
-0.079401654
-0.069382833
-0.059605075
-0.050300853
-0.041648267
-0.033660633
-0.02665454
-0.020394016
-0.014730861
-0.0096746038
-0.0052429226
-0.0014445394
0.0016767486
0.0040754931
0.0057553627
0.0066724597
0.0068485828
0.0063783466
0.0052361373
0.0034847375
0.0016763457
-0.13466093
-0.14079432
-0.1443608
-0.1440741
-0.1400807
-0.13318651
-0.12507043
-0.11694776
-0.10949648
-0.10175168
-0.093823472
-0.088358507
-0.084282568
-0.081623699
-0.079517396
-0.077253298
-0.074266589
-0.070272165
-0.065172601
-0.059092913
-0.05238102
-0.045485893
-0.038703938
-0.031997017
-0.024750878
-0.01840853
-0.012907566
-0.0082839651
-0.0043683913
-0.0010614195
0.0017293919
0.0040836289
0.0060577896
0.0077195136
0.0090886498
0.010233563
0.011129835
0.011845169
0.012378708
-0.13704159
-0.12673403
-0.11561403
-0.10444008
-0.0935648
-0.0827076
-0.071819347
-0.061463662
-0.051777264
-0.042877721
-0.034584279
-0.027262613
-0.020664093
-0.01468055
-0.0093798454
-0.004761338
-0.0008239162
0.0024087359
0.0048536185
0.0065373508
0.00747746
0.0077499439
0.0074304565
0.0065957166
0.0052072084
0.0033461265
0.001515315
-0.14565018
-0.15215223
-0.15537351
-0.15404307
-0.14869578
-0.1405343
-0.13140938
-0.12247262
-0.11431582
-0.10618083
-0.09854302
-0.093332875
-0.08941764
-0.086720833
-0.084315081
-0.081523752
-0.077823645
-0.072969614
-0.066966353
-0.060128717
-0.052941199
-0.045731348
-0.03844633
-0.030327147
-0.023170671
-0.016932827
-0.011685456
-0.0072331295
-0.0034685035
-0.00028398446
0.0024048347
0.0046752445
0.0065817932
0.0081921479
0.0095159174
0.01062755
0.011496083
0.01219806
0.012720468
-0.14820013
-0.1367996
-0.12416847
-0.1113384
-0.098855664
-0.086622508
-0.074645582
-0.063460247
-0.053227813
-0.04398152
-0.035412629
-0.027826589
-0.020929555
-0.014624297
-0.0090266504
-0.0041943245
-9.1253423e-05
0.0032631399
0.0057744868
0.0074447712
0.0083635213
0.0086478671
0.0084110857
0.0077173667
0.0066013181
0.0050510151
0.0031521213
0.0013499878
-0.15738812