/*--------------------------------*- C++ -*----------------------------------*\
| =========                 |                                                 |
| \\      /  F ield         | OpenFOAM: The Open Source CFD Toolbox           |
|  \\    /   O peration     | Version:  5.0                                   |
|   \\  /    A nd           | Web:      www.OpenFOAM.org                      |
|    \\/     M anipulation  |                                                 |
\*---------------------------------------------------------------------------*/
FoamFile
{
    version     2.0;
    format      ascii;
    class       volScalarField;
    location    "260";
    object      pPrime2Mean;
}
// * * * * * * * * * * * * * * * * * * * * * * * * * * * * * * * * * * * * * //

dimensions      [0 4 -4 0 0 0 0];

internalField   nonuniform List<scalar> 
9200
(
1.1478938e-06
1.2206555e-06
7.2827423e-06
1.3191015e-06
7.5935018e-06
1.9997413e-05
1.5360856e-06
7.9708634e-06
2.0731861e-05
3.6578141e-05
1.8678491e-06
8.7156738e-06
2.1756294e-05
3.7720108e-05
5.7145035e-05
2.4404965e-06
9.748556e-06
2.3668362e-05
3.9343277e-05
5.8686446e-05
8.0208392e-05
3.378597e-06
1.1288558e-05
2.6315622e-05
4.2298316e-05
6.0794674e-05
8.1987895e-05
0.00010526715
4.9254978e-06
1.3434799e-05
3.0123626e-05
4.6335442e-05
6.4597767e-05
8.4349427e-05
0.00010718131
0.00013188509
7.3502745e-06
1.6409474e-05
3.525718e-05
5.2058671e-05
6.9688621e-05
8.8631685e-05
0.00010957089
0.000133809
0.0001597984
1.1058112e-05
2.0368978e-05
4.2161502e-05
5.9638673e-05
7.6771617e-05
9.4244311e-05
0.00011397909
0.00013601254
0.00016166025
0.00018889286
1.6232248e-05
2.5541533e-05
5.128703e-05
6.9602731e-05
8.5969477e-05
0.00010196242
0.0001196211
0.00014025152
0.00016352703
0.00019064364
0.00021912998
2.1349609e-05
3.1974565e-05
6.3202373e-05
8.2414997e-05
9.785667e-05
0.00011179978
0.00012732937
0.00014553226
0.00016738721
0.00019207282
0.00022075068
0.00025049099
2.4316216e-05
4.0257671e-05
7.8685666e-05
9.8829854e-05
0.00011293555
0.00012430985
0.00013700104
0.00015274411
0.0001720412
0.00019542996
0.00022168947
0.00025198962
0.00028301269
2.7834172e-05
5.3661576e-05
9.9906258e-05
0.00012017938
0.00013208915
0.00013992243
0.0001491527
0.00016166503
0.0001784452
0.000199307
0.00022449286
0.00025242931
0.00028440987
0.00031666986
3.7064163e-05
7.8210613e-05
0.00013222275
0.0001494626
0.00015683788
0.00015948307
0.00016412027
0.00017277284
0.00018626956
0.00020474502
0.00022754661
0.00025469642
0.00028436773
0.00031800381
0.00035151943
5.393974e-05
0.00012315456
0.00018409599
0.00019302729
0.00019044633
0.0001845057
0.00018267901
0.00018631498
0.00019596599
0.00021131852
0.00023199513
0.00025696838
0.00028615613
0.0003175286
0.00035282431
0.00038750472
7.9455547e-05
0.00019537668
0.00026867112
0.00026121716
0.00023923453
0.00021810943
0.00020621787
0.00020299812
0.00020772334
0.00021947361
0.00023732411
0.00026050895
0.00028774917
0.00031893893
0.00035196389
0.00038881681
0.00042467087
0.00011295467
0.00029378924
0.00039712221
0.00036931635
0.00031466939
0.00026657878
0.00023753777
0.00022404604
0.0002222023
0.000229359
0.00024398098
0.00026472391
0.0002905449
0.00032001144
0.00035310288
0.00038762886
0.00042602461
0.00046294566
0.0001498854
0.0004136446
0.00056710234
0.00053343479
0.00043415814
0.00034154358
0.00028245885
0.00025192828
0.00024049126
0.00024159583
0.00025208786
0.00027007307
0.00029387369
0.00032229365
0.00035383313
0.0003886213
0.00042455681
0.00046435772
0.00050233695
0.00018390851
0.00054075888
0.00076879763
0.00075351079
0.00061606558
0.00046009471
0.00035191781
0.00029178393
0.00026472413
0.00025714099
0.00026223107
0.00027663837
0.00029820022
0.00032504724
0.00035586937
0.00038921273
0.000425498
0.00046264312
0.00050381863
0.0005427906
0.00020968621
0.00066225805
0.00097894871
0.0010170356
0.00086326949
0.00064273013
0.00046264927
0.00035343561
0.00029927615
0.0002778963
0.00027527048
0.00028495026
0.00030356095
0.00032874297
0.00035841696
0.00039130548
0.00042613279
0.00046361751
0.00050188433
0.00054433319
0.00058429375
0.00022024495
0.0007623408
0.0011759826
0.001295003
0.0011618738
0.00089812707
0.00063672162
0.00045411475
0.00035283039
0.00030748191
0.00029289066
0.00029579552
0.00031041442
0.0003333501
0.00036194974
0.00039407122
0.0004285765
0.00046447067
0.00050295362
0.00054216955
0.0005858791
0.0006268152
0.00021667664
0.00082549236
0.0013434577
0.0015542967
0.0014829576
0.001213624
0.00088786759
0.00061497063
0.00044170307
0.00035337404
0.00031814992
0.00031066207
0.00031946816
0.00033925175
0.00036635934
0.00039799246
0.00043199697
0.00046755469
0.00050414671
0.000543341
0.00058346388
0.00062840843
0.00067033735
0.00020856568
0.00085311251
0.0014685166
0.0017757201
0.0017895058
0.001562366
0.0012076069
0.00085284075
0.00058592813
0.00042972328
0.00035720368
0.00033219449
0.00033203757
0.00034703929
0.00037194415
0.00040288668
0.00043690731
0.00047207372
0.00050810167
0.00054495096
0.00058472457
0.00062568729
0.00067189703
0.00071484457
0.00020062997
0.0008587524
0.0015339049
0.0019477968
0.0020554091
0.0019058381
0.001573652
0.0011677794
0.00080622871
0.00055678814
0.00042203183
0.00036522233
0.000350326
0.00035781567
0.00037914625
0.00040895756
0.00044306414
0.00047860486
0.00051411311
0.00054996079
0.00058677969
0.00062696197
0.00066880217
0.00071631909
0.00076033027
0.00019496564
0.00085751419
0.0015557314
0.0020377114
0.0022643493
0.0022101053
0.0019450379
0.0015403877
0.0011100481
0.00075791845
0.00053274598
0.00041969122
0.00037830603
0.00037345669
0.00038884705
0.0004164614
0.0004505649
0.00048688275
0.00052287303
0.0005578043
0.00059293418
0.00062940508
0.0006699904
0.00071276398
0.00076166228
0.00080678828
0.00019167339
0.00084881513
0.0015599352
0.0020627718
0.0023884811
0.0024557485
0.002285763
0.0019347011
0.0014819804
0.0010452558
0.00071208249
0.00051343596
0.0004236428
0.00039719139
0.00040261043
0.00042607402
0.00045949636
0.00049691282
0.00053414502
0.00056934893
0.00060283865
0.00063670372
0.00067272893
0.00071372218
0.00075754853
0.00080791872
0.00085420016
0.00018880016
0.00083275644
0.0015438993
0.0020540125
0.0024302866
0.0026251074
0.002572147
0.0023090448
0.001891918
0.0014090873
0.00097698509
0.00066850647
0.00050103685
0.00043478403
0.00042307072
0.00043897931
0.00047027898
0.0005086262
0.00054788728
0.00058446524
0.00061760819
0.00064878574
0.00068108126
0.00071657463
0.00075811613
0.00080314004
0.00085507985
0.00090253196
0.00018511131
0.00080952397
0.0015107418
0.0020194985
0.0024219915
0.0027001735
0.0027864814
0.002634715
0.0022951859
0.001826449
0.0013270487
0.0009080135
0.00063303855
0.00049812957
0.00045454038
0.00045732579
0.00048377589
0.00052217574
0.00056389826
0.00060312758
0.0006373098
0.00066708768
0.00069530446
0.00072577321
0.00076086852
0.00080313296
0.00084953411
0.00090313228
0.00095177734
0.00017930317
0.00077959517
0.0014656737
0.0019643162
0.0023851647
0.0027073253
0.0029057419
0.0028926411
0.0026579184
0.0022539459
0.0017426575
0.0012388147
0.00084367391
0.00060732725
0.00050599084
0.00048452195
0.00050161228
0.00053809961
0.00058209903
0.00062506747
0.00066202508
0.00069195636
0.00071725377
0.00074197387
0.00077064414
0.00080551556
0.00084876102
0.00089673407
0.00095206594
0.001001978
0.00016747861
0.00074680119
0.0014126404
0.0018975015
0.0023240001
0.0026794905
0.0029442638
0.003068915
0.002963642
0.0026525918
0.002187017
0.0016437761
0.0011467107
0.00078524134
0.00059388577
0.00052674656
0.00052644374
0.00055751699
0.00060271192
0.00065004282
0.00069151669
0.00072370121
0.00074764348
0.00076749059
0.00078852805
0.00081550975
0.00085050284
0.00089501316
0.00094474726
0.0010018768
0.00105312
0.00015229444
0.0007018681
0.0013556577
0.0018222984
0.0022501795
0.002625588
0.0029360217
0.0031519287
0.0031980179
0.003004334
0.0026185455
0.0020947611
0.0015329882
0.0010536801
0.00074080591
0.00059704217
0.00056271163
0.00058244293
0.0006263973
0.0006779709
0.00072546539
0.00076225053
0.00078714359
0.00080349834
0.00081731301
0.0008346415
0.0008603381
0.00089583482
0.00094191773
0.00099357949
0.0010525466
0.001105023
0.00013342983
0.00065047327
0.0012743431
0.0017464979
0.0021675088
0.0025571534
0.0029011241
0.0031724854
0.0033328306
0.0032905922
0.0030118398
0.0025516202
0.0019787576
0.0014154853
0.00097052607
0.00071589368
0.00061957174
0.00061622642
0.00065450665
0.00070909978
0.00076358122
0.00080733168
0.00083599228
0.00085115803
0.00085873764
0.00086620965
0.00088018712
0.00090506128
0.00094155173
0.00098950089
0.0010432329
0.0011040278
0.001157543
0.00011095462
0.00058553084
0.0011853286
0.0016424493
0.0020863574
0.0024799137
0.0028486418
0.0031648397
0.0033961574
0.0034902645
0.0033500737
0.0029811087
0.0024512238
0.001846199
0.0012964471
0.00090536587
0.00071407392
0.00066474914
0.00068953052
0.0007441925
0.00080573715
0.00085856953
0.00089413063
0.00091117362
0.00091457702
0.00091257258
0.00091387101
0.00092501385
0.00094973768
0.00098769768
0.0010377936
0.001093699
0.0011562789
0.0012106799
8.8792086e-05
0.00050715926
0.0010737207
0.001535689
0.001971722
0.0024058403
0.0027864342
0.0031369673
0.003422715
0.0036103029
0.0036213064
0.0033675068
0.0029116146
0.0023212368
0.001704293
0.0011862244
0.00086788915
0.0007408123
0.00073534153
0.00078488379
0.00085220924
0.0009156044
0.00096126667
0.00098389078
0.00098615215
0.00097620954
0.0009644158
0.00096001675
0.00096915667
0.00099441228
0.0010343448
0.0010868306
0.0011449556
0.0012092453
0.001264529
6.8813153e-05
0.00042422277
0.0009395711
0.0014086264
0.0018605353
0.0022902389
0.0027286421
0.0030978138
0.0034267338
0.003680856
0.0038082835
0.0037021476
0.0033383284
0.0028020559
0.0021693819
0.0015608799
0.0011006773
0.00086502526
0.0008002178
0.00083402524
0.00090390683
0.00097832073
0.0010370069
0.0010693287
0.0010744137
0.0010592052
0.00103507
0.0010137601
0.0010045835
0.0010126382
0.0010392109
0.0010815698
0.0011366411
0.0011969771
0.0012628154
0.0013190983
5.1831524e-05
0.00034563904
0.00079539791
0.0012582149
0.0017283339
0.0021858768
0.0026202281
0.0030625809
0.003416483
0.0037271177
0.0039359634
0.003963312
0.003728536
0.0032636687
0.0026594911
0.0020055384
0.001428174
0.0010542316
0.00090170335
0.0008964631
0.00096261835
0.0010469958
0.0011209902
0.0011672661
0.0011799186
0.0011633003
0.001128788
0.0010902904
0.0010603536
0.00104755
0.0010556288
0.0010842484
0.0011294542
0.0011872432
0.0012497624
0.0013169653
0.0013742513
3.8761511e-05
0.00027552045
0.00065907094
0.001090337
0.0015713748
0.0020568325
0.0025321115
0.0029652271
0.0034100352
0.0037569056
0.0040337001
0.0041601671
0.004066084
0.003700891
0.0031478266
0.0024926304
0.0018421781
0.001328971
0.0010574356
0.00098360769
0.0010315175
0.0011225861
0.0012130909
0.0012773732
0.0013029097
0.0012898442
0.001248277
0.0011935073
0.0011413125
0.0011040661
0.0010890816
0.0010982819
0.0011296835
0.00117807
0.0012386308
0.0013032641
0.0013716629
0.001429913
3.057144e-05
0.0002188491
0.00053688036
0.00092797757
0.001392529
0.0019039765
0.002414549
0.0028989423
0.0033262924
0.0037893558
0.0041132164
0.0043171348
0.0043353702
0.0041018691
0.0036230007
0.0029972352
0.0023149547
0.0016983401
0.0012812211
0.0011149828
0.0011168107
0.0012070601
0.0013135593
0.0013993348
0.0014433863
0.0014398113
0.0013958865
0.0013272031
0.0012523357
0.0011877817
0.0011450072
0.0011293825
0.0011408482
0.0011756559
0.0012274821
0.0012907952
0.0013574211
0.0014268303
0.0014859664
2.7949718e-05
0.00018005651
0.00043744311
0.00078258243
0.0012121579
0.0017238105
0.0022740594
0.0027976014
0.0032870344
0.0037255131
0.0041964003
0.0044558764
0.0045561369
0.0044506903
0.0040784415
0.0035050205
0.0028234529
0.0021417452
0.0015946417
0.0013022935
0.001234192
0.0013036305
0.0014233765
0.0015329845
0.0016011296
0.0016138523
0.0015736068
0.0014949111
0.0013983595
0.0013045337
0.0012296681
0.0011833993
0.0011687817
0.001183551
0.0012223187
0.001277731
0.0013437182
0.0014121676
0.0014823933
0.001542248
0.00016234916
3.1162309e-05
0.00036854241
0.00066448446
0.0010514376
0.0015328073
0.0020991366
0.0026720457
0.0032048986
0.0037196973
0.0041638583
0.0045990619
0.0047597736
0.0047483603
0.0045066015
0.0040089493
0.0033540011
0.0026396575
0.0019949273
0.0015625199
0.0014003104
0.0014212085
0.0015443413
0.0016786533
0.0017760145
0.0018123139
0.0017830714
0.0016998772
0.00158423
0.0014604087
0.0013497959
0.0012671441
0.0012196388
0.0012076213
0.0012266633
0.0012697857
0.0013288447
0.0013973627
0.001467424
0.0015382615
0.0015986261
0.00033648725
0.00016729768
4.0288312e-05
0.00058312741
0.0009208815
0.0013627489
0.001904082
0.0025061473
0.0030955702
0.003662904
0.0042061201
0.0046060693
0.0049711712
0.005021109
0.0048847034
0.0044982668
0.0038965244
0.0031795144
0.0024650806
0.0019079991
0.0016214967
0.0015780192
0.0016804591
0.0018371788
0.0019679386
0.0020353954
0.0020255766
0.0019450246
0.0018146404
0.0016616371
0.0015125942
0.0013881492
0.0013006512
0.0012541831
0.0012463079
0.0012703986
0.0013181682
0.0013808261
0.0014516756
0.0015231023
0.0015943347
0.0016550076
0.00054533297
0.00034382514
0.00019468937
5.5278747e-05
0.00083109928
0.0012248243
0.0017268055
0.0023128459
0.002943464
0.0035747237
0.0041858256
0.0047099477
0.0050280084
0.0053078622
0.0052372295
0.0049623186
0.0044404244
0.0037500645
0.0029961361
0.0023349372
0.0019128541
0.0017840495
0.0018442775
0.0020099672
0.0021771465
0.0022831186
0.0023020943
0.0022329671
0.0020940394
0.0019144511
0.0017256529
0.0015546325
0.0014200065
0.001330764
0.0012875945
0.0012851949
0.0013149891
0.0013675358
0.0014336625
0.0015065903
0.0015791093
0.0016505041
0.0017113042
0.00078931751
0.00055409333
0.0003898068
0.00024226579
7.5844265e-05
0.0011317373
0.0015848437
0.002130348
0.0027555135
0.0034402087
0.0041285324
0.0047382356
0.0052026868
0.0054222169
0.0056097016
0.0054065486
0.0049851112
0.0043419702
0.0035792995
0.0028359945
0.002288572
0.0020393878
0.002052981
0.0022029388
0.0024041834
0.0025556176
0.0026133766
0.0025659328
0.0024266834
0.0022250376
0.0019967793
0.0017754597
0.0015867916
0.0014460347
0.001358224
0.0013204555
0.0013246743
0.0013606096
0.0014179438
0.0014873179
0.0015620287
0.0016353511
0.001706674
0.0017674159
0.0010903915
0.00079874878
0.00060741032
0.00046966176
0.00030584542
0.00010078552
0.0014907823
0.001984793
0.0025675695
0.0032582837
0.0040204703
0.0047257321
0.005290689
0.0056832644
0.0057919012
0.0058732867
0.0055227781
0.0049512012
0.0042041229
0.0034090929
0.0027451762
0.0023661103
0.0023012119
0.0024317496
0.0026508407
0.0028530734
0.0029599577
0.0029458503
0.0028164563
0.0025994825
0.0023339925
0.0020599977
0.0018110293
0.0016097711
0.0014671652
0.0013838477
0.0013533453
0.0013650802
0.0014074163
0.0014694074
0.0015417397
0.0016179027
0.0016917263
0.0017627464
0.0018232457
0.0014521813
0.0011040865
0.0008568634
0.00069905907
0.00057549613
0.0003797412
0.00012887552
0.0018901738
0.0024188344
0.0030641152
0.0038475063
0.0046570755
0.0053341105
0.0058433875
0.0061518457
0.0061364781
0.0060918278
0.0055795213
0.0048674613
0.0040458984
0.0032854382
0.0027739396
0.0025973986
0.0027034121
0.002925203
0.0031755705
0.003342205
0.0033742983
0.0032669046
0.0030436568
0.0027453484
0.0024180496
0.0021034989
0.0018329493
0.0016246727
0.0014844779
0.0014084846
0.001386807
0.0014067129
0.0014555087
0.001521922
0.0015968585
0.0016741182
0.0017481329
0.0018186228
0.0018786986
0.0018547258
0.0014718417
0.0011691686
0.00095584811
0.00081876816
0.00069679757
0.00045810153
0.0001582046
0.0023237514
0.0029098005
0.0036453703
0.0045033404
0.0053157852
0.0059563059
0.0063993939
0.006609722
0.0064480146
0.0062538526
0.0055693091
0.004743078
0.0039084393
0.0032699914
0.0029672962
0.0030066997
0.003242425
0.0035256524
0.0037597972
0.0038522934
0.003781139
0.003563098
0.0032388888
0.0028596949
0.0024757046
0.0021276046
0.0018424521
0.0016328684
0.0014991484
0.0014329688
0.0014213486
0.0014498084
0.0015049567
0.0015754513
0.0016525944
0.0017305765
0.0018044665
0.0018742049
0.0019336914
0.0022918143
0.0018807366
0.0015452738
0.0012767888
0.0010840037
0.0009542826
0.00082227665
0.00053463353
0.00018597723
0.0028114573
0.003482137
0.0042985352
0.0051937826
0.006001109
0.0065969615
0.0069618447
0.0070510998
0.0067125032
0.0063509615
0.0055002912
0.0046140926
0.0038587783
0.0034199724
0.0033623532
0.0035943629
0.0039145644
0.0042129512
0.0043803736
0.0043617171
0.0041629484
0.0038224426
0.00339526
0.0029397251
0.0025067597
0.0021335423
0.0018412101
0.0016359181
0.0015123858
0.0014580939
0.0014574038
0.0014945541
0.0015557863
0.0016299455
0.001708853
0.0017871673
0.001860621
0.0019294013
0.0019881464
0.0027809284
0.0023246481
0.0019623527
0.0016617607
0.0014133909
0.0012263795
0.0010912052
0.0009436387
0.00059997457
0.00020694618
0.0033764479
0.0041282853
0.0049983158
0.0059237777
0.0067182428
0.0072616487
0.0075255792
0.0074607526
0.0069171805
0.0063757272
0.0054009532
0.0045468068
0.0039667258
0.0037879895
0.0039759071
0.0043474526
0.0047073634
0.0049584502
0.0050102831
0.0048476776
0.0045035093
0.0040349902
0.0035080932
0.0029843147
0.0025122572
0.0021232323
0.0018311965
0.0016354889
0.0015253731
0.0014845723
0.0014953429
0.0015410793
0.0016079972
0.001685326
0.0017655206
0.0018437725
0.0019165016
0.0019841367
0.0020419912
0.0033433454
0.002819549
0.0024149327
0.002087049
0.0018058755
0.0015614567
0.0013672788
0.001216278
0.0010427874
0.00064103798
0.00021895794
0.0040156249
0.004826995
0.0057507497
0.006702001
0.0074764278
0.0079499047
0.0080787168
0.0078170598
0.0070499866
0.0063450832
0.005335763
0.0046214241
0.004296908
0.0044082146
0.0048055088
0.0052507544
0.0055880314
0.0057273705
0.0056207859
0.0052888905
0.0047889745
0.0041935302
0.0035749165
0.0029940923
0.0024942732
0.0020991316
0.001814641
0.0016332596
0.0015392048
0.001513027
0.001535459
0.0015894666
0.0016615442
0.0017414834
0.0018224681
0.0019002928
0.0019720418
0.0020383432
0.0020951473
0.0039795059
0.0033849782
0.002918064
0.0025482853
0.002236922
0.0019565211
0.0017030082
0.0014850047
0.0013031765
0.0011010699
0.0006540116
0.0002236558
0.0047118485
0.0055826415
0.006561834
0.00753867
0.0082771448
0.0086479377
0.0085922999
0.0081037784
0.0071094052
0.0063095984
0.0053893055
0.0049134625
0.0049038163
0.005296949
0.0058318018
0.0062734991
0.0065124781
0.0064838413
0.0061842522
0.0056666178
0.0050088099
0.0042937396
0.0035956111
0.0029711498
0.002455757
0.0020641113
0.0017938454
0.0016308401
0.0015548709
0.0015439915
0.0015779653
0.001639735
0.0017163323
0.0017982802
0.0018795944
0.0019566753
0.0020271752
0.0020919197
0.0021500744
0.0046760196
0.0040241007
0.0034905638
0.0030600291
0.0027034907
0.0023891672
0.0020937836
0.0018043007
0.0015506837
0.00133944
0.0011142866
0.00065134353
0.0002190369
0.0054673855
0.0064008086
0.007442306
0.0084394495
0.0091103573
0.0093289778
0.0090397011
0.0083098782
0.0071266239
0.0063641749
0.005646176
0.0054907681
0.005826517
0.0064381349
0.0070108958
0.0073683067
0.0074367893
0.0071932364
0.0066761157
0.005966124
0.0051561097
0.004334207
0.0035720361
0.0029188497
0.0024002684
0.0020212277
0.0017710737
0.0016297273
0.001573249
0.0015778877
0.0016229808
0.0016918217
0.0017722267
0.0018556184
0.0019368629
0.0020128542
0.0020817536
0.0021469268
0.0022080185
0.0054328653
0.0047265814
0.0041369606
0.0036404243
0.003220481
0.0028569008
0.0025159221
0.0021697589
0.0018383765
0.0015580596
0.0013273638
0.001107537
0.00062984405
0.00020826549
0.0062874075
0.0072932464
0.0084026449
0.0093982743
0.0099504312
0.0099561346
0.0094042811
0.0084455294
0.0071851243
0.0065993206
0.0061845009
0.0064152968
0.0070634251
0.0077831616
0.0082916893
0.0084805845
0.0083174313
0.0078237287
0.007076574
0.0061771491
0.0052277382
0.0043162802
0.0035078597
0.0028414939
0.0023317647
0.0019735706
0.001748491
0.0016312757
0.0015950663
0.0016150025
0.0016705125
0.0017456163
0.0018291493
0.001913486
0.0019942046
0.0020686009
0.0021375226
0.0022047746
0.0022674154
0.0062543436
0.0054898361
0.0048489922
0.0042941559
0.0038045004
0.0033758361
0.0029660789
0.0025619845
0.002163838
0.0018104981
0.0015153902
0.0013029633
0.0010660242
0.00059607962
0.00019209773
0.0071839055
0.008270826
0.0094379545
0.010391739
0.010759701
0.010500398
0.0096870431
0.0085730008
0.0073788641
0.0071055677
0.0070832639
0.0077129227
0.0085662154
0.0092621196
0.0096108641
0.0095555754
0.0091125684
0.0083490257
0.0073710052
0.0062941186
0.0052240672
0.0042437552
0.0034081351
0.0027440538
0.0022543533
0.0019241583
0.0017281109
0.0016366417
0.0016208438
0.0016554556
0.0017205103
0.0018010753
0.0018871156
0.0019717977
0.0020512918
0.0021253482
0.0021961451
0.0022643329
0.002328258
0.007152808
0.0063169115
0.005621362
0.0050139095
0.0044591236
0.0039550747
0.003460288
0.0029776651
0.0025126684
0.0020952576
0.001727114
0.00146883
0.0012395961
0.0010060543
0.00054734109
0.00017206127
0.0081684302
0.0093298818
0.010526754
0.011378114
0.011496677
0.010952425
0.0099179381
0.0087760653
0.0078038851
0.0079715443
0.0083919639
0.0093503368
0.010253797
0.010803338
0.010904124
0.010542035
0.009789057
0.0087495173
0.007550631
0.0063159755
0.0051487425
0.0041223761
0.0032789445
0.0026318578
0.0021721336
0.0018758583
0.00171169
0.001646714
0.0016508942
0.001699306
0.0017729933
0.0018582495
0.0019460131
0.0020301121
0.0021092983
0.0021851102
0.0022567374
0.0023255951
0.0023905283
0.0081403392
0.0072215183
0.0064561779
0.0057919936
0.0051789891
0.004604356
0.0040130564
0.0034310532
0.0028844218
0.002400038
0.0019644842
0.0016496891
0.0013761396
0.0011583677
0.00092506271
0.00048570607
0.00015066667
0.0092370853
0.010450637
0.011630767
0.012303158
0.01213883
0.011327715
0.010170791
0.0091541036
0.008553512
0.0092655547
0.010107146
0.011236135
0.012032485
0.012336633
0.012107716
0.011397916
0.010321157
0.0090122953
0.0076122594
0.0062458038
0.0050080551
0.003959412
0.0031270038
0.0025103389
0.0020890628
0.0018312483
0.0017006254
0.001662106
0.0016854592
0.0017466842
0.0018280561
0.0019169856
0.0020052682
0.0020894009
0.0021706603
0.0022471329
0.0023193289
0.0023885246
0.0024542044
0.0092112374
0.008216776
0.0073685887
0.0066293105
0.0059542449
0.0053097651
0.0046251412
0.0039343592
0.0032895015
0.002724774
0.0022191817
0.0018505822
0.0015173037
0.0012668576
0.0010553463
0.00082519358
0.00041448629
0.00012949083
0.010368689
0.011593499
0.012690294
0.013129209
0.012685958
0.011682326
0.010534915
0.0097987582
0.0097123816
0.011010869
0.01214525
0.013252715
0.013813073
0.013786638
0.013169785
0.012089663
0.010691235
0.0091314576
0.007558076
0.0060902442
0.0048104665
0.0037631423
0.0029593513
0.0023848229
0.0020087677
0.0017924364
0.0016959615
0.0016833292
0.0017248579
0.001797744
0.0018854909
0.0019765654
0.002065718
0.0021525962
0.0022345991
0.0023115081
0.0023838571
0.0024530888
0.0025192561
0.010339065
0.0092937493
0.0083734083
0.007543197
0.0067842671
0.0060567704
0.0052858121
0.0044871841
0.0037401651
0.0030790649
0.0024900136
0.0020676042
0.0016735646
0.001371538
0.0011362908
0.00093562004
0.00070905374
0.00034043939
0.00010959162
0.01152127
0.012713439
0.013660777
0.013847374
0.013179457
0.012100772
0.011100621
0.010805839
0.011319273
0.013144574
0.014370444
0.015292821
0.015522186
0.01508717
0.014051779
0.012594386
0.010889657
0.0091076018
0.0073946849
0.0058588749
0.0045659836
0.0035424508
0.0027830113
0.0022602679
0.0019343174
0.0017610817
0.0016986375
0.0017109577
0.0017693235
0.0018521984
0.0019444216
0.0020378063
0.0021308738
0.0022187218
0.0023013047
0.0023781401
0.0024502834
0.0025192365
0.0025856513
0.011480728
0.010416997
0.0094568444
0.0085498167
0.00768659
0.0068492295
0.0059773464
0.0050796976
0.0042328393
0.0034727068
0.0027879236
0.0022998114
0.0018425489
0.001485795
0.0012065729
0.00099172886
0.00080180233
0.00058587664
0.00026916145
9.1141913e-05
0.012651833
0.013766969
0.014523997
0.014485404
0.013694229
0.012649385
0.011968977
0.012233906
0.013343342
0.01552779
0.016651673
0.017265553
0.017084848
0.016188585
0.0147221
0.012897256
0.010914533
0.0089467738
0.007132621
0.0055634773
0.0042855938
0.0033063881
0.0026045897
0.0021409719
0.0018682389
0.0017387262
0.0017096366
0.0017453591
0.001818461
0.0019090163
0.0020057786
0.0021048776
0.0021993771
0.0022881134
0.002370649
0.0024469928
0.002518541
0.002586916
0.00265335
0.012599623
0.011549149
0.010575647
0.0096284671
0.0086828184
0.0077076654
0.0067018769
0.0056930821
0.0047520499
0.003899677
0.0031168935
0.0025565655
0.0020246687
0.001610119
0.0012807726
0.0010312493
0.00083748019
0.0006630134
0.00046756155
0.00020472743
7.455837e-05
0.013718267
0.014716293
0.015294196
0.015111381
0.014286136
0.013424535
0.013214197
0.01407221
0.015678641
0.018007721
0.018881018
0.019094284
0.018436882
0.017056805
0.015159108
0.012993454
0.010770728
0.0086601277
0.0067853956
0.0052173727
0.0039806919
0.0030636126
0.0024299703
0.0020306543
0.001812925
0.0017269092
0.0017294818
0.0017860111
0.0018711012
0.0019694413
0.0020744808
0.0021757935
0.0022717602
0.0023606139
0.0024425968
0.0025179842
0.0025885603
0.0026560601
0.002722309
0.013654625
0.012655805
0.011696961
0.010728843
0.0097435569
0.0086499501
0.0074783514
0.0063307399
0.005282733
0.0043461061
0.0034722916
0.0028405754
0.0022282406
0.0017452411
0.0013642025
0.001069686
0.00085180389
0.00068235396
0.00053096218
0.00035965066
0.00015033415
5.9910747e-05
0.014681699
0.015567163
0.016033981
0.015781394
0.015030904
0.014522174
0.014834707
0.016244068
0.018176461
0.020458634
0.020968773
0.02071979
0.019532218
0.017665409
0.01535481
0.012885914
0.010469503
0.0082627692
0.0063688123
0.0048346675
0.0036624001
0.0028219792
0.0022644065
0.0019328831
0.0017706756
0.0017263982
0.0017574642
0.0018316497
0.0019290451
0.0020392207
0.002147652
0.0022513535
0.0023478245
0.0024361851
0.0025170621
0.0025910289
0.0026602546
0.0027265992
0.0027924763
0.014605006
0.013692124
0.012789239
0.011822797
0.010811339
0.0096404977
0.008322449
0.0070113677
0.0058274749
0.0047954921
0.0038369264
0.0031458726
0.0024537453
0.0018992836
0.0014566707
0.0011167777
0.00086237743
0.00067858551
0.00053896433
0.00041130948
0.00026775379
0.00010773648
4.6993979e-05
0.015544581
0.016375195
0.016800555
0.01655357
0.016032454
0.015941756
0.016764182
0.018634115
0.020700936
0.022779215
0.022855972
0.02208548
0.020344025
0.017996444
0.01530881
0.012585192
0.010027243
0.0077729872
0.0058999733
0.0044293268
0.003341002
0.0025886885
0.0021129961
0.0018509641
0.0017425792
0.0017363545
0.0017923197
0.0018849497
0.00199895
0.002114264
0.0022264328
0.0023312971
0.0024275379
0.0025147335
0.002593944
0.0026660255
0.0027335286
0.0027984501
0.0028638131
0.015455291
0.014619123
0.013802152
0.012884382
0.01185888
0.010618408
0.0091908692
0.007739983
0.0064024609
0.0052483172
0.0041933982
0.0034551468
0.0026944743
0.0020715538
0.001565276
0.0011719328
0.00088052165
0.00066906387
0.00052266855
0.00041306323
0.00031053813
0.00019697081
7.615692e-05
3.5374108e-05
0.016359586
0.01720086
0.017646665
0.017523284
0.01730691
0.017626866
0.018921565
0.021127226
0.023142554
0.024903519
0.024495358
0.023148946
0.020859541
0.018047819
0.015030278
0.012108509
0.0094645858
0.0072111278
0.0053961772
0.0040145775
0.0030261233
0.0023707955
0.0019803943
0.0017864177
0.0017276605
0.0017556414
0.0018380096
0.0019535441
0.0020751652
0.0021961442
0.0023104767
0.0024156087
0.0025107975
0.0025961502
0.0026731273
0.0027428546
0.0028082715
0.0028715448
0.0029362601
0.016252419
0.015445616
0.014706654
0.013866233
0.012857534
0.011559076
0.010026771
0.0084781364
0.0070099094
0.0057208414
0.0045456969
0.0037530689
0.0029350436
0.0022556866
0.0016896787
0.0012412617
0.00090631354
0.00066629753
0.0004997477
0.00039149643
0.00031071556
0.00023310495
0.00014522363
5.3621201e-05
2.5893919e-05
0.017189231
0.018095646
0.018652145
0.018714915
0.018791083
0.019499282
0.021225681
0.023607577
0.025424203
0.026787836
0.025844989
0.023883151
0.02106433
0.017822066
0.014536451
0.011478255
0.0088051696
0.0065981521
0.004874041
0.0036030508
0.0027273026
0.002174681
0.0018687306
0.0017381571
0.0017251444
0.001789731
0.0019031954
0.0020298364
0.002159793
0.0022843954
0.0023997929
0.0025041747
0.002597489
0.0026803081
0.002754469
0.0028213808
0.0028843963
0.002945794
0.0030097569
0.0170647
0.016215704
0.015510789
0.014741865
0.013769724
0.012441348
0.010814345
0.0091679861
0.0076093542
0.0062119921
0.0049060975
0.0040405647
0.0031600071
0.0024362571
0.0018236924
0.0013243126
0.00094483078
0.00067156889
0.000483688
0.00036387185
0.00029005295
0.00023477026
0.00017668314
0.00010736771
3.7981172e-05
1.7970649e-05
0.018093651
0.019134413
0.019843912
0.020062747
0.020391191
0.021496056
0.023580933
0.025989286
0.02749829
0.028407754
0.026862906
0.024269083
0.020942829
0.017335326
0.013849997
0.010720895
0.0080739063
0.0059546679
0.0043498712
0.0032073948
0.0024530772
0.0020033302
0.0017768336
0.00170604
0.0017423949
0.0018485279
0.0019779495
0.0021165736
0.0022522058
0.0023790617
0.0024942534
0.0025968763
0.0026874731
0.0027670449
0.0028378107
0.0029014969
0.0029617883
0.0030211018
0.003084238
0.017964459
0.016997327
0.016251997
0.015519026
0.014578783
0.013235854
0.01153646
0.0098073071
0.0081582092
0.0066831368
0.0052695427
0.0043284682
0.0033716476
0.0026004728
0.001953629
0.0014158946
0.0009954195
0.00068938769
0.00047691178
0.00034283442
0.00026429702
0.00021854273
0.00018078173
0.00013564112
8.0085552e-05
2.7340063e-05
1.1789994e-05
0.019140839
0.020344098
0.021156128
0.02146593
0.022053683
0.023572847
0.025897573
0.028216655
0.029335842
0.029743567
0.027496842
0.024298265
0.020507094
0.016611159
0.012999596
0.0098653263
0.0072958285
0.0053012858
0.0038401758
0.0028388275
0.0022075351
0.0018555371
0.0017055532
0.001699587
0.0017906975
0.0019194426
0.0020657792
0.0022129124
0.0023524873
0.0024799948
0.0025937342
0.0026935638
0.0027805728
0.0028561796
0.0029230337
0.0029830702
0.0030403181
0.0030973625
0.0031596358
0.019018721
0.017868857
0.016999002
0.016232197
0.015288978
0.013930489
0.012184903
0.01038192
0.0086549446
0.0071066415
0.00560634
0.00461272
0.003578191
0.0027503145
0.0020675843
0.0015038265
0.0010537057
0.00071854052
0.00048310867
0.00033134881