/*--------------------------------*- C++ -*----------------------------------*\
| =========                 |                                                 |
| \\      /  F ield         | OpenFOAM: The Open Source CFD Toolbox           |
|  \\    /   O peration     | Version:  5.0                                   |
|   \\  /    A nd           | Web:      www.OpenFOAM.org                      |
|    \\/     M anipulation  |                                                 |
\*---------------------------------------------------------------------------*/
FoamFile
{
    version     2.0;
    format      ascii;
    class       volVectorField;
    location    "260";
    object      U;
}
// * * * * * * * * * * * * * * * * * * * * * * * * * * * * * * * * * * * * * //

dimensions      [0 1 -1 0 0 0 0];

internalField   nonuniform List<vector> 
9200
(
(1.0389949 0.00074577216 -1.7476676e-24)
(1.039178 0.0023798869 8.3512045e-22)
(1.0367486 0.00074602545 0)
(1.0394646 0.0037898801 -4.4175763e-22)
(1.0369049 0.0024028698 7.3055242e-22)
(1.0357598 0.00073271771 0)
(1.0398602 0.0051979174 -4.430728e-23)
(1.0371749 0.0038327172 1.0475428e-23)
(1.0359016 0.0023732592 0)
(1.0343172 0.00070248587 0)
(1.0403179 0.0064895374 9.1462024e-22)
(1.0375361 0.0052700675 6.8395782e-22)
(1.036153 0.003790071 4.1383086e-22)
(1.0344353 0.002286441 2.5251421e-23)
(1.0332123 0.00066662891 2.3741529e-25)
(1.0408386 0.0077017594 8.755723e-22)
(1.0379807 0.0066101413 -3.0358193e-23)
(1.0364858 0.0052189873 1.3807261e-21)
(1.0346586 0.0036537779 5.6663198e-22)
(1.0333145 0.0021720613 1.7726645e-23)
(1.0321226 0.00063032303 -1.0628068e-21)
(1.0414024 0.0087987919 9.1863306e-22)
(1.0385202 0.0079018148 9.9193276e-22)
(1.0368901 0.0065684977 -8.2954827e-22)
(1.0349406 0.0050315215 -6.1058554e-23)
(1.0335182 0.0034690323 5.1063472e-22)
(1.0322124 0.0020474161 5.1844987e-22)
(1.0311587 0.00060148812 9.0962579e-23)
(1.0420288 0.0097476818 4.8224182e-22)
(1.0391686 0.0091353363 8.3173016e-22)
(1.0373748 0.007897624 9.9402398e-22)
(1.0352697 0.0063421289 5.8492032e-23)
(1.0337675 0.0047656703 -1.3117228e-21)
(1.0324014 0.0032659443 -5.8269412e-22)
(1.0312447 0.0019386349 -6.001499e-22)
(1.0302628 0.00058112151 9.9036624e-22)
(1.0427328 0.010508375 -1.2379347e-21)
(1.0399652 0.010294891 8.5199562e-22)
(1.0379418 0.009223344 5.9098389e-23)
(1.0356356 0.0076440667 4.704702e-22)
(1.034046 0.0059915333 1.3214607e-22)
(1.0326296 0.0044679284 -1.9529608e-21)
(1.0314286 0.0030895572 1.77391e-22)
(1.0303504 0.0018558392 -1.0216089e-21)
(1.0294311 0.00056642106 -2.1041716e-21)
(1.0434852 0.011065964 9.8801219e-22)
(1.0409705 0.011413761 -3.0464552e-22)
(1.0385997 0.010573097 -5.3363683e-23)
(1.036008 0.0089706228 -2.2660005e-22)
(1.0343286 0.0071877808 -2.0003887e-22)
(1.0328808 0.0055903719 2.1631381e-22)
(1.0316553 0.0042092424 6.8350634e-22)
(1.030532 0.0029589721 1.1487288e-21)
(1.0295227 0.0017990325 6.5127631e-22)
(1.0286479 0.00055331323 1.6814331e-22)
(1.0442687 0.01138433 -4.7983977e-22)
(1.0423582 0.012440061 2.4414721e-22)
(1.0393773 0.012029587 6.3473802e-22)
(1.0363666 0.010376406 -7.8657252e-22)
(1.0345554 0.0083792096 5.4777537e-22)
(1.0331227 0.0066488642 -1.7634294e-21)
(1.0319125 0.0052447287 6.8041447e-23)
(1.0307638 0.0040235197 1.7313915e-21)
(1.0297002 0.0028752843 -8.6662491e-22)
(1.0287407 0.0017582568 1.9070726e-21)
(1.0279088 0.00053965466 -2.8949304e-22)
(1.0454326 0.011256058 8.5736277e-23)
(1.0438645 0.013395769 -6.1322184e-22)
(1.0400851 0.013730074 -8.3963649e-22)
(1.0366438 0.011960107 0)
(1.0346819 0.0095988162 3.6222404e-23)
(1.0332931 0.0076505423 -3.169634e-22)
(1.032178 0.0061920676 -3.4994824e-22)
(1.0310355 0.0050097201 -8.5418803e-22)
(1.0299336 0.0039143366 -2.1608115e-22)
(1.0289091 0.0028207274 -1.0992389e-21)
(1.0279976 0.0017206374 -7.4948557e-22)
(1.0272129 0.00052461782 1.7267718e-22)
(1.0470312 0.010618958 3.4417811e-23)
(1.0457217 0.014658843 1.5762192e-23)
(1.0407471 0.015752084 0)
(1.0367612 0.013782948 0)
(1.0345818 0.010885834 -1.7500737e-22)
(1.0333472 0.0085833508 -2.142585e-22)
(1.0324017 0.0070410801 -4.6872418e-22)
(1.0313419 0.0059055187 1.0043907e-21)
(1.0302115 0.0048897996 1.0361121e-22)
(1.0291343 0.0038512338 2.5671823e-24)
(1.0281523 0.0027715018 1.2392136e-21)
(1.027293 0.0016741874 -1.3443794e-21)
(1.026563 0.00050672054 2.772048e-21)
(1.0489819 0.0093670934 -7.64666e-22)
(1.0483443 0.016124325 2.3356739e-23)
(1.041592 0.018096498 -2.4977197e-22)
(1.0366904 0.015895161 4.8236624e-23)
(1.0341888 0.012252285 -3.3563299e-23)
(1.0332014 0.00944637 -1.5568138e-22)
(1.032554 0.0077497779 2.7461083e-22)
(1.0316514 0.0066960363 1.5713484e-23)
(1.0305488 0.0057901728 1.1173867e-21)
(1.0294046 0.0048359993 1.0428912e-21)
(1.0283599 0.0037945281 3.4060076e-22)
(1.0274313 0.0027058395 9.8624288e-22)
(1.0266326 0.0016098801 6.7193408e-22)
(1.0259641 0.00048380052 -7.610777e-22)
(1.0512969 0.0076497479 2.5549509e-23)
(1.051764 0.017860218 7.84553e-22)
(1.0426321 0.020981561 -4.0223929e-22)
(1.0363347 0.018428531 7.6565833e-23)
(1.0334002 0.013751756 -7.0347131e-23)
(1.0327719 0.010175077 2.9047967e-22)
(1.0325758 0.0082763833 2.6072368e-22)
(1.0319581 0.0073263525 -3.5119419e-22)
(1.0309331 0.0066057996 -9.4691999e-23)
(1.0297493 0.0057674575 -1.2278176e-22)
(1.0286061 0.0047902857 -2.025532e-23)
(1.027612 0.0037101045 -1.464869e-22)
(1.0267542 0.0026078829 -1.2700213e-21)
(1.0260246 0.0015231461 6.4664064e-22)
(1.0254215 0.00045505175 -5.8448563e-22)
(1.0539318 0.0050787902 2.2315266e-21)
(1.0559655 0.019763106 -1.4701717e-21)
(1.0438821 0.024643177 1.2195007e-23)
(1.0355836 0.021573607 5.7931223e-23)
(1.0320247 0.015456825 -1.619901e-22)
(1.0318956 0.010734881 -4.5991032e-22)
(1.0324828 0.0085351267 -1.7723492e-23)
(1.0322653 0.0077237113 3.133046e-23)
(1.0313896 0.007282078 -2.1792137e-22)
(1.030173 0.0066496842 -2.5879683e-22)
(1.0289238 0.0057575182 -2.1896575e-21)
(1.0278184 0.0047039184 4.7443623e-22)
(1.0269056 0.0035747673 3.9623497e-22)
(1.0261314 0.002470305 1.9686628e-22)
(1.025476 0.0014151404 3.8099529e-23)
(1.0249388 0.00042213067 6.5057483e-22)
(1.0569384 0.0021367512 0)
(1.0607572 0.02212355 -1.7447938e-21)
(1.0452576 0.029326086 9.3169543e-22)
(1.0343321 0.025519462 0)
(1.0298789 0.017428085 0)
(1.0304336 0.011105268 0)
(1.0320951 0.0083533419 1.1194147e-22)
(1.032743 0.0078358376 4.9876523e-22)
(1.0320127 0.0077558726 3.3951848e-22)
(1.0307409 0.0074468417 6.4818999e-22)
(1.0293253 0.0067221881 9.3764301e-23)
(1.0280745 0.0056923536 4.7856846e-22)
(1.0270598 0.0045403515 3.1208365e-25)
(1.0262558 0.0033775601 -4.5400209e-22)
(1.0255726 0.0022958176 -1.3154112e-22)
(1.0249908 0.0012924088 -3.1712331e-22)
(1.0245156 0.00038801739 0)
(1.0604263 -0.0016612511 4.486421e-21)
(1.0658552 0.024675489 4.7721028e-21)
(1.0464686 0.035200624 -1.5101662e-21)
(1.0323732 0.030473769 1.5835175e-21)
(1.0267632 0.019759982 1.3281647e-21)
(1.0281938 0.011215367 0)
(1.0313506 0.0076622966 7.4391431e-22)
(1.0332114 0.0074008748 -2.086599e-22)
(1.0328783 0.0079406416 4.7595191e-22)
(1.031565 0.0081209316 3.8685731e-22)
(1.0298889 0.0076886239 -3.908692e-22)
(1.0283814 0.006721902 1.2503609e-22)
(1.0272349 0.0055135271 8.0711906e-22)
(1.0263606 0.0042840674 -1.4898324e-21)
(1.0256775 0.0031228274 -4.0679661e-22)
(1.0250836 0.0020957051 -2.136167e-21)
(1.0245693 0.0011646527 -8.4901456e-22)
(1.0241483 0.00035551566 -8.2292041e-22)
(1.0662981 -0.0054332626 -5.0373949e-22)
(1.0724414 0.027676557 3.0441985e-21)
(1.0473627 0.042519181 1.059246e-21)
(1.0293321 0.036596548 9.9730053e-22)
(1.0224222 0.022537958 -2.5776354e-22)
(1.0249523 0.011006152 -4.3892209e-22)
(1.0301437 0.0062882315 -1.7545325e-21)
(1.0336442 0.0063444898 -7.8797511e-22)
(1.0341084 0.0078739188 -7.5607731e-23)
(1.032601 0.0086775999 -6.8041834e-22)
(1.0306538 0.0086991727 -9.2375476e-23)
(1.0287901 0.0078466664 -8.8141889e-22)
(1.0273988 0.0065520945 1.5449169e-22)
(1.0264513 0.0051910393 1.2035389e-22)
(1.0257471 0.003942382 1.8195353e-22)
(1.0251805 0.0028288471 3.2284792e-22)
(1.0246651 0.0018863106 -7.0855705e-22)
(1.0242077 0.0010417485 3.3130745e-23)
(1.0238304 0.00032706143 -7.8394917e-22)
(1.0729104 -0.012221203 -3.353318e-21)
(1.0833974 0.030530904 -5.8168556e-21)
(1.049506 0.051248215 1.1171033e-20)
(1.0251624 0.043950405 -1.2447926e-21)
(1.0166031 0.025853645 1.4661826e-22)
(1.0204561 0.010393352 -1.7170104e-22)
(1.0283348 0.0040503442 2.364424e-22)
(1.0341024 0.0044396997 -4.0939728e-23)
(1.0357244 0.0072531653 -8.8678931e-24)
(1.0340986 0.0092202184 3.9786061e-22)
(1.0315972 0.0098328393 -1.1419017e-21)
(1.0292681 0.0091608968 2.9575032e-22)
(1.0275613 0.0077300282 4.7364676e-22)
(1.0264742 0.0061621461 -4.2075984e-23)
(1.0257743 0.0047378158 1.2347236e-22)
(1.0252348 0.0035411759 1.0244043e-21)
(1.0247671 0.0025211214 -2.2396119e-22)
(1.0243126 0.0016846579 1.1650876e-21)
(1.0238989 0.00093167483 3.0868981e-22)
(1.0235539 0.00030509434 8.2263255e-22)
(1.0790065 -0.018378728 -3.419557e-22)
(1.0993652 0.033916849 -1.364291e-20)
(1.0561274 0.061405827 1.3902682e-21)
(1.0212346 0.052722682 7.8988075e-22)
(1.0090347 0.02966588 -1.2936793e-21)
(1.014469 0.009302454 -1.2871941e-21)
(1.0257715 0.00073100795 2.0787214e-21)
(1.0345922 0.0014504909 1.1415151e-21)
(1.0378443 0.005932924 4.2887765e-22)
(1.036291 0.0096019629 0)
(1.0329865 0.011106766 7.8193665e-22)
(1.0298528 0.010738503 3.0707172e-22)
(1.0276666 0.0091364546 -6.6795611e-22)
(1.0264013 0.0072502046 1.0641871e-22)
(1.0256923 0.0055688803 -4.5094308e-22)
(1.0252334 0.0041979329 8.009604e-22)
(1.0248281 0.0031174359 1.508271e-22)
(1.0244326 0.0022250347 -3.5996235e-22)
(1.0240183 0.0015048659 7.0485712e-22)
(1.0236339 0.00083997688 5.0612182e-23)
(1.0233101 0.00029165492 7.9221208e-22)
(1.0783048 -0.024977841 5.9616535e-21)
(1.1073523 0.033485888 -1.7678617e-20)
(1.0686886 0.072989688 -1.1767828e-20)
(1.0203041 0.063355503 1.0700246e-21)
(0.99988172 0.034182254 -4.2363414e-21)
(1.0067434 0.0076631232 1.1056523e-22)
(1.0222835 -0.0038742845 0)
(1.0351241 -0.0028835926 4.3117547e-22)
(1.0406277 0.0036973335 2.1778801e-22)
(1.0393524 0.0097367611 1.1135734e-21)
(1.0350217 0.012629265 4.3266212e-22)
(1.0306984 0.012671891 5.7813262e-23)
(1.0277372 0.01085901 -7.6854688e-23)
(1.0261662 0.0085306368 3.7700134e-22)
(1.0254516 0.0064601109 -2.4874986e-22)
(1.0250992 0.0048439862 2.7001323e-22)
(1.0248345 0.0036278118 -1.0117888e-22)
(1.0245202 0.0027091722 6.3060648e-22)
(1.0241667 0.0019608931 1.2872314e-22)
(1.0237719 0.0013562003 1.746872e-23)
(1.0234038 0.00076987513 4.2121869e-22)
(1.0230901 0.00028711746 0)
(1.0715369 -0.03307623 1.2518488e-21)
(1.1076463 0.033272344 1.2511971e-20)
(1.0833268 0.086888018 -4.711242e-22)
(1.0220692 0.076665116 3.2105545e-22)
(0.98976504 0.04000748 -4.9938309e-21)
(0.99690446 0.0054316092 1.8650486e-21)
(1.017725 -0.0099797717 -8.0275426e-22)
(1.0356256 -0.0088367277 5.153123e-22)
(1.0442601 0.0003084984 -1.6668056e-22)
(1.0435343 0.0095130344 -8.9859173e-23)
(1.0379194 0.014480505 -3.9452244e-24)
(1.0319044 0.015169773 -2.2892831e-22)
(1.0277619 0.013056388 -1.0834564e-22)
(1.0257129 0.010097554 1.287641e-21)
(1.0249622 0.0074637417 9.0836551e-22)
(1.0247783 0.005479955 6.5212485e-22)
(1.0247063 0.0040779466 -1.3848699e-22)
(1.0245658 0.0030830293 -9.8159701e-22)
(1.0242957 0.0023482876 -3.6230524e-23)
(1.0239555 0.0017419505 3.7971145e-22)
(1.0235631 0.0012427936 0)
(1.0232005 0.00072201408 -9.5373965e-22)
(1.0228864 0.00028899046 -2.7495147e-24)
(1.0576086 -0.040754467 -5.1960239e-21)
(1.1034127 0.032750891 4.0138883e-20)
(1.0838761 0.10121453 -1.9071512e-20)
(1.0214146 0.094573554 -3.7035868e-21)
(0.97828717 0.048259736 -9.5904726e-21)
(0.98443835 0.0025548411 0)
(1.011861 -0.017791773 -2.8251521e-22)
(1.0360557 -0.016707165 8.9067328e-22)
(1.0488311 -0.0045233655 -1.4288509e-21)
(1.0491414 0.0088225064 -1.7491918e-21)
(1.0419502 0.016759526 9.1630752e-22)
(1.0336096 0.018451992 3.1407678e-22)
(1.0277396 0.015944957 -2.3807543e-22)
(1.0249429 0.012082097 6.6263119e-22)
(1.0241256 0.0086412704 -7.4855799e-22)
(1.0241694 0.0061211145 -1.465718e-21)
(1.0243979 0.0044450322 -2.2068807e-22)
(1.0244952 0.0033539119 -3.4148482e-22)
(1.0244031 0.0026086897 9.9901967e-22)
(1.0241342 0.0020563521 -3.0693006e-22)
(1.023784 0.0015750015 -8.1683049e-22)
(1.0233822 0.0011647171 8.8507573e-22)
(1.0230167 0.00069436879 -6.7483569e-22)
(1.0226931 0.00029248303 -1.5401262e-24)
(1.0374785 -0.047945377 -7.9563657e-23)
(1.0904246 0.035100572 3.6140518e-20)
(1.0665313 0.11551633 -6.5942623e-22)
(1.0133527 0.11441155 1.1117613e-20)
(0.96417959 0.059166172 5.3488936e-21)
(0.96915363 -0.00044702615 -8.5600983e-21)
(1.0043167 -0.027570555 -3.5338894e-22)
(1.0363493 -0.026756499 -3.0997261e-22)
(1.0544863 -0.011100436 2.8937384e-22)
(1.0564543 0.0074974287 -1.1730051e-21)
(1.0474246 0.019567193 9.2383665e-22)
(1.0359489 0.02280051 -2.471464e-22)
(1.0276519 0.01979216 6.0201202e-22)
(1.023752 0.014657677 -7.5988271e-23)
(1.0228022 0.010063058 -1.091714e-21)
(1.0231635 0.0067814112 -2.6884599e-23)
(1.023814 0.0047087244 -4.8765441e-23)
(1.0242787 0.0034789395 -4.8630246e-22)
(1.0244266 0.0027364674 0)
(1.024316 0.0022336257 -1.0759286e-22)
(1.0240148 0.0018417812 -3.1743652e-23)
(1.0236395 0.0014617471 6.5922664e-23)
(1.0232201 0.0011193187 -4.578459e-23)
(1.0228453 0.00068314544 9.6285599e-22)
(1.0225075 0.00029368051 5.4367483e-22)
(1.0139518 -0.054322539 6.9294898e-21)
(1.0726813 0.037225253 -2.2392344e-20)
(1.04441 0.12997876 -6.2827726e-21)
(0.99779274 0.13329872 -1.3803007e-21)
(0.94925795 0.071630032 1.0736062e-20)
(0.95171232 -0.0036522061 1.0335179e-21)
(0.99489568 -0.039635613 -5.1872869e-22)
(1.0364181 -0.03924787 5.0663362e-23)
(1.061267 -0.019741591 -3.6761603e-21)
(1.0658025 0.0053787658 -2.403184e-22)
(1.0546719 0.02306653 -1.4029283e-21)
(1.0390467 0.028548671 3.8765421e-25)
(1.0274332 0.024914324 -2.6019015e-22)
(1.0219875 0.018030071 -3.5101636e-22)
(1.0208195 0.011820442 -3.6588911e-22)
(1.0216092 0.0074668585 1.4403843e-21)
(1.0228555 0.0048366838 2.1523382e-21)
(1.0238399 0.0034111743 6.2383351e-22)
(1.024357 0.0026774609 8.9027059e-22)
(1.0244523 0.002264101 2.0648895e-23)
(1.0242748 0.0019690563 -1.0457398e-21)
(1.0239195 0.0017004024 -2.6354972e-22)
(1.0235117 0.0013990689 7.3545225e-22)
(1.0230681 0.0011018061 -8.5053049e-22)
(1.0226808 0.00068435423 7.2874919e-22)
(1.0223279 0.00029286792 -3.9507053e-23)
(0.98867554 -0.059980793 -2.5563846e-22)
(1.0502419 0.039203823 -2.6506729e-20)
(1.0225511 0.14410315 2.8444326e-20)
(0.98080858 0.14934594 -1.3636586e-20)
(0.93593511 0.085872564 -1.6483384e-21)
(0.93327147 -0.0071413784 8.4983971e-21)
(0.98375461 -0.054126218 1.1216235e-21)
(1.0358913 -0.054342449 1.6088247e-21)
(1.0689525 -0.030609529 8.5972557e-21)
(1.0772377 0.002232814 3.5995009e-21)
(1.0640029 0.027384381 -1.9820036e-22)
(1.043044 0.036091425 2.5154823e-21)
(1.0270161 0.031675345 -1.0233846e-21)
(1.0194759 0.022437804 -6.0156162e-22)
(1.0179645 0.014012168 -2.9402199e-22)
(1.0193205 0.0081830957 2.9687514e-22)
(1.0213867 0.0047762607 -2.6111764e-23)
(1.0231063 0.0030830274 -5.5112339e-25)
(1.0241437 0.0023682414 2.1718999e-22)
(1.0245549 0.0020926503 5.5472775e-23)
(1.0245253 0.0019480541 0)
(1.0242539 0.0018095538 -3.8838857e-22)
(1.0238335 0.0016216513 -4.2480411e-23)
(1.0233913 0.0013786803 0)
(1.0229213 0.0011061097 1.0437623e-21)
(1.0225196 0.00069519588 3.911196e-24)
(1.0221522 0.00029380574 -5.3258879e-22)
(0.96259892 -0.064892473 -2.2380374e-21)
(1.0254733 0.04128124 -2.0098911e-21)
(0.99690122 0.15753237 2.4861446e-20)
(0.95943189 0.16452998 -3.3044352e-21)
(0.92082045 0.098711385 -9.8333552e-23)
(0.91459232 -0.0094596415 -8.070036e-21)
(0.97019598 -0.07015995 -1.8444044e-22)
(1.0340833 -0.071892558 1.4680822e-21)
(1.0768439 -0.043529898 -2.757644e-21)
(1.0900961 -0.0018753944 -7.8331979e-21)
(1.0752116 0.032757086 4.5100947e-21)
(1.0479435 0.045853244 -1.3826063e-22)
(1.026276 0.040468333 -1.9651689e-22)
(1.0159802 0.028131464 -4.6319603e-22)
(1.0139926 0.016749972 -9.2922249e-22)
(1.0160754 0.008921416 -2.7724742e-22)
(1.0192461 0.0044618396 -1.4362543e-21)
(1.0219779 0.0023962552 -1.1017661e-21)
(1.023751 0.0017208787 -4.4653204e-22)
(1.0246019 0.0016508211 -6.9934923e-22)
(1.0247983 0.0017335746 -3.810053e-22)
(1.0246078 0.0017774978 1.007686e-22)
(1.0242315 0.0017352964 3.392279e-23)
(1.0237477 0.0015949506 0)
(1.0232749 0.0013894174 0)
(1.0227773 0.0011270063 -7.6067716e-23)
(1.022358 0.00071424011 9.4029632e-22)
(1.0219786 0.00029939452 1.0209198e-21)
(0.9363006 -0.069234184 0)
(0.99962779 0.043510984 -1.3916292e-20)
(0.97009517 0.1698874 -2.3183828e-20)
(0.93480551 0.17858749 -4.2038948e-21)
(0.90091555 0.11076199 -9.2908961e-23)
(0.8955042 -0.011660953 3.1459555e-22)
(0.95431499 -0.087546474 -1.7282905e-21)
(1.0304574 -0.09156316 5.2675287e-21)
(1.0839978 -0.058401694 -1.2614272e-20)
(1.1034261 -0.0066543399 2.2728213e-21)
(1.0870535 0.039713149 -5.5808866e-22)
(1.0529748 0.058435407 -1.5777268e-21)
(1.0249156 0.051753597 4.0467396e-22)
(1.0111855 0.035381269 -1.0341789e-21)
(1.0086043 0.020134889 -2.8166495e-22)
(1.0116208 0.0096679758 -1.0239588e-21)
(1.0162432 0.0037982981 -1.4883686e-22)
(1.0203402 0.0012332047 -2.9873569e-22)
(1.0231269 0.00061046027 -1.3320965e-22)
(1.024598 0.00084648511 -3.3883388e-22)
(1.0250987 0.0012635041 -2.5523058e-22)
(1.0250286 0.0015779378 -1.9468836e-22)
(1.024674 0.0017259126 2.5712997e-23)
(1.0241951 0.0017197394 8.8891151e-22)
(1.0236652 0.0016101783 2.6175549e-22)
(1.0231608 0.001422457 -1.1593712e-23)
(1.0226332 0.0011607887 -1.0026069e-21)
(1.0221949 0.00073972872 6.1970203e-22)
(1.0218055 0.00030912005 -1.5262094e-21)
(0.91043329 -0.072863652 2.7614357e-21)
(0.97355132 0.045241131 0)
(0.94294481 0.18133205 0)
(0.90928965 0.19129477 0)
(0.87914853 0.12143206 5.8328876e-22)
(0.87642845 -0.014131689 3.2894858e-22)
(0.93706569 -0.10616914 -1.4364414e-21)
(1.024895 -0.11348146 -3.9762073e-21)
(1.0904116 -0.075763155 -2.7619586e-20)
(1.117825 -0.012568642 3.3132216e-20)
(1.0993777 0.048590352 -8.6766228e-21)
(1.0565937 0.074375248 2.0265285e-21)
(1.0219803 0.065970278 4.6954357e-22)
(1.0046681 0.044468955 1.7796401e-21)
(1.0014379 0.024256551 2.2324811e-21)
(1.0056749 0.01038974 -1.8341431e-22)
(1.0121625 0.0026767599 -1.1240768e-21)
(1.0180595 -0.00056091409 2.4954284e-22)
(1.0222182 -0.0011103127 6.8066275e-22)
(1.0245442 -0.00044992968 4.6902162e-22)
(1.0254692 0.00045815382 2.3846529e-22)
(1.0255434 0.0011646537 -1.4983455e-22)
(1.0252078 0.001583425 -3.7532787e-22)
(1.0247023 0.0017524169 2.8589959e-22)
(1.0241503 0.0017418036 1.1121896e-24)
(1.0235853 0.0016577384 2.0604356e-22)
(1.0230429 0.001472967 -7.8362193e-22)
(1.0224871 0.0012027837 1.9182733e-26)
(1.0220309 0.00076870299 -2.3984549e-21)
(1.0216322 0.00032050405 -9.1720331e-22)
(0.88289016 -0.076793653 -3.8988702e-21)
(0.94810859 0.047560388 -1.2178721e-20)
(0.91637072 0.19172117 0)
(0.88384493 0.20285325 0)
(0.8564237 0.13057818 0)
(0.85779375 -0.014730403 0)
(0.91959727 -0.12507009 0)
(1.0167765 -0.13718543 1.1733944e-21)
(1.096041 -0.096250709 1.0909295e-20)
(1.1350846 -0.021291166 -5.017215e-20)
(1.1164501 0.058474835 5.4594436e-22)
(1.0610679 0.093923134 -8.7247845e-21)
(1.0162532 0.083216447 4.881858e-21)
(0.99568426 0.055592973 2.6713695e-21)
(0.99207795 0.029169487 -2.8632881e-22)
(0.99792516 0.011027172 5.772868e-22)
(1.0067753 0.00096510318 -2.7597886e-22)
(1.0149849 -0.0031602732 5.1292661e-22)
(1.0209592 -0.0036308873 -5.5102646e-22)
(1.024452 -0.0023936973 -2.0914405e-22)
(1.02596 -0.000798304 -2.4681625e-23)
(1.0262244 0.00048469692 -3.8389999e-22)
(1.0258772 0.0012859511 -2.1657183e-23)
(1.0253131 0.0016941019 1.3501421e-22)
(1.0246888 0.0018211282 -1.1138668e-22)
(1.024088 0.0018134657 -6.6657878e-22)
(1.0234902 0.0017329882 -2.243128e-22)
(1.0229164 0.0015340832 3.4264623e-22)
(1.0223395 0.0012475043 8.7553986e-25)
(1.0218669 0.00079826915 1.7281881e-21)
(1.0214589 0.00033150486 5.9581907e-22)
(0.85382637 -0.080522777 5.0421154e-21)
(0.92125228 0.048338575 -1.5779609e-21)
(0.89116198 0.20099366 -1.5611334e-20)
(0.8592848 0.21321752 -2.0118773e-20)
(0.83413403 0.13857211 0)
(0.83897014 -0.01792038 0)
(0.90249696 -0.14360469 -1.3877616e-21)
(1.0056462 -0.16143849 -1.2067523e-20)
(1.0969489 -0.11818564 3.9417983e-20)
(1.1523212 -0.033446284 -6.0266935e-20)
(1.1421167 0.06705589 -1.6648839e-21)
(1.0743681 0.11576426 1.4361326e-20)
(1.0111281 0.10372443 7.1531085e-22)
(0.9833435 0.068557992 -2.8774333e-22)
(0.98005002 0.034850099 -1.9158521e-21)
(0.98804652 0.011477549 -7.2556509e-23)
(0.99984574 -0.0014891828 2.6649039e-21)
(1.0109538 -0.0067633301 -7.3936324e-23)
(1.01928 -0.0071660778 -1.279536e-21)
(1.0243319 -0.0051843988 -2.6147249e-22)
(1.0266432 -0.0026448222 -6.7754109e-22)
(1.0271598 -0.00054753383 1.7209141e-22)
(1.0267719 0.00081667711 -1.713967e-22)
(1.0260705 0.0015454848 -3.0346429e-22)
(1.0253359 0.0018546388 -3.4240382e-23)
(1.0246429 0.0019292122 -2.4871692e-22)
(1.0240143 0.0019174878 -1.8152291e-22)
(1.0233857 0.0018101606 -1.9001175e-22)
(1.0227907 0.0015941335 4.6793879e-22)
(1.0221932 0.0012914681 -3.3160715e-23)
(1.0217034 0.00082675342 8.3340248e-22)
(1.0212863 0.00034130704 6.2971189e-23)
(0.82452938 -0.08428387 -3.756336e-21)
(0.89334872 0.049492305 1.4652342e-21)
(0.86554482 0.20981829 1.9308721e-20)
(0.83612633 0.22251366 3.8053511e-20)
(0.81292221 0.14527132 0)
(0.81983869 -0.020711917 0)
(0.88540986 -0.16147176 0)
(0.99184761 -0.18523939 -7.1499717e-22)
(1.0917396 -0.14023375 -6.2379146e-20)
(1.1571519 -0.047140709 -6.4578074e-20)
(1.1680409 0.073609534 -2.1739102e-21)
(1.0988388 0.13836623 4.0679815e-21)
(1.0149562 0.12724028 -1.4771452e-20)
(0.96934526 0.083439456 2.9457346e-21)
(0.96477632 0.041059229 -8.594356e-22)
(0.97573736 0.011573411 0)
(0.99114825 -0.0048581612 7.6346561e-22)
(1.0058043 -0.011579996 -6.1599714e-22)
(1.0170959 -0.011956075 -3.7676894e-22)
(1.0242009 -0.0090495136 1.6303706e-22)
(1.0276076 -0.0052633665 2.3203239e-22)
(1.0284745 -0.0020328026 3.0396566e-22)
(1.0280049 0.00013301193 2.7011299e-22)
(1.0270703 0.0013290328 2.3485154e-22)
(1.0261182 0.0018626173 1.530866e-24)
(1.0252895 0.0020381928 -5.0132887e-23)
(1.0245722 0.0020622033 1.7565893e-23)
(1.0239292 0.0020157198 -1.1228938e-23)
(1.0232853 0.0018763427 4.9005191e-22)
(1.0226689 0.0016517393 3.5492201e-22)
(1.0220471 0.001334256 1.4423289e-23)
(1.0215407 0.00085351161 -2.3349549e-21)
(1.0211151 0.00034985642 8.8252807e-22)
(0.79507713 -0.087503989 -7.0837833e-21)
(0.8626975 0.046278289 0)
(0.83898509 0.21778083 2.3123009e-20)
(0.81326977 0.23172059 6.9788029e-20)
(0.79326296 0.15077272 -1.0274302e-20)
(0.80110924 -0.023843608 -1.4917624e-21)
(0.86793914 -0.17865926 -3.6369372e-20)
(0.97593232 -0.20800974 2.1510949e-20)
(1.0816889 -0.16193599 1.3623729e-20)
(1.154919 -0.060971093 1.584275e-19)
(1.1737715 0.076529651 -5.9404053e-20)
(1.1261142 0.16302875 -4.7555308e-20)
(1.0286936 0.15441457 1.9468556e-21)
(0.95966187 0.1015857 -1.7423458e-21)
(0.94610269 0.047437424 -2.0979047e-21)
(0.96073379 0.011134889 2.4664043e-22)
(0.98048724 -0.0093395248 3.5839286e-22)
(0.99938301 -0.017816859 3.490574e-22)
(1.0143198 -0.018250107 -1.3711901e-22)
(1.0240668 -0.01424893 2.4604087e-23)
(1.0289577 -0.0088659342 3.48664e-22)
(1.0303228 -0.0041084972 2.3762385e-22)
(1.0297349 -0.00081158538 -1.6269759e-22)
(1.0284348 0.0010501995 2.9000007e-22)
(1.027122 0.0019012905 2.3927495e-22)
(1.0260412 0.002183012 6.6642603e-23)
(1.0251931 0.0022264915 8.0831075e-23)
(1.0244851 0.0021849394 2.6126953e-23)
(1.0238395 0.0020966041 1.7995473e-22)
(1.0231819 0.0019462324 -5.4054735e-23)
(1.0225416 0.0017101221 2.3823465e-22)
(1.0219007 0.0013745516 2.213758e-23)
(1.0213791 0.00087825002 9.4444484e-22)
(1.0209455 0.00035735157 -1.6442295e-21)
(0.7667549 -0.09040853 6.8153993e-21)
(0.82923728 0.045491794 -2.3958035e-22)
(0.81151625 0.22476134 -7.6762916e-21)
(0.79095469 0.2413567 -4.1063657e-20)
(0.77387777 0.15769245 6.82462e-20)
(0.78376582 -0.029160608 6.9958888e-20)
(0.84992212 -0.1943483 6.4023015e-21)
(0.95852136 -0.22939322 0)
(1.0673991 -0.18295228 4.5828585e-20)
(1.1478127 -0.073662231 2.166578e-19)
(1.1720077 0.078487182 4.2880694e-21)
(1.1429443 0.18846954 2.3445156e-20)
(1.0417641 0.18710236 0)
(0.95716291 0.12551531 3.2007816e-21)
(0.92543598 0.05533487 3.2808237e-21)
(0.94265944 0.0096866248 -3.2774882e-22)
(0.96775364 -0.015081517 -2.8325842e-21)
(0.99155701 -0.025662478 0)
(1.0108579 -0.02629041 2.9904386e-22)
(1.0239278 -0.021057331 4.1271844e-22)
(1.0308014 -0.013703211 -2.6759695e-23)
(1.0328899 -0.0069393925 3.3521039e-22)
(1.0321617 -0.0020878222 0)
(1.0303333 0.0007261293 1.8165382e-22)
(1.0284601 0.0020178874 1.4751353e-22)
(1.026966 0.0024337791 -1.2346355e-23)
(1.0258776 0.0024594802 8.5372495e-23)
(1.0250718 0.0023781644 -6.7580676e-23)
(1.0243933 0.0022747598 -1.3921449e-24)
(1.0237522 0.0021675619 5.6719002e-22)
(1.0230803 0.00200968 -1.0667053e-21)
(1.0224183 0.0017611257 -6.1838817e-22)
(1.0217567 0.0014109342 0)
(1.0212195 0.00090099773 -3.6951262e-23)
(1.0207783 0.00036398501 -4.8651537e-22)
(0.74050797 -0.09312024 1.0166398e-20)
(0.79690914 0.044905848 -1.0121179e-20)
(0.78479873 0.23089826 1.1960845e-20)
(0.76944365 0.24988585 -1.289651e-20)
(0.75552187 0.16688113 2.8556939e-20)
(0.76476756 -0.029720989 1.146687e-20)
(0.83328111 -0.2105139 5.8036852e-20)
(0.9398796 -0.24917682 5.2768324e-21)
(1.0496643 -0.20235316 0)
(1.1341078 -0.085495115 -7.6575992e-20)
(1.1629578 0.082864445 6.893549e-20)
(1.1321978 0.21171298 -8.6679921e-21)
(1.043922 0.22207411 1.3488446e-20)
(0.95697775 0.15585228 -4.0503972e-21)
(0.90616744 0.066079879 1.908233e-21)
(0.92098414 0.0074272129 1.5200624e-21)
(0.95283855 -0.022383572 -4.8445231e-21)
(0.98224248 -0.03528746 -1.0139664e-21)
(1.0066187 -0.036293586 1.1820268e-21)
(1.0237639 -0.029757756 -7.4146502e-22)
(1.0332398 -0.020055688 2.8165448e-22)
(1.0363813 -0.010730525 -2.8317211e-22)
(1.0355291 -0.0037835903 0)
(1.0329795 0.00036625457 5.6209657e-23)
(1.0302885 0.0022941724 4.0587312e-23)
(1.0281485 0.0028803367 1.5678468e-24)
(1.0266658 0.0028541048 -1.1542891e-22)
(1.0256704 0.0026522643 -3.9231885e-23)
(1.0249452 0.002473178 -2.8842462e-23)
(1.0243063 0.0023382658 0)
(1.0236713 0.0022277554 -4.4544815e-22)
(1.0229838 0.0020626888 -1.1658081e-21)
(1.0222984 0.0018070942 1.6887514e-21)
(1.0216148 0.001444336 -5.4278269e-22)
(1.0210619 0.0009222358 7.2463205e-23)
(1.0206138 0.00036992533 1.7343965e-21)
(0.71686445 -0.095563872 -1.0694484e-20)
(0.76737406 0.044563629 -3.1272471e-22)
(0.76011141 0.23618076 -1.1333379e-20)
(0.74963765 0.25748019 -2.9536265e-22)
(0.73849375 0.17430238 -1.4326756e-19)
(0.74620548 -0.024895452 -1.0730456e-19)
(0.81316386 -0.2222726 -1.3260572e-21)
(0.92151891 -0.26743925 3.2986303e-20)
(1.0297416 -0.22106881 5.9609843e-21)
(1.1160053 -0.095562242 6.8957235e-20)
(1.1473133 0.088945876 6.9345286e-22)
(1.1097528 0.23527511 -2.7738221e-20)
(1.0359788 0.25437772 2.7507941e-21)
(0.95620147 0.18828441 -1.1230172e-20)
(0.89046262 0.082899415 9.5573828e-22)
(0.89587015 0.0037241773 0)
(0.9358385 -0.03137364 4.0826236e-22)
(0.97140145 -0.046790134 1.0173199e-21)
(1.0015296 -0.048444161 -3.296061e-22)
(1.0235477 -0.040613315 8.5482054e-24)
(1.0363621 -0.028226188 2.9201271e-22)
(1.0410148 -0.015725717 9.755139e-23)
(1.0401205 -0.0060160228 2.3391855e-23)
(1.0366437 -2.0848867e-05 0)
(1.032803 0.0028219749 -5.5525228e-22)
(1.0297085 0.0036556433 -9.0961288e-23)
(1.0276024 0.0035285485 -1.4242191e-22)
(1.02629 0.0031196415 1.3397796e-22)
(1.0254547 0.0027499016 -6.5567428e-24)
(1.0248296 0.0025177493 1.5870188e-23)
(1.0242329 0.002379454 2.4769357e-22)
(1.023599 0.0022750511 -4.2196819e-22)
(1.0228916 0.0021104407 1.2456587e-23)
(1.0221797 0.0018501532 1.7168676e-21)
(1.0214743 0.0014755133 -3.861657e-24)
(1.0209069 0.00094231669 -4.8725506e-23)
(1.0204517 0.00037538385 6.2372601e-22)
(0.69635572 -0.097836259 -8.5011133e-22)
(0.74071555 0.044280767 1.9350932e-20)
(0.7386137 0.24085697 -2.5342242e-20)
(0.7321252 0.26395521 1.122082e-20)
(0.72326744 0.18134019 -3.7251942e-23)
(0.72951939 -0.022192617 3.0351237e-22)
(0.79120616 -0.23130485 4.0429295e-20)
(0.89861785 -0.28458211 -1.0812374e-21)
(1.0077012 -0.23589406 0)
(1.0943785 -0.10516157 -1.3401443e-20)
(1.1269068 0.094711944 0)
(1.0885439 0.25703788 0)
(1.0210188 0.28271082 -1.7494993e-20)
(0.9525797 0.21927268 7.2739794e-22)
(0.88100084 0.10385454 4.1567357e-22)
(0.87160537 0.0030649235 9.6320997e-22)
(0.91592869 -0.042810418 2.7386499e-23)
(0.95926039 -0.06026412 -1.9874867e-21)
(0.99553139 -0.0628298 -7.9903076e-22)
(1.0232178 -0.053846566 -3.3890695e-22)
(1.0402183 -0.038517466 -2.8221743e-22)
(1.0470039 -0.022206101 -7.0988992e-22)
(1.0462575 -0.0089377955 -6.770834e-23)
(1.0416475 -0.00043022978 -4.6479251e-22)
(1.0362546 0.0037128986 -1.2373826e-22)
(1.0317983 0.0049180146 3.4229896e-23)
(1.0287588 0.004647031 1.8600495e-22)
(1.0269349 0.0039057156 -1.2184183e-22)
(1.0259018 0.0032182474 -1.1851076e-24)
(1.0252613 0.0027573037 -1.8001157e-22)
(1.0247394 0.0025201085 -1.8967474e-23)
(1.0241776 0.0024007668 -4.5566287e-23)
(1.0235368 0.0023126128 3.5446444e-22)
(1.0228044 0.0021532264 1.0315458e-21)
(1.0220642 0.0018895857 -3.4206908e-21)
(1.0213369 0.0015046017 -6.9162589e-22)
(1.0207544 0.00096183109 -6.1058989e-22)
(1.0202929 0.00038056758 0)
(0.6796663 -0.099889625 2.4656741e-20)
(0.71759317 0.04250682 -1.6820604e-22)
(0.72032091 0.24464943 -1.0589289e-20)
(0.71750298 0.26935159 1.0620585e-20)
(0.71041212 0.18767331 9.3998176e-20)
(0.71517237 -0.019357104 6.8791425e-20)
(0.76978577 -0.23983634 -2.0248075e-21)
(0.87345258 -0.30085563 -6.0154537e-20)
(0.98071875 -0.2541808 -8.7653733e-21)
(1.0693329 -0.11072894 -7.7574833e-20)
(1.1020735 0.10066762 1.540704e-21)
(1.0643831 0.27793141 0)
(1.0012525 0.30820577 0)
(0.94163712 0.24697846 1.1080151e-20)
(0.87442001 0.12767195 -7.2020144e-21)
(0.85056317 0.0027668807 -6.0601638e-21)
(0.89352381 -0.055353199 1.5525955e-21)
(0.9455577 -0.075714708 5.1524567e-22)
(0.98854227 -0.079479103 -6.2467124e-22)
(1.0226424 -0.06960222 -1.6640938e-21)