/*--------------------------------*- C++ -*----------------------------------*\
| =========                 |                                                 |
| \\      /  F ield         | OpenFOAM: The Open Source CFD Toolbox           |
|  \\    /   O peration     | Version:  5.0                                   |
|   \\  /    A nd           | Web:      www.OpenFOAM.org                      |
|    \\/     M anipulation  |                                                 |
\*---------------------------------------------------------------------------*/
FoamFile
{
    version     2.0;
    format      ascii;
    class       volVectorField;
    location    "260";
    object      U_0;
}
// * * * * * * * * * * * * * * * * * * * * * * * * * * * * * * * * * * * * * //

dimensions      [0 1 -1 0 0 0 0];

internalField   nonuniform List<vector> 
9200
(
(1.0389763 0.00074525775 -1.7014778e-24)
(1.039159 0.0023779605 8.1679547e-22)
(1.0367317 0.00074578553 0)
(1.0394449 0.0037866073 -4.3188392e-22)
(1.0368879 0.0024015323 7.1360904e-22)
(1.0357432 0.00073298121 0)
(1.0398392 0.0051930922 -4.333453e-23)
(1.0371576 0.0038301755 1.0643977e-23)
(1.0358852 0.0023736225 0)
(1.0342995 0.00070324598 0)
(1.0402945 0.0064828925 8.9335128e-22)
(1.0375182 0.0052657921 6.6599562e-22)
(1.0361367 0.003790363 4.0448366e-22)
(1.0344179 0.0022885982 2.469413e-23)
(1.0331934 0.0006674831 2.3082437e-25)
(1.0408111 0.0076927276 8.5529692e-22)
(1.0379619 0.0066031835 -3.0414272e-23)
(1.0364699 0.0052188142 1.3491667e-21)
(1.0346414 0.0036571613 5.5329209e-22)
(1.0332959 0.0021748858 1.7083654e-23)
(1.032102 0.00063084377 -1.040341e-21)
(1.0413683 0.0087863698 8.9350685e-22)
(1.0385001 0.0078904107 9.6900606e-22)
(1.0368752 0.0065671191 -8.1104885e-22)
(1.034924 0.0050361084 -5.9540037e-23)
(1.0334997 0.003473706 4.9982384e-22)
(1.0321918 0.0020496428 5.0728057e-22)
(1.0311376 0.00060145542 8.9015195e-23)
(1.0419845 0.0097304898 4.6251438e-22)
(1.0391466 0.0091165406 8.0990466e-22)
(1.0373619 0.0078937094 9.705459e-22)
(1.0352543 0.0063478114 5.5861489e-23)
(1.0337494 0.0047725674 -1.2831057e-21)
(1.0323806 0.0032697401 -5.6989499e-22)
(1.0312232 0.0019393495 -5.8800848e-22)
(1.0302418 0.00058060719 9.6997507e-22)
(1.0426733 0.010483281 -1.1999209e-21)
(1.0399411 0.010264021 8.3584503e-22)
(1.0379331 0.0092145513 5.5500676e-23)
(1.0356231 0.0076508072 4.6060839e-22)
(1.0340288 0.0060011146 1.2688971e-22)
(1.0326084 0.0044737792 -1.9119325e-21)
(1.0314067 0.0030908482 1.7564361e-22)
(1.0303289 0.0018547028 -1.000973e-21)
(1.029411 0.00056567531 -2.0612322e-21)
(1.0434033 0.011027981 9.4892892e-22)
(1.0409446 0.011363214 -3.1013393e-22)
(1.0385987 0.010555329 -5.1311932e-23)
(1.0360019 0.0089784146 -2.1506703e-22)
(1.0343136 0.0072012427 -1.9547879e-22)
(1.0328589 0.0055988177 2.0891072e-22)
(1.0316326 0.0042113761 6.6936321e-22)
(1.0305102 0.0029570589 1.1251885e-21)
(1.0295022 0.0017963859 6.3777749e-22)
(1.0286292 0.00055253338 1.6474746e-22)
(1.0441634 0.011330779 -4.6169457e-22)
(1.0423325 0.012358144 2.2535565e-22)
(1.0393915 0.011996926 6.2621033e-22)
(1.0363721 0.010385107 -7.6950199e-22)
(1.0345445 0.0083985057 5.4368579e-22)
(1.0330999 0.0066612245 -1.731432e-21)
(1.0318883 0.0052479014 6.5928996e-23)
(1.0307411 0.0040205788 1.6974658e-21)
(1.0296797 0.0028706992 -8.4942574e-22)
(1.0287219 0.0017548547 1.8684036e-21)
(1.0278915 0.00053892323 -2.836382e-22)
(1.045305 0.011168501 8.8556508e-23)
(1.043842 0.013266897 -5.7464425e-22)
(1.0401267 0.013675056 -8.1837494e-22)
(1.0366706 0.011971099 0)
(1.0346777 0.0096278628 3.5188699e-23)
(1.0332688 0.007669318 -3.071409e-22)
(1.0321512 0.0061967519 -3.4351038e-22)
(1.0310117 0.0050054094 -8.379187e-22)
(1.0299129 0.0039071649 -2.1037161e-22)
(1.0288907 0.0028148288 -1.077344e-21)
(1.0279807 0.0017173612 -7.3443849e-22)
(1.0271967 0.00052403211 1.6923977e-22)
(1.0468723 0.010474804 3.4918051e-23)
(1.0457149 0.014470798 -1.6873674e-25)
(1.0408247 0.015666919 0)
(1.0368157 0.013800017 0)
(1.0345855 0.010930538 -1.7574964e-22)
(1.0333208 0.008612809 -2.0288935e-22)
(1.0323703 0.0070485146 -4.6319628e-22)
(1.0313156 0.0058992461 9.8535512e-22)
(1.0301905 0.0048794571 1.0150255e-22)
(1.0291163 0.0038421284 2.5058577e-24)
(1.028136 0.0027658859 1.2148515e-21)
(1.0272774 0.0016718644 -1.317677e-21)
(1.0265474 0.00050647691 2.7164755e-21)
(1.0487327 0.0091708355 -7.8833691e-22)
(1.0483689 0.015853706 2.5850214e-23)
(1.0417236 0.017974842 -2.6059222e-22)
(1.0367826 0.015921926 5.9744949e-23)
(1.0342039 0.012322842 -4.063658e-23)
(1.0331709 0.0094925992 -1.5013143e-22)
(1.032515 0.0077618978 2.6967598e-22)
(1.0316204 0.0066872931 1.5265835e-23)
(1.0305263 0.0057755569 1.0957147e-21)
(1.0293872 0.0048230804 1.0221226e-21)
(1.0283447 0.0037860295 3.3391687e-22)
(1.0274167 0.0027019495 9.6651765e-22)
(1.0266178 0.0016091562 6.5845069e-22)
(1.0259484 0.00048408068 -7.4585829e-22)
(1.0509755 0.007374522 1.1548102e-22)
(1.0518346 0.017471258 8.8589864e-22)
(1.042846 0.020813156 -3.8854132e-22)
(1.0364829 0.018468424 7.2943024e-23)
(1.0334345 0.013860558 -6.805173e-23)
(1.0327334 0.010246961 2.8126838e-22)
(1.0325242 0.0082980235 2.565202e-22)
(1.031919 0.0073149451 -3.4506815e-22)
(1.030907 0.0065855279 -9.2464754e-23)
(1.029732 0.0057494868 -1.2035542e-22)
(1.0285925 0.0047782506 -1.9864422e-23)
(1.027599 0.003704351 -1.4339951e-22)
(1.0267403 0.0026067852 -1.2447811e-21)
(1.0260097 0.0015243323 6.3370075e-22)
(1.0254051 0.00045586432 -5.7277559e-22)
(1.0535295 0.0046902695 2.25407e-21)
(1.0560976 0.019213473 -1.5220104e-21)
(1.0442098 0.024418936 4.311657e-23)
(1.0358129 0.021635855 3.4578255e-23)
(1.0320849 0.015620305 -1.4580865e-22)
(1.0318461 0.010848289 -4.6457809e-22)
(1.0324045 0.0085685261 -1.3682174e-23)
(1.032211 0.0077104779 3.0539279e-23)
(1.0313557 0.0072544062 -2.1437644e-22)
(1.0301548 0.0066245514 -2.5312348e-22)
(1.0289125 0.005740571 -2.1481342e-21)
(1.0278079 0.0046958376 4.6551894e-22)
(1.0268935 0.0035732869 3.8843384e-22)
(1.0261173 0.0024724549 1.928751e-22)
(1.0254601 0.0014181088 3.7305175e-23)
(1.0249211 0.00042331492 6.3758823e-22)
(1.0564662 0.0016223265 0)
(1.0609754 0.021363232 -1.8666015e-21)
(1.0457393 0.029033345 9.0924835e-22)
(1.0346718 0.025616503 0)
(1.0299736 0.017669131 0)
(1.0303662 0.011279141 0)
(1.0319794 0.008410902 1.1005147e-22)
(1.0326596 0.0078186885 4.9104445e-22)
(1.0319626 0.0077184451 3.3167057e-22)
(1.0307185 0.0074110394 6.3658702e-22)
(1.029317 0.0066978492 9.178494e-23)
(1.0280682 0.0056808129 4.6942653e-22)
(1.0270509 0.004538543 2.8885408e-25)
(1.0262433 0.0033810144 -4.4498599e-22)
(1.0255573 0.0023009567 -1.288503e-22)
(1.0249735 0.0012966405 -3.1074658e-22)
(1.0244964 0.00038936369 0)
(1.0598477 -0.0022906298 4.6443589e-21)
(1.0661765 0.02364877 4.9761117e-21)
(1.0471502 0.034827473 -1.618578e-21)
(1.0328562 0.030621705 1.4956412e-21)
(1.0269044 0.020107871 1.271565e-21)
(1.0280998 0.011474472 0)
(1.0311835 0.0077549355 7.3037506e-22)
(1.0330767 0.0073783505 -2.0814537e-22)
(1.0328143 0.0078929418 4.7194133e-22)
(1.0315374 0.0080670719 3.797123e-22)
(1.0298846 0.007651569 -3.8360146e-22)
(1.0283821 0.0067050046 1.225101e-22)
(1.027231 0.00551111 7.917489e-22)
(1.0263508 0.0042893207 -1.4606989e-21)
(1.0256633 0.0031307541 -3.9874243e-22)
(1.0250665 0.0021029599 -2.0929912e-21)
(1.0245502 0.0011694283 -8.3185462e-22)
(1.0241275 0.00035682279 -8.0663608e-22)
(1.0654997 -0.0062538509 -4.6415703e-22)
(1.0728468 0.026323777 3.2253709e-21)
(1.0482744 0.042059832 1.0562181e-21)
(1.0299897 0.036818588 9.0153731e-22)
(1.0226225 0.023029738 -2.4796003e-22)
(1.024821 0.011382462 -4.4909876e-22)
(1.029903 0.0064317579 -1.7485669e-21)
(1.0334427 0.0063172428 -7.9856628e-22)
(1.0340176 0.0077908077 -7.4893541e-23)
(1.0325706 0.0085934127 -6.6825611e-22)
(1.0306594 0.0086390532 -9.0344465e-23)
(1.0288032 0.0078200137 -8.6520543e-22)
(1.0274039 0.0065485392 1.5178872e-22)
(1.0264465 0.0051992882 1.1814117e-22)
(1.0257346 0.0039540231 1.7853724e-22)
(1.0251637 0.0028398373 3.1625848e-22)
(1.0246457 0.0018944554 -6.9414225e-22)
(1.0241868 0.0010463588 3.2538414e-23)
(1.0238082 0.00032810569 -7.6860329e-22)
(1.0717361 -0.013318049 -3.3946207e-21)
(1.0838204 0.028806365 -6.2159023e-21)
(1.0506567 0.050696785 1.1156966e-20)
(1.0260194 0.044273464 -1.177828e-21)
(1.0168701 0.026529845 1.2264976e-22)
(1.020274 0.010927435 -1.8005002e-22)
(1.027992 0.0042644121 2.3509934e-22)
(1.0338078 0.0044077471 -3.8815844e-23)
(1.0355793 0.0071227153 -1.1105891e-23)
(1.0340647 0.0090966854 3.9406788e-22)
(1.0316169 0.0097383145 -1.1192858e-21)
(1.029302 0.0091186818 2.8985644e-22)
(1.0275819 0.0077249509 4.6503855e-22)
(1.0264771 0.0061743581 -4.1314683e-23)
(1.0257649 0.0047552284 1.2140921e-22)
(1.0252184 0.0035572194 1.0033106e-21)
(1.0247473 0.0025333132 -2.1921373e-22)
(1.0242912 0.0016924324 1.1411055e-21)
(1.0238765 0.0009355323 3.0240877e-22)
(1.0235308 0.00030562439 8.0672076e-22)
(1.0778732 -0.019531684 -3.5394497e-22)
(1.0997579 0.031763759 -1.4646019e-20)
(1.0575398 0.060743033 1.3798914e-21)
(1.0223375 0.053162031 6.8419858e-22)
(1.0093813 0.030570015 -1.2698906e-21)
(1.0142202 0.010042972 -1.222768e-21)
(1.0252908 0.0010397139 2.0763818e-21)
(1.0341689 0.0014149481 1.2230156e-21)
(1.037621 0.0057390535 4.1622668e-22)
(1.0362462 0.0094138609 0)
(1.0330262 0.010966809 7.660322e-22)
(1.0299148 0.010675234 2.9908824e-22)
(1.02771 0.0091302871 -6.5747088e-22)
(1.0264171 0.0072694272 1.0406811e-22)
(1.0256881 0.005594867 -4.4271335e-22)
(1.0252176 0.0042212654 7.8464186e-22)
(1.0248073 0.0031351568 1.4815787e-22)
(1.0244099 0.0022366036 -3.5236539e-22)
(1.0239951 0.001511234 6.9047656e-22)
(1.0236105 0.00084263559 4.9450796e-23)
(1.0232864 0.0002914871 7.7718669e-22)
(1.0770493 -0.026376246 5.2941459e-21)
(1.1073875 0.030655431 -1.8090534e-20)
(1.0704703 0.072118529 -1.1692659e-20)
(1.0217851 0.063898889 1.2456099e-21)
(1.0003679 0.035361967 -4.0837062e-21)
(1.006407 0.0086653814 7.9008563e-23)
(1.0216234 -0.0034424113 0)
(1.0345276 -0.002920672 4.0080065e-22)
(1.0402952 0.003420375 1.9558594e-22)
(1.0392852 0.0094510445 1.085926e-21)
(1.0350916 0.012422329 4.2139671e-22)
(1.0308051 0.012576373 5.4701292e-23)
(1.027815 0.010851029 -7.5226148e-23)
(1.0262018 0.00856107 3.7103692e-22)
(1.0254556 0.0064992661 -2.4358652e-22)
(1.0250848 0.0048782083 2.6383743e-22)
(1.0248119 0.0036529824 -9.9050583e-23)
(1.0244953 0.0027257449 6.1687641e-22)
(1.0241418 0.0019703769 1.258344e-22)
(1.0237475 0.0013604919 1.6983006e-23)
(1.0233797 0.00077107258 4.1297463e-22)
(1.0230665 0.00028631087 0)
(1.0700624 -0.034771624 9.9601204e-22)
(1.1076645 0.029834348 1.2250143e-20)
(1.0857093 0.085661602 -5.5630296e-22)
(1.0241851 0.077259971 8.3429278e-22)
(0.99055006 0.041530021 -4.8475594e-21)
(0.99646332 0.0067609916 1.6993759e-21)
(1.0168395 -0.0093914114 -6.9496153e-22)
(1.0348062 -0.0088715148 6.2242429e-22)
(1.043779 -7.600179e-05 -1.4286287e-22)
(1.0434293 0.0090884998 -8.8657069e-23)
(1.0380317 0.014174705 -3.2719958e-24)
(1.0320786 0.015027724 -2.1550351e-22)
(1.027894 0.013045315 -1.0682462e-22)
(1.0257793 0.010144596 1.2678165e-21)
(1.0249786 0.007522955 8.9391851e-22)
(1.0247656 0.0055305185 6.3958866e-22)
(1.024681 0.0041140533 -1.3632491e-22)
(1.0245372 0.0031059428 -9.5951168e-22)
(1.0242677 0.0023612845 -3.5351953e-23)
(1.0239291 0.0017483533 3.7148897e-22)
(1.023538 0.0012447188 0)
(1.0231761 0.00072174833 -9.3540267e-22)
(1.0228631 0.00028794522 -2.6084971e-24)
(1.0559103 -0.042786942 -5.1621859e-21)
(1.1038912 0.02867846 3.9171894e-20)
(1.0867598 0.099622945 -2.2449239e-20)
(1.0244757 0.095260603 -3.9467277e-21)
(0.97951467 0.050192459 -9.3212106e-21)
(0.98389277 0.0042955707 0)
(1.0106952 -0.017009559 -2.4529925e-22)
(1.0349555 -0.016734803 9.0772233e-22)
(1.0481509 -0.005042498 -1.3318547e-21)
(1.0489798 0.0082087485 -1.7425409e-21)
(1.0421205 0.016309304 8.9934598e-22)
(1.0338823 0.018242559 3.176897e-22)
(1.0279531 0.015930421 -2.4135041e-22)
(1.0250554 0.01215459 6.5505552e-22)
(1.0241606 0.0087306639 -7.3703729e-22)
(1.024159 0.0061962921 -1.4410311e-21)
(1.0243678 0.0044974533 -2.2090472e-22)
(1.0244604 0.0033858511 -3.3355087e-22)
(1.0243701 0.0026259853 9.743448e-22)
(1.0241046 0.0020642025 -2.997401e-22)
(1.0237571 0.0015777542 -7.992614e-22)
(1.023357 0.0011642904 8.6775685e-22)
(1.0229925 0.00069288586 -6.6259749e-22)
(1.0226704 0.0002917339 -1.4259425e-24)
(1.0357744 -0.050162813 3.4474014e-23)
(1.0914793 0.030431791 3.558539e-20)
(1.0697419 0.11343602 -4.5870722e-22)
(1.016817 0.11522647 1.2179947e-20)
(0.96574818 0.061705147 5.7514236e-21)
(0.96850309 0.0018452489 -6.9574307e-21)
(1.0027921 -0.026545883 -3.2216527e-22)
(1.0349028 -0.026768377 -5.9492979e-22)
(1.0535462 -0.01178527 3.2928132e-22)
(1.0562085 0.0066306786 -1.146892e-21)
(1.0476744 0.018911666 8.9234339e-22)
(1.0363641 0.022495656 -2.7752863e-22)
(1.0279845 0.019774473 5.967278e-22)
(1.0239322 0.014768846 -7.448573e-23)
(1.022864 0.010197315 -1.0788192e-21)
(1.0231561 0.0068931968 -2.5886374e-23)
(1.0237761 0.0047852769 -4.887246e-23)
(1.0242337 0.0035240415 -4.7465996e-22)
(1.0243853 0.002759477 0)
(1.0242809 0.0022431608 -1.0505809e-22)
(1.023985 0.0018441039 -3.0984485e-23)
(1.0236129 0.0014607023 6.4400926e-23)
(1.0231953 0.0011167961 -4.5338696e-23)
(1.0228217 0.00068080123 9.4530925e-22)
(1.0224854 0.00029344796 5.3468605e-22)
(1.0123883 -0.056685348 7.3507565e-21)
(1.0739911 0.031956542 -2.2225641e-20)
(1.0475837 0.12765833 -6.9912708e-21)
(1.0010145 0.13424805 -1.4762962e-21)
(0.95127088 0.074919349 1.3470908e-20)
(0.95094741 -0.00066550692 8.7823238e-22)
(0.99295048 -0.038326365 -3.7978354e-22)
(1.0345555 -0.039238 7.5410787e-23)
(1.0600015 -0.020623252 -3.4088639e-21)
(1.0654407 0.0041791801 -2.8372012e-22)
(1.0550278 0.022124755 -1.4038286e-21)
(1.0396633 0.028111359 7.9695836e-24)
(1.0279325 0.024896112 -2.3948535e-22)
(1.0222634 0.018199804 -3.4784079e-22)
(1.0209193 0.012020747 -3.6186299e-22)
(1.0216054 0.0076318979 1.424918e-21)
(1.0228051 0.0049485374 2.1283413e-21)
(1.0237788 0.0034753732 6.0844684e-22)
(1.0243021 0.0027082746 8.6621307e-22)
(1.0244081 0.0022753999 2.029361e-23)
(1.0242397 0.0019700915 -1.018545e-21)
(1.0238907 0.0016977572 -2.5751811e-22)
(1.023486 0.0013946055 7.2001441e-22)
(1.0230443 0.0010976461 -8.346219e-22)
(1.022658 0.00068146045 7.1616305e-22)
(1.0223065 0.00029285028 -3.8821209e-23)
(0.98730561 -0.062474492 -2.6700253e-22)
(1.0517582 0.033374989 -2.6402749e-20)
(1.0258653 0.14164956 2.9898689e-20)
(0.98383332 0.15038938 -1.4451457e-20)
(0.93831295 0.089713715 -2.6148458e-21)
(0.93249227 -0.0034067136 1.1573579e-20)
(0.98136327 -0.05249546 1.34548e-21)
(1.0335601 -0.054324723 1.9303358e-21)
(1.0673224 -0.031733052 8.0633637e-21)
(1.0767398 0.00060436562 3.5288463e-21)
(1.0645049 0.026053095 -1.7591815e-22)
(1.043937 0.035478654 2.5515688e-21)
(1.0277407 0.031663338 -1.0588383e-21)
(1.0198819 0.022693018 -5.8575714e-22)
(1.0181158 0.014307194 -2.9260667e-22)
(1.0193203 0.0084239964 2.951912e-22)
(1.0213175 0.0049387677 -3.0213019e-23)
(1.0230204 0.0031746993 5.7308877e-24)
(1.0240674 0.0024099346 2.0852546e-22)
(1.024496 0.002105541 5.5569183e-23)
(1.0244818 0.0019469372 0)
(1.0242208 0.001802935 -3.7749973e-22)
(1.0238067 0.0016148123 -4.0970757e-23)
(1.023367 0.0013716903 0)
(1.0228986 0.0011008462 1.0244853e-21)
(1.0224979 0.00069194224 3.4275447e-24)
(1.0221313 0.00029353119 -5.2473285e-22)
(0.96143711 -0.067504831 -2.3570618e-21)
(1.0271401 0.034943507 -2.0351377e-21)
(1.0002939 0.15499843 2.5393852e-20)
(0.96247064 0.16566106 -3.4166696e-21)
(0.92340768 0.10289344 -1.3696767e-21)
(0.91392611 -0.0048611985 -2.0295703e-20)
(0.96735809 -0.068160041 -1.5962875e-22)
(1.0312749 -0.07189973 9.2356696e-22)
(1.0748446 -0.044960541 -2.6865615e-21)
(1.0894836 -0.0040462915 -7.7231912e-21)
(1.0759441 0.030898203 4.644639e-21)
(1.0492172 0.045010446 -6.4809938e-23)
(1.0273024 0.040474181 -1.4728529e-22)
(1.0165591 0.028508658 -4.6439274e-22)
(1.0142121 0.017177866 -9.1938744e-22)
(1.0160783 0.0092681008 -2.7581977e-22)
(1.019149 0.0046953001 -1.4327513e-21)
(1.0218553 0.0025269031 -1.074106e-21)
(1.0236423 0.0017777962 -4.3528293e-22)
(1.02452 0.0016651198 -6.9037113e-22)
(1.0247413 0.0017280689 -3.6816512e-22)
(1.0245678 0.0017650389 9.8482699e-23)
(1.0242024 0.0017233204 3.2952676e-23)
(1.0237232 0.0015847229 0)
(1.023252 0.0013809399 0)
(1.0227558 0.0011210971 -7.4575772e-23)
(1.0223374 0.00071077858 9.2555987e-22)
(1.0219585 0.00029870411 1.0067506e-21)
(0.93533958 -0.071949668 0)
(1.0014077 0.036731126 -1.4064216e-20)
(0.97352011 0.16729928 -2.3317215e-20)
(0.93776742 0.17984301 -4.5956042e-21)
(0.90328453 0.1152479 5.3750915e-22)
(0.89491879 -0.006189055 3.5350998e-21)
(0.95109324 -0.085123346 -2.9080804e-21)
(1.0271433 -0.091591594 4.2187291e-21)
(1.0815828 -0.060168857 -1.1685269e-20)
(1.1026955 -0.0094795537 2.1507012e-21)
(1.0881454 0.037161037 -5.6578534e-22)
(1.054778 0.057303682 -1.5615511e-21)
(1.0263384 0.051795614 5.9061434e-22)
(1.0119882 0.035927864 -1.0414386e-21)
(1.0089099 0.020743845 -2.8524591e-22)
(1.0116251 0.010158537 -1.0213954e-21)
(1.0161057 0.0041286553 -1.4696373e-22)
(1.0201649 0.0014178849 -3.0304604e-22)
(1.0229703 0.00068853689 -1.1477531e-22)
(1.0244812 0.00086192343 -3.4035757e-22)
(1.0250205 0.0012503575 -2.4504299e-22)
(1.024978 0.0015560376 -1.8777949e-22)
(1.0246397 0.0017046521 2.5051992e-23)
(1.0241699 0.0017046559 8.6462026e-22)
(1.0236424 0.0015975611 2.5430324e-22)
(1.0231396 0.0014132438 -1.0504485e-23)
(1.0226129 0.0011547259 -9.853613e-22)
(1.0221753 0.00073632744 6.1061323e-22)
(1.0217861 0.00030822129 -1.5066817e-21)
(0.90965867 -0.075677763 3.0343982e-21)
(0.97539572 0.038030828 0)
(0.94636013 0.17871015 0)
(0.91215287 0.1926827 0)
(0.88137622 0.12622132 1.9662585e-21)
(0.8757263 -0.0074923115 0)
(0.93351824 -0.10325145 -1.5959472e-21)
(1.0210306 -0.11348851 -3.9122014e-21)
(1.0874477 -0.077812261 -2.5876466e-20)
(1.116764 -0.016107133 3.2876011e-20)
(1.1007766 0.045192503 -8.5428802e-21)
(1.0590338 0.072928487 2.0422422e-21)
(1.0239001 0.066086498 3.5962007e-22)
(1.0057504 0.045246853 1.8003107e-21)
(1.0018473 0.02510672 2.2086693e-21)
(1.0056765 0.011070804 -1.8594775e-22)
(1.0119685 0.003136177 -1.1272408e-21)
(1.0178103 -0.00030325428 2.4181367e-22)
(1.0219931 -0.0010032139 6.8043363e-22)
(1.0243761 -0.00043367193 4.6046829e-22)
(1.0253587 0.00043261476 2.2676311e-22)
(1.0254763 0.001127614 -1.4707258e-22)
(1.0251668 0.0015490926 -3.5927455e-22)
(1.0246761 0.0017275482 2.7558475e-22)
(1.0241289 0.0017240962 3.9663599e-25)
(1.023565 0.0016436843 2.0099358e-22)
(1.0230237 0.0014637256 -7.6837323e-22)
(1.0224679 0.0011971775 2.0094688e-24)
(1.0220121 0.00076570877 -2.3649112e-21)
(1.0216134 0.00031969374 -9.0637655e-22)
(0.88230563 -0.079692733 -4.0847786e-21)
(0.94998485 0.040041197 -1.236987e-20)
(0.91971252 0.18907679 0)
(0.88656518 0.20438028 0)
(0.85854304 0.13564589 0)
(0.85706702 -0.0071595643 0)
(0.91586596 -0.12159854 0)
(1.0124405 -0.13716149 1.1607114e-21)
(1.0924772 -0.098526207 9.9010606e-21)
(1.133357 -0.025534192 -4.9182071e-20)
(1.1177837 0.054157213 5.0860573e-22)
(1.0639878 0.092154938 -8.7551111e-21)
(1.0187066 0.083475503 5.2151346e-21)
(0.9970867 0.056684035 2.5933928e-21)
(0.99260481 0.030334659 -2.8497901e-22)
(0.99791515 0.011954032 5.7316015e-22)
(1.0065043 0.0015920297 -2.7845188e-22)
(1.0146354 -0.002806163 5.1626747e-22)
(1.0206392 -0.0034846688 -5.3945787e-22)
(1.0242103 -0.0023769168 -2.0215643e-22)
(1.0258021 -0.00084267732 -2.3111097e-23)
(1.0261322 0.00042403864 -3.72351e-22)
(1.0258263 0.0012310999 -2.1170579e-23)
(1.0252843 0.0016532885 1.2884743e-22)
(1.0246695 0.001794403 -1.0703696e-22)
(1.0240702 0.001793241 -6.4549354e-22)
(1.0234729 0.0017193627 -2.1808792e-22)
(1.0228986 0.0015259407 3.3597263e-22)
(1.0223211 0.001242858 1.0879217e-24)
(1.0218486 0.00079596224 1.7055087e-21)
(1.0214405 0.0003309647 5.8908499e-22)
(0.85340842 -0.083524793 4.9573604e-21)
(0.92309323 0.040402351 -1.5283547e-21)
(0.89440397 0.19830985 -1.578425e-20)
(0.86185089 0.21488397 -1.9497483e-20)
(0.83607765 0.1439213 0)
(0.83821937 -0.0096865023 0)
(0.89866989 -0.1395582 -1.539849e-21)
(1.0010447 -0.16141755 -1.0163713e-20)
(1.0930516 -0.12077126 3.7438856e-20)
(1.1500627 -0.038443661 -5.8588905e-20)
(1.1430395 0.061729561 -1.5869107e-21)
(1.0775099 0.11367571 1.42186e-20)
(1.0140656 0.10419044 6.1667653e-22)
(0.98506811 0.070056176 -2.7217773e-22)
(0.98069415 0.036419296 -1.8960891e-21)
(0.98800877 0.012713105 -7.4927345e-23)
(0.99947229 -0.0006508533 2.6880495e-21)
(1.010472 -0.0062848357 -7.5032539e-23)
(1.0188319 -0.0069679449 -1.2903976e-21)
(1.023988 -0.0051671875 -2.2357291e-22)
(1.0264172 -0.0027165374 -6.7277203e-22)
(1.0270306 -0.0006435574 1.6139813e-22)
(1.0267062 0.00073044603 -1.5316199e-22)
(1.026039 0.0014809487 -2.9173967e-22)
(1.0253196 0.0018123225 -3.4695558e-23)
(1.0246298 0.0019009768 -2.3906884e-22)
(1.0240002 0.0018981568 -1.7531213e-22)
(1.0233699 0.001799536 -1.8669581e-22)
(1.0227735 0.0015877786 4.5971477e-22)
(1.0221753 0.0012880105 -3.3599123e-23)
(1.0216854 0.00082527897 8.2397199e-22)
(1.0212681 0.0003410887 6.2312995e-23)
(0.82420137 -0.087342793 -3.6947224e-21)
(0.89505316 0.041096346 1.3003853e-21)
(0.86867628 0.20706189 1.9250598e-20)
(0.83854261 0.22431687 3.6447729e-20)
(0.81471341 0.15090637 0)
(0.81904021 -0.011818721 0)
(0.88153127 -0.15693138 0)
(0.98716341 -0.18523627 -1.0043283e-21)
(1.0876427 -0.14315536 -6.1599913e-20)
(1.1552934 -0.052714011 -6.3630893e-20)
(1.168677 0.067053176 -2.0268851e-21)
(1.1022646 0.13578215 4.0612364e-21)
(1.0184014 0.12786847 -1.5639327e-20)
(0.97147397 0.085436257 3.2262806e-21)
(0.96551252 0.043120269 -8.9276478e-22)
(0.97564634 0.013187083 0)
(0.99064054 -0.0037610795 7.7236134e-22)
(1.0051531 -0.010945398 -6.2558047e-22)
(1.0164799 -0.011690265 -3.7132249e-22)
(1.0237184 -0.0090313678 1.6421271e-22)
(1.027286 -0.0053731156 2.1240908e-22)
(1.0282917 -0.0021798907 3.0031359e-22)
(1.0279173 -8.0650505e-08 2.5337426e-22)
(1.0270355 0.001228963 2.1872867e-22)
(1.0261067 0.0017962423 5.0509987e-24)
(1.025284 0.0019965406 -4.8131066e-23)
(1.0245648 0.0020353401 1.6455987e-23)
(1.023918 0.00200071 -1.0991186e-23)
(1.0232706 0.0018679672 4.8096442e-22)
(1.0226524 0.0016470737 3.4755409e-22)
(1.0220295 0.0013321388 1.5445136e-23)
(1.0215228 0.0008529218 -2.3109647e-21)
(1.0210969 0.00034994417 8.7486079e-22)
(0.79489415 -0.090632212 -6.9693974e-21)
(0.86428976 0.037607625 0)
(0.84198759 0.21488098 2.3214137e-20)
(0.81552016 0.23362006 6.5997974e-20)
(0.7949036 0.15669993 -1.0840513e-20)
(0.80029193 -0.01427982 -1.407932e-21)
(0.86404569 -0.17367584 -3.9059406e-20)
(0.97124735 -0.20798559 1.9934178e-20)
(1.0773588 -0.16516346 1.3670131e-20)
(1.1530282 -0.067148793 1.5595468e-19)
(1.1736929 0.068696107 -5.9359054e-20)
(1.1301249 0.15974612 -4.8746407e-20)
(1.0329009 0.1549539 1.92465e-21)
(0.9625598 0.1040959 -1.5128725e-21)
(0.94695313 0.050082781 -2.0750707e-21)
(0.9605474 0.013193356 2.6493125e-22)
(0.97980751 -0.0079367898 3.6407237e-22)
(0.99852119 -0.016991696 3.5048357e-22)
(1.01349 -0.017897869 -1.4075409e-22)
(1.0234015 -0.014228175 2.1532796e-23)
(1.0285054 -0.009026384 3.4847921e-22)
(1.0300642 -0.0043269821 2.0931102e-22)
(1.0296154 -0.0010124378 -1.6034078e-22)
(1.0283953 0.00089792459 2.857444e-22)
(1.0271184 0.0017993509 2.2088905e-22)
(1.0260475 0.0021201844 6.0731868e-23)
(1.0251964 0.0021889056 7.4920888e-23)
(1.0244816 0.0021643044 2.3562901e-23)
(1.0238299 0.0020860179 1.7451828e-22)
(1.0231682 0.0019403375 -5.3378705e-23)
(1.0225254 0.0017077164 2.3473445e-22)
(1.0218832 0.0013739627 2.1504813e-23)
(1.0213612 0.00087854426 9.3559738e-22)
(1.0209272 0.00035771346 -1.6316591e-21)
(0.76670038 -0.093590434 6.6832689e-21)
(0.83069769 0.036696546 -2.460352e-22)
(0.81432438 0.22166426 -6.7002416e-21)
(0.79303348 0.24327958 -3.8996874e-20)
(0.7753139 0.16399545 6.2859329e-20)
(0.78285312 -0.018989999 6.9521566e-20)
(0.8460221 -0.18894388 6.7320217e-21)
(0.9538733 -0.22935155 0)
(1.0629644 -0.18649391 4.4519746e-20)
(1.1458 -0.08061654 2.146261e-19)
(1.1722105 0.06934595 4.8872718e-21)
(1.1479162 0.18410245 2.3850861e-20)
(1.0471258 0.18743494 0)
(0.96126888 0.12851833 3.2483198e-21)
(0.92665615 0.058711369 3.3173296e-21)
(0.94232476 0.012245962 -3.6269916e-22)
(0.96685852 -0.013324522 -2.8915435e-21)
(0.99043998 -0.024611684 0)
(1.0097642 -0.025829386 3.1466958e-22)
(1.023028 -0.021030084 4.21836e-22)
(1.0301741 -0.013928512 -6.4364628e-23)
(1.0325262 -0.007254648 3.2951934e-22)
(1.0319963 -0.00238403 0)
(1.0302869 0.00049838921 1.6350349e-22)
(1.0284688 0.0018647696 1.4828388e-22)
(1.0269901 0.0023406518 -1.2392569e-23)
(1.0258976 0.002406853 7.7544128e-23)
(1.025081 0.0023503954 -6.0905854e-23)
(1.0243921 0.0022614759 -1.0569919e-24)
(1.0237431 0.0021613679 5.5245743e-22)
(1.0230664 0.0020075628 -1.0462515e-21)
(1.0224018 0.0017612162 -6.0839418e-22)
(1.0217389 0.0014118579 0)
(1.0212014 0.00090211283 -3.6611229e-23)
(1.0207597 0.0003645891 -4.8341132e-22)
(0.74054138 -0.096345857 1.0037688e-20)
(0.79823346 0.035783476 -9.7009519e-21)
(0.78730165 0.2276315 1.4273514e-20)
(0.77127479 0.25184905 -1.2009214e-20)
(0.75678374 0.17353411 2.6368654e-20)
(0.76391224 -0.01908733 1.1071857e-20)
(0.82944303 -0.20482369 6.0714504e-20)
(0.93528744 -0.24910065 5.1605263e-21)
(1.0453437 -0.20622166 0)
(1.1322203 -0.093247014 -7.6492021e-20)
(1.1644734 0.072440391 7.026902e-20)
(1.1380236 0.20642797 -8.5205607e-21)
(1.050093 0.22230485 1.4489407e-20)
(0.96189198 0.15935783 -4.547787e-21)
(0.90812737 0.070469005 2.0322031e-21)
(0.92044611 0.010586279 1.4691724e-21)
(0.95167314 -0.020244423 -5.0004951e-21)
(0.98082507 -0.033975021 -1.0956067e-21)
(1.0052075 -0.035697459 1.2205969e-21)
(1.0225708 -0.029716039 -8.0707447e-22)
(1.0323839 -0.020359576 3.2471293e-22)
(1.0358743 -0.01117289 -2.9028307e-22)
(1.0352993 -0.0042105624 0)
(1.0329234 3.1873596e-05 5.0804917e-23)
(1.0303156 0.0020675033 4.0374059e-23)
(1.0281997 0.0027429862 7.1344731e-24)
(1.0267113 0.0027785024 -1.113241e-22)
(1.0256995 0.0026145331 -3.7374004e-23)
(1.0249576 0.002456644 -2.4250756e-23)
(1.0243057 0.0023322231 0)
(1.0236619 0.0022266302 -4.3257836e-22)
(1.0229694 0.0020639652 -1.1430245e-21)
(1.0222815 0.0018093541 1.6706409e-21)
(1.0215967 0.0014466302 -5.3931396e-22)
(1.0210435 0.00092407951 7.1595761e-23)
(1.0205949 0.00037073329 1.7242218e-21)
(0.71695833 -0.098819777 -1.0535837e-20)
(0.76852358 0.035102458 -3.3489356e-22)
(0.76223968 0.23278603 -1.2522752e-20)
(0.75120087 0.25947143 -3.3790624e-22)
(0.73960672 0.18126039 -1.4167928e-19)
(0.74549453 -0.013695064 -1.0785712e-19)
(0.80938189 -0.21609592 -1.2343826e-21)
(0.91706224 -0.26746885 3.282782e-20)
(1.0256908 -0.22524806 6.0590153e-21)
(1.1142056 -0.10406967 6.7646518e-20)
(1.1493871 0.077348932 6.1554741e-22)
(1.1153585 0.22925024 -2.7994946e-20)
(1.0420537 0.25457511 2.63785e-21)
(0.96127205 0.19219936 -1.166542e-20)
(0.89342567 0.088400016 8.2684782e-22)
(0.89525077 0.0076810613 0)
(0.9342859 -0.028781178 5.081561e-22)
(0.96963662 -0.045187063 1.1067644e-21)
(0.99974495 -0.047684604 -4.1942224e-22)
(1.0219952 -0.040545447 -1.3566165e-23)
(1.0352121 -0.02862223 3.2179634e-22)
(1.0403149 -0.016330719 6.0712833e-23)
(1.0398007 -0.0066186459 3.3142371e-23)
(1.0365737 -0.00050283886 0)
(1.032857 0.0024915406 -5.2843237e-22)
(1.0298003 0.0034551507 -7.9352695e-23)
(1.0276865 0.0034197591 -1.4461654e-22)
(1.0263497 0.0030674775 1.4359752e-22)
(1.0254886 0.002729167 -6.1356728e-24)
(1.0248426 0.0025124804 1.0529636e-23)
(1.0242313 0.0023808187 2.3741636e-22)
(1.0235885 0.0022789743 -4.1723593e-22)
(1.0228763 0.0021148768 1.1696014e-23)
(1.0221622 0.0018545265 1.6993658e-21)
(1.0214556 0.0014790732 -5.9288908e-24)
(1.0208879 0.00094476622 -4.8594558e-23)
(1.0204324 0.00037634953 6.2066885e-22)
(0.69648099 -0.10109848 -8.4942492e-22)
(0.74160571 0.034713676 1.9849463e-20)
(0.74040715 0.23740408 -2.7553181e-20)
(0.73340376 0.26597195 1.0178959e-20)
(0.72428251 0.18842289 -6.1379736e-24)
(0.72895567 -0.010488867 2.6593666e-22)
(0.78752239 -0.22452134 4.1216725e-20)
(0.89436683 -0.28450972 -1.4885608e-21)
(1.0039481 -0.24044085 0)
(1.0924994 -0.11470078 -1.1702013e-20)
(1.1293774 0.08208008 0)
(1.0941795 0.250526 0)
(1.0268452 0.28295147 -1.7961189e-20)
(0.95767199 0.22355184 7.3580827e-22)
(0.88486517 0.11054405 4.9704892e-22)
(0.87116119 0.0080817695 6.8971106e-22)
(0.913935 -0.039847543 6.4622474e-23)
(0.95711689 -0.058346105 -1.8498773e-21)
(0.99332351 -0.061876533 -6.9687665e-22)
(1.0212436 -0.053735898 -3.0513657e-22)
(1.0387045 -0.039014233 -3.4753587e-22)
(1.046051 -0.023011318 -7.0806723e-22)
(1.0458131 -0.0097710512 -5.5579533e-23)
(1.0415563 -0.00111366 -4.3100739e-22)
(1.036347 0.0032378204 -1.1856523e-22)
(1.0319492 0.0046289436 3.5646146e-23)
(1.0288999 0.0044915454 1.811665e-22)
(1.0270403 0.0038335705 -1.2616346e-22)
(1.0259683 0.0031923602 -1.8723003e-24)
(1.0252955 0.002754062 -1.9240236e-22)
(1.0247505 0.0025260009 -2.2691843e-23)
(1.0241738 0.0024093146 -4.6621847e-23)
(1.0235246 0.0023211324 3.4056395e-22)
(1.0227877 0.0021607698 1.0198764e-21)
(1.0220456 0.0018958991 -3.3860786e-21)
(1.0213175 0.0015091999 -6.8467413e-22)
(1.0207349 0.00096472581 -6.0672265e-22)
(1.0202731 0.0003816364 0)
(0.67979525 -0.10314776 2.428844e-20)
(0.71821077 0.03285002 -1.7652063e-22)
(0.72172601 0.24123645 -1.138965e-20)
(0.71855534 0.27131555 1.0313029e-20)
(0.7113145 0.19488128 9.1699997e-20)
(0.71472922 -0.0071949648 6.8174635e-20)
(0.76632677 -0.2324627 -1.7856752e-21)
(0.86945557 -0.30057292 -6.3136522e-20)
(0.97717559 -0.2587851 -8.8410618e-21)
(1.0671679 -0.12160801 -8.4721864e-20)
(1.104803 0.086815096 1.3637586e-21)
(1.0701516 0.27092025 0)
(1.0070619 0.30841289 0)
(0.9467178 0.25152286 1.1673252e-20)
(0.8788094 0.13525726 -6.9357934e-21)
(0.85068065 0.009125734 -5.8122321e-21)
(0.89109435 -0.051799402 1.4674466e-21)
(0.94296379 -0.07350244 4.3376304e-22)
(0.98588364 -0.078306808 -4.6836438e-22)
(1.0201879 -0.069425167 -1.6757941e-21)
(1.0428166 -0.05182759 -1.2681263e-22)