/*--------------------------------*- C++ -*----------------------------------*\
| =========                 |                                                 |
| \\      /  F ield         | OpenFOAM: The Open Source CFD Toolbox           |
|  \\    /   O peration     | Version:  5.0                                   |
|   \\  /    A nd           | Web:      www.OpenFOAM.org                      |
|    \\/     M anipulation  |                                                 |
\*---------------------------------------------------------------------------*/
FoamFile
{
    version     2.0;
    format      ascii;
    class       volVectorField;
    location    "260";
    object      UMean;
}
// * * * * * * * * * * * * * * * * * * * * * * * * * * * * * * * * * * * * * //

dimensions      [0 1 -1 0 0 0 0];

internalField   nonuniform List<vector> 
9200
(
(1.0294547 0.00033744828 -2.5232383e-24)
(1.0296602 0.0010789288 3.5524991e-22)
(1.0285179 0.00031766227 0)
(1.0299775 0.0017833849 -1.9396261e-22)
(1.0286768 0.0010247093 3.083698e-22)
(1.0280848 0.00030551011 0)
(1.0303859 0.0024754061 -1.8432769e-23)
(1.0289427 0.0016948565 -1.4005516e-23)
(1.0282347 0.00097503129 0)
(1.0275267 0.00027541697 0)
(1.0308618 0.0032178315 4.3354743e-22)
(1.0292653 0.0023353768 3.8093484e-22)
(1.0284758 0.0016162763 1.7775667e-22)
(1.0276509 0.00087813707 9.7517615e-24)
(1.0270828 0.00025192129 3.27464e-25)
(1.0313721 0.0039518671 4.0860435e-22)
(1.029638 0.0030259265 1.3583799e-23)
(1.028768 0.0022179759 6.18942e-22)
(1.0278626 0.001467011 2.70842e-22)
(1.027199 0.0007886287 2.8040022e-23)
(1.026715 0.0002211913 -3.3071938e-22)
(1.0318765 0.0047401423 5.3517713e-22)
(1.0300346 0.0036867326 4.3676008e-22)
(1.0291014 0.0028692003 -3.6318993e-22)
(1.0281162 0.0020006244 -3.3637921e-23)
(1.0273897 0.0013262298 1.8159363e-22)
(1.0268186 0.00067596799 1.8989395e-22)
(1.0263838 0.00019212402 4.1779629e-23)
(1.0323433 0.0055406444 4.1581611e-22)
(1.0304286 0.0043865418 4.3302926e-22)
(1.0294537 0.003480432 4.8538291e-22)
(1.0284051 0.0025921131 7.7951343e-23)
(1.0276146 0.0017958473 -5.4692998e-22)
(1.0269897 0.0011527115 -2.4102138e-22)
(1.0264806 0.00056424071 -1.2733131e-22)
(1.02615 0.00016077856 2.1871812e-22)
(1.0327534 0.0063771591 -7.4228848e-22)
(1.0308075 0.0050731185 3.3819565e-22)
(1.0297955 0.0041219886 7.4433851e-23)
(1.0287128 0.0031379705 1.952833e-22)
(1.0278666 0.0023286581 1.7333502e-22)
(1.0271914 0.0015478207 -7.1667475e-22)
(1.0266361 0.00097954725 -1.544392e-22)
(1.0262419 0.00044174448 -1.8553818e-22)
(1.0259482 0.00013092346 -3.8830376e-22)
(1.0330567 0.0072171894 6.6300937e-22)
(1.0311417 0.0057711034 1.5102357e-23)
(1.0301074 0.0047395616 -3.9136244e-23)
(1.0290126 0.003717877 -2.5909122e-22)
(1.0281348 0.002810263 -1.0230712e-22)
(1.0274143 0.0020145551 2.9169296e-22)
(1.0268182 0.0013004006 2.3714063e-22)
(1.0263858 0.00079001519 3.0959216e-22)
(1.0260372 0.00032236841 1.8874392e-22)
(1.0258306 0.00010099838 4.5749487e-23)
(1.033187 0.0080449127 -2.9801881e-22)
(1.031403 0.0064461787 2.4264333e-22)
(1.0303735 0.0053579745 2.5212032e-22)
(1.0292963 0.0042767977 -3.8160923e-22)
(1.0283936 0.0033241547 4.1904033e-23)
(1.027651 0.0024259785 -5.2205183e-22)
(1.0270153 0.001700151 9.7328426e-23)
(1.0265542 0.0010300441 3.353916e-22)
(1.0261716 0.00060501356 -1.3070802e-22)
(1.0259204 0.00019948706 3.4031098e-22)
(1.0257439 7.3200885e-05 -8.281622e-24)
(1.0332344 0.0088641622 2.0743639e-23)
(1.0315119 0.0070897672 -4.2452671e-22)
(1.030574 0.005954858 -4.3365287e-22)
(1.029554 0.0048365153 0)
(1.0286378 0.0038131541 2.4039145e-23)
(1.0278766 0.0028734611 -3.2213602e-22)
(1.0272244 0.0020417391 -8.6881132e-23)
(1.0267315 0.0013566701 -1.6607903e-22)
(1.0263293 0.0007663573 -3.2797922e-22)
(1.0260499 0.00041393479 -1.4750845e-22)
(1.0258359 8.2721517e-05 -6.522195e-23)
(1.0257246 4.6788505e-05 2.1286647e-23)
(1.0331562 0.0096643098 2.4870203e-23)
(1.0315248 0.0077252618 2.5990489e-23)
(1.0306699 0.0065299498 0)
(1.0297727 0.0053755299 0)
(1.0288479 0.0043050277 -4.1644875e-23)
(1.0280878 0.0033018372 -3.5808143e-22)
(1.0274177 0.0024210326 9.4193697e-23)
(1.0269186 0.001623237 2.8042391e-22)
(1.0264899 0.0010206429 4.5885684e-23)
(1.0262034 0.00049290667 3.8990838e-24)
(1.0259627 0.00023192425 -6.3308996e-24)
(1.0258229 -3.1842024e-05 1.4977023e-22)
(1.0257313 2.3169274e-05 -7.331065e-23)
(1.0323777 0.010263035 -3.265033e-22)
(1.0315189 0.0083970835 1.3259653e-23)
(1.0306344 0.0070607402 -1.3412173e-22)
(1.0298943 0.0058815536 4.284649e-23)
(1.029018 0.0047840969 4.5059765e-24)
(1.0282711 0.0037399759 -1.3583058e-22)
(1.0275969 0.0027826891 1.1194606e-22)
(1.027086 0.0019309987 2.2997773e-23)
(1.0266579 0.0012119834 4.6866608e-22)
(1.026354 0.00067010632 4.4558689e-22)
(1.0261154 0.00023187866 2.505456e-23)
(1.0259522 5.2411417e-05 8.5099287e-23)
(1.0258373 -0.00013747432 3.2680692e-23)
(1.0257881 2.080888e-06 5.2401515e-23)
(1.0305555 0.010552662 -3.4081429e-22)
(1.0312511 0.0090324555 5.7474468e-22)
(1.0305086 0.0075555823 -1.6069301e-22)
(1.0298736 0.0063536729 1.9952885e-23)
(1.0291168 0.0052506514 -2.8544874e-23)
(1.0284172 0.0041692796 1.821909e-22)
(1.0277461 0.0031578769 1.1863835e-22)
(1.0272347 0.0022243481 -1.3840504e-22)
(1.0268008 0.0014454918 -1.5469842e-22)
(1.0265096 0.00078204067 -7.2681356e-23)
(1.0262598 0.00033367084 -1.5489768e-24)
(1.026111 -2.727729e-05 -1.7649918e-22)
(1.0259718 -0.0001137875 7.6221047e-23)
(1.0259061 -0.00023613505 -8.9286192e-23)
(1.0258645 -1.5657692e-05 8.3165863e-23)
(1.0277275 0.010561587 7.7139652e-22)
(1.0301518 0.0094581866 -7.9516616e-22)
(1.0302904 0.008085054 1.9026237e-22)
(1.0297167 0.00678604 -1.7447627e-22)
(1.029093 0.0056923976 6.7293294e-23)
(1.0285023 0.0045916741 -3.1012891e-22)
(1.0278536 0.0035292848 -1.6911898e-22)
(1.0273497 0.0025353463 4.6344602e-23)
(1.026923 0.0016677933 -4.3465402e-23)
(1.0266339 0.00093735349 -4.5988348e-22)
(1.0264069 0.00036653855 -1.8152095e-22)
(1.0262571 -3.440258e-06 -3.2003082e-22)
(1.0261409 -0.0002684327 -4.4839647e-23)
(1.0260515 -0.00027012171 4.6970393e-23)
(1.025996 -0.00032343941 6.9916378e-23)
(1.0259736 -3.005141e-05 -1.1353061e-22)
(1.0240888 0.010423009 0)
(1.0282011 0.0096737765 -9.600987e-22)
(1.0294335 0.0085234729 2.9242348e-22)
(1.0294908 0.0072403387 0)
(1.0288859 0.0060946802 0)
(1.0284853 0.004996805 0)
(1.0279119 0.0039042918 7.2533599e-23)
(1.0274191 0.0028469515 2.2456037e-22)
(1.0270077 0.0019104158 6.4342544e-22)
(1.0267313 0.0010824716 1.347215e-22)
(1.026517 0.0004411409 1.6894447e-22)
(1.0264037 -5.3143881e-05 4.2157273e-23)
(1.0262938 -0.00031985241 7.2995577e-23)
(1.0262387 -0.00049735989 5.0357874e-23)
(1.0261546 -0.0004093024 -4.7673276e-23)
(1.0261225 -0.0003999838 6.5242672e-23)
(1.0260952 -4.0697608e-05 0)
(1.02012 0.010188656 6.3258319e-22)
(1.0252827 0.009672421 1.8686212e-21)
(1.0276923 0.0087624188 -1.6836296e-21)
(1.0288468 0.0077025116 -3.9702462e-22)
(1.0285774 0.0065116302 -2.2353103e-22)
(1.0282631 0.005364876 0)
(1.0278914 0.0042727263 2.9759647e-22)
(1.027441 0.003168656 -2.2807672e-22)
(1.0270431 0.0021581078 -3.0808111e-22)
(1.0267852 0.001249321 8.7406833e-22)
(1.0265958 0.00050662889 -6.9968618e-23)
(1.026507 -6.3365202e-05 2.148667e-22)
(1.026446 -0.0004505222 -2.7744927e-22)
(1.0264073 -0.00062394261 1.0980313e-22)
(1.0263645 -0.00070293263 -1.5113323e-22)
(1.0263008 -0.00053249018 5.4942103e-22)
(1.0262631 -0.00046329348 1.7431101e-22)
(1.0262335 -4.7479256e-05 2.0520625e-22)
(1.0164631 0.0099523789 -7.6586354e-23)
(1.0215708 0.009486698 9.016418e-22)
(1.0250499 0.0088934693 4.0062334e-22)
(1.0273697 0.0079837149 -8.5580815e-22)
(1.0279949 0.006973715 5.2382741e-23)
(1.0278645 0.0057230795 -3.7925918e-22)
(1.0276736 0.0046130916 -7.5890445e-22)
(1.0274032 0.0034924082 -7.5761155e-22)
(1.0270309 0.0024206354 -3.7599457e-22)
(1.0267849 0.0014263516 -3.114702e-22)
(1.0266254 0.00059461831 -2.1537315e-22)
(1.0265723 -8.4041265e-05 8.4121907e-24)
(1.0265489 -0.00054664778 -4.230044e-22)
(1.0265746 -0.00083692881 1.1556465e-22)
(1.0265548 -0.00090046525 1.400143e-22)
(1.0265415 -0.00088732797 -1.0326348e-22)
(1.0264632 -0.00063537585 2.2502168e-22)
(1.0264237 -0.00051324839 -3.095584e-23)
(1.0263768 -5.0257547e-05 2.2225474e-22)
(1.0126646 0.0097046353 -6.6997424e-22)
(1.0179607 0.009232158 -1.1361579e-21)
(1.0216587 0.0088780296 4.5320367e-21)
(1.0250276 0.0081459646 4.0160303e-22)
(1.0267156 0.0073247821 -3.9415236e-22)
(1.0272643 0.0061423027 -1.8089924e-22)
(1.0271981 0.0049201648 9.118237e-24)
(1.0272028 0.0038021702 -2.5605089e-22)
(1.026968 0.0026915553 -1.4226996e-22)
(1.0267329 0.0016219422 -7.3925246e-22)
(1.0265958 0.000696171 -2.0437024e-22)
(1.0265801 -8.3257214e-05 2.2291927e-22)
(1.0266086 -0.00065591817 1.1190633e-22)
(1.026687 -0.0010221923 -1.4463942e-23)
(1.0267447 -0.0011926387 1.623901e-22)
(1.0267634 -0.0011527938 -4.3679052e-22)
(1.0267386 -0.001043645 2.5528775e-22)
(1.0266512 -0.0007178563 -3.7678699e-22)
(1.0265906 -0.00054871956 -9.0948351e-23)
(1.0265237 -4.9058994e-05 -2.4766597e-22)
(1.0071611 0.0093787034 -3.7924882e-23)
(1.0147561 0.0091079894 -1.7607218e-21)
(1.0181623 0.0087587516 -3.3651442e-23)
(1.0218591 0.0081882993 -1.1344976e-21)
(1.0245951 0.0075604969 -9.2527106e-23)
(1.0261083 0.0065171242 4.4144218e-22)
(1.0265266 0.0052777132 -3.7601473e-22)
(1.026699 0.0040593689 4.0974621e-22)
(1.026784 0.0029630433 5.422821e-22)
(1.0266318 0.0018327849 0)
(1.0265089 0.00081955621 1.7158151e-22)
(1.0265215 -6.5981496e-05 7.0026733e-22)
(1.0266025 -0.00074613157 3.8109201e-22)
(1.0267498 -0.0012252438 -7.3197104e-22)
(1.0268755 -0.0014660375 -2.2379152e-24)
(1.0269871 -0.0015224697 -3.3927878e-22)
(1.0269981 -0.0013709929 1.7786467e-22)
(1.0269699 -0.0011718511 2.3598637e-22)
(1.0268477 -0.0007778484 -3.1133518e-22)
(1.0267635 -0.00056952839 -9.6245172e-24)
(1.0266676 -4.3892693e-05 -2.4572126e-22)
(0.99910394 0.0086239091 1.1757753e-21)
(1.0103798 0.0086928446 -1.6238852e-21)
(1.0150093 0.0086339815 -2.5446137e-21)
(1.0185295 0.0081388053 2.6223486e-21)
(1.021621 0.0076871324 1.4693342e-21)
(1.0241639 0.0067890172 -2.6132828e-22)
(1.0254371 0.0056497404 0)
(1.0259358 0.004340406 -5.3536597e-22)
(1.0263057 0.0031848212 -4.2531249e-22)
(1.0264463 0.0020569411 -1.7143043e-22)
(1.026368 0.00096346797 3.3837788e-22)
(1.0263984 -2.4387152e-05 3.3492947e-22)
(1.0265229 -0.00081931233 -1.3531573e-22)
(1.0267368 -0.0014147028 5.9799859e-24)
(1.0269517 -0.0017644253 3.7421475e-22)
(1.0271482 -0.0018845573 -3.5503386e-22)
(1.0272636 -0.0018128995 4.659689e-23)
(1.0272772 -0.0015551254 -3.6036218e-22)
(1.0272127 -0.0012684482 3.3680912e-23)
(1.0270544 -0.00081496024 3.3307408e-24)
(1.0269345 -0.00057546226 -1.6154442e-22)
(1.0268055 -3.4841405e-05 0)
(0.98910804 0.0079209268 2.6520504e-22)
(1.0027277 0.0080733144 1.0817597e-21)
(1.0113269 0.0084618459 -2.4285764e-23)
(1.0155405 0.008057762 3.1098738e-21)
(1.0183361 0.0077273359 1.1963887e-21)
(1.0213587 0.0069558383 -7.6393562e-22)
(1.0236251 0.0059392429 5.5880266e-22)
(1.0248385 0.0046630159 -8.7481109e-22)
(1.0254637 0.0033811763 -1.9746951e-22)
(1.0260211 0.0022550473 6.4008117e-23)
(1.0261632 0.0011289435 -3.1817765e-23)
(1.0262128 4.3839129e-05 -8.2033193e-22)
(1.0263699 -0.00086737716 4.6666417e-26)
(1.0266419 -0.001588701 1.0911028e-21)
(1.0269433 -0.0020568437 2.4373888e-23)
(1.0272499 -0.002281065 -3.0540347e-22)
(1.0274653 -0.0022601681 -9.8432056e-23)
(1.027596 -0.0020641782 6.9072395e-22)
(1.0275726 -0.0016997981 6.3534387e-23)
(1.0274725 -0.0013327488 -2.2815537e-22)
(1.0272612 -0.00082864514 0)
(1.0271007 -0.00056668108 3.7112703e-22)
(1.0269334 -2.1981381e-05 6.9959111e-24)
(0.97723859 0.007209212 -1.2111209e-21)
(0.99267602 0.0072355435 3.5270306e-21)
(1.0047058 0.0080106479 -4.1867757e-21)
(1.0122932 0.0079877514 -1.7882256e-21)
(1.015406 0.0077450494 3.3792256e-21)
(1.0181083 0.0070509867 0)
(1.0209787 0.0061224316 1.2597138e-22)
(1.0231405 0.0049367774 -7.0547808e-22)
(1.0243185 0.0036240022 -3.8238093e-22)
(1.025172 0.0023809283 5.0541621e-22)
(1.0257879 0.0012986124 7.6533563e-23)
(1.0259676 0.00014066494 -3.6619946e-22)
(1.0261437 -0.0008843687 5.2374616e-22)
(1.0264622 -0.0017383792 -1.7602154e-22)
(1.0268446 -0.0023383019 5.384452e-22)
(1.0272583 -0.002681725 3.0950577e-22)
(1.027605 -0.0027533126 -8.0178439e-22)
(1.0278514 -0.002593355 2.8886822e-22)
(1.0279523 -0.0022683947 -1.1094875e-21)
(1.0278946 -0.0018036861 4.3780651e-22)
(1.027735 -0.0013636255 5.5879216e-22)
(1.0274657 -0.00081899812 -4.4816838e-22)
(1.0272575 -0.00054360986 2.4170652e-22)
(1.0270482 -5.6536126e-06 6.7831516e-24)
(0.96382296 0.0064674932 8.9301164e-23)
(0.98146047 0.0066779526 3.5434964e-21)
(0.9954777 0.0071563458 7.2749952e-22)
(1.0064834 0.0077688106 1.1674232e-20)
(1.012531 0.0078286451 -2.7465323e-21)
(1.015144 0.0071073788 3.9583263e-21)
(1.0177657 0.0062409959 1.1346806e-22)
(1.0206462 0.0051153359 2.2689348e-21)
(1.0227101 0.0038636552 -4.5188869e-22)
(1.0239478 0.0025312434 -1.9460954e-22)
(1.0250075 0.0013888763 3.1923649e-22)
(1.0256092 0.00026531958 7.6216915e-22)
(1.0258495 -0.00086780325 -2.135321e-23)
(1.0261972 -0.0018549032 -9.9469042e-23)
(1.0266492 -0.002599739 -2.8891148e-22)
(1.0271674 -0.0030796214 1.4896365e-22)
(1.0276448 -0.0032632349 -1.5545936e-22)
(1.0280434 -0.0031818026 4.8325395e-22)
(1.0282717 -0.0028729563 0)
(1.0283463 -0.002423404 6.6298742e-23)
(1.0282228 -0.0018649245 2.2506008e-23)
(1.0279998 -0.0013609129 -4.475254e-23)
(1.0276621 -0.00078652678 1.2086094e-23)
(1.0274017 -0.00050682641 -3.4920958e-22)
(1.0271476 1.4045853e-05 -1.2587342e-22)
(0.94941206 0.0057325554 7.5994714e-22)
(0.96862148 0.0060434893 -2.4429356e-21)
(0.98426489 0.0065409042 -1.840589e-21)
(0.99758177 0.0070809421 -1.7047214e-21)
(1.0076767 0.0077575953 -1.1115178e-20)
(1.0124537 0.0072417539 -5.298907e-22)
(1.0147536 0.0063113044 1.0917334e-22)
(1.0174815 0.0052235433 -1.9811473e-22)
(1.0203508 0.0040213073 -1.594285e-21)
(1.0223653 0.0027172765 2.8638961e-22)
(1.0237322 0.0014501488 -2.1894999e-22)
(1.0249248 0.00034853621 -8.2447371e-23)
(1.0254726 -0.00081040114 -4.8250783e-22)
(1.0258496 -0.0019336769 -7.5920249e-23)
(1.0263555 -0.0028292837 -4.071095e-22)
(1.0269674 -0.0034646438 3.6986139e-22)
(1.0275777 -0.0037817171 1.1149197e-21)
(1.0281302 -0.0038020798 -7.1387142e-22)
(1.028529 -0.003551546 -1.1517319e-21)
(1.0287424 -0.0030960618 1.2374205e-23)
(1.0287519 -0.0025262058 1.1654672e-21)
(1.0285604 -0.0018825274 3.1176562e-22)
(1.028258 -0.0013250948 -5.3316426e-22)
(1.0278469 -0.00073205248 4.0622028e-22)
(1.0275305 -0.0004571266 -2.3833456e-22)
(1.0272295 3.64405e-05 1.2705507e-23)
(0.93454355 0.0050175733 -3.3052011e-23)
(0.95455576 0.0054377935 -3.0509278e-21)
(0.97159293 0.0057993885 7.8828203e-21)
(0.98677572 0.0064818336 -1.02142e-20)
(0.99951409 0.0073045672 1.1050039e-20)
(1.0083995 0.0073160595 -6.312408e-21)
(1.0121311 0.006438696 -3.0276215e-21)
(1.0144172 0.0052865592 -2.8014149e-21)
(1.0172588 0.0041079578 3.1182754e-21)
(1.0201232 0.0028473061 8.7693887e-22)
(1.0220911 0.0015557089 -9.0071103e-23)
(1.0236622 0.00033974219 2.3303198e-22)
(1.0248664 -0.00074318306 3.6659445e-22)
(1.0254234 -0.0019653377 -5.7443973e-22)
(1.025963 -0.0030204959 -3.549097e-24)
(1.0266554 -0.0038223139 3.1313595e-22)
(1.0273901 -0.0042976132 -6.7118993e-22)
(1.0281034 -0.004444981 8.0163133e-22)
(1.0286789 -0.0042786046 -6.352965e-22)
(1.0290792 -0.0038587082 1.7550073e-22)
(1.0292335 -0.0032576577 0)
(1.0291765 -0.0025744042 5.2500594e-22)
(1.0288938 -0.0018569654 2.8961664e-23)
(1.0285068 -0.0012570427 0)
(1.0280166 -0.00065681291 -4.9690458e-22)
(1.0276416 -0.00039549178 -2.7404219e-23)
(1.0272924 6.1359003e-05 6.7686024e-23)
(0.91953387 0.0043804735 -3.1577057e-22)
(0.93994031 0.0048701682 -3.0824714e-22)
(0.95779183 0.0051700193 7.6990889e-21)
(0.97461935 0.0057802714 -9.6038287e-22)
(0.98903045 0.0066446845 2.9292576e-21)
(1.000959 0.007081363 8.8718565e-21)
(1.0087279 0.006585787 3.6204167e-22)
(1.0118025 0.0053757938 3.5871793e-21)
(1.014141 0.0041430946 -4.0149778e-22)
(1.017125 0.0029107628 -2.0745569e-21)
(1.0199438 0.0016699833 1.2095211e-21)
(1.0219164 0.00034901086 3.9706462e-23)
(1.0237197 -0.0007802852 -1.8235176e-22)
(1.0248437 -0.0019535519 -3.8296102e-23)
(1.025479 -0.0031629362 -7.5411821e-22)
(1.0262283 -0.0041444933 5.7383468e-23)
(1.0270772 -0.0047951259 -1.5248058e-21)
(1.0279459 -0.0050988543 1.4905387e-21)
(1.0287109 -0.0050448068 4.4991909e-22)
(1.029309 -0.004688109 -5.1366157e-22)
(1.0296619 -0.0040950446 7.7542046e-22)
(1.0297544 -0.0033539949 9.8332382e-24)
(1.0296001 -0.0025686699 -4.3291811e-23)
(1.0292217 -0.0017886565 0)
(1.0287408 -0.0011583754 0)
(1.0281684 -0.00056228646 4.1323561e-23)
(1.0277331 -0.00032289022 -2.1115503e-22)
(1.0273353 8.825997e-05 -7.4723598e-23)
(0.90469227 0.0037866135 0)
(0.92512229 0.0043210029 -1.9986183e-21)
(0.94348684 0.0045482436 -7.9308691e-21)
(0.96118187 0.0052931059 -6.5115209e-21)
(0.97713028 0.0060569863 -1.2534939e-20)
(0.99097313 0.0064034027 -1.4194165e-21)
(1.0021685 0.0064661486 5.4010372e-21)
(1.0088814 0.0055447061 7.8882231e-21)
(1.0115274 0.0042053839 -5.8203152e-21)
(1.0139319 0.0029193499 8.3529547e-22)
(1.0170386 0.001720401 -1.6639558e-22)
(1.0197812 0.00043860871 -3.3583676e-22)
(1.0219013 -0.00086794089 5.1412224e-22)
(1.0238382 -0.0019940695 -1.2362267e-22)
(1.024879 -0.0032486788 5.6525262e-23)
(1.0256901 -0.0044199522 -8.3404134e-22)
(1.0266341 -0.0052642006 1.4808367e-22)
(1.0276505 -0.0057466631 -7.8997014e-22)
(1.0286044 -0.0058384555 1.6605521e-21)
(1.0294184 -0.0055750341 -8.3528455e-22)
(1.0299869 -0.0050187241 6.6616335e-22)
(1.0302871 -0.0042556208 4.4079765e-22)
(1.0302803 -0.0033852374 -6.7240068e-24)
(1.0300249 -0.0025078655 -1.4748834e-21)
(1.0295359 -0.0016795033 -3.5028148e-22)
(1.0289569 -0.0010308745 6.0603005e-23)
(1.0282998 -0.00045009099 3.8047677e-22)
(1.0278039 -0.00024076386 -9.2204262e-23)
(1.0273577 0.00011654535 -7.481684e-24)
(0.8903087 0.0032087143 8.9208264e-22)
(0.91034626 0.0036146556 0)
(0.92888948 0.0038157993 0)
(0.94704981 0.0046066272 0)
(0.96397544 0.0056044169 3.7191823e-21)
(0.97939773 0.0059336197 -1.1571405e-20)
(0.99279128 0.0057786535 3.1293553e-22)
(1.003366 0.0054648504 8.5123675e-23)
(1.0089644 0.004349567 -1.1193376e-20)
(1.0112782 0.002977306 8.0884037e-21)
(1.0137601 0.0017296582 -2.343622e-21)
(1.0169373 0.00048648789 5.6659667e-22)
(1.0196381 -0.00086437251 -4.9652027e-22)
(1.0220563 -0.0021575988 2.6369527e-22)
(1.0239804 -0.003321141 8.6784333e-22)
(1.0250412 -0.0046386767 1.3715574e-22)
(1.0260605 -0.0056921253 -1.0035209e-21)
(1.0272106 -0.0063771188 -5.2256975e-22)
(1.0283497 -0.0066416496 8.2264595e-22)
(1.0293839 -0.0065084405 -3.3212827e-23)
(1.0301922 -0.0060192389 -7.9321133e-22)
(1.0307223 -0.0052639366 -6.2924327e-23)
(1.0309268 -0.004338872 1.1645228e-21)
(1.0308153 -0.0033480164 -7.7425112e-22)
(1.0304369 -0.0023951963 -2.4313491e-24)
(1.0298334 -0.0015314477 -2.3867645e-22)
(1.0291518 -0.00087689843 4.8806257e-22)
(1.0284094 -0.00032208352 1.3635577e-22)
(1.0278531 -0.00015011756 2.3720914e-22)
(1.0273601 0.00014592047 -6.9724496e-23)
(0.87543554 0.0025823147 -2.0634913e-22)
(0.89587777 0.0029606199 -2.5954544e-21)
(0.9141799 0.0030749797 0)
(0.93251536 0.0039844889 0)
(0.95003331 0.0049319564 0)
(0.96659101 0.0054783482 0)
(0.98159584 0.0052869035 0)
(0.99468984 0.0048509635 -2.3010157e-24)
(1.0044823 0.0043406186 5.9577303e-21)
(1.0089469 0.0030881579 -1.2264957e-20)
(1.0109919 0.0018213584 9.1009176e-23)
(1.0135585 0.00052733673 -2.3149873e-21)
(1.0167986 -0.00082364735 2.8836344e-21)
(1.0196184 -0.0023025148 -5.4295923e-22)
(1.0223936 -0.0035252245 -3.7826242e-23)
(1.0241876 -0.0048057554 4.2010956e-22)
(1.025361 -0.0060695791 -7.2869105e-22)
(1.0266232 -0.0069761174 5.3180882e-22)
(1.0279379 -0.0074425205 3.5667486e-22)
(1.0291931 -0.0074698085 2.8919061e-22)
(1.0302514 -0.0070870023 1.055868e-22)
(1.0310412 -0.0063691679 3.9147273e-22)
(1.0314849 -0.0054193411 -2.7183832e-24)
(1.0315854 -0.004340509 -4.7105865e-22)
(1.0313404 -0.0032465535 1.8360738e-22)
(1.0308347 -0.0022309036 1.3023271e-21)
(1.0301088 -0.0013473802 3.044501e-22)
(1.0293231 -0.00069885647 -2.1695612e-22)
(1.0284957 -0.00018016926 1.6062922e-23)
(1.0278803 -5.2161196e-05 -6.369961e-23)
(1.0273427 0.0001762641 6.4517945e-23)
(0.85987228 0.0017985442 -1.1633875e-21)
(0.88082587 0.0022394772 -6.9520895e-22)
(0.8996452 0.0023813893 -8.8154112e-21)
(0.91781459 0.0033346212 -1.470368e-20)
(0.93567282 0.0043565564 0)
(0.95283468 0.0048173374 0)
(0.96918144 0.0047472994 -6.3870758e-23)
(0.98395777 0.0042566517 -1.3046401e-20)
(0.99667307 0.0038531575 1.664545e-20)
(1.0053025 0.0031632028 -1.5420423e-20)
(1.0087608 0.0019213501 -2.1233121e-22)
(1.0105769 0.00067525191 5.1034516e-21)
(1.0133108 -0.00076580011 -6.7963752e-22)
(1.0166876 -0.0023294427 2.0471926e-22)
(1.0198769 -0.0038233971 3.2658417e-22)
(1.0228159 -0.0050333918 -2.4758409e-25)
(1.0245039 -0.0063868158 1.5824743e-21)
(1.0258894 -0.0075333923 -9.7935084e-23)
(1.0273642 -0.0082252954 -1.6019899e-21)
(1.0288349 -0.0084465877 2.3702943e-21)
(1.0301494 -0.0082032756 -7.7251407e-22)
(1.0312149 -0.007563618 -7.0714132e-22)
(1.0319335 -0.0066168868 1.8580778e-21)
(1.0322781 -0.005479332 6.5215554e-22)
(1.0322398 -0.0042640843 -3.3606237e-22)
(1.0318564 -0.0030797108 8.1066906e-22)
(1.0312095 -0.0020194003 3.8752225e-22)
(1.0303589 -0.0011295833 1.3203437e-22)
(1.0294687 -0.00049930791 -2.31085e-22)
(1.0285583 -2.6336125e-05 -6.235331e-23)
(1.0278857 5.1817862e-05 8.3762746e-23)
(1.0273051 0.00020642526 1.1689523e-23)
(0.84430314 0.00088778183 4.3612004e-22)
(0.86510491 0.0015738319 2.8579205e-21)
(0.88435575 0.0016441295 1.2940448e-20)
(0.90325973 0.0027431454 1.8312541e-20)
(0.92110029 0.0037371866 0)
(0.93859918 0.0042256746 0)
(0.95564966 0.0040561162 0)
(0.97193809 0.0036218935 1.8736139e-21)
(0.98649907 0.0031646652 -2.0119264e-20)
(0.9985135 0.002848487 -1.6361611e-20)
(1.0057975 0.0021199513 -1.6630254e-22)
(1.0083154 0.0008079474 1.3066508e-21)
(1.0100088 -0.00058619912 -9.594475e-21)
(1.0130677 -0.0022977001 3.3042266e-21)
(1.0167241 -0.0040321495 -1.9779583e-22)
(1.0204445 -0.0054474498 0)
(1.0232885 -0.006687529 3.0844652e-22)
(1.0250044 -0.0080375756 -4.6945808e-22)
(1.0266264 -0.0089788521 1.3236662e-22)
(1.0283027 -0.0094225543 2.5004042e-22)
(1.0298729 -0.0093555079 -1.083628e-21)
(1.0312256 -0.0088287023 2.9837889e-22)
(1.0322412 -0.0079260072 -1.1229374e-21)
(1.032871 -0.0067552672 -1.4930359e-21)
(1.0330763 -0.0054458791 6.0537797e-22)
(1.0328911 -0.0041070611 8.7046094e-23)
(1.0323492 -0.0028537246 -6.8217686e-23)
(1.0315592 -0.001763293 1.3988735e-23)
(1.0305812 -0.00088194149 -3.5707751e-22)
(1.0295876 -0.00028130939 -2.5158154e-22)
(1.0285966 0.00013754558 9.0149376e-23)
(1.0278693 0.00016053658 -4.2824606e-22)
(1.0272466 0.00023373287 2.7726928e-22)
(0.82877615 0.00011972409 2.844528e-22)
(0.84928839 0.00061859964 3.0493472e-22)
(0.86831804 0.00096245047 2.1992393e-20)
(0.88786578 0.0020672963 3.6594354e-20)
(0.90662247 0.0031747951 -7.965645e-21)
(0.92411569 0.0036041997 -8.7015725e-22)
(0.94153061 0.0033919582 -3.2507756e-20)
(0.95867502 0.0028613534 1.5613204e-20)
(0.97488108 0.0024108567 2.297128e-21)
(0.98907264 0.0021476082 4.0814197e-20)
(1.0001426 0.0020183932 -1.3974541e-20)
(1.005826 0.0011770499 -1.532404e-20)
(1.0075606 -0.00040354879 1.3782385e-22)
(1.0093728 -0.0021464949 3.7998083e-21)
(1.0129399 -0.0040979215 2.3028605e-21)
(1.0171019 -0.0059032226 1.0708563e-22)
(1.0212627 -0.0071586115 4.4036583e-23)
(1.0238729 -0.0084885914 4.8444547e-22)
(1.0257217 -0.0096913902 -1.9102357e-22)
(1.0275921 -0.010384633 -1.0528975e-22)
(1.0294129 -0.010526958 6.3079964e-22)
(1.0310577 -0.010152343 -2.0734471e-21)
(1.0323875 -0.0093287578 -1.1448886e-22)
(1.0333301 -0.008165259 8.3179906e-22)
(1.0338254 -0.0067840182 -2.0479673e-21)
(1.0338788 -0.0053157322 -7.0658393e-22)
(1.0335211 -0.0038765253 -6.3497847e-22)
(1.0328181 -0.0025692192 -1.9058738e-22)
(1.031878 -0.0014674362 -3.5213653e-22)
(1.0307737 -0.00060808334 6.3445396e-24)
(1.0296788 -4.7277875e-05 -5.4321034e-23)
(1.0286108 0.00030953548 -2.7264595e-23)
(1.0278315 0.00027298335 2.4264897e-22)
(1.0271707 0.00026027201 -6.424044e-22)
(0.81355744 -0.00060085783 -5.6504871e-22)
(0.83346755 -0.00013394589 -4.6152406e-22)
(0.85220767 5.8144948e-05 -2.55096e-20)
(0.87170112 0.0014283418 -1.8292884e-20)
(0.891146 0.0024974246 3.106797e-20)
(0.90969228 0.0030676126 3.9060356e-20)
(0.92712207 0.0027027889 4.5894294e-21)
(0.94467177 0.002096338 0)
(0.96192094 0.0015800981 1.7749449e-20)
(0.97786942 0.0012913041 5.6645737e-20)
(0.99148328 0.0013675547 2.1441728e-21)
(1.0013339 0.0013310077 7.3699759e-21)
(1.0053562 0.00016981399 0)
(1.0065374 -0.0019132926 -4.5718137e-22)
(1.0088175 -0.0040405333 -6.4317121e-21)
(1.013077 -0.0061898757 -2.3091918e-22)
(1.0179508 -0.0078318832 8.4610702e-22)
(1.0221638 -0.0090111316 0)
(1.0246225 -0.010350652 3.4959381e-22)
(1.026697 -0.011321569 8.33748e-22)
(1.0287642 -0.011703064 -1.6886414e-21)
(1.0307001 -0.011517055 6.2097353e-22)
(1.0323549 -0.01081374 0)
(1.0336333 -0.0096922597 -1.9381336e-21)
(1.0344514 -0.0082781025 8.6687332e-22)
(1.034794 -0.0066990275 -5.8167084e-23)
(1.0346647 -0.0050954167 -8.5735017e-22)
(1.0341291 -0.0035720645 7.2923892e-22)
(1.0332532 -0.0022338 2.8947208e-23)
(1.0321641 -0.0011355485 -8.4515438e-22)
(1.0309349 -0.00031160562 7.0495487e-22)
(1.0297423 0.00019974953 2.1578809e-22)
(1.0286011 0.00048778329 0)
(1.027773 0.00038834345 -1.0215081e-23)
(1.0270785 0.00028550303 -2.2823668e-22)
(0.7985939 -0.0013061041 -3.7379031e-22)
(0.81796803 -0.00064309531 1.4841312e-21)
(0.83617895 -0.00084531133 -2.3962493e-20)
(0.85541686 0.00079241246 -6.4008908e-21)
(0.87483025 0.0018712785 8.3203811e-21)
(0.89415055 0.0023907055 5.3208383e-21)
(0.91276137 0.0021246348 3.4607339e-20)
(0.93032217 0.0013136561 1.8258926e-22)
(0.94807112 0.00074111085 0)
(0.96524565 0.00044002936 -2.1445094e-20)
(0.98072517 0.00050424633 1.8194055e-20)
(0.99348474 0.00087437992 -1.2245816e-21)
(1.0017558 0.00054710928 7.6868621e-21)
(1.0043456 -0.0012162357 -7.9177149e-21)
(1.0054361 -0.003819628 -3.6894364e-21)
(1.0085286 -0.0062963804 -4.0800869e-21)
(1.0136414 -0.0084535491 5.2434708e-21)
(1.0192435 -0.009811175 4.3834297e-22)
(1.0231336 -0.011001159 9.7606142e-22)
(1.0256124 -0.012220193 -2.3325685e-21)
(1.0279173 -0.012872325 2.0483791e-21)
(1.0301464 -0.012908013 -1.9001836e-21)
(1.0321301 -0.012363167 0)
(1.0337601 -0.011325686 -5.2289364e-22)
(1.0349298 -0.0099120256 2.0471249e-22)
(1.0355995 -0.0082588614 1.0510995e-21)
(1.0357533 -0.0065053827 2.3766169e-22)
(1.0354315 -0.0047843816 1.2962926e-22)
(1.0347019 -0.0032030098 5.3329026e-22)
(1.0336536 -0.0018496552 0)
(1.0324144 -0.00077267657 7.4513659e-22)
(1.0310641 3.8310836e-06 7.8743055e-22)
(1.029778 0.00045712977 2.3690903e-22)
(1.0285686 0.00067061029 -2.6670205e-22)
(1.0276944 0.00050570028 5.0762529e-24)
(1.0269731 0.00031163338 8.7903969e-22)
(0.78411313 -0.0019007517 5.1690148e-22)
(0.80293202 -0.0011920865 -1.6470196e-22)
(0.82044459 -0.0013737515 7.2437758e-21)
(0.83926594 -9.4773711e-05 2.7522841e-22)
(0.85821858 0.0013432691 -3.6817765e-20)
(0.87768537 0.0018060759 -3.9421214e-20)
(0.89716514 0.0014242048 -1.4103772e-22)
(0.91602093 0.00065251804 2.6866052e-20)
(0.93379345 -0.00012031518 1.6951406e-22)
(0.9515904 -0.0004471086 2.0914358e-20)
(0.9684663 -0.00030706194 -3.3974991e-23)
(0.98316921 0.00015145955 -9.8568888e-21)
(0.99473424 0.00041456553 -1.1460899e-21)
(1.0013421 -0.00063668653 -8.1100998e-21)
(1.0029961 -0.0031144245 2.760345e-20)
(1.0044721 -0.0062091739 4.0816934e-22)
(1.0086672 -0.0088419297 -3.3367326e-21)
(1.014841 -0.010764664 -1.6450444e-21)
(1.0207495 -0.011854176 -1.1742848e-22)
(1.0242544 -0.013080316 -4.0429255e-22)
(1.0268679 -0.01402263 9.7182385e-22)
(1.0293861 -0.014312001 -2.528685e-21)
(1.0317048 -0.013962454 2.1568513e-21)
(1.0336958 -0.01304772 0)
(1.0352381 -0.011676498 1.3045575e-21)
(1.0362689 -0.009980837 2.2055985e-21)
(1.0367482 -0.0081111479 -9.5785869e-22)
(1.0366983 -0.00620237 1.8745593e-21)
(1.0361634 -0.004392205 3.713027e-23)
(1.035238 -0.0027707813 -6.1065802e-22)
(1.034013 -0.001424834 -7.6638282e-22)
(1.0326277 -0.00038297845 -1.7437672e-23)
(1.0311608 0.00033460479 -5.2299838e-23)
(1.0297868 0.00072216064 3.6142179e-22)
(1.0285141 0.00085648491 -1.6172949e-22)
(1.0275971 0.0006243748 -3.8388406e-23)
(1.0268534 0.00034209443 3.5795331e-22)
(0.77105197 -0.0024834942 -1.7042005e-22)
(0.78858266 -0.0017431337 -1.2831206e-21)
(0.80519317 -0.0018438526 9.3993305e-21)
(0.8232936 -0.00052943072 5.2038689e-21)
(0.84175716 0.00060906772 -3.0185311e-22)
(0.86070509 0.0013205873 2.5863618e-22)
(0.88056337 0.00083099223 2.1775054e-20)
(0.90037122 -8.1815147e-05 -1.02289e-20)
(0.91955967 -0.00086307639 0)
(0.93741056 -0.0013423746 -4.7456525e-21)
(0.95507208 -0.0011753217 0)
(0.9712904 -0.00056800363 0)
(0.98498578 -9.951775e-05 -1.0454811e-20)
(0.99519992 -0.00041758635 1.2684275e-21)
(1.0002616 -0.0023960164 5.7477749e-21)
(1.0015641 -0.0056123959 7.7671702e-21)
(1.0038877 -0.0089894156 -9.376278e-21)
(1.0094097 -0.011578937 -3.290409e-21)
(1.0166767 -0.013029115 -1.1207004e-21)
(1.0222959 -0.014010675 1.7145049e-22)
(1.0255945 -0.015140528 -1.66021e-21)
(1.0284108 -0.015717461 1.1900369e-21)
(1.0310688 -0.015595779 3.4116912e-22)
(1.0334297 -0.014843497 -6.6448407e-22)
(1.0353595 -0.013553851 -3.9923818e-23)
(1.0367777 -0.011856937 4.869945e-22)
(1.0376215 -0.0099001383 -2.0101525e-22)
(1.0378899 -0.0078337988 -1.1731342e-21)
(1.0376107 -0.0057992603 -1.0121645e-22)
(1.0368574 -0.0039203973 -1.8492476e-21)
(1.0357286 -0.0022855163 -4.2859411e-22)
(1.0343309 -0.00096243408 -1.659778e-22)
(1.0328029 2.8636685e-05 -8.7448484e-22)
(1.0312255 0.00067730959 1.3608265e-22)
(1.0297693 0.00099257765 -7.7876904e-22)
(1.0284391 0.0010441192 -1.5695201e-22)
(1.027483 0.00074308159 -3.1086177e-22)
(1.0267213 0.00037276944 0)
(0.76113383 -0.0030463602 -9.7765486e-22)
(0.77568147 -0.0023330153 -1.5543008e-22)