/*--------------------------------*- C++ -*----------------------------------*\
| =========                 |                                                 |
| \\      /  F ield         | OpenFOAM: The Open Source CFD Toolbox           |
|  \\    /   O peration     | Version:  5.0                                   |
|   \\  /    A nd           | Web:      www.OpenFOAM.org                      |
|    \\/     M anipulation  |                                                 |
\*---------------------------------------------------------------------------*/
FoamFile
{
    version     2.0;
    format      ascii;
    class       volSymmTensorField;
    location    "260";
    object      UPrime2Mean;
}
// * * * * * * * * * * * * * * * * * * * * * * * * * * * * * * * * * * * * * //

dimensions      [0 2 -2 0 0 0 0];

internalField   nonuniform List<symmTensor> 
9200
(
(0.00055380619 2.0982899e-05 -6.6660491e-26 1.7727759e-06 -5.0103086e-27 4.1986192e-47)
(0.00056744977 6.8667765e-05 1.9432713e-23 2.0067888e-05 2.4213093e-24 8.0619413e-43)
(0.00044233992 1.7904914e-05 0 1.7129084e-06 0 0)
(0.00058848395 0.00011041984 -1.0622988e-23 5.1957374e-05 -2.1043179e-24 2.3232304e-43)
(0.00045242332 5.8784817e-05 1.5087019e-23 1.9734386e-05 2.2402152e-24 6.0082594e-43)
(0.00039075022 1.6515158e-05 0 1.631415e-06 0 0)
(0.00062303735 0.00015566422 -1.0595332e-24 0.00010462014 -2.7683356e-25 2.1440906e-45)
(0.0004690492 9.3562456e-05 6.6514416e-26 5.077e-05 -1.1397969e-25 2.1279536e-45)
(0.00040027943 5.3667168e-05 0 1.8786327e-05 0 0)
(0.00033218888 1.416716e-05 0 1.5226122e-06 0 0)
(0.0006681693 0.00019942447 2.4211688e-23 0.000175322 8.4581803e-24 1.0696691e-42)
(0.00049643567 0.00012965553 1.5572269e-23 0.0001017945 6.002774e-24 6.704566e-43)
(0.00041453613 8.4961466e-05 7.993171e-24 4.8100439e-05 2.3284356e-24 1.9240076e-43)
(0.00034009131 4.6125408e-05 4.2194601e-25 1.7750068e-05 8.7056846e-26 6.8006295e-46)
(0.00028749412 1.248894e-05 2.7838038e-27 1.431254e-06 4.8834703e-28 3.6101778e-49)
(0.00072786806 0.00024534595 2.353704e-23 0.00027368366 9.2928921e-24 9.0469495e-43)
(0.00053303087 0.00016245598 -4.0439919e-25 0.0001691948 3.848127e-25 6.5520964e-45)
(0.0004381392 0.00011688076 2.7286115e-23 9.5949491e-05 1.1250355e-23 2.1801051e-42)
(0.00035315658 7.2627636e-05 9.4950961e-24 4.5198933e-05 3.4846763e-24 3.7457388e-43)
(0.00029536941 4.0376075e-05 1.8722705e-25 1.6671628e-05 1.3354277e-25 2.6806564e-45)
(0.00024864549 1.0787918e-05 -1.3825057e-23 1.3351347e-06 -1.0671836e-24 1.1685195e-42)
(0.00080231853 0.0002904916 3.0837594e-23 0.00040343821 1.7316948e-23 1.6474038e-42)
(0.00058264889 0.00019425555 2.2890895e-23 0.00026158195 1.0175129e-23 1.0504292e-42)
(0.00046976799 0.00014486539 -1.6716676e-23 0.00015826448 -8.3533788e-24 7.5810138e-43)
(0.00037538847 9.9029376e-05 -1.0162255e-24 8.9761609e-05 -5.8213728e-25 4.9385586e-45)
(0.00030778972 6.324753e-05 7.580208e-24 4.2165761e-05 2.7519799e-24 2.6543317e-43)
(0.00025598455 3.4794026e-05 6.6270085e-24 1.5650555e-05 1.810494e-24 2.741142e-43)
(0.00021687433 9.3523708e-06 9.5455176e-25 1.2492783e-06 9.8948428e-26 8.7674138e-45)
(0.0008954134 0.00033365026 2.3548206e-23 0.00057582188 2.1665302e-23 1.5285069e-42)
(0.00064831917 0.0002221729 2.0418445e-23 0.00038156274 1.3326282e-23 8.7594771e-43)
(0.000512985 0.00017063801 2.0484342e-23 0.00024239325 1.3670076e-23 1.1756384e-42)
(0.00040593584 0.00012136076 6.7464688e-25 0.00014708764 1.5696471e-24 3.1933409e-44)
(0.00032885133 8.5684624e-05 -1.9190109e-23 8.3338016e-05 -1.0459268e-23 1.7558889e-42)
(0.00026789342 5.4396962e-05 -7.2894288e-24 3.9422609e-05 -3.3119145e-24 3.4485281e-43)
(0.00022412603 3.0051743e-05 -7.1581462e-24 1.4686367e-05 -1.9296822e-24 3.9627061e-43)
(0.00018998905 8.037799e-06 1.0030813e-23 1.1729902e-06 9.6378427e-25 1.0602607e-42)
(0.0010111232 0.00037183019 -4.4633363e-23 0.00080181599 -3.3376187e-23 2.907598e-42)
(0.00073662404 0.00024524299 2.1690777e-23 0.00053925973 7.5551337e-24 7.3506926e-43)
(0.0005706865 0.00019126207 6.5727618e-25 0.00034940179 3.2928781e-24 5.1997872e-44)
(0.00044884346 0.00014112432 8.3899082e-24 0.00022379971 5.4447337e-24 2.1896976e-43)
(0.00035792151 0.0001041957 5.7573388e-25 0.00013565876 2.9591895e-24 1.3502873e-43)
(0.00028834814 7.3476756e-05 -2.5314783e-23 7.7734293e-05 -1.4723039e-23 3.7450586e-42)
(0.00023576404 4.6981202e-05 3.5762182e-24 3.6824673e-05 3.1452182e-25 2.2712084e-43)
(0.00019698941 2.5739602e-05 -1.0683073e-23 1.3873694e-05 -3.3206703e-24 1.1808981e-42)
(0.00016821763 6.8875119e-06 -1.8487989e-23 1.1048444e-06 -2.0400027e-24 4.9433407e-42)
(0.0011527226 0.00039812742 3.7848427e-23 0.0010934321 4.0669084e-23 2.535117e-42)
(0.00085570519 0.00026020987 -1.1770701e-23 0.00074404964 1.2590936e-23 7.6572607e-43)
(0.00064882643 0.00020581328 -7.2998851e-25 0.00048687195 -1.987476e-24 1.030238e-44)
(0.00050741581 0.00015605426 2.4938862e-25 0.00032055001 -9.6010661e-24 5.2171193e-43)
(0.00039900346 0.00012011174 -2.6324556e-24 0.00020507029 -2.7353817e-24 4.278979e-44)
(0.00031693568 8.916367e-05 -4.8528712e-26 0.00012593767 4.0674255e-24 3.1480094e-43)
(0.00025565388 6.3412586e-05 7.7370569e-24 7.2460077e-05 5.0579021e-24 4.5406909e-43)
(0.00020827987 4.0305742e-05 1.1526378e-23 3.4678547e-05 5.9644243e-24 1.3535029e-42)
(0.00017503573 2.1959257e-05 5.3821229e-24 1.3150548e-05 2.1719722e-24 4.2793749e-43)
(0.00015002 5.8253278e-06 1.154623e-24 1.0462669e-06 1.6510352e-25 2.9462794e-44)
(0.0013232906 0.00040610597 -1.9176075e-23 0.0014649299 -1.8939161e-23 4.8506523e-43)
(0.0010152751 0.00026129954 -3.7921496e-24 0.0010087801 2.6216247e-23 9.7553221e-43)
(0.00075550645 0.00021180371 1.8693029e-23 0.0006615451 6.9534791e-24 5.3345211e-43)
(0.00058827741 0.00016571688 -1.3402123e-23 0.00044433368 -1.4433517e-23 6.2068659e-43)
(0.00045546142 0.00013156419 1.5467542e-23 0.00029163218 1.8842948e-24 8.8509079e-43)
(0.00035756967 0.00010267461 -2.7474289e-23 0.00018954359 -1.7669855e-23 3.30138e-42)
(0.00028340878 7.7012998e-05 -2.2945503e-25 0.00011694866 1.0862573e-24 2.873612e-44)
(0.00022754486 5.4450573e-05 1.9164933e-23 6.8225934e-05 1.2068899e-23 3.3846214e-42)
(0.00018596224 3.4504158e-05 -8.0680991e-24 3.2780543e-05 -4.4301135e-24 8.8132325e-43)
(0.0001566122 1.8441672e-05 1.4107904e-23 1.2563909e-05 6.3488155e-24 4.0906215e-42)
(0.00013560967 4.8768284e-06 -1.8987166e-24 9.9260266e-07 -2.8163382e-25 1.126358e-43)
(0.0015319819 0.00042145118 6.6807816e-24 0.0019499193 -3.3911111e-24 8.8338848e-44)
(0.001221927 0.00024085887 2.0561561e-23 0.0013507558 -5.6084282e-23 3.7400148e-42)
(0.00090136763 0.00020618954 -1.4985535e-23 0.00088559942 -2.6009464e-23 9.1813496e-43)
(0.00070033018 0.0001683915 0 0.00060153351 0 0)
(0.00053359741 0.00013841448 1.6551393e-26 0.00040163204 9.2345072e-25 2.8711435e-45)
(0.00041353867 0.00011271288 2.4386459e-24 0.00026835918 -7.8007824e-24 4.8422887e-43)
(0.00032268808 8.8901888e-05 -5.0902893e-24 0.00017550701 -3.5075831e-24 1.4052304e-43)
(0.00025443166 6.6404122e-05 -1.0157513e-23 0.00010989061 -7.3439316e-24 8.4653444e-43)
(0.00020450492 4.6710183e-05 5.1904834e-25 6.4510749e-05 -1.8386983e-24 2.0582486e-43)
(0.00016711002 2.9101927e-05 -8.6192036e-24 3.1258213e-05 -5.7240455e-24 1.4463266e-42)
(0.00014198999 1.5263569e-05 -4.8027515e-24 1.2035751e-05 -2.5358999e-24 7.0951121e-43)
(0.00012399196 3.9876465e-06 8.2528064e-25 9.4452923e-07 1.6902798e-25 3.6265837e-44)
(0.0017455398 0.00044733738 4.0328597e-24 0.0025621227 1.4020063e-24 1.3208435e-44)
(0.0014849097 0.00020391566 -3.4261954e-23 0.001800039 2.1745433e-23 1.5036792e-42)
(0.0010943721 0.00018117227 0 0.001173122 0 0)
(0.00085598864 0.00016237064 0 0.0008033366 0 0)
(0.00064154574 0.00013954268 -9.8300404e-24 0.00054086527 -4.4965985e-25 2.0791866e-43)
(0.0004908513 0.00011954221 1.4198205e-23 0.00036824303 -1.017677e-23 1.500892e-42)
(0.00037649635 9.8142288e-05 -1.4826674e-23 0.0002477482 -2.9272217e-24 1.0729354e-42)
(0.00029245478 7.7181775e-05 1.1927022e-23 0.00016463738 1.0692625e-23 1.0614264e-42)
(0.00023023451 5.7292933e-05 7.4685119e-25 0.00010377944 9.5697502e-25 9.5415965e-45)
(0.00018485843 3.9447162e-05 -6.6997343e-27 6.1599541e-05 1.8246261e-26 2.4530142e-47)
(0.00015203754 2.4220434e-05 8.8138226e-24 2.9900901e-05 6.6418571e-24 2.2438131e-42)
(0.00013017044 1.2229971e-05 -7.66602e-24 1.1587356e-05 -4.7597509e-24 2.996632e-42)
(0.00011520221 3.1876217e-06 1.0844384e-23 8.9825546e-07 2.7356225e-24 1.109607e-41)
(0.0018055472 0.00035493218 -6.6391424e-23 0.0032114634 -1.0983908e-23 3.8525554e-42)
(0.0018080417 0.00017950687 8.6209287e-24 0.0023997414 -2.455952e-24 5.8646422e-44)
(0.0013367835 0.00013233129 -4.800074e-23 0.0015455831 8.0735936e-24 2.2723787e-42)
(0.0010660748 0.00014207165 3.2143097e-23 0.0010644189 -7.0485439e-24 1.3635184e-42)
(0.00079122084 0.00013443238 -1.885848e-23 0.00072019022 3.750144e-24 6.6706864e-43)
(0.0005971195 0.00012250243 6.3630048e-24 0.0004947421 -5.2413726e-24 2.1686721e-43)
(0.00045051462 0.0001050688 4.1925293e-24 0.00033918201 4.2155018e-24 7.9490645e-44)
(0.0003442802 8.6219481e-05 -2.7570921e-25 0.00023198021 3.1305301e-25 1.7104598e-45)
(0.00026636208 6.7087413e-05 8.744981e-24 0.00015539462 1.2497688e-23 1.1124135e-42)
(0.0002093444 4.8676505e-05 6.3218972e-24 9.9095678e-05 9.4842432e-24 9.6994397e-43)
(0.00016894218 3.2839987e-05 2.4286069e-24 5.9027126e-05 2.54842e-24 1.5511886e-43)
(0.00013977216 1.9522992e-05 5.0705552e-24 2.8762167e-05 5.3143235e-24 1.250888e-42)
(0.00012121748 9.4486969e-06 2.5242423e-24 1.1154503e-05 2.3366986e-24 6.0553237e-43)
(0.00010864063 2.441981e-06 -2.0178303e-24 8.5377761e-07 -7.5385075e-25 8.8354101e-43)
(0.0016527775 5.6697354e-05 5.9925306e-23 0.0038090067 -1.8911504e-22 1.5233825e-41)
(0.0020980738 0.00013817838 3.6519192e-22 0.0031638127 -9.2710891e-23 8.6050758e-41)
(0.0016394607 7.9504529e-05 7.7121886e-24 0.0020338429 -2.6887474e-23 4.5003746e-43)
(0.0013323793 9.8383797e-05 -6.1534986e-24 0.0014047655 3.8703459e-24 4.9651599e-44)
(0.0009962605 0.00012025781 2.9693435e-24 0.00095437948 -2.5001345e-24 2.0768275e-44)
(0.00074367754 0.00012149373 -1.2902167e-23 0.00065822848 9.1700828e-24 5.2824033e-43)
(0.00055160851 0.00010937539 4.744826e-24 0.00045499413 4.9657161e-24 8.4639679e-44)
(0.00041492664 9.3920733e-05 -4.738189e-24 0.00031713833 -5.4471274e-24 1.3100477e-43)
(0.0003152219 7.5774389e-05 1.7008783e-24 0.00021877484 -1.5910896e-24 6.1328524e-44)
(0.00024359222 5.7476354e-05 -5.1201658e-25 0.00014841321 -1.370865e-24 1.344581e-44)
(0.0001920746 4.0755845e-05 -1.5872102e-25 9.5016814e-05 -1.9180406e-25 5.6693701e-46)
(0.00015586369 2.6372832e-05 1.0531943e-25 5.6913177e-05 -8.6566743e-25 3.9163324e-44)
(0.0001304101 1.5194675e-05 -5.4117916e-24 2.7673327e-05 -7.1430677e-24 2.5402055e-42)
(0.00011454666 6.7931781e-06 1.8220493e-24 1.0745329e-05 2.3525076e-24 7.1002214e-43)
(0.00010418201 1.7781383e-06 -8.6728898e-25 8.0899204e-07 -5.7631694e-25 5.6435283e-43)
(0.0014529033 -0.00037120077 7.7952002e-23 0.0043156756 6.7602914e-23 1.3914143e-41)
(0.0021396235 -3.6263214e-05 -2.4331899e-22 0.0039818009 -2.3522814e-23 3.6657435e-41)
(0.0019879233 5.7816036e-05 1.2117285e-22 0.0026965327 -2.5940611e-23 9.297722e-42)
(0.0016519087 3.7704151e-05 -8.574614e-23 0.0018525492 4.1932266e-24 5.3548364e-42)
(0.0012611865 8.6930025e-05 4.974039e-23 0.0012631774 -3.1353445e-24 2.377728e-42)
(0.00094475842 0.00011515227 -4.1963574e-23 0.00087351502 -1.7054317e-23 2.3912542e-42)
(0.00069007261 0.00011105082 3.9022425e-23 0.00060501686 -2.8974918e-24 3.0424336e-42)
(0.00051066891 0.00010014133 -1.5056318e-24 0.0004249098 9.5220552e-25 1.2019225e-44)
(0.00038155035 8.3811755e-05 -3.8461487e-24 0.00029878502 -3.2865345e-24 7.893027e-44)
(0.00028959275 6.5785104e-05 4.4365524e-24 0.00020888917 -3.6154738e-24 4.3726187e-43)
(0.00022420213 4.8446941e-05 -1.9576586e-23 0.00014242978 -2.5414779e-23 6.9276529e-42)
(0.00017769945 3.2834413e-05 5.4018608e-24 9.1747656e-05 5.4019614e-24 9.3842932e-43)
(0.00014575353 2.0339186e-05 1.9254371e-24 5.4896144e-05 3.2326648e-24 2.767005e-43)
(0.00012340765 1.1014716e-05 3.921765e-25 2.665528e-05 1.0519991e-24 4.4785222e-44)
(0.00011003863 4.3764202e-06 -5.9477046e-26 1.0319331e-05 9.9141067e-26 6.3920086e-45)
(0.00010142781 1.1780343e-06 1.5640827e-25 7.6381084e-07 6.360115e-25 7.2559623e-43)
(0.0013748015 -0.00083001112 0 0.0047202012 0 0)
(0.0020426984 -0.00034899271 -3.448354e-22 0.0047893092 5.3575844e-23 8.2417274e-41)
(0.0021540675 -1.7779476e-05 -4.0217843e-24 0.0034920273 8.4731105e-23 2.4155346e-42)
(0.0020167146 4.4971225e-06 0 0.0024658139 0 0)
(0.0015760511 2.7162084e-05 0 0.0016741068 0 0)
(0.0012094485 9.4848642e-05 0 0.0011612112 0 0)
(0.00088029247 0.00010994226 -5.2818929e-24 0.00080359605 3.6639876e-24 6.3972348e-44)
(0.0006408314 0.00010485631 1.4582148e-23 0.000564464 1.2751487e-23 6.0184432e-43)
(0.00047099474 9.1177075e-05 -1.7605736e-23 0.00039984641 9.628772e-24 1.7365867e-42)
(0.00035148472 7.3987336e-05 9.1727552e-24 0.00028511568 1.0317222e-23 6.3408121e-43)
(0.00026700272 5.6001027e-05 -1.3789715e-24 0.00020055233 1.0542483e-24 4.8524255e-44)
(0.00020783296 3.9173299e-05 3.3035751e-24 0.00013774289 5.7372787e-24 3.2576635e-43)
(0.00016636861 2.5312269e-05 -4.1256172e-25 8.8661535e-05 -2.0237957e-25 1.0399811e-44)
(0.00013814801 1.4399709e-05 -1.4373502e-24 5.3028824e-05 -3.7879843e-24 3.648891e-43)
(0.00011865133 7.1913331e-06 -7.200396e-26 2.559956e-05 -6.9976667e-25 2.0279494e-44)
(0.00010731632 2.131488e-06 -5.3959852e-26 9.8796371e-06 -1.170297e-24 1.8489814e-43)
(0.00010018241 6.5977002e-07 0 7.1758465e-07 0 0)
(0.0015839874 -0.0012251912 5.4351811e-23 0.005052294 -1.0000574e-22 2.2945906e-41)
(0.0019058548 -0.00075170252 4.3804007e-22 0.005544788 4.4393569e-23 1.8264241e-40)
(0.0021202914 -0.00023152433 -6.4789446e-22 0.0043218103 5.6055504e-23 2.6156997e-40)
(0.0022665929 -2.6483274e-05 -2.9896023e-22 0.003266467 6.560767e-23 4.8451165e-41)
(0.0019403347 -2.221388e-05 -1.9638685e-22 0.0022394529 1.932996e-23 2.3107094e-41)
(0.0015257926 4.2524355e-05 0 0.0015464725 0 0)
(0.0011360218 0.00010045363 -8.010563e-23 0.0010717551 1.9270636e-23 7.1533589e-42)
(0.00081906473 0.00010812486 1.5765461e-23 0.00074915015 -8.5550899e-24 5.4225977e-43)
(0.00059190796 9.7789047e-05 4.5057849e-23 0.0005304408 7.7066771e-24 4.7424511e-42)
(0.00043438264 8.2139333e-05 -1.9808813e-23 0.00038106222 9.5844546e-24 2.4647257e-42)
(0.0003243072 6.3841445e-05 -4.577791e-24 0.00027366907 -6.3818521e-24 2.257763e-43)
(0.00024768173 4.5686941e-05 -1.4520274e-24 0.00019413381 1.1370821e-24 6.6430535e-44)
(0.0001946001 3.0153163e-05 6.6944004e-24 0.00013337185 1.1253311e-23 1.7929072e-42)
(0.00015774211 1.7732868e-05 -5.1703005e-24 8.5854993e-05 -1.5953703e-23 3.9198057e-42)
(0.00013293714 8.9001042e-06 -1.4126167e-25 5.1074534e-05 -3.0602748e-24 1.9437053e-43)
(0.00011581094 3.5968836e-06 -4.4174675e-25 2.4515121e-05 -1.2855291e-23 9.2722433e-42)
(0.00010617221 1.4350531e-07 9.7253949e-25 9.408985e-06 -3.1362029e-24 1.3421895e-42)
(0.00010012683 2.1686116e-07 1.6814445e-24 6.7048517e-07 -7.6724078e-25 1.2403823e-42)
(0.0022238196 -0.0014590324 3.2575829e-25 0.0053153636 7.6050394e-25 1.5069565e-43)
(0.0018783996 -0.0012037949 2.0807519e-22 0.0062112708 -7.2952517e-23 5.6813937e-41)
(0.0020032334 -0.0005382278 6.8819529e-23 0.0051689033 7.4168306e-23 5.6835576e-42)
(0.0022998408 -0.00017957961 -3.4978251e-22 0.0041414878 -3.6175189e-24 6.7188846e-41)
(0.002239852 -4.2879532e-05 3.6162228e-23 0.0030155973 -3.9702295e-24 6.8906378e-43)
(0.0018842648 -2.6848762e-05 -2.1861134e-23 0.0020734087 -6.4435726e-23 2.7367311e-42)
(0.0014505357 6.1146836e-05 1.5824254e-22 0.001433666 -8.7995938e-23 2.620044e-41)
(0.0010625346 0.00010720716 1.4469611e-22 0.00099966844 -3.1167046e-23 2.4840428e-41)
(0.00075686071 0.00010379059 3.0467149e-23 0.00070287296 -7.5782005e-24 1.7873807e-42)
(0.00054591203 9.0237698e-05 -1.0487331e-23 0.0005044937 -1.7314672e-23 7.6639798e-43)
(0.00040068702 7.2095056e-05 3.9843867e-24 0.00036535794 -1.7791976e-24 1.1808618e-43)
(0.00030059161 5.2728216e-05 -1.0551914e-23 0.00026497423 -1.5219998e-23 1.504504e-42)
(0.00023158815 3.5278293e-05 5.2994792e-24 0.00018825451 4.3371826e-24 6.3946272e-43)
(0.00018436616 2.0814777e-05 -2.2794196e-25 0.00012947397 1.0575521e-24 1.7349035e-44)
(0.00015171378 1.0593741e-05 -1.8430775e-25 8.2907457e-05 1.4857758e-24 3.7663293e-44)
(0.00012986762 3.6313068e-06 9.9490791e-26 4.9059512e-05 2.9258105e-24 2.4302191e-43)
(0.00011465167 4.0318237e-07 8.3305421e-25 2.3352777e-05 -4.2906463e-24 1.0895252e-42)
(0.00010629421 -1.6098409e-06 -3.4479514e-26 8.9105517e-06 9.9315448e-26 4.1508473e-45)
(0.00010105582 -1.4324794e-07 2.3366553e-24 6.2277576e-07 -6.9077873e-25 1.1305014e-42)
(0.0033267614 -0.0015497173 -6.9698543e-24 0.0055646522 1.6605935e-23 5.7019919e-42)
(0.0022054984 -0.0015648745 -1.7301284e-22 0.0068168313 4.7995099e-23 6.1702327e-41)
(0.0019265355 -0.00091663518 9.8768108e-22 0.0059764503 6.1647737e-23 1.0841217e-39)
(0.0022239346 -0.00042744826 1.8252125e-22 0.0050627137 -7.1338431e-23 2.1006114e-41)
(0.0023438894 -0.00014536073 -1.0005545e-22 0.0039237876 -7.233553e-23 7.1190655e-42)
(0.0022143087 -6.5386569e-05 -1.0146939e-23 0.0028187896 -4.6718476e-23 9.9643036e-43)
(0.0018035145 -2.0203349e-05 -3.9027102e-23 0.0019252821 6.4079837e-24 9.6774454e-43)
(0.0013738454 8.3440641e-05 -5.8273305e-23 0.0013412165 -3.3383876e-23 3.5596643e-42)
(0.00098397504 0.00010833781 1.9640887e-23 0.00093651854 -3.9363489e-24 5.0315625e-43)
(0.00069747927 9.8273412e-05 7.1062424e-23 0.00066650785 3.0559727e-24 9.7242717e-42)
(0.00050306488 8.0806979e-05 -2.3485155e-23 0.00048270855 -2.6794459e-23 2.7343651e-42)
(0.00037064504 6.0493281e-05 -5.0709224e-25 0.0003534594 5.1700299e-24 9.9426576e-44)
(0.00028038534 4.100876e-05 2.6588439e-24 0.00025715194 7.8325228e-24 2.7882346e-43)
(0.0002189031 2.418867e-05 -8.2927331e-26 0.0001831337 -5.7797501e-25 1.9420966e-45)
(0.00017701962 1.182966e-05 -4.8609914e-25 0.00012537118 8.753616e-25 2.9863797e-44)
(0.00014813641 3.6051516e-06 7.0930014e-25 7.9871161e-05 1.2773337e-23 2.9787586e-42)
(0.00012865035 -1.0927561e-06 4.6080262e-26 4.6868584e-05 -2.2724728e-24 2.6505561e-43)
(0.00011489704 -2.4437447e-06 -3.0561727e-24 2.2121864e-05 7.0608427e-24 3.0034471e-42)
(0.00010746644 -3.0841284e-06 -1.1044402e-24 8.3830201e-06 1.1247609e-24 1.9580761e-43)
(0.00010270784 -4.2355471e-07 -3.204118e-24 5.7472802e-07 6.8926128e-25 1.2472425e-42)
(0.0046337453 -0.0015671537 1.1983453e-24 0.0057815166 5.438219e-23 9.7887331e-43)
(0.0030622271 -0.0017800754 -2.8279845e-22 0.0074206413 1.7750879e-22 1.3410396e-40)
(0.0021269295 -0.0012813305 -1.2644308e-22 0.0067321893 3.3474919e-22 2.8207568e-41)
(0.0021174786 -0.00076263695 -2.84688e-22 0.0059949771 -1.0496604e-23 6.7229803e-41)
(0.0023205001 -0.00034877866 6.2201515e-23 0.0049056675 -1.4822877e-22 7.0522873e-42)
(0.0023784132 -0.00014680549 2.0063483e-22 0.0037483056 1.5435378e-23 2.0676247e-41)
(0.002159741 -9.1929066e-05 -4.2532444e-22 0.0026275678 4.2620122e-23 9.6047347e-41)
(0.0017286628 2.9064356e-06 -5.1637463e-22 0.0018008081 7.7681992e-23 1.7548625e-40)
(0.0012856626 9.8790196e-05 2.6343882e-23 0.0012581735 6.0533388e-23 3.8499496e-42)
(0.00090662726 0.00010619847 0 0.00088477788 0 0)
(0.00064165144 8.9913716e-05 2.0530817e-23 0.00063573936 2.2797175e-23 1.530086e-42)
(0.0004641559 6.9103184e-05 -1.5771894e-23 0.00046603139 5.2865685e-24 1.3545814e-42)
(0.00034459331 4.7626524e-05 -1.474143e-23 0.00034294061 -1.6346171e-23 2.2173173e-42)
(0.00026407013 2.8146326e-05 8.6128024e-24 0.00025050281 7.5221261e-24 1.5742151e-42)
(0.00020948251 1.3232542e-05 -1.0982813e-24 0.00017776909 -7.3851047e-24 3.7104938e-43)
(0.00017254995 2.8259549e-06 8.9502596e-25 0.00012115387 1.2940311e-23 1.9750968e-42)
(0.00014666772 -2.7486954e-06 -5.88375e-25 7.6526778e-05 1.2333069e-24 5.368395e-44)
(0.00012909418 -5.3831559e-06 9.5557737e-25 4.4523938e-05 -3.3947032e-24 4.1831792e-43)
(0.000116299 -4.8424354e-06 -2.6435323e-24 2.0815852e-05 4.1362642e-24 1.1906012e-42)
(0.00010941649 -4.2834313e-06 -3.1935733e-25 7.8324588e-06 2.2379432e-25 7.2156067e-45)
(0.00010488552 -6.2364372e-07 -3.627729e-24 5.270063e-07 6.1330332e-25 1.1270853e-42)
(0.0059918179 -0.0015747282 1.7861995e-22 0.0059586581 1.414645e-22 2.5584952e-41)
(0.0042893405 -0.0019413294 -3.4660359e-22 0.0080418306 1.500252e-22 8.6605059e-41)
(0.0028499796 -0.0015665515 -3.1385973e-22 0.0074795385 -4.7592539e-23 1.7455254e-40)
(0.0021938271 -0.0011022487 3.986401e-22 0.0069079141 2.0532024e-22 2.1996207e-40)
(0.0022440782 -0.00064510746 4.0028978e-22 0.0059426251 -1.6796676e-23 1.1482529e-40)
(0.0024114187 -0.00032410774 -3.0003895e-23 0.0047825829 -1.0297795e-22 3.3445374e-42)
(0.0023834524 -0.00017224179 0 0.0035566042 0 0)
(0.0021079247 -0.00010519183 -1.0114195e-23 0.002452421 -1.3745809e-22 9.4180073e-42)
(0.0016434937 3.4054699e-05 1.1797628e-22 0.0016909242 -5.502282e-23 1.1855342e-41)
(0.0011927711 0.00010752913 1.4928798e-22 0.001186283 3.7887844e-23 2.1458621e-41)
(0.00083249483 9.9459209e-05 -2.5321205e-24 0.00084033333 1.9328678e-23 5.8089615e-43)
(0.00059034001 7.852111e-05 -1.3357447e-23 0.0006116655 1.3168676e-24 5.4070766e-43)
(0.00042987195 5.5320965e-05 2.423275e-24 0.00045150753 -8.5130167e-25 4.1000419e-44)
(0.00032298561 3.2991019e-05 2.9552325e-24 0.00033419686 8.1671462e-24 2.7042071e-43)
(0.00025154285 1.5020888e-05 -3.9814613e-24 0.000243632 -8.2133632e-24 7.1460777e-43)
(0.00020349792 1.9807619e-06 1.5178066e-24 0.00017229735 7.1855946e-24 6.2043093e-43)
(0.0001705582 -5.5056433e-06 1.3469306e-25 0.00011644572 -1.70291e-24 3.3698069e-44)
(0.0001472227 -8.6409514e-06 -2.1287336e-24 7.2913501e-05 8.3682595e-24 1.3410236e-42)
(0.00013085568 -9.0233099e-06 -8.4815378e-25 4.2004604e-05 1.3346545e-24 5.0628504e-44)
(0.00011858319 -6.807355e-06 -1.7165851e-25 1.9450244e-05 1.6084337e-25 1.7235723e-45)
(0.00011193757 -5.1950635e-06 -2.1875466e-24 7.2657939e-06 1.3514222e-24 3.6343596e-43)
(0.00010738685 -7.4746463e-07 0 4.8025406e-07 0 0)
(0.0073268515 -0.0015825726 1.195256e-22 0.0061637041 1.4994779e-22 1.2009232e-41)
(0.0054974989 -0.0021745215 2.6950929e-22 0.0086503525 -6.7883616e-23 3.3101647e-41)
(0.0040734236 -0.0017677414 1.4467414e-23 0.0082844216 -7.0768564e-23 7.4999809e-43)
(0.0027451529 -0.0013712626 4.0220701e-22 0.0078293021 -4.5690088e-23 2.1276479e-40)
(0.0022895304 -0.00098185798 2.8206926e-22 0.0069989422 -1.904675e-22 7.1489219e-41)
(0.0023819664 -0.00059763498 -2.0368022e-22 0.0059047302 -3.3210266e-23 2.7595782e-41)
(0.0024713802 -0.00033442448 8.6867494e-24 0.0046341409 2.9663973e-22 2.2869608e-41)
(0.0023873127 -0.00021043176 -5.0490296e-22 0.0033577144 -4.2920438e-23 1.2837795e-40)
(0.0020334773 -9.9972718e-05 -9.0546555e-23 0.0022887292 -3.9662697e-23 5.467624e-42)
(0.0015518562 6.7372568e-05 -2.1928584e-23 0.0015972467 4.1367134e-24 3.6694883e-43)
(0.0010981284 0.00010717261 3.1646378e-24 0.0011216711 -1.1754601e-24 1.3665462e-44)
(0.00076354383 8.8700375e-05 4.5638926e-23 0.00080464879 -9.5860923e-24 4.3966181e-42)
(0.00054456673 6.4125564e-05 -2.1484673e-24 0.0005909216 -3.0108241e-24 2.7304493e-44)
(0.0004007661 3.9004325e-05 -9.8111954e-24 0.00043960295 1.9996232e-23 2.2359951e-42)
(0.00030591798 1.755087e-05 4.2320382e-24 0.00032536652 2.0651339e-23 1.6265052e-42)
(0.0002431457 1.2179723e-06 2.3140335e-24 0.00023672338 1.6413945e-23 1.6615181e-42)
(0.00020050234 -8.657457e-06 5.6372758e-25 0.00016611994 -1.7667327e-24 2.7494433e-44)
(0.00017108286 -1.3399593e-05 3.6366392e-24 0.00011131007 -1.8032158e-23 4.1222738e-42)
(0.00014932436 -1.3693075e-05 1.3966125e-25 6.8978686e-05 -5.2928175e-25 1.1428071e-44)
(0.00013370393 -1.2057535e-05 -2.3188106e-24 3.9341843e-05 3.5187083e-24 4.4517308e-43)
(0.00012152217 -8.3005626e-06 0 1.804164e-05 0 0)
(0.00011481093 -5.8263444e-06 5.5489292e-24 6.6918328e-06 -2.8427311e-24 1.8089926e-42)
(0.00011004507 -7.9929592e-07 1.0943733e-25 4.3521649e-07 -1.0453606e-26 3.5813184e-46)
(0.0084648139 -0.0015843397 -6.4904474e-22 0.0063881118 -2.2544007e-22 1.4652959e-40)
(0.0066803148 -0.0025022987 9.4432066e-22 0.0092826452 2.0206056e-22 3.5532628e-40)
(0.0052601111 -0.0020129731 -6.1812582e-22 0.0091343433 -1.7321896e-22 2.0004379e-40)
(0.0038853345 -0.0015594455 -1.5009828e-22 0.0088300235 -2.4653128e-22 3.6976522e-41)
(0.0027487932 -0.0012665911 3.8225563e-22 0.0080909985 2.0427379e-22 2.0211655e-40)
(0.002424445 -0.00093616754 0 0.0070861934 0 0)
(0.002508992 -0.00058895451 -5.2568994e-24 0.0058262522 9.2302874e-23 1.726367e-42)
(0.0025349707 -0.00037107846 -1.744327e-22 0.0044654535 -1.7360827e-22 2.5553184e-41)
(0.0023787654 -0.00024793042 -3.5078506e-22 0.0031460637 1.3365275e-23 6.0813702e-41)
(0.0019553428 -6.6660833e-05 -3.5156497e-22 0.0021464261 1.027322e-22 7.6582036e-41)
(0.0014500251 9.0212229e-05 8.0381263e-23 0.0015115378 4.3991354e-23 5.9965577e-42)
(0.0010062687 9.9379482e-05 5.3671903e-23 0.0010675372 8.804873e-24 3.5446865e-42)
(0.00070148625 7.3985855e-05 -3.6485154e-23 0.00077407391 -1.2330345e-23 2.9945212e-42)
(0.0005049164 4.6345617e-05 1.5303586e-23 0.00057399187 2.2056584e-23 1.6933647e-42)
(0.00037717737 2.1165345e-05 -1.4576334e-23 0.00042796496 -2.8218685e-23 3.7832885e-42)
(0.00029381948 9.2161762e-07 -5.2755524e-24 0.00031669432 -3.9833171e-23 6.5683078e-42)
(0.00023843167 -1.2156066e-05 3.4479579e-24 0.00022888702 3.4023879e-24 9.2294835e-43)
(0.00020066673 -1.8959258e-05 1.2881589e-24 0.00015933161 -8.4566337e-24 6.4189643e-43)
(0.00017350796 -2.027167e-05 -6.2168055e-24 0.00010563418 2.0120852e-23 6.0205754e-42)
(0.00015285474 -1.7999324e-05 1.7957151e-24 6.4768339e-05 -4.0558877e-24 6.0835939e-43)
(0.00013733924 -1.438259e-05 5.8881946e-24 3.6567563e-05 -7.1811855e-24 2.1267065e-42)
(0.00012487286 -9.3340525e-06 -5.6020256e-24 1.6612254e-05 4.2967732e-24 1.8034705e-42)
(0.00011785813 -6.1853657e-06 3.8147277e-24 6.1201155e-06 -1.6993225e-24 7.9854451e-43)
(0.00011271427 -7.8397188e-07 9.7734718e-26 3.9240663e-07 -7.6912492e-27 2.3300325e-46)
(0.0094347812 -0.0015999574 -2.0311048e-22 0.0066178214 -2.9389676e-22 3.246086e-41)
(0.0078900186 -0.002766456 1.0124547e-21 0.009934027 7.4433836e-23 3.183944e-40)
(0.0063282937 -0.0023081837 1.7827776e-22 0.010016657 -4.1057233e-22 2.6397874e-41)
(0.0051128966 -0.0017662898 1.402896e-21 0.0099298082 2.9075956e-22 9.8422822e-40)
(0.0038253979 -0.0014739126 -2.257216e-22 0.0092963133 -3.0730268e-22 7.1326648e-41)
(0.0028162663 -0.0012381956 4.8034443e-22 0.0083287828 2.5598221e-22 2.6876905e-40)
(0.002587451 -0.00092549289 -1.418082e-23 0.0071206523 1.126637e-22 2.0812216e-42)
(0.0026446907 -0.0006159755 6.8816212e-22 0.0057191831 1.2935414e-22 2.7295031e-40)
(0.0026021835 -0.00042015607 -7.4553595e-23 0.0042627539 -1.5969373e-22 1.0821506e-41)
(0.002366922 -0.00026196774 -1.758735e-22 0.0029366827 -1.9053011e-23 1.570104e-41)
(0.001866038 -1.7706679e-05 4.348538e-23 0.0020264853 8.1253958e-23 4.9536157e-42)
(0.0013411883 9.9215859e-05 -1.573042e-22 0.0014346298 3.596227e-24 2.1927003e-41)
(0.00092116735 8.4942828e-05 2.3527843e-23 0.0010209473 2.3224135e-23 1.2315307e-42)
(0.00064696874 5.4934622e-05 3.3772029e-24 0.00074897341 -7.023417e-25 3.6958967e-44)
(0.00047202324 2.610171e-05 -3.5116231e-24 0.00055800737 -2.8850093e-23 1.7349353e-42)
(0.00035956188 1.47735e-06 -1.9833282e-24 0.00041686451 -3.3379888e-24 8.6858639e-44)
(0.00028632378 -1.5624059e-05 9.4127451e-25 0.0003069235 8.8186437e-25 3.8122586e-44)
(0.00023769703 -2.5382385e-05 1.6101964e-24 0.00022024947 -1.6044043e-23 1.6959694e-42)
(0.00020325434 -2.8105522e-05 0 0.0001517118 0 0)
(0.00017784549 -2.6263661e-05 1.0607379e-24 9.948027e-05 -2.0543904e-24 5.1836929e-44)
(0.00015734231 -2.133457e-05 3.3393228e-25 6.0336149e-05 -4.5257533e-25 4.3123105e-45)
(0.00014150232 -1.6022242e-05 -6.5689285e-25 3.3725963e-05 6.2747376e-25 1.5545037e-44)
(0.00012843602 -9.9134979e-06 -6.4837386e-26 1.518664e-05 -1.3140978e-26 4.9421763e-45)
(0.00012091886 -6.2894661e-06 -6.191707e-24 5.5599402e-06 2.3474611e-24 1.6409976e-42)
(0.00011527664 -7.0694407e-07 -2.9738473e-24 3.5281829e-07 2.5804068e-25 4.0562453e-43)
(0.01030045 -0.0016363054 6.0468203e-22 0.0068422694 2.6779679e-22 1.1777878e-40)
(0.0090170148 -0.0030066673 -6.5068647e-22 0.010596043 1.5258502e-23 1.1624228e-40)
(0.0073719752 -0.0026167306 -3.1644763e-22 0.010962701 2.7877997e-23 3.191195e-41)
(0.0061695498 -0.0020669123 -2.0142908e-22 0.011083452 -3.9252323e-23 1.6244878e-41)
(0.0051365742 -0.0016946913 -1.130801e-21 0.010653438 -3.2802399e-22 6.7701637e-40)
(0.0038277976 -0.0014598119 -1.1721158e-22 0.0097148243 2.4913446e-22 1.2908293e-41)
(0.0029536873 -0.0012437552 -2.494522e-23 0.0085080773 1.4679565e-22 2.941419e-42)
(0.0027809954 -0.0009518052 -4.0000959e-23 0.0071159087 -1.8709458e-23 1.1932292e-42)
(0.0027809853 -0.00066781234 -5.2773714e-22 0.0055674764 -9.2561318e-23 1.51624e-40)
(0.0026776529 -0.0004677214 -3.4040331e-23 0.0040310884 1.7160347e-22 8.7354876e-42)
(0.0023312396 -0.00023963362 -1.8902324e-22 0.0027424134 -5.5216552e-23 1.9771099e-41)
(0.0017624271 3.1866651e-05 3.1547699e-23 0.0019284226 -4.2507273e-24 6.6875659e-43)
(0.001231665 9.3366299e-05 6.8006547e-23 0.0013642265 -1.943351e-24 4.7628241e-42)
(0.00084512328 6.468895e-05 -3.3999176e-24 0.00098239567 -1.2182146e-23 1.8989365e-43)
(0.00060082802 3.2407852e-05 1.0909718e-23 0.00072602566 -2.8031331e-24 4.9583179e-43)
(0.00044635247 3.182052e-06 7.2757302e-25 0.00054323981 4.0939941e-23 3.581623e-42)
(0.00034772246 -1.8661181e-05 -1.098968e-23 0.000404615 4.6350611e-23 6.9995686e-42)
(0.00028381991 -3.2335007e-05 -1.1991164e-24 0.00029620294 2.7242328e-23 3.693833e-42)
(0.00024012718 -3.7399245e-05 -7.2985617e-24 0.00021041838 3.2833672e-23 7.365421e-42)
(0.000208392 -3.6264728e-05 -2.3829391e-25 0.00014334472 3.750401e-25 1.4711243e-45)
(0.00018339552 -3.0976934e-05 1.3079694e-23 9.2924239e-05 -2.1308054e-23 6.7719258e-42)
(0.00016258762 -2.3753633e-05 2.2916715e-24 5.5746217e-05 -3.0076096e-24 3.4076672e-43)