# Force coefficients
# liftDir      : (0.00000000e+00 1.00000000e+00 0.00000000e+00)
# dragDir      : (1.00000000e+00 0.00000000e+00 0.00000000e+00)
# pitchAxis    : (0.00000000e+00 0.00000000e+00 1.00000000e+00)
# magUInf      : 1.00000000e+00
# lRef         : 1.00000000e+00
# Aref         : 2.00000000e+00
# CofR         : (0.00000000e+00 0.00000000e+00 0.00000000e+00)
# Time         	Cm             	Cd             	Cl             	Cl(f)          	Cl(r)          
1              	4.26144459e-08	4.48823034e+01	1.53235101e-05	7.70436952e-06	7.61914063e-06
2              	2.37507554e-08	3.15283200e+01	-2.89610601e-06	-1.42430225e-06	-1.47180376e-06
3              	-3.38191162e-08	-1.05012811e+00	-2.33654184e-05	-1.17165283e-05	-1.16488901e-05
4              	-5.48826815e-08	-1.78525400e+01	-1.24435532e-05	-6.27665930e-06	-6.16689393e-06
5              	-2.67440949e-08	-9.89111207e+00	1.49902154e-05	7.46836361e-06	7.52185180e-06
6              	1.05720206e-08	6.59399314e+00	2.30051274e-05	1.15131357e-05	1.14919917e-05
7              	1.39803658e-08	1.34851837e+01	2.82826946e-06	1.42811510e-06	1.40015437e-06
8              	-2.13457656e-08	7.72146979e+00	-1.59081488e-05	-7.97542017e-06	-7.93272864e-06
9              	-4.86018544e-08	-1.15841414e+00	-1.50397615e-05	-7.56848258e-06	-7.47127887e-06
10             	-4.81789394e-08	-4.09786338e+00	2.14111423e-06	1.02237817e-06	1.11873605e-06
11             	-1.75449114e-08	-5.59473643e-01	1.24862189e-05	6.22556455e-06	6.26065437e-06
12             	6.24160771e-09	3.98336193e+00	8.49331919e-06	4.25290120e-06	4.24041799e-06
13             	3.16557897e-09	5.06297695e+00	-3.30460951e-06	-1.64913918e-06	-1.65547034e-06
14             	-1.68483565e-08	2.87641385e+00	-8.68638811e-06	-4.36004241e-06	-4.32634570e-06
15             	-3.10580180e-08	4.88181723e-01	-4.35771833e-06	-2.20991718e-06	-2.14780115e-06
16             	-2.89893033e-08	8.71919619e-02	2.50806829e-06	1.22504484e-06	1.28302345e-06
17             	-1.43915915e-08	1.33586996e+00	5.76039284e-06	2.86580483e-06	2.89458801e-06
18             	-1.17669781e-09	2.54705219e+00	2.44272563e-06	1.22018612e-06	1.22253951e-06
19             	-1.48607743e-09	2.64907761e+00	-1.70132510e-06	-8.52148628e-07	-8.49176474e-07
20             	-1.02352603e-08	1.92359827e+00	-3.52078731e-06	-1.77062892e-06	-1.75015840e-06
21             	-1.81437747e-08	1.29028604e+00	-1.22087586e-06	-6.28581705e-07	-5.92294155e-07
22             	-1.78527741e-08	1.27472881e+00	1.22293052e-06	5.93612488e-07	6.29318036e-07
23             	-1.13012690e-08	1.67945203e+00	2.20285133e-06	1.09012440e-06	1.11272693e-06
24             	-5.05070989e-09	2.00421569e+00	8.54510155e-07	4.22204368e-07	4.32305788e-07
25             	-4.73642504e-09	1.98865634e+00	-5.30940244e-07	-2.70206547e-07	-2.60733697e-07
26             	-8.75193572e-09	1.75976797e+00	-1.25239289e-06	-6.34948380e-07	-6.17444509e-07
27             	-1.28099725e-08	1.58980241e+00	-6.33418794e-07	-3.29519369e-07	-3.03899424e-07
28             	-1.38316875e-08	1.60867933e+00	4.56465328e-07	2.14400977e-07	2.42064352e-07
29             	-1.08952128e-08	1.73756202e+00	9.82453967e-07	4.80331771e-07	5.02122196e-07
30             	-7.55679236e-09	1.82722760e+00	6.32475494e-07	3.08680955e-07	3.23794539e-07
31             	-6.54412825e-09	1.81203853e+00	-5.66026835e-10	-6.82714167e-09	6.26111484e-09
32             	-8.08323981e-09	1.73985631e+00	-4.29456465e-07	-2.22811473e-07	-2.06644993e-07
33             	-1.01870116e-08	1.69289081e+00	-2.56487677e-07	-1.38430850e-07	-1.18056827e-07
34             	-1.09630225e-08	1.70437640e+00	1.59534294e-07	6.88041248e-08	9.07301697e-08
35             	-1.01140334e-08	1.74533166e+00	4.76937749e-07	2.28354841e-07	2.48582908e-07
36             	-8.70173596e-09	1.77010657e+00	4.14207287e-07	1.98401908e-07	2.15805380e-07
37             	-8.09217272e-09	1.76185236e+00	1.16513809e-07	5.01647317e-08	6.63490771e-08
38             	-8.65042303e-09	1.73806236e+00	-9.39593775e-08	-5.56301118e-08	-3.83292657e-08
39             	-9.53199488e-09	1.72416691e+00	-7.24125089e-08	-4.57382493e-08	-2.66742596e-08
40             	-9.91792172e-09	1.72860984e+00	1.16075844e-07	4.81200003e-08	6.79558437e-08
41             	-9.58102044e-09	1.74082623e+00	2.54019417e-07	1.17428688e-07	1.36590729e-07
42             	-8.99820892e-09	1.74664105e+00	2.61514124e-07	1.21758853e-07	1.39755271e-07
43             	-8.65162455e-09	1.74192809e+00	1.47197151e-07	6.49469510e-08	8.22502001e-08
44             	-8.70213645e-09	1.73308002e+00	5.19754691e-08	1.72855981e-08	3.46898710e-08
45             	-8.92920553e-09	1.72799677e+00	8.20293999e-08	3.20854944e-08	4.99439055e-08
46             	-8.98303182e-09	1.72864268e+00	1.53082548e-07	6.75582423e-08	8.55243060e-08
47             	-8.70940934e-09	1.73119969e+00	1.93265680e-07	8.79234308e-08	1.05342249e-07
48             	-8.29790295e-09	1.73130271e+00	1.54905767e-07	6.91549805e-08	8.57507864e-08
49             	-7.99276893e-09	1.72810347e+00	8.95375551e-08	3.67760086e-08	5.27615465e-08
50             	-7.83621752e-09	1.72389407e+00	5.46979200e-08	1.95127425e-08	3.51851775e-08
51             	-7.71592552e-09	1.72107899e+00	6.92889890e-08	2.69285690e-08	4.23604200e-08
52             	-7.48886598e-09	1.72001765e+00	1.08314390e-07	4.66683289e-08	6.16460609e-08
53             	-7.13869003e-09	1.71936455e+00	1.26686182e-07	5.62044007e-08	7.04817808e-08
54             	-6.74208132e-09	1.71783038e+00	6.18251611e-08	2.41704992e-08	3.76546619e-08
55             	-6.44614672e-09	1.71531504e+00	3.78058760e-08	1.24567913e-08	2.53490847e-08
56             	-6.27752997e-09	1.71260593e+00	5.45798547e-08	2.10123974e-08	3.35674573e-08
57             	-6.11479097e-09	1.71039733e+00	7.02839870e-08	2.90272025e-08	4.12567845e-08
58             	-5.88464032e-09	1.70871811e+00	6.91143270e-08	2.86725232e-08	4.04418038e-08
59             	-5.58773035e-09	1.70712235e+00	5.62831680e-08	2.25538536e-08	3.37293143e-08
60             	-5.31298555e-09	1.70524572e+00	4.43231865e-08	1.68486077e-08	2.74745788e-08
61             	-5.11708660e-09	1.70310968e+00	3.88844511e-08	1.43251390e-08	2.45593122e-08
62             	-4.95557412e-09	1.70097379e+00	3.82580506e-08	1.41734512e-08	2.40845994e-08
63             	-4.77530754e-09	1.69902646e+00	3.85430225e-08	1.44962037e-08	2.40468188e-08
64             	-4.57697540e-09	1.69724600e+00	3.77826208e-08	1.43143350e-08	2.34682858e-08
65             	-4.37536568e-09	1.69549879e+00	3.61420826e-08	1.36956756e-08	2.24464070e-08
66             	-4.19781627e-09	1.69369204e+00	3.26648090e-08	1.21345882e-08	2.05302208e-08
67             	-4.06861705e-09	1.69184010e+00	2.63278079e-08	9.09528692e-09	1.72325210e-08
68             	-3.96322378e-09	1.69001727e+00	1.84077295e-08	5.24064099e-09	1.31670885e-08
69             	-3.85076702e-09	1.68827531e+00	1.36267407e-08	2.96260333e-09	1.06641374e-08
70             	-3.72402705e-09	1.68660637e+00	1.40639050e-08	3.30792547e-09	1.07559796e-08
71             	-3.58868743e-09	1.68496948e+00	2.03114862e-08	6.56705568e-09	1.37444305e-08
72             	-3.47203413e-09	1.68333853e+00	2.47362415e-08	8.89608663e-09	1.58401549e-08
73             	-3.26500230e-09	1.68172037e+00	1.70915120e-08	5.28075370e-09	1.18107583e-08
74             	-3.12842527e-09	1.68013898e+00	9.41424598e-09	1.57869773e-09	7.83554826e-09
75             	-3.01358224e-09	1.67860768e+00	9.40519501e-09	1.68901527e-09	7.71617974e-09
76             	-2.89776420e-09	1.67712053e+00	1.35235838e-08	3.86402768e-09	9.65955609e-09
77             	-2.77673410e-09	1.67566443e+00	1.90473416e-08	6.74693672e-09	1.23004049e-08
78             	-2.65465314e-09	1.67423316e+00	1.08142582e-08	2.75247597e-09	8.06178225e-09
79             	-2.54888349e-09	1.67283001e+00	4.72911570e-09	-1.84325642e-10	4.91344134e-09
80             	-2.46233642e-09	1.67146213e+00	3.67311276e-09	-6.25780041e-10	4.29889280e-09
81             	-2.32870404e-09	1.67013238e+00	6.01367356e-09	6.78132741e-10	5.33554082e-09
82             	-2.12473789e-09	1.66883754e+00	7.43145613e-09	1.59099017e-09	5.84046596e-09
83             	-1.98168955e-09	1.66757295e+00	4.81312577e-09	4.24873334e-10	4.38825244e-09
84             	-1.86212448e-09	1.66633654e+00	2.45104770e-11	-1.84986924e-09	1.87437972e-09
85             	-1.75222926e-09	1.66512923e+00	-3.30148679e-09	-3.40297266e-09	1.01485867e-10
86             	-1.63858140e-09	1.66395253e+00	-3.50163832e-09	-3.38940056e-09	-1.12237764e-10
87             	-1.50885454e-09	1.66280670e+00	-2.30254792e-09	-2.66012850e-09	3.57580582e-10
88             	-1.39536200e-09	1.66169050e+00	-2.52194743e-09	-2.65633572e-09	1.34388289e-10
89             	-1.28009504e-09	1.66060231e+00	-4.57737904e-09	-3.56878456e-09	-1.00859449e-09
90             	-1.16851353e-09	1.65954146e+00	-7.04911944e-09	-4.69307325e-09	-2.35604619e-09
91             	-1.05931002e-09	1.65850735e+00	-8.52239298e-09	-5.32050651e-09	-3.20188647e-09
92             	-9.50435206e-10	1.65749957e+00	-8.90334665e-09	-5.40210853e-09	-3.50123812e-09
93             	-8.41356974e-10	1.65651771e+00	-8.25606625e-09	-4.96939010e-09	-3.28667615e-09
94             	-7.33199507e-10	1.65556128e+00	-9.15899247e-09	-5.31269574e-09	-3.84629673e-09
95             	-6.29926385e-10	1.65462959e+00	-1.10552677e-08	-6.15756023e-09	-4.89770746e-09
96             	-5.31995740e-10	1.65372192e+00	-1.25021774e-08	-6.78308446e-09	-5.71909298e-09
97             	-4.37891381e-10	1.65283772e+00	-1.28865744e-08	-6.88117861e-09	-6.00539584e-09
98             	-3.46396062e-10	1.65197646e+00	-1.26793185e-08	-6.68605529e-09	-5.99326317e-09
99             	-2.57864730e-10	1.65113759e+00	-1.27071572e-08	-6.61144332e-09	-6.09571386e-09
100            	-1.60995219e-10	1.65032064e+00	-1.35683703e-08	-6.94518037e-09	-6.62318994e-09
101            	-5.00218817e-11	1.64952507e+00	-1.23402065e-08	-6.22012512e-09	-6.12008135e-09
102            	3.11762955e-11	1.64875031e+00	-9.84303727e-09	-4.89034234e-09	-4.95269493e-09
103            	6.78526363e-11	1.64799579e+00	-9.37060510e-09	-4.61744991e-09	-4.75315519e-09
104            	8.17672758e-11	1.64726101e+00	-1.17818378e-08	-5.80915161e-09	-5.97268616e-09
105            	9.89452602e-11	1.64654548e+00	-1.43268645e-08	-7.06448701e-09	-7.26237753e-09
106            	1.29039807e-10	1.64584875e+00	-1.41277258e-08	-6.93482308e-09	-7.19290270e-09
107            	1.66168419e-10	1.64517052e+00	-1.16158240e-08	-5.64174356e-09	-5.97408039e-09
108            	2.00352660e-10	1.64451031e+00	-9.49914445e-09	-4.54921956e-09	-4.94992488e-09
109            	2.26655700e-10	1.64386751e+00	-9.50813933e-09	-4.52741397e-09	-4.98072537e-09
110            	2.46241380e-10	1.64324181e+00	-1.07097462e-08	-5.10863170e-09	-5.60111446e-09
111            	2.63039576e-10	1.64263270e+00	-1.10756551e-08	-5.27478796e-09	-5.80086711e-09
112            	2.79678559e-10	1.64203963e+00	-9.85902131e-09	-4.64983210e-09	-5.20918921e-09
113            	2.96067767e-10	1.64146230e+00	-8.00108909e-09	-3.70447678e-09	-4.29661231e-09
114            	3.10339518e-10	1.64090035e+00	-6.78709259e-09	-3.08320678e-09	-3.70388581e-09
115            	2.83337360e-10	1.64035331e+00	-2.05914851e-08	-1.00124052e-08	-1.05790799e-08
116            	2.32306546e-10	1.63982087e+00	-6.39033948e-09	-2.96286319e-09	-3.42747628e-09
117            	2.88599952e-10	1.63930262e+00	1.31652124e-08	6.87120616e-09	6.29400625e-09
118            	4.03548993e-10	1.63879814e+00	1.58598215e-08	8.33345974e-09	7.52636175e-09
119            	4.92324714e-10	1.63830711e+00	8.07229350e-09	4.52847146e-09	3.54382203e-09
120            	5.26127386e-10	1.63782915e+00	-2.71331276e-10	3.90461747e-10	-6.61793024e-10
121            	5.27392558e-10	1.63736391e+00	-2.84919770e-09	-8.97206292e-10	-1.95199141e-09
122            	5.33291028e-10	1.63691107e+00	-5.63684842e-10	2.51448607e-10	-8.15133449e-10
123            	5.58815756e-10	1.63647032e+00	2.27224418e-09	1.69493785e-09	5.77306335e-10
124            	5.92799579e-10	1.63604134e+00	2.75366515e-09	1.96963215e-09	7.84032995e-10
125            	6.17183231e-10	1.63562382e+00	9.54659964e-10	1.09451321e-09	-1.39853249e-10
126            	6.24588517e-10	1.63521746e+00	-1.36205944e-09	-5.64412026e-11	-1.30561824e-09
127            	6.20613154e-10	1.63482195e+00	-2.63258909e-09	-6.95681391e-10	-1.93690770e-09
128            	6.14861039e-10	1.63443701e+00	-2.43830830e-09	-6.04293113e-10	-1.83401519e-09
129            	6.27159018e-10	1.63406240e+00	-9.82634081e-09	-4.28601139e-09	-5.54032942e-09
130            	6.18209098e-10	1.63369782e+00	-1.49519322e-08	-6.85775701e-09	-8.09417521e-09
131            	5.92700790e-10	1.63334302e+00	-1.36269525e-08	-6.22077548e-09	-7.40617706e-09
132            	5.61201253e-10	1.63299773e+00	-8.73477379e-09	-3.80618564e-09	-4.92858815e-09
133            	5.28834082e-10	1.63266171e+00	-4.26895463e-09	-1.60564323e-09	-2.66331140e-09
134            	5.04651249e-10	1.63233473e+00	-3.66424719e-09	-1.32747234e-09	-2.33677484e-09
135            	4.93096768e-10	1.63201656e+00	5.86589282e-09	3.42604318e-09	2.43984964e-09
136            	4.79869369e-10	1.63170683e+00	9.99470444e-10	9.79604591e-10	1.98658529e-11
137            	4.15648477e-10	1.63140541e+00	-5.22588807e-09	-2.19729556e-09	-3.02859251e-09
138            	3.16069587e-10	1.63111217e+00	-6.18726926e-09	-2.77756504e-09	-3.40970422e-09
139            	2.09834436e-10	1.63082689e+00	-2.05957194e-09	-8.19951535e-10	-1.23962041e-09
140            	1.17883691e-10	1.63054932e+00	3.40795352e-09	1.82186045e-09	1.58609307e-09
141            	4.03926156e-11	1.63027917e+00	2.22533442e-09	1.15305982e-09	1.07227459e-09
142            	-3.76081970e-11	1.63001630e+00	3.51238680e-09	1.71858520e-09	1.79380160e-09
143            	-1.18527676e-10	1.62976054e+00	6.55908587e-09	3.16101526e-09	3.39807061e-09
144            	-2.03031199e-10	1.62951170e+00	8.01515310e-09	3.80454535e-09	4.21060775e-09
145            	-2.89080730e-10	1.62926956e+00	7.48247635e-09	3.45215745e-09	4.03031891e-09
146            	-3.73762898e-10	1.62903394e+00	6.33596978e-09	2.79422199e-09	3.54174779e-09
147            	-4.56227285e-10	1.62880467e+00	6.53015592e-09	2.80885068e-09	3.72130525e-09
148            	-5.36224202e-10	1.62858158e+00	7.71100431e-09	3.31927795e-09	4.39172635e-09
149            	-6.14457754e-10	1.62836451e+00	8.62639555e-09	3.69874002e-09	4.92765553e-09
150            	-6.91037156e-10	1.62815329e+00	8.54427782e-09	3.58110175e-09	4.96317607e-09
151            	-7.65236208e-10	1.62794776e+00	7.81903199e-09	3.14427979e-09	4.67475220e-09
152            	-8.35209172e-10	1.62774778e+00	7.38148371e-09	2.85553268e-09	4.52595103e-09
153            	-9.05217367e-10	1.62755319e+00	7.35063097e-09	2.77009812e-09	4.58053285e-09
154            	-9.86265996e-10	1.62736389e+00	-4.54013497e-09	-3.25633348e-09	-1.28380149e-09
155            	-1.09830714e-09	1.62717969e+00	-2.71367828e-10	-1.23399106e-09	9.62623229e-10
156            	-1.15311270e-09	1.62700045e+00	9.73803933e-09	3.71590696e-09	6.02213236e-09
157            	-1.15277338e-09	1.62682604e+00	1.52025832e-08	6.44851821e-09	8.75406497e-09
158            	-1.14043099e-09	1.62665634e+00	1.38502844e-08	5.78471119e-09	8.06557318e-09
159            	-1.14872166e-09	1.62649122e+00	9.28796952e-09	3.49526310e-09	5.79270642e-09
160            	-1.17720566e-09	1.62633055e+00	5.70891398e-09	1.67725133e-09	4.03166265e-09
161            	-1.20542323e-09	1.62617421e+00	4.92057658e-09	1.25486506e-09	3.66571152e-09
162            	-1.21700282e-09	1.62602209e+00	6.28785324e-09	1.92692380e-09	4.36092944e-09
163            	-1.21626706e-09	1.62587406e+00	-1.71510188e-09	-2.07381800e-09	3.58716116e-10
164            	-1.21559835e-09	1.62573005e+00	1.20671024e-09	-6.12243232e-10	1.81895347e-09
165            	-1.20312392e-09	1.62558995e+00	8.45545193e-09	3.02460204e-09	5.43084989e-09
166            	-1.18365348e-09	1.62545361e+00	1.10527480e-08	4.34272053e-09	6.71002748e-09
167            	-1.16507334e-09	1.62532094e+00	7.38197923e-09	2.52591627e-09	4.85606296e-09
168            	-1.14990176e-09	1.62519185e+00	2.57051049e-09	1.35353486e-10	2.43515700e-09
169            	-1.13423211e-09	1.62506626e+00	1.34608347e-09	-4.61190373e-10	1.80727384e-09
170            	-1.11339079e-09	1.62494406e+00	3.47251999e-09	6.22869209e-10	2.84965078e-09
171            	-1.40666115e-09	1.62482519e+00	-1.29989421e-08	-7.90613221e-09	-5.09280991e-09
172            	-1.70098142e-09	1.62470952e+00	-2.69473398e-08	-1.51746513e-08	-1.17726885e-08
173            	-1.96438958e-09	1.62459696e+00	-2.59486416e-08	-1.49387104e-08	-1.10099312e-08
174            	-2.18286823e-09	1.62448743e+00	-1.53590698e-08	-9.86240313e-09	-5.49666667e-09
175            	-2.37018350e-09	1.62438087e+00	-7.22734085e-09	-5.98385392e-09	-1.24348693e-09
176            	-2.54970792e-09	1.62427720e+00	-7.19923280e-09	-6.14932432e-09	-1.04990848e-09
177            	-2.73358967e-09	1.62417634e+00	-1.16630310e-08	-8.56510516e-09	-3.09792583e-09
178            	-2.91706423e-09	1.62407819e+00	-1.41850438e-08	-1.00095861e-08	-4.17545767e-09
179            	-3.08827975e-09	1.62398270e+00	-1.21909797e-08	-9.18376957e-09	-3.00721008e-09
180            	-3.24083217e-09	1.62388979e+00	-7.93204447e-09	-7.20685441e-09	-7.25190060e-10
181            	-3.37783017e-09	1.62379938e+00	-4.85330628e-09	-5.80448331e-09	9.51177027e-10
182            	-3.50689659e-09	1.62371143e+00	-4.39703285e-09	-5.70541301e-09	1.30838016e-09
183            	-3.63270433e-09	1.62362585e+00	-4.78385850e-09	-6.02463358e-09	1.24077508e-09
184            	-3.73442018e-09	1.62354261e+00	2.06012627e-08	6.56621118e-09	1.40350515e-08
185            	-3.80537853e-09	1.62346159e+00	1.53607679e-08	3.87500543e-09	1.14857625e-08
186            	-3.94313239e-09	1.62338272e+00	-2.53687564e-10	-4.06997618e-09	3.81628861e-09
187            	-4.10180580e-09	1.62330600e+00	-7.52073666e-09	-7.86217414e-09	3.41437471e-10
188            	-4.23972954e-09	1.62323135e+00	-1.74484765e-08	-1.29639678e-08	-4.48450872e-09
189            	-4.34193049e-09	1.62315877e+00	-3.97741161e-09	-6.33063629e-09	2.35322468e-09
190            	-4.39658414e-09	1.62308816e+00	1.32258303e-08	2.21633099e-09	1.10094993e-08
191            	-4.43359558e-09	1.62301942e+00	1.71980060e-08	4.16540742e-09	1.30325986e-08
192            	-4.47980792e-09	1.62295250e+00	8.58735456e-09	-1.86130642e-10	8.77348520e-09
193            	-4.53777671e-09	1.62288740e+00	-4.58378597e-10	-4.76696601e-09	4.30858741e-09
194            	-4.59160384e-09	1.62282408e+00	-1.27690804e-09	-5.23005786e-09	3.95314982e-09
195            	-4.62676816e-09	1.62276248e+00	4.40877734e-09	-2.42237949e-09	6.83115682e-09
196            	-4.64271974e-09	1.62270253e+00	9.41619356e-09	6.53770377e-11	9.35081653e-09
197            	-4.64929014e-09	1.62264419e+00	9.48855551e-09	9.49876120e-11	9.39356790e-09
198            	-4.65508968e-09	1.62258741e+00	6.31086727e-09	-1.49965604e-09	7.81052332e-09
199            	-4.66074548e-09	1.62253218e+00	4.02630992e-09	-2.64759053e-09	6.67390044e-09
200            	-4.66126801e-09	1.62247844e+00	4.61291407e-09	-2.35481097e-09	6.96772504e-09
201            	-4.65251286e-09	1.62242615e+00	6.77471349e-09	-1.26515611e-09	8.03986960e-09
202            	-4.63489575e-09	1.62237526e+00	7.88565023e-09	-6.92070632e-10	8.57772087e-09
203            	-4.61171199e-09	1.62232574e+00	7.84414344e-09	-6.89640267e-10	8.53378371e-09
204            	-4.58453108e-09	1.62227756e+00	7.30890530e-09	-9.30078432e-10	8.23898373e-09
205            	-4.55476332e-09	1.62223068e+00	7.14736937e-09	-9.81078635e-10	8.12844801e-09
206            	-4.52203490e-09	1.62218506e+00	7.59277583e-09	-7.25646981e-10	8.31842281e-09
207            	-4.48541818e-09	1.62214067e+00	8.26089149e-09	-3.54972436e-10	8.61586393e-09
208            	-4.44464989e-09	1.62209747e+00	8.71682927e-09	-8.62352522e-11	8.80306453e-09
209            	-4.40038349e-09	1.62205544e+00	8.86885171e-09	3.40423684e-11	8.83480934e-09
210            	-4.36105284e-09	1.62201451e+00	-5.71550573e-09	-7.21880571e-09	1.50329998e-09
211            	-4.32417409e-09	1.62197473e+00	1.18806184e-08	1.61613511e-09	1.02644833e-08
212            	-4.26443794e-09	1.62193599e+00	6.91389540e-09	-8.07490239e-10	7.72138564e-09
213            	-4.21282611e-09	1.62189830e+00	5.63747116e-09	-1.39409053e-09	7.03156169e-09
214            	-4.15726700e-09	1.62186163e+00	8.40224049e-09	4.38532384e-11	8.35838725e-09
215            	-4.09653967e-09	1.62182595e+00	1.15081463e-08	1.65753349e-09	9.85061283e-09
216            	-4.03372825e-09	1.62179122e+00	1.21215183e-08	2.02703088e-09	1.00944874e-08
217            	-3.97236445e-09	1.62175742e+00	1.07105769e-08	1.38292402e-09	9.32765291e-09
218            	-3.91321192e-09	1.62172453e+00	9.50674148e-09	8.40158820e-10	8.66658266e-09
219            	-3.85453640e-09	1.62169252e+00	9.79481183e-09	1.04286952e-09	8.75194231e-09
220            	-3.79459767e-09	1.62166138e+00	1.10074738e-08	1.70913924e-09	9.29833458e-09
221            	-3.73338996e-09	1.62163108e+00	1.18809707e-08	2.20709539e-09	9.67387531e-09
222            	-3.67223668e-09	1.62160158e+00	1.18840126e-08	2.26976963e-09	9.61424299e-09
223            	-3.61227004e-09	1.62157288e+00	1.14746527e-08	2.12505631e-09	9.34959639e-09
224            	-3.55353780e-09	1.62154495e+00	1.13360682e-08	2.11449628e-09	9.22157188e-09
225            	-3.49536932e-09	1.62151777e+00	1.16562606e-08	2.33276097e-09	9.32349961e-09
226            	-3.43727185e-09	1.62149132e+00	1.21160325e-08	2.62074439e-09	9.49528809e-09
227            	-3.37936758e-09	1.62146558e+00	1.23585985e-08	2.79993169e-09	9.55866684e-09
228            	-3.32211792e-09	1.62144053e+00	1.23370789e-08	2.84642150e-09	9.49065735e-09
229            	-3.26581467e-09	1.62141616e+00	1.22543679e-08	2.86136930e-09	9.39299864e-09
230            	-3.21046135e-09	1.62139243e+00	1.19372391e-08	2.75815819e-09	9.17908089e-09
231            	-3.15575418e-09	1.62136934e+00	1.22146010e-08	2.95154631e-09	9.26305467e-09
232            	-3.10025619e-09	1.62134688e+00	1.27263376e-08	3.26291261e-09	9.46342498e-09
233            	-3.04516470e-09	1.62132502e+00	1.29377927e-08	3.42373167e-09	9.51406107e-09
234            	-2.99781699e-09	1.62130374e+00	7.07666034e-10	-2.64398397e-09	3.35165001e-09
235            	-2.96207300e-09	1.62128303e+00	3.07811426e-09	-1.42301587e-09	4.50113013e-09
236            	-2.91281566e-09	1.62126288e+00	1.30863854e-08	3.63037705e-09	9.45600837e-09
237            	-2.84906893e-09	1.62124328e+00	1.89229720e-08	6.61241708e-09	1.23105549e-08
238            	-2.78369831e-09	1.62122420e+00	1.65626618e-08	5.49763257e-09	1.10650292e-08
239            	-2.72750074e-09	1.62120561e+00	1.03242522e-08	2.43462535e-09	7.88962684e-09
240            	-2.68005466e-09	1.62118754e+00	7.86140233e-09	1.25064651e-09	6.61075582e-09
241            	-2.63189611e-09	1.62116996e+00	1.01717180e-08	2.45396292e-09	7.71775513e-09
242            	-2.57936754e-09	1.62115284e+00	1.33680717e-08	4.10466829e-09	9.26340337e-09
243            	-2.52451570e-09	1.62113619e+00	1.40059021e-08	4.47843535e-09	9.52746675e-09
244            	-2.47136140e-09	1.62111997e+00	1.22041692e-08	3.63072322e-09	8.57344602e-09
245            	-2.42152862e-09	1.62110419e+00	1.03383698e-08	2.74765627e-09	7.59071350e-09
246            	-2.37349494e-09	1.62108884e+00	1.00386280e-08	2.64581907e-09	7.39280895e-09
247            	-2.32499697e-09	1.62107390e+00	1.09018260e-08	3.12591604e-09	7.77590997e-09
248            	-2.27534893e-09	1.62105936e+00	1.15559573e-08	3.50262975e-09	8.05332760e-09
249            	-2.22555906e-09	1.62104521e+00	1.12788505e-08	3.41386617e-09	7.86498430e-09
250            	-2.17686846e-09	1.62103143e+00	1.04572727e-08	3.05176788e-09	7.40550480e-09
251            	-2.12947831e-09	1.62101803e+00	9.86236895e-09	2.80170616e-09	7.06066278e-09
252            	-2.08275636e-09	1.62100499e+00	9.78175218e-09	2.80811973e-09	6.97363245e-09
253            	-2.03609693e-09	1.62099229e+00	9.91425727e-09	2.92103171e-09	6.99322556e-09
254            	-1.98948974e-09	1.62097994e+00	9.85519973e-09	2.93811013e-09	6.91708961e-09
255            	-1.94334912e-09	1.62096792e+00	9.51326923e-09	2.81328549e-09	6.69998373e-09
256            	-1.89800868e-09	1.62095622e+00	9.09101781e-09	2.64750022e-09	6.44351759e-09
257            	-1.85329709e-09	1.62094483e+00	8.71403483e-09	2.50372033e-09	6.21031451e-09
258            	-1.80890891e-09	1.62093375e+00	8.64586498e-09	2.51402358e-09	6.13184140e-09
259            	-1.76815379e-09	1.62092297e+00	4.87163763e-10	-1.52457191e-09	2.01173567e-09
260            	-1.73554802e-09	1.62091247e+00	2.09933161e-09	-6.85882218e-10	2.78521383e-09
261            	-1.69427491e-09	1.62090226e+00	8.58506438e-09	2.59825728e-09	5.98680710e-09
262            	-1.64477977e-09	1.62089231e+00	1.21453276e-08	4.42788402e-09	7.71744356e-09
263            	-1.59532106e-09	1.62088264e+00	1.02753007e-08	3.54232930e-09	6.73297143e-09
264            	-1.55210768e-09	1.62087323e+00	6.30408293e-09	1.59993378e-09	4.70414915e-09
265            	-1.51445016e-09	1.62086407e+00	4.36544009e-09	6.68269879e-10	3.69717021e-09
266            	-1.48300535e-09	1.62085515e+00	1.06455860e-08	3.83978763e-09	6.80579833e-09
267            	-1.43749893e-09	1.62084646e+00	1.59242027e-08	6.52460244e-09	9.39960029e-09
268            	-1.38092947e-09	1.62083801e+00	1.60124801e-08	6.62531060e-09	9.38716954e-09
269            	-1.32395797e-09	1.62082980e+00	1.11848888e-08	4.26848643e-09	6.91640237e-09
270            	-1.27437414e-09	1.62082181e+00	6.52145695e-09	1.98635433e-09	4.53510261e-09
271            	-1.23323443e-09	1.62081403e+00	4.97820644e-09	1.25586879e-09	3.72233765e-09
272            	-1.19491319e-09	1.62080645e+00	5.70113651e-09	1.65565507e-09	4.04548144e-09
273            	-1.15422123e-09	1.62079907e+00	6.26556212e-09	1.97855983e-09	4.28700230e-09
274            	-1.11063850e-09	1.62079190e+00	5.37361794e-09	1.57617047e-09	3.79744746e-09
275            	-1.06718811e-09	1.62078492e+00	3.52209399e-09	6.93858880e-10	2.82823511e-09
276            	-1.02676502e-09	1.62077813e+00	1.87892460e-09	-8.73027171e-11	1.96622731e-09
277            	-9.89838413e-10	1.62077151e+00	1.04021475e-09	-4.69731037e-10	1.50994579e-09
278            	-9.54923616e-10	1.62076508e+00	7.67933358e-10	-5.70956937e-10	1.33889030e-09
279            	-9.20506398e-10	1.62075881e+00	4.84499628e-10	-6.78256584e-10	1.16275621e-09
280            	-8.86304966e-10	1.62075271e+00	-4.22024542e-11	-9.07406193e-10	8.65203739e-10
281            	-8.52972671e-10	1.62074678e+00	-6.25631042e-10	-1.16578819e-09	5.40157150e-10
282            	-8.21147899e-10	1.62074101e+00	-1.02854344e-09	-1.33541962e-09	3.06876176e-10
283            	-7.90924650e-10	1.62073539e+00	-1.21185615e-09	-1.39685273e-09	1.84996574e-10
284            	-8.85289865e-10	1.62072995e+00	-1.43172897e-08	-8.04393473e-09	-6.27335500e-09
285            	-9.81856755e-10	1.62072465e+00	-2.34901891e-08	-1.27269513e-08	-1.07632378e-08
286            	-1.05955276e-09	1.62071947e+00	-2.10868154e-08	-1.16029605e-08	-9.48385495e-09
287            	-1.11130845e-09	1.62071442e+00	-1.26029719e-08	-7.41279440e-09	-5.19017751e-09
288            	-1.15033664e-09	1.62070950e+00	-7.31382245e-09	-4.80724786e-09	-2.50657459e-09
289            	-1.19293620e-09	1.62070473e+00	-8.40348222e-09	-5.39467731e-09	-3.00880491e-09
290            	-1.24440986e-09	1.62070009e+00	-1.20560183e-08	-7.27241901e-09	-4.78359930e-09
291            	-1.29828480e-09	1.62069557e+00	-1.33243991e-08	-7.96048437e-09	-5.36391477e-09
292            	-1.34563950e-09	1.62069117e+00	-1.10635601e-08	-6.87741958e-09	-4.18614057e-09
293            	-1.38358008e-09	1.62068689e+00	-7.71414511e-09	-5.24065264e-09	-2.47349247e-09
294            	-1.41593884e-09	1.62068272e+00	-5.88998996e-09	-4.36093382e-09	-1.52905614e-09
295            	-1.44800661e-09	1.62067866e+00	-5.96700151e-09	-4.43150737e-09	-1.53549415e-09
296            	-1.48164273e-09	1.62067472e+00	-6.51398155e-09	-4.73863351e-09	-1.77534804e-09
297            	-1.51481475e-09	1.62067087e+00	-6.19966729e-09	-4.61464839e-09	-1.58501889e-09
298            	-1.54572259e-09	1.62066713e+00	-6.88878750e-09	-4.99011634e-09	-1.89867116e-09
299            	-1.57392113e-09	1.62066349e+00	-5.02316092e-09	-4.08550159e-09	-9.37659332e-10
300            	-1.59527998e-09	1.62065996e+00	-2.55429481e-09	-2.87242738e-09	3.18132574e-10
