/*--------------------------------*- C++ -*----------------------------------*\
| =========                 |                                                 |
| \\      /  F ield         | OpenFOAM: The Open Source CFD Toolbox           |
|  \\    /   O peration     | Version:  5.0                                   |
|   \\  /    A nd           | Web:      www.OpenFOAM.org                      |
|    \\/     M anipulation  |                                                 |
\*---------------------------------------------------------------------------*/
FoamFile
{
    version     2.0;
    format      ascii;
    class       volScalarField;
    location    "45";
    object      p;
}
// * * * * * * * * * * * * * * * * * * * * * * * * * * * * * * * * * * * * * //

dimensions      [0 2 -2 0 0 0 0];

internalField   nonuniform List<scalar> 
9200
(
-0.00051821798
-0.00051310046
-0.0010771244
-0.00050953269
-0.0010752804
-0.0018483135
-0.00050573616
-0.0010676353
-0.0018420293
-0.0025094821
-0.00050025782
-0.0010568251
-0.0018295754
-0.0025029332
-0.003196461
-0.00049370796
-0.0010409624
-0.0018122312
-0.0024872403
-0.0031891404
-0.0038425168
-0.00048531261
-0.0010219569
-0.0017869521
-0.0024655378
-0.0031708183
-0.0038363075
-0.0044740997
-0.00047549005
-0.00099867054
-0.0017562936
-0.0024331778
-0.0031459645
-0.0038170504
-0.004469885
-0.0050777198
-0.00046412477
-0.00097215421
-0.0017186317
-0.0023935993
-0.0031078359
-0.0037915596
-0.0044510553
-0.0050770602
-0.005659164
-0.00045147727
-0.00094243222
-0.0016753814
-0.0023445559
-0.0030607098
-0.0037504218
-0.0044270666
-0.0050605109
-0.0056633924
-0.0062141194
-0.00043768191
-0.00091019014
-0.0016266611
-0.0022878375
-0.003001537
-0.0036988431
-0.0043852743
-0.0050409058
-0.0056510034
-0.0062248172
-0.0067437026
-0.00042288193
-0.00087590324
-0.0015735025
-0.002223588
-0.00293243
-0.0036327442
-0.0043318289
-0.0050016887
-0.0056384756
-0.0062186095
-0.006762416
-0.0072459068
-0.00040704919
-0.00084013496
-0.0015167117
-0.0021531661
-0.0028535056
-0.0035545102
-0.004261409
-0.0049499486
-0.0056049137
-0.006216177
-0.0067647332
-0.0072741978
-0.0077206656
-0.00038985775
-0.00080337962
-0.0014572117
-0.0020776946
-0.0027664486
-0.0034641057
-0.0041766009
-0.0048788396
-0.0055583301
-0.0061918544
-0.0067758136
-0.0072870681
-0.0077601278
-0.0081666641
-0.00037048568
-0.00076614513
-0.0013957615
-0.0019985196
-0.0026727154
-0.0033634588
-0.0040770994
-0.0047910121
-0.0054901453
-0.0061543598
-0.006764365
-0.0073147825
-0.0077858853
-0.0082188462
-0.008583296
-0.00034744541
-0.00072903082
-0.0013328977
-0.0019168698
-0.0025741052
-0.0032542667
-0.0039650146
-0.0046856406
-0.0054030115
-0.0060930019
-0.0067400958
-0.0073199189
-0.0078338286
-0.0082596202
-0.0086497423
-0.0089696352
-0.00031853324
-0.00069286719
-0.0012688266
-0.0018338358
-0.0024723162
-0.0031387189
-0.0038422058
-0.0045647868
-0.0052953772
-0.0060102138
-0.0066900419
-0.0073130728
-0.0078596304
-0.0083308806
-0.0087078494
-0.0090518291
-0.0093249793
-0.00028103689
-0.00065881866
-0.0012033808
-0.0017502962
-0.0023688688
-0.0030189736
-0.0037111526
-0.0044303467
-0.0051690881
-0.0059036881
-0.006616139
-0.0072784967
-0.0078747657
-0.0083811237
-0.0088059692
-0.0091294825
-0.0094243498
-0.0096485615
-0.00023225515
-0.00062840977
-0.0011360676
-0.0016669322
-0.0022649225
-0.0028970775
-0.0035744509
-0.0042851035
-0.0050258897
-0.0057750916
-0.0065150786
-0.0072177887
-0.0078605086
-0.0084226924
-0.0088850242
-0.0092576862
-0.0095237782
-0.0097664489
-0.0099396757
-0.00017020019
-0.00060334865
-0.0010662196
-0.0015842899
-0.0021611984
-0.0027747452
-0.0034346948
-0.0041320773
-0.0048687383
-0.0056259216
-0.0063882083
-0.0071264912
-0.0078178388
-0.0084335284
-0.0089578085
-0.009369459
-0.0096854565
-0.0098897968
-0.010077313
-0.010197658
-9.403876e-05
-0.00058499729
-0.00099321502
-0.0015028724
-0.0020579983
-0.0026532361
-0.003294169
-0.0039744509
-0.0047009693
-0.0054590938
-0.0062366601
-0.0070054678
-0.0077410412
-0.008413843
-0.0089988266
-0.0094781886
-0.0098343604
-0.01008815
-0.010226645
-0.010356136
-0.010421955
-3.8150548e-06
-0.00057340063
-0.00091669548
-0.0014232175
-0.0019553354
-0.0025333027
-0.0031546375
-0.0038152203
-0.0045262789
-0.0052780921
-0.0060631943
-0.0068553492
-0.0076304102
-0.0083564389
-0.0090074015
-0.0095547316
-0.0099841403
-0.010278266
-0.010464832
-0.010533368
-0.010602193
-0.010612196
9.9881988e-05
-0.00056636513
-0.00083710253
-0.0013459133
-0.0018531111
-0.002415262
-0.0030172109
-0.0036569138
-0.0043483589
-0.0050870025
-0.0058712791
-0.0066786189
-0.0074859839
-0.008260928
-0.0089746313
-0.0095971383
-0.010101796
-0.010474166
-0.01070046
-0.010814325
-0.010809038
-0.010814904
-0.010768254
0.00021424334
-0.00056005487
-0.00075721004
-0.0012715938
-0.0017513346
-0.002299144
-0.0028823545
-0.003501342
-0.0041705675
-0.0048901466
-0.0056652153
-0.0064785731
-0.0073098872
-0.0081266765
-0.0088992882
-0.009594578
-0.010184012
-0.01063884
-0.010947786
-0.011099488
-0.011135449
-0.011052798
-0.010993907
-0.010890294
0.00033407315
-0.00055490793
-0.00068289996
-0.0012009577
-0.0016503817
-0.0021849454
-0.0027500517
-0.0033494823
-0.0039955816
-0.0046917381
-0.0054498048
-0.0062595319
-0.0071051337
-0.0079554044
-0.0087799734
-0.0095447945
-0.010217742
-0.010767274
-0.011165577
-0.011403334
-0.011474006
-0.011426937
-0.011263933
-0.011139113
-0.010978747
0.00045415934
-0.00055786183
-0.00061620178
-0.001134862
-0.0015514963
-0.0020729368
-0.0026200203
-0.0032015472
-0.0038251429
-0.0044954605
-0.00523004
-0.0060265575
-0.0068758985
-0.0077497867
-0.0086179737
-0.0094454843
-0.010199437
-0.01084395
-0.011347066
-0.011680491
-0.011839369
-0.011822292
-0.011687592
-0.011441951
-0.011250707
-0.011034193
0.00057037078
-0.00057228548
-0.00055243174
-0.0010744135
-0.0014570108
-0.0019634975
-0.0024919883
-0.0030572358
-0.0036599731
-0.0043040867
-0.0050106524
-0.0057852211
-0.0066272755
-0.0075137524
-0.0084156307
-0.0092974485
-0.01012568
-0.01086373
-0.011473999
-0.011922225
-0.012182074
-0.012253695
-0.012142623
-0.01191636
-0.011586648
-0.011329109
-0.011057095
0.00067889566
-0.00059595561
-0.00048945238
-0.0010211224
-0.0013681188
-0.0018564922
-0.0023661437
-0.0029160815
-0.0034999113
-0.004119233
-0.0047956238
-0.0055411891
-0.0063651469
-0.0072522406
-0.0081766182
-0.009102721
-0.0099966722
-0.010821792
-0.011539307
-0.01210734
-0.012491425
-0.012667901
-0.012644101
-0.012433266
-0.012112518
-0.01169815
-0.011374835
-0.011048136
0.00077577738
-0.00062626467
-0.00043027344
-0.00097586052
-0.0012834595
-0.00175303
-0.0022434361
-0.0027777694
-0.0033442598
-0.0039413385
-0.0045877615
-0.0052997029
-0.0060958649
-0.0069711631
-0.0079056385
-0.0088647895
-0.0098141308
-0.010717517
-0.011536415
-0.012226524
-0.012743136
-0.013052211
-0.0131353
-0.013008154
-0.01269275
-0.012275622
-0.011776782
-0.011388372
-0.011009832
0.00085694696
-0.00066129237
-0.00037791683
-0.00093791988
-0.001202931
-0.0016565467
-0.002124822
-0.0026422574
-0.0031922604
-0.0037698985
-0.0043884693
-0.005065019
-0.00582578
-0.0066772151
-0.0076084264
-0.0085881621
-0.0095814529
-0.010552206
-0.011463552
-0.01227105
-0.012925365
-0.013379187
-0.013601613
-0.013581185
-0.013343582
-0.012919809
-0.012405286
-0.011822774
-0.011370729
-0.010944248
0.00092917338
-0.00069866504
-0.0003336668
-0.00090677463
-0.0011288294
-0.0015691865
-0.0020107849
-0.0025094727
-0.0030435332
-0.0036039095
-0.0041978085
-0.0048399551
-0.0055606279
-0.0063775372
-0.0072916794
-0.0082783332
-0.0093030974
-0.010329204
-0.011321361
-0.012237581
-0.013026859
-0.013634253
-0.014012481
-0.014136002
-0.014002474
-0.013648274
-0.013113398
-0.012501255
-0.011836568
-0.011323664
-0.010851706
0.0010083628
-0.00072835101
-0.00029917474
-0.00088154161
-0.0010632156
-0.0014903016
-0.0019015246
-0.0023800481
-0.0028981508
-0.0034423795
-0.0040148594
-0.0046256926
-0.0053048993
-0.0060791643
-0.0069628998
-0.0079417678
-0.0089844258
-0.010053093
-0.011113047
-0.012125717
-0.013042254
-0.013803304
-0.014350475
-0.014639043
-0.014651539
-0.014396156
-0.01392038
-0.013272755
-0.012563606
-0.011819171
-0.011248396
-0.010732937
0.0010864624
-0.000748712
-0.00027191617
-0.00086372406
-0.0010054821
-0.0014192875
-0.0017988282
-0.0022576866
-0.0027562182
-0.0032845574
-0.0038382965
-0.004421934
-0.005061367
-0.0057883203
-0.0066300149
-0.0075859152
-0.0086316326
-0.0097293322
-0.010843396
-0.011938241
-0.012969612
-0.013878503
-0.014598399
-0.015070004
-0.015254425
-0.015144322
-0.014759454
-0.014158305
-0.013397313
-0.012592722
-0.011771589
-0.011145913
-0.010589612
0.0011596159
-0.00076739794
-0.00024051323
-0.00084731931
-0.00095486608
-0.0013542162
-0.0017050737
-0.0021444583
-0.0026187339
-0.0031298426
-0.0036669061
-0.0042273962
-0.0048309497
-0.005509715
-0.0063007403
-0.0072190699
-0.0082518534
-0.0093640249
-0.010518213
-0.011680042
-0.012810829
-0.013855837
-0.014745564
-0.015408456
-0.015788011
-0.015853919
-0.015610598
-0.015089814
-0.014360666
-0.013486713
-0.012589069
-0.011694767
-0.011017485
-0.010423264
0.0012263888
-0.00078556402
-0.00021066296
-0.00082016558
-0.00091079712
-0.0012967122
-0.001618803
-0.0020400805
-0.0024879848
-0.0029794226
-0.0034996746
-0.0040404143
-0.0046129937
-0.0052460679
-0.0059817698
-0.0068499483
-0.0078532568
-0.0089639869
-0.010143838
-0.011357389
-0.012570552
-0.013735723
-0.014785367
-0.015640564
-0.016228589
-0.016499161
-0.016432845
-0.016046788
-0.015384881
-0.014526256
-0.013540762
-0.012553216
-0.011589773
-0.01086447
-0.010235229
0.001285334
-0.00080252656
-0.0001843491
-0.00079307698
-0.00086213342
-0.0012476527
-0.0015402666
-0.001941857
-0.0023659531
-0.0028366086
-0.0033363277
-0.0038592338
-0.0044058686
-0.0049980526
-0.0056780069
-0.0064869489
-0.0074449305
-0.0085369789
-0.0097270319
-0.010977178
-0.012255373
-0.013521991
-0.014716112
-0.015756703
-0.016558986
-0.017053105
-0.017197982
-0.016986608
-0.01644946
-0.015642453
-0.014654047
-0.013559448
-0.012485897
-0.011457794
-0.010688183
-0.010026917
0.0013348612
-0.00081768312
-0.00016175696
-0.00076860385
-0.00081698596
-0.0011883678
-0.0014712693
-0.0018506831
-0.0022494374
-0.0027028555
-0.0031792857
-0.0036825734
-0.00420747
-0.0047646928
-0.0053921118
-0.006137228
-0.0070363904
-0.0080918954
-0.0092751921
-0.010546553
-0.011872881
-0.01322111
-0.014540096
-0.015752461
-0.016766204
-0.017495128
-0.017875973
-0.017878982
-0.017510685
-0.016815286
-0.015860495
-0.014743244
-0.013542986
-0.012388017
-0.011300087
-0.010489987
-0.0097998244
0.0013734881
-0.0008305641
-0.00014281436
-0.0007473274
-0.00077601197
-0.001131002
-0.0013939177
-0.001771874
-0.0021392264
-0.0025735425
-0.0030305274
-0.003512535
-0.0040156472
-0.0045438918
-0.0051245431
-0.0058058816
-0.006636715
-0.0076386488
-0.0087967285
-0.010072921
-0.011431005
-0.012841167
-0.014262957
-0.015627861
-0.016842605
-0.017808599
-0.018442712
-0.018691012
-0.018536619
-0.018000548
-0.017141055
-0.016037201
-0.014793355
-0.013491853
-0.012260664
-0.011118003
-0.010271331
-0.0095555128
0.0013999786
-0.00084071826
-0.00012757598
-0.00072928366
-0.0007400792
-0.0010781543
-0.0013221284
-0.0016823325
-0.0020430361
-0.0024494935
-0.0028849715
-0.0033513625
-0.0038304306
-0.0043328929
-0.0048739514
-0.0054955346
-0.0062535112
-0.0071875792
-0.0083013242
-0.0095643299
-0.010937721
-0.012391018
-0.013892717
-0.015386864
-0.016785247
-0.017982218
-0.018877739
-0.019395176
-0.01949187
-0.01916521
-0.018451682
-0.017423751
-0.016171128
-0.014804238
-0.013406814
-0.012105105
-0.010912998
-0.010033775
-0.0092956199
0.0014134584
-0.00084778067
-0.00011611322
-0.00071460521
-0.00070947092
-0.0010316091
-0.0012558971
-0.0015968739
-0.0019351655
-0.0023424188
-0.002743199
-0.0031926788
-0.0036542773
-0.0041303543
-0.0046376317
-0.0052064002
-0.0058920726
-0.0067484511
-0.0077997732
-0.0090299636
-0.010401229
-0.011879703
-0.013438899
-0.015036589
-0.016595578
-0.018009489
-0.019165726
-0.019967062
-0.020345674
-0.020271865
-0.019758884
-0.018859672
-0.017660708
-0.016261281
-0.014776154
-0.013288925
-0.011922799
-0.010686668
-0.0097789955
-0.009021892
-0.00085146615
0.0014134584
-0.00010854595
-0.00070344046
-0.00068449988
-0.0009918879
-0.0011971302
-0.001517215
-0.0018338584
-0.0022217194
-0.0026210768
-0.0030364477
-0.003480351
-0.0039384507
-0.0044131323
-0.0049365797
-0.0055549718
-0.0063293297
-0.0073032629
-0.0084804146
-0.0098304465
-0.011316284
-0.012911767
-0.014586558
-0.016278873
-0.017888593
-0.019296092
-0.020386984
-0.021069641
-0.021286838
-0.021023874
-0.020311699
-0.019220404
-0.017849772
-0.016307184
-0.014709778
-0.013139542
-0.011715393
-0.010440752
-0.0095087976
-0.0087361232
-0.00010488596
-0.00085146602
0.0013999789
-0.00069601517
-0.00066549001
-0.00095944981
-0.0011466543
-0.0014464856
-0.0017392286
-0.0021067048
-0.0024835082
-0.0029038417
-0.0033074305
-0.0037489338
-0.0042009379
-0.0046832854
-0.0052420526
-0.0059356999
-0.006822237
-0.007927427
-0.0092355506
-0.01071009
-0.012321832
-0.014047942
-0.015843726
-0.017622091
-0.019263117
-0.020639798
-0.021639473
-0.022177877
-0.022210548
-0.021740405
-0.020817865
-0.019530243
-0.017989431
-0.016308904
-0.014606212
-0.012960319
-0.011484723
-0.010177137
-0.0092250691
-0.0084401068
-0.00069242157
-0.00010488581
-0.00084777993
0.0013734884
-0.00065287513
-0.00093474402
-0.0011051945
-0.0013857822
-0.001654723
-0.0019981478
-0.0023527471
-0.0027535799
-0.0031627204
-0.0035595281
-0.0039916624
-0.0044453243
-0.0049512819
-0.0055700183
-0.006365181
-0.0073830369
-0.0086281974
-0.010071256
-0.011679704
-0.013432878
-0.015301474
-0.017216693
-0.019065913
-0.020715297
-0.022035011
-0.022915938
-0.023283097
-0.023107918
-0.022413856
-0.02127202
-0.019786252
-0.018078839
-0.016267052
-0.014466947
-0.012753141
-0.011232782
-0.0098978047
-0.008929707
-0.0081355919
-0.00064682914
-0.00069242152
-0.00010854562
-0.00084071725
0.0013348617
-0.00091833542
-0.0010734533
-0.0013359559
-0.0015817404
-0.0019008323
-0.0022288165
-0.0026095849
-0.0029981641
-0.0034045767
-0.003782477
-0.0042118936
-0.0046804521
-0.0052321687
-0.0059377178
-0.0068582928
-0.0080211416
-0.0094112258
-0.010996326
-0.012753931
-0.01466551
-0.016682945
-0.018708491
-0.020608532
-0.022241007
-0.023475485
-0.024207783
-0.024375379
-0.023969538
-0.023036862
-0.021669439
-0.019986296
-0.018117838
-0.016182773
-0.014293838
-0.012520106
-0.010961658
-0.0096047319
-0.0086245238
-0.0078243559
-0.00091042428
-0.00064682927
-0.00069601499
-0.00011611258
-0.00083056245
0.0012853347
-0.0010522751
-0.0012978443
-0.0015214559
-0.0018166467
-0.0021173157
-0.0024718849
-0.0028401553
-0.0032275111
-0.0036155468
-0.0039791866
-0.0044158335
-0.0049201397
-0.0055426699
-0.0063620149
-0.0074272124
-0.0087428739
-0.010283445
-0.012023859
-0.013950515
-0.016034689
-0.018199696
-0.020320175
-0.02224787
-0.023835706
-0.024953503
-0.025504653
-0.025443725
-0.024785885
-0.023602608
-0.022006227
-0.020129073
-0.018106932
-0.016057723
-0.014089042
-0.012263416
-0.010673379
-0.0092997846
-0.0083112837
-0.0075082317
-0.0010420118
-0.00091042466
-0.00065287552
-0.00070344021
-0.00012757514
-0.00081768111
0.0012263899
-0.0012724757
-0.0014750469
-0.00174705
-0.002020535
-0.0023473143
-0.0026880421
-0.0030566845
-0.003424404
-0.0037985525
-0.0041521828
-0.0046164395
-0.0051798594
-0.0059005286
-0.0068579929
-0.0080799668
-0.0095540263
-0.011255723
-0.013171773
-0.015288268
-0.017552855
-0.019856661
-0.022052389
-0.023981791
-0.025493483
-0.026459137
-0.026794448
-0.026476494
-0.025547733
-0.024105049
-0.02227945
-0.020214121
-0.018047354
-0.015893988
-0.013854857
-0.011985178
-0.010369886
-0.008984791
-0.0079918249
-0.0071889717
-0.0012602526
-0.0010420125
-0.00091833656
-0.00066549072
-0.0007146049
-0.0001428132
-0.00080252383
0.0011596171
-0.0014439217
-0.0016934599
-0.0019402322
-0.002238718
-0.0025496972
-0.0028909199
-0.0032398765
-0.0035917619
-0.003952676
-0.0043117701
-0.0048289716
-0.0054769151
-0.0063233729
-0.0074360717
-0.0088222238
-0.010463245
-0.012344749
-0.014461568
-0.01678507
-0.019229938
-0.021658027
-0.023906058
-0.025807135
-0.027205915
-0.027979979
-0.028063716
-0.027461888
-0.026246484
-0.024539059
-0.022487208
-0.020241878
-0.017940926
-0.015693885
-0.013593504
-0.011687431
-0.010053226
-0.008661765
-0.0076680937
-0.0068679488
-0.0014287398
-0.0012602536
-0.0010522771
-0.00093474602
-0.00068450097
-0.00072928339
-0.00016175561
-0.0007855609
0.0010864641
-0.0016575635
-0.0018781822
-0.00214831
-0.0024284925
-0.0027392669
-0.0030597144
-0.0033924194
-0.0037258481
-0.0040857279
-0.0044740835
-0.0050700066
-0.0058305659
-0.0068241441
-0.0081027429
-0.0096610525
-0.01148504
-0.013573118
-0.015916211
-0.018456849
-0.021074693
-0.023608436
-0.025881648
-0.027718204
-0.0289614
-0.029501409
-0.02929819
-0.028388391
-0.026874397
-0.024900659
-0.022628667
-0.020213557
-0.017789804
-0.015459682
-0.013307188
-0.011372549
-0.0097259171
-0.0083329665
-0.007341769
-0.0065461426
-0.0016401136
-0.0014287412
-0.0012724788
-0.0010734569
-0.00095945278
-0.00070947254
-0.00074732726
-0.00018434752
-0.0007673941
0.0010083648
-0.0018365024
-0.0020782761
-0.002327076
-0.0026056866
-0.0028940041
-0.0031969376
-0.0035087561
-0.0038335276
-0.0042136319
-0.0046596635
-0.0053591905
-0.0062555903
-0.007410724
-0.0088645233
-0.010608538
-0.012641489
-0.014967778
-0.017558189
-0.020318077
-0.023096183
-0.025712675
-0.027977367
-0.029705545
-0.030745148
-0.031007116
-0.030483295
-0.02924512
-0.027424789
-0.025187172
-0.022704068
-0.020130936
-0.017596184
-0.015193747
-0.012998665
-0.011043611
-0.0093906666
-0.0080003359
-0.007014006
-0.0062245958
-0.0018162085
-0.0016401156
-0.0014439262
-0.0012978496
-0.0011051997
-0.00099189204
-0.00074008153
-0.00076860405
-0.00021066136
-0.00074870782
0.00092917591
-0.0020311118
-0.0022481351
-0.0024933446
-0.0027472929
-0.0030163462
-0.0032957721
-0.0035948393
-0.0039280246
-0.0043597374
-0.0048868386
-0.0057114857
-0.0067611685
-0.0080901701
-0.0097315162
-0.011685025
-0.013961842
-0.016557584
-0.019408765
-0.022383093
-0.025304045
-0.027973854
-0.030187366
-0.031755524
-0.032539603
-0.032479642
-0.031604609
-0.030022167
-0.027892331
-0.025397197
-0.022714318
-0.01999588
-0.017362487
-0.014899285
-0.012671633
-0.010703724
-0.0090493913
-0.0076652763
-0.0066862728
-0.0059055531
-0.0020079913
-0.0018162111
-0.0016575694
-0.0014750543
-0.0013359637
-0.0011466615
-0.0010316147
-0.00077601528
-0.00079307777
-0.0002405117
-0.00072834625
0.00085694965
-0.0021947981
-0.0024054581
-0.0026232842
-0.0028557948
-0.0030986704
-0.0033613263
-0.0036612554
-0.0040296652
-0.0045396257
-0.0051686795
-0.0061365015
-0.0073558075
-0.0088715349
-0.010721802
-0.012920243
-0.015480286
-0.018371265
-0.021488563
-0.024666846
-0.027706967
-0.030391072
-0.032500694
-0.033850489
-0.034324936
-0.03390089
-0.032648342
-0.030710914
-0.028273248
-0.025530295
-0.022660648
-0.019810703
-0.017092339
-0.014580621
-0.012329453
-0.010354611
-0.0087036969
-0.0073300766
-0.006360902
-0.0055785406
-0.0021686347
-0.0020079943
-0.0018365099
-0.0016934698
-0.0015214664
-0.0013857925
-0.0011971395
-0.0010781617
-0.0008169906
-0.00082016733
-0.00027191509
-0.00069866032
0.00077578048
-0.0023458586
-0.0025258906
-0.0027195298
-0.0029231809
-0.0031454257
-0.0034021121
-0.0037255066
-0.0041519279
-0.0047647134
-0.0055142482
-0.0066446627
-0.008048588
-0.0097708044
-0.011864089
-0.014351993
-0.017232953
-0.020436744
-0.023818396
-0.027183963
-0.030310071
-0.032957666
-0.034901059
-0.035969126
-0.036079561
-0.03525273
-0.033601868
-0.031304289
-0.028565031
-0.025586602
-0.022544975
-0.019579326
-0.0167907
-0.01424119
-0.011973341
-0.0099981558
-0.008357728
-0.0069967783
-0.0060205154
-0.0052402859
-0.0023165726
-0.002168638
-0.0020311209
-0.0018781947
-0.0017470637
-0.001581754
-0.0014464988
-0.001255909
-0.0011310115
-0.0008621398
-0.00084732244
-0.00029917438
-0.00066128771
0.00067889857
-0.0024596759
-0.002612209
-0.0027740271
-0.0029534134
-0.0031637038
-0.0034333268
-0.0038007301
-0.0043060396
-0.0050475319
-0.0059346943
-0.007245708
-0.0088540826
-0.010814798
-0.013197814
-0.016022858
-0.019255769
-0.022781446
-0.026419026
-0.029946275
-0.033112484
-0.035660376
-0.037366898
-0.038086861
-0.037780779
-0.036517704
-0.034454139
-0.031796768
-0.028765985
-0.025567158
-0.022371309
-0.019307253
-0.016460808
-0.013881336
-0.011605711
-0.0096410231
-0.0080131799
-0.0066357248
-0.0056700985
-0.0048956711
-0.0024270089
-0.0023165759
-0.0021948081
-0.0020782909
-0.0019402493
-0.0018166644
-0.0016547402
-0.0015172313
-0.0013221431
-0.0011883798
-0.00091080574
-0.00086372906
-0.00033366772
-0.00062626097
0.00057037357
-0.0025391292
-0.0026563762
-0.002790401
-0.0029527563
-0.0031668774
-0.003467643
-0.0038985791
-0.0045069575
-0.0053998492
-0.0064394856
-0.0079535614
-0.009797089
-0.012042851
-0.014770316
-0.017976823
-0.021583648
-0.025432537
-0.029309315
-0.032959956
-0.036105779
-0.038478988
-0.039871563
-0.040176515
-0.039405696
-0.037679769
-0.035195638
-0.032184012
-0.028875805
-0.025475787
-0.02214549
-0.018997204
-0.016101744
-0.013504363
-0.011237152
-0.009284761
-0.0076171998
-0.0062690958
-0.0053113279
-0.0045454932
-0.0025030231
-0.0024270115
-0.0023458681
-0.0022481511
-0.0021483301
-0.0020205566
-0.0019008538
-0.0017392493
-0.0015968937
-0.0013939356
-0.0012476676
-0.00095487737
-0.0008815489
-0.00037791951
-0.00059595312
0.00045416131
-0.0025761061
-0.0026619312
-0.0027744817
-0.00293318
-0.0031668425
-0.0035165037
-0.0040325764
-0.00476522
-0.0058308631
-0.007041878
-0.0087914315
-0.010915731
-0.013505021
-0.016632825
-0.020256993
-0.024250658
-0.028415993
-0.032503365
-0.036223212
-0.039273018
-0.041386145
-0.042383861
-0.042209374
-0.040932229
-0.038724516
-0.035818205
-0.032463509
-0.028897624
-0.02531832
-0.021869287
-0.018646488
-0.015718182
-0.013126454
-0.010869016
-0.0088457081
-0.0072194503
-0.0058909579
-0.0049471744
-0.0041885635
-0.0025362529
-0.0025030246
-0.0024596836
-0.0024054734
-0.0023270975
-0.0022387427
-0.0021173413
-0.0019981731
-0.0018338828
-0.001682356
-0.0014712908
-0.0012967304
-0.0010054963
-0.00090678475
-0.00043027857
-0.00057228513
0.00033407421
-0.0025743198
-0.002634464
-0.0027372133
-0.0029056357
-0.0031741866
-0.003591317
-0.0042119523
-0.0050884094
-0.0063524666
-0.0077638512
-0.0097959383
-0.012260938
-0.015258188
-0.018836806
-0.022905068
-0.027290005
-0.031754341
-0.036007642
-0.039724551
-0.04258801
-0.044347651
-0.04486927
-0.044156536
-0.042339725
-0.039638913
-0.036316044
-0.03263703
-0.028836864
-0.025094991
-0.021537636
-0.018261747
-0.015334017
-0.012748736
-0.010374661
-0.0084099648
-0.0068062444
-0.0055078836
-0.0045754551
-0.0038242937
-0.0025307321
-0.0025362531
-0.0025391338
-0.0025259028
-0.0024933648
-0.0024285185
-0.002347343
-0.0022288458
-0.0021067336
-0.0019351936
-0.0017719013
-0.0015402916
-0.0013542379
-0.0010632332
-0.00093793322
-0.00048946034
-0.00055786388
0.00021424302
-0.0025391803
-0.0025842583
-0.0026886431
-0.0028794972
-0.0031980616
-0.003699715
-0.0044430892
-0.0054855148
-0.0069846625
-0.0086403498
-0.011017721
-0.013893247
-0.017361536
-0.021432268
-0.025961801
-0.030732807
-0.035463573
-0.039818363
-0.043441299
-0.046015197
-0.047323745
-0.047291633
-0.0459899
-0.043608965
-0.040412387
-0.036688583
-0.032709096
-0.028691548
-0.024797628
-0.021159792
-0.017877076
-0.01495005
-0.012188785
-0.0098884304
-0.0079533125
-0.0063886699
-0.0051165736
-0.0041960938
-0.0034517124
-0.002491686
-0.0025307306
-0.0025761064
-0.0026122159
-0.0026233001
-0.0026057107
-0.0025497268
-0.0024719169
-0.0023527796
-0.0022217517
-0.0020430678
-0.0018507139
-0.0016188314
-0.0014193126
-0.0011288504
-0.0009758773
-0.00055244298
-0.00055491283
9.9880212e-05
-0.0024806287
-0.0025205396
-0.0026368009
-0.0028616641
-0.0032442252
-0.0038467904
-0.0047336213
-0.0059724901
-0.0077592754
-0.0097207278
-0.012519261
-0.01587813
-0.019873632
-0.02446808
-0.029466965
-0.034605379
-0.039549709
-0.043919027
-0.047338797
-0.049510836
-0.050271139
-0.049614588
-0.047682475
-0.04472342
-0.041040629
-0.036938549
-0.032674547
-0.028449331
-0.0244388
-0.020782954
-0.017492787
-0.014311489
-0.011642103
-0.0093746712
-0.0074930131
-0.0059623812
-0.0047174179
-0.0038078689
-0.0030699974
-0.0024289717
-0.0024916828
-0.0025743152
-0.0026563763
-0.0027195385
-0.0027473113
-0.0027392935
-0.0026880741
-0.0026096194
-0.0024835434
-0.002342454
-0.0021392611
-0.001941891
-0.0017051053
-0.0014903299
-0.0012029553
-0.0010211425
-0.00061621616
-0.00056006259
-3.8182229e-06
-0.0024072363
-0.0024500955
-0.0025863801
-0.0028557737
-0.0033163153
-0.0040387957
-0.0050969658
-0.0065752864
-0.0087219353
-0.011067731
-0.014370661
-0.018282181
-0.022852035
-0.027992815
-0.033457521
-0.038925223
-0.044005169
-0.048278681
-0.051371313
-0.053025344
-0.053144893
-0.051802154
-0.049210039
-0.04567345
-0.041523564
-0.037056608
-0.032515625
-0.028126718
-0.024082229
-0.020406749
-0.016762038
-0.013691499
-0.011059711
-0.0088585715
-0.0070233508
-0.0055282989
-0.0043088783
-0.0034100483
-0.0026783955
-0.0023507552
-0.0024289669
-0.0025391708
-0.0026619236
-0.0027740266
-0.0028558043
-0.0028940239
-0.002890948
-0.0028401888
-0.002753616
-0.002621114
-0.0024495311
-0.0022494747
-0.002040117
-0.0017988624
-0.0015692175
-0.0012834867
-0.0010744365
-0.0006829172
-0.00056637542
-9.4043137e-05
-0.0023248287
-0.002375857
-0.0025389512
-0.0028638278
-0.0034192412
-0.0042869974
-0.0055552076
-0.0073322215
-0.0099321372
-0.012754062
-0.016645489
-0.021171791
-0.026354442
-0.032054088
-0.037963531
-0.043696211
-0.048805838
-0.052852253
-0.055484568
-0.056505568
-0.055899288
-0.053820717
-0.050556418
-0.046454773
-0.041846475
-0.037017857
-0.032253117
-0.027807914
-0.02372643
-0.019568181
-0.016055283
-0.013026157
-0.010476638
-0.0083326135
-0.006545884
-0.005084565
-0.0038903513
-0.0030019456
-0.0022764127
-0.0022623385
-0.0023507494
-0.0024806149
-0.0026344485
-0.0027903902
-0.0029231793
-0.0030163557
-0.0030597343
-0.0030567127
-0.0029981978
-0.0029038785
-0.0027432375
-0.0025735815
-0.002365992
-0.0021444966
-0.0019015608
-0.0016565799
-0.0013681483
-0.0011348872
-0.00075722938
-0.00057341301
-0.00017020519
-0.0022350291
-0.0022974627
-0.0024949837
-0.0028895152
-0.003562557
-0.0046104855
-0.0061415277
-0.0082949979
-0.011460727
-0.014858471
-0.019418699
-0.024614019
-0.030439063
-0.036694975
-0.043002367
-0.048904271
-0.053910516
-0.057583136
-0.059618352
-0.059895858
-0.058490016
-0.0556456
-0.051711928
-0.047045858
-0.041975011
-0.036847359
-0.031996164
-0.027489903
-0.022763153
-0.01875926
-0.015291499
-0.012362278
-0.0098832544
-0.0077987442
-0.0060584436
-0.0046307131
-0.003461213
-0.0025832405
-0.00186379
-0.002164584
-0.002262332
-0.0024072191
-0.0025842358
-0.0027744608
-0.0029533996
-0.0030986671
-0.003196946
-0.0032398955
-0.0032275385
-0.0031627536
-0.0030364844
-0.0028850102
-0.0027028952
-0.0024880246
-0.0022577258
-0.0020108221
-0.0017530644
-0.0014570418
-0.0012009845
-0.00083712334
-0.0005850109
-0.00023226058
-0.002136198
-0.002213897
-0.0024573247
-0.0029414983
-0.0037631334
-0.0050384535
-0.0069014919
-0.0095273568
-0.013386451
-0.017463426
-0.022766907
-0.028677576
-0.035161975
-0.041947715
-0.048572988
-0.054515682
-0.059263323
-0.06240605
-0.063707635
-0.063140336
-0.06088207
-0.057260665
-0.052646362
-0.047400279
-0.04193812
-0.036684528
-0.031740123
-0.026383657
-0.02183537
-0.017879148
-0.014531694
-0.011687913
-0.0092817107
-0.0072547486
-0.0055607375
-0.0041662875
-0.0030213085
-0.0021534362
-0.0014408787
-0.0020551353
-0.0021645768
-0.002324809
-0.0025205118
-0.0027371834
-0.0029527305
-0.0031454089
-0.0032957669
-0.003392426
-0.0034244212
-0.0034046023
-0.0033074625
-0.0031927149
-0.0030305658
-0.002836648
-0.0026187735
-0.0023800873
-0.0021248594
-0.001856527
-0.0015515279
-0.0012716213
-0.00091671698
-0.00060336308
-0.0002810421
-0.0020261828
-0.0021275953
-0.0024342124
-0.0030353564
-0.0040470757
-0.0056113398
-0.0078924998
-0.011102589
-0.015793393
-0.020654963
-0.026769447
-0.033431201
-0.040570947
-0.047826792
-0.054652885
-0.06047896
-0.064796742
-0.067248069
-0.067684704
-0.066192145
-0.06305113
-0.058625823
-0.053298008
-0.047549936
-0.04191187
-0.036523525
-0.030471798
-0.025318839
-0.020819074
-0.017006129
-0.013761966
-0.011005335
-0.0086699233
-0.0067004333
-0.0050525805
-0.0036913485
-0.0025696309
-0.0017130124
-0.0010083084
-0.0019313888
-0.0020551276
-0.0022350079
-0.002450064
-0.0026886061
-0.0029331435
-0.003163674
-0.0033613069
-0.0035087485
-0.003591766
-0.0036155615
-0.0035595519
-0.0034803815
-0.0033513971
-0.0031793228
-0.0029794609
-0.0027562569
-0.002509511
-0.0022434729
-0.001963532
-0.0016504132
-0.0013459408
-0.00099323667
-0.00062842419
-0.00031853836
-0.0019069939
-0.0020468471
-0.0024406102
-0.003194916
-0.0044505911
-0.0063806697
-0.00918221
-0.013101236
-0.018770213
-0.024523649
-0.031507481
-0.038938191
-0.046697755
-0.054324453
-0.061199074
-0.06672793
-0.070432425
-0.072030262
-0.071489683
-0.069017304
-0.064945881
-0.059659926
-0.053700181
-0.047715005
-0.041890057
-0.035074061
-0.029250325
-0.024144633
-0.019813677
-0.016124407
-0.01298432
-0.010312588
-0.0080477621
-0.0061359571
-0.0045343261
-0.0032039685
-0.0021074784
-0.001262605
-0.00056714589
-0.0017952321
-0.0019313813
-0.0021361759
-0.0023758228
-0.0026367589
-0.0029055911
-0.0031668361
-0.003402079
-0.0035948172
-0.0037258381
-0.003798554
-0.0037824895
-0.0037489556
-0.0036543057
-0.0035125678
-0.003336363
-0.0031298792
-0.002898188
-0.0026422945
-0.0023661796
-0.0020729706
-0.0017513657
-0.0014232448
-0.0010662411
-0.00065883312
-0.00034745008
-0.0017872577
-0.0019865083
-0.002499016
-0.0034529935
-0.0050199912
-0.0074082477
-0.010846801
-0.015610095
-0.022410639
-0.029164195
-0.037059398
-0.045248559
-0.05355236
-0.061410453
-0.068150865
-0.073182243
-0.076081986
-0.076679205
-0.075077801
-0.071551615
-0.066461811
-0.060395057
-0.054125664
-0.047890248
-0.040240872
-0.033676005
-0.027894541
-0.022985966
-0.01880131
-0.015235495
-0.012196681
-0.0096093447
-0.0074158062
-0.0055620099
-0.0040028812
-0.0027061455