/*--------------------------------*- C++ -*----------------------------------*\
| =========                 |                                                 |
| \\      /  F ield         | OpenFOAM: The Open Source CFD Toolbox           |
|  \\    /   O peration     | Version:  5.0                                   |
|   \\  /    A nd           | Web:      www.OpenFOAM.org                      |
|    \\/     M anipulation  |                                                 |
\*---------------------------------------------------------------------------*/
FoamFile
{
    version     2.0;
    format      ascii;
    class       surfaceScalarField;
    location    "45";
    object      phi;
}
// * * * * * * * * * * * * * * * * * * * * * * * * * * * * * * * * * * * * * //

dimensions      [0 3 -1 0 0 0 0];

internalField   nonuniform List<scalar> 
18180
(
0.0014586171
-1.362506
0.0028019282
-1.2746478
0.0014144095
-1.3639204
0.004046697
-1.1919081
0.0027059692
-1.2759394
0.0013602992
-1.3652807
0.0052059232
-1.114245
0.003907522
-1.1931096
0.0026043482
-1.2771835
0.0013114443
-1.3665922
0.0062867184
-1.0414913
0.0050302543
-1.1153678
0.0037626483
-1.1942679
0.002508826
-1.2783808
0.0012605808
-1.3678527
0.0072934553
-0.97336806
0.0060817487
-1.0425428
0.0048473551
-1.1164525
0.0036267559
-1.1953859
0.0024117212
-1.279532
0.0012100054
-1.3690627
0.0082287962
-0.90959465
0.0070656979
-0.97435201
0.0058662011
-1.0435617
0.0046775874
-1.1175033
0.0034891215
-1.1964633
0.0023149028
-1.2806369
0.001158103
-1.3702208
0.0090952661
-0.84989404
0.0079848379
-0.91051379
0.0068226231
-0.97530843
0.0056688786
-1.0445529
0.0045055046
-1.1185197
0.0033523216
-1.1975007
0.0022162539
-1.281695
0.0011050244
-1.3713259
0.0098951481
-0.79400579
0.0088414155
-0.85075062
0.007719287
-0.91141045
0.0066038678
-0.97624342
0.0054682621
-1.0455157
0.0043352435
-1.1195026
0.0032131977
-1.1984976
0.0021155342
-1.2827055
0.0010505289
-1.3723764
0.010630838
-0.74168243
0.0096375979
-0.79480198
0.0085581957
-0.85158953
0.0074849428
-0.91229153
0.0063803735
-0.97715553
0.0052708357
-1.0464513
0.0041621054
-1.1204515
0.0030714836
-1.1994536
0.002012514
-1.2836675
0.00099462261
-1.373371
0.011304772
-0.69269642
0.010375528
-0.74242037
0.0093413009
-0.79558508
0.0083138219
-0.85241841
0.0072439197
-0.91315508
0.006161837
-0.97804653
0.0050698701
-1.0473591
0.00398603
-1.1213661
0.0029263317
-1.2003674
0.001907001
-1.2845799
0.0009372561
-1.3743083
0.011919466
-0.64683141
0.011057365
-0.69337825
0.010070474
-0.74314954
0.0090921557
-0.79636342
0.00806027
-0.85323476
0.0070099692
-0.91400321
0.0059389173
-0.97891558
0.0048658597
-1.0482389
0.0038057255
-1.1222455
0.002777488
-1.2012379
0.0017989979
-1.2854416
0.00087848508
-1.3751868
0.012477538
-0.60388596
0.011685328
-0.64745938
0.010747552
-0.69405533
0.0098215211
-0.74387891
0.0088307267
-0.79713387
0.0078162289
-0.85404102
0.0067705216
-0.91483481
0.0057131561
-0.97976288
0.004656812
-1.04909
0.0036208412
-1.1230888
0.0026252985
-1.2020642
0.0016884611
-1.2862516
0.00081844948
-1.3760052
0.012981694
-0.56366973
0.012261935
-0.60446257
0.011374282
-0.64808611
0.010503496
-0.69473731
0.0095565074
-0.74460469
0.0085815393
-0.79789919
0.0075652052
-0.8548357
0.0065287513
-0.91565041
0.0054814734
-0.98058754
0.0044424669
-1.0499116
0.0034313813
-1.1238949
0.0024695387
-1.2028453
0.0015756244
-1.2870088
0.00075739151
-1.3767626
0.013434492
-0.52600187
0.012790337
-0.56419813
0.011952376
-0.60504066
0.01113958
-0.64872219
0.010238864
-0.69541966
0.0093067361
-0.74532988
0.0083234632
-0.79865744
0.0073126206
-0.85561957
0.0062801223
-0.91644906
0.0052440086
-0.98138908
0.0042227732
-1.050703
0.0032372054
-1.1246626
0.002310547
-1.2035802
0.0014608692
-1.2877123
0.00069558691
-1.3774582
0.013837653
-0.49071192
0.013274564
-0.52648609
0.012483658
-0.56472941
0.011731244
-0.60563233
0.010878946
-0.64936227
0.0099927213
-0.69610565
0.0090457642
-0.74605219
0.008064695
-0.79940952
0.0070521105
-0.85639156
0.0060253423
-0.91723039
0.0050006321
-0.98216694
0.0039973167
-1.0514631
0.0030391616
-1.1253912
0.002148666
-1.204268
0.0013446739
-1.2883614
0.00063333612
-1.3780915
0.014190899
-0.45764043
0.013719165
-0.49115652
0.012970208
-0.52697265
0.012280075
-0.56527825
0.011477806
-0.60623119
0.010640346
-0.6500099
0.0097325044
-0.69679239
0.0087849882
-0.74677248
0.0077967054
-0.80015411
0.0067853938
-0.85715162
0.0057640486
-0.91799381
0.0047505042
-0.98292013
0.0037673145
-1.0521913
0.0028372304
-1.1260798
0.0019845886
-1.2049079
0.0012275609
-1.2889556
0.00057097207
-1.3786625
0.014490646
-0.42664435
0.014127955
-0.45804922
0.013414243
-0.49160055
0.012787982
-0.52748055
0.012036438
-0.56583688
0.011250356
-0.6068412
0.01038427
-0.65066166
0.0094735898
-0.69748099
0.0085133874
-0.74748916
0.0075228422
-0.80089156
0.00651136
-0.85789893
0.005495605
-0.91873891
0.0044953997
-0.98364822
0.0035323443
-1.0528864
0.0026324948
-1.1267277
0.0018189778
-1.2054993
0.0011101167
-1.2894947
0.00050884326
-1.3791713
0.014729286
-0.39760064
0.014501882
-0.42701828
0.013817418
-0.4584524
0.013257215
-0.49206979
0.012555919
-0.52800003
0.011823378
-0.5664099
0.01100157
-0.6074585
0.010130742
-0.65131882
0.009201966
-0.69816957
0.0082364967
-0.74820282
0.0072407328
-0.80162094
0.0062302294
-0.85863355
0.0052215388
-0.91946505
0.0042344291
-0.9843503
0.0032940568
-1.0535479
0.002425415
-1.1273341
0.0016526218
-1.2060418
0.00099295719
-1.2899788
0.0004473091
-1.3796187
0.014895749
-0.37040961
0.014836829
-0.39793558
0.014179528
-0.42738039
0.013689862
-0.45888505
0.013037463
-0.49255133
0.012360017
-0.52853667
0.011584766
-0.5669931
0.010756693
-0.60808445
0.0098623352
-0.65197919
0.0089255466
-0.69885862
0.0079503457
-0.74891243
0.0069517484
-0.80234246
0.0059429357
-0.85935495
0.0049412926
-0.92017192
0.0039696776
-0.98502592
0.0030524487
-1.054175
0.0022170565
-1.1278985
0.0014863319
-1.2065352
0.00087672864
-1.2904083
0.00038673245
-1.3800054
0.014977617
-0.34499226
0.015122378
-0.37069516
0.014496946
-0.398253
0.014086663
-0.42777719
0.013482127
-0.45932971
0.012860964
-0.49305228
0.012134094
-0.529086
0.011351579
-0.56758798
0.010494516
-0.60871663
0.0095895093
-0.65264315
0.0086387878
-0.69954706
0.0076576342
-0.74961832
0.006656209
-0.80305573
0.0056494047
-0.86006306
0.0046567564
-0.92085899
0.0037008626
-0.98567434
0.0028091771
-1.0547671
0.0020082761
-1.1284205
0.0013209871
-1.2069794
0.00076209207
-1.2907836
0.00032746732
-1.3803329
0.014964084
-0.32128319
0.015342588
-0.34521247
0.014761622
-0.37095983
0.014445399
-0.39861174
0.013889873
-0.42818494
0.013326828
-0.45979557
0.012649742
-0.49356793
0.011915372
-0.52964979
0.011098502
-0.56819197
0.01022815
-0.60935527
0.0093051177
-0.65330948
0.0083458097
-0.70023524
0.0073580703
-0.75032018
0.0063546376
-0.80376096
0.005351272
-0.86075758
0.0043677337
-0.92152587
0.0034298569
-0.98629502
0.0025647058
-1.0553235
0.001800151
-1.1288996
0.0011574832
-1.2073748
0.00064970017
-1.2911058
0.00026985495
-1.3806027
0.014848196
-0.29921926
0.015479111
-0.32141971
0.014961387
-0.34541223
0.014759561
-0.37127399
0.014258248
-0.39898011
0.013757452
-0.42861556
0.013131756
-0.46027759
0.012447907
-0.49410046
0.011674125
-0.53022542
0.010841309
-0.56880513
0.0099488069
-0.60999896
0.009014781
-0.65397845
0.008045717
-0.70092289
0.0070529026
-0.75101844
0.0060483862
-0.80445808
0.0050485226
-0.86143837
0.0040759969
-0.92217201
0.0031569099
-0.98688722
0.0023204923
-1.0558439
0.0015936993
-1.1293359
0.00099672159
-1.2077219
0.00054019074
-1.2913762
0.00021421563
-1.3808169
0.014627167
-0.27873009
0.015516254
-0.2992564
0.01508214
-0.32154047
0.015018013
-0.34567068
0.014581119
-0.37159687
0.014150716
-0.39937338
0.013579554
-0.42906336
0.012948819
-0.4607785
0.01222101
-0.49464735
0.011428725
-0.53081283
0.010569558
-0.56942588
0.0096636309
-0.61064781
0.0087170291
-0.65464976
0.0077405939
-0.70161058
0.0067432112
-0.75171327
0.0057377115
-0.80514727
0.0047427414
-0.86210511
0.0037817667
-0.92279686
0.0028836131
-0.98745034
0.0020773608
-1.0563275
0.0013900077
-1.1297291
0.00083958792
-1.2080213
0.00043416893
-1.2915961
0.00016084441
-1.3809778
0.014305217
-0.25973739
0.015444694
-0.27865853
0.015111875
-0.29928613
0.01520554
-0.32172799
0.014848228
-0.34593779
0.014501271
-0.37194742
0.013990874
-0.3997847
0.013417149
-0.42953169
0.012738493
-0.46129598
0.011989915
-0.49520854
0.011167075
-0.53141035
0.010291856
-0.5700541
0.0093706199
-0.6113014
0.0084148614
-0.65532403
0.0074313013
-0.70229867
0.006429615
-0.75240517
0.0054239865
-0.80582851
0.0044341537
-0.8627575
0.0034865084
-0.92339976
0.0026106345
-0.98798362
0.0018366395
-1.0567742
0.0011901351
-1.1300797
0.00068693773
-1.208274
0.00033220073
-1.2917675
0.00011000578
-1.3810878
0.013892909
-0.24214495
0.015257977
-0.25955067
0.015043176
-0.27858983
0.01530392
-0.29938452
0.015046322
-0.32192609
0.014799782
-0.34623631
0.014360551
-0.3723171
0.013850483
-0.40021803
0.013225295
-0.43001849
0.012524064
-0.46183013
0.011740872
-0.49578233
0.010899116
-0.53201761
0.010005713
-0.5706892
0.0090737325
-0.61196028
0.0081090033
-0.65600173
0.0071189107
-0.70298796
0.0061132995
-0.75309449
0.0051074758
-0.80650183
0.0041240099
-0.863395
0.0031907993
-0.92397992
0.0023393649
-0.98848634
0.0015993477
-1.0571834
0.00099512938
-1.1303879
0.00053958444
-1.2084814
0.00023479714
-1.2918923
6.1948801e-05
-1.3811497
0.013404943
-0.22584111
0.014956759
-0.24184373
0.014870435
-0.25937793
0.015296195
-0.27858211
0.015161579
-0.29949977
0.015033205
-0.32215951
0.014679739
-0.34655549
0.014243812
-0.37271043
0.013678805
-0.40067154
0.013029729
-0.43052416
0.012290095
-0.46237935
0.01148497
-0.49636819
0.010621887
-0.53263379
0.0097160458
-0.57133151
0.0087736539
-0.61262493
0.0078010673
-0.65668389
0.006804485
-0.70367915
0.0057946185
-0.75378163
0.0047891807
-0.80716701
0.0038127631
-0.86401697
0.0028958808
-0.92453644
0.002070738
-0.98895773
0.0013667182
-1.057555
0.00080599062
-1.1306543
0.00039828276
-1.2086449
0.00014241889
-1.2919728
1.6998722e-05
-1.3811667
0.012858249
-0.21070874
0.014549509
-0.22543386
0.014593444
-0.24156674
0.015175347
-0.25925709
0.015181535
-0.27860206
0.015186193
-0.29965276
0.014936163
-0.32241593
0.01458868
-0.34690036
0.014094067
-0.37312569
0.013504197
-0.40114601
0.01281324
-0.4310473
0.012048643
-0.46294303
0.011218773
-0.49696507
0.01034122
-0.53325896
0.0094235877
-0.57198144
0.0084726205
-0.61329648
0.0074920891
-0.65737149
0.0064885362
-0.70437307
0.005474338
-0.75446679
0.0044694099
-0.80782365
0.0035014029
-0.86462249
0.0026025733
-0.92506828
0.0018060197
-0.98939703
0.0011398297
-1.0578888
0.0006236654
-1.1308797
0.0002637112
-1.2087662
5.5513714e-05
-1.2920113
-2.4159014e-05
-1.3811426
0.012269916
-0.19663019
0.01404982
-0.21020905
0.014219171
-0.22505959
0.014942177
-0.24133357
0.015096669
-0.25917222
0.015243739
-0.27865961
0.015115753
-0.29983235
0.014873211
-0.32270047
0.014462919
-0.34726921
0.013942529
-0.37356402
0.013307565
-0.40164034
0.012588712
-0.43158737
0.011795743
-0.46352
0.010948922
-0.49757278
0.010057954
-0.53389333
0.0091312667
-0.57264009
0.0081717567
-0.61397615
0.0071828266
-0.65806579
0.0061716484
-0.70507038
0.0051526263
-0.75515
0.004148835
-0.80847109
0.0031905445
-0.86521046
0.002312011
-0.92557427
0.0015462917
-0.98980349
0.0009198003
-1.0581849
0.00044901329
-1.131065
0.00013647954
-1.2088472
-2.534613e-05
-1.2920101
-6.2309039e-05
-1.3810803
0.011652938
-0.18349322
0.013473475
-0.19605385
0.013759762
-0.20974964
0.014602998
-0.22472041
0.014903058
-0.24113996
0.015195412
-0.25912389
0.015205138
-0.27874899
0.015083201
-0.30004234
0.014773821
-0.32301137
0.014336695
-0.34766338
0.013768198
-0.37402466
0.013102535
-0.40215416
0.012351559
-0.43214319
0.011538703
-0.46410978
0.010676386
-0.49819121
0.0097757484
-0.53453781
0.0088404178
-0.57330875
0.0078721669
-0.61466549
0.0068737712
-0.65876791
0.0058538905
-0.70577164
0.0048298156
-0.75583098
0.0038277882
-0.80910833
0.0028810682
-0.86577952
0.0020251941
-0.92605317
0.0012927339
-0.99017643
0.00070763349
-1.0584436
0.0002828418
-1.1312113
1.7143381e-05
-1.2088896
-0.00010032082
-1.2919721
-9.8781841e-05
-1.3809815
0.0091152244
-0.20120812
0.012838166
-0.18285791
0.013230135
-0.19552422
0.01416842
-0.20931507
0.014603503
-0.22442086
0.015037013
-0.24098156
0.015192866
-0.25911162
0.01520411
-0.2788699
0.015012826
-0.30028135
0.014675321
-0.32334999
0.014187256
-0.34808244
0.013585402
-0.37450752
0.012883806
-0.40268641
0.012109592
-0.43271408
0.011278596
-0.46471199
0.010405553
-0.49882101
0.0094962612
-0.53519365
0.0085526006
-0.57398918
0.0075743677
-0.61536609
0.0065649655
-0.65947898
0.0055352756
-0.70647711
0.0045059026
-0.7565091
0.0035067855
-0.80973405
0.0025737653
-0.86632809
0.0017432408
-0.92650368
0.0010464386
-0.99051523
0.00050429556
-1.058665
0.00012579983
-1.13132
-9.40946e-05
-1.2088959
-0.0001700168
-1.2919008
-0.00013200338
-1.3808495
0.007026305
-0.20121307
0.01034868
-0.19871864
0.012645257
-0.18227304
0.013651785
-0.19500759
0.014206764
-0.20891833
0.014770124
-0.22415397
0.015071512
-0.24086021
0.015223776
-0.25913129
0.015165576
-0.27902265
0.014944438
-0.30055046
0.014553489
-0.32371623
0.014029619
-0.34852665
0.013388047
-0.37501176
0.012659514
-0.40323633
0.011863917
-0.4332994
0.011020487
-0.46532692
0.010138486
-0.49946324
0.0092216097
-0.53586266
0.0082684911
-0.57468331
0.0072784782
-0.6160796
0.0062561705
-0.66019988
0.0052154564
-0.70718666
0.004180959
-0.75718327
0.0031862821
-0.81034656
0.0022695579
-0.8668544
0.0014672319
-0.92692447
0.00080848789
-0.99081943
0.00031061071
-1.0588498
-2.1601451e-05
-1.1313925
-0.00019727384
-1.2088686
-0.00023378413
-1.2917991
-0.00016156177
-1.3806879
0.005333585
-0.20115716
0.0082729325
-0.19913733
0.01026336
-0.19633674
0.013068237
-0.18168949
0.013725212
-0.19452604
0.014401694
-0.2085499
0.014840327
-0.22392278
0.015134963
-0.2407714
0.015219592
-0.2591853
0.015129216
-0.27920743
0.014852883
-0.30084986
0.01442406
-0.32411067
0.013856885
-0.34899549
0.013184446
-0.3755367
0.012430697
-0.40380311
0.011620176
-0.43389909
0.010766887
-0.46595532
0.0098779468
-0.50011958
0.008952771
-0.53654694
0.0079884107
-0.57539324
0.0069841137
-0.61680754
0.0059467333
-0.66093116
0.0048940191
-0.70789972
0.003854988
-0.75785198
0.002866857
-0.81094386
0.0019693826
-0.86735655
0.0011982852
-0.92731427
0.00057986763
-0.99108868
0.00012729774
-1.0589987
-0.00015904767
-1.1314307
-0.00029205198
-1.2088103
-0.00029138037
-1.2916692
-0.0001878519
-1.3805001
0.0039810639
-0.20104856
0.0065518112
-0.19943604
0.0082688277
-0.19714279
0.010747192
-0.1940157
0.013172404
-0.18113668
0.013943228
-0.19406757
0.014504648
-0.20821422
0.014936036
-0.22372386
0.015165363
-0.24071717
0.015216253
-0.25927234
0.015070287
-0.27942484
0.014754615
-0.30118041
0.014279386
-0.32453317
0.013677421
-0.34948847
0.012975436
-0.37608143
0.012203428
-0.40438636
0.011381318
-0.43451352
0.010521249
-0.46659863
0.0096253439
-0.50079215
0.0086904051
-0.53724894
0.0077119662
-0.57612109
0.0066904031
-0.61755121
0.0056357661
-0.6616729
0.0045704349
-0.70861517
0.0035280877
-0.75851321
0.0025491513
-0.81152363
0.0016742713
-0.86783254
0.00093747413
-0.92767187
0.00036148471
-0.99132287
-4.5067699e-05
-1.0591127
-0.00028624581
-1.1314365
-0.00037834841
-1.2087234
-0.00034301233
-1.2915141
-0.0002111125
-1.3802889
0.0029131758
-0.20090195
0.0051283903
-0.19962514
0.0066061604
-0.19777338
0.0087897037
-0.1951853
0.010937341
-0.19178063
0.013409039
-0.18060249
0.0140745
-0.19363742
0.014630426
-0.20790861
0.014999339
-0.22355783
0.015195708
-0.24069662
0.01519168
-0.25939373
0.015005667
-0.27967589
0.014641378
-0.3015424
0.014127834
-0.32498358
0.013491744
-0.35000477
0.012767354
-0.37664536
0.011981035
-0.40498608
0.011151497
-0.43514377
0.010285526
-0.46725881
0.0093818127
-0.50148356
0.0084342663
-0.53797124
0.0074381965
-0.57686889
0.006396052
-0.6183115
0.0053221758
-0.66242465
0.0042442023
-0.70933128
0.0032004391
-0.7591645
0.0022339548
-0.81208331
0.0013852728
-0.86828034
0.0006858417
-0.92799623
0.00015412994
-0.99152207
-0.00020604055
-1.0591929
-0.00040303946
-1.1314118
-0.00045626574
-1.2086101
-0.00038891383
-1.2913363
-0.00023144892
-1.3800575
0.0020752512
-0.20073493
0.003947636
-0.1997212
0.0052201334
-0.19823912
0.0071385736
-0.19612225
0.0090405159
-0.19328848
0.01124382
-0.18961541
0.013562629
-0.18009062
0.014226459
-0.19323345
0.014723866
-0.20763314
0.015062695
-0.22342482
0.01520612
-0.24071106
0.01516229
-0.25955036
0.014926795
-0.27996131
0.014521548
-0.30193612
0.013969511
-0.32546135
0.013306275
-0.3505437
0.012563793
-0.37722812
0.011768327
-0.40560291
0.010933282
-0.43579152
0.010061452
-0.46793845
0.0091474161
-0.50219671
0.0081834605
-0.5387165
0.0071655229
-0.57763836
0.0060994322
-0.61908876
0.0050047856
-0.66318523
0.0039148902
-0.71004573
0.002872417
-0.75980296
0.0019221447
-0.81262018
0.0011034774
-0.86869798
0.00044436269
-0.92828646
-4.153455e-05
-0.99168657
-0.00035531406
-1.0592406
-0.00050943416
-1.1313587
-0.00052600135
-1.208473
-0.00042929762
-1.2911384
-0.00024900545
-1.3798085
0.001414516
-0.20056698
0.002957335
-0.19974463
0.0040572011
-0.19855827
0.0057380537
-0.1968386
0.0074257785
-0.19450751
0.0093950406
-0.1914397
0.011471302
-0.18752409
0.013736609
-0.17960077
0.014346364
-0.19285595
0.014818361
-0.2073888
0.01510691
-0.22332561
0.015212481
-0.24076125
0.015119869
-0.25974343
0.014842083
-0.28028184
0.0143948
-0.30236141
0.013810756
-0.32596583
0.013124719
-0.35110462
0.012370121
-0.37782991
0.01156852
-0.40623815
0.010729108
-0.43645918
0.0098495515
-0.46864058
0.0089214955
-0.50293474
0.0079362881
-0.53948727
0.0068918751
-0.5784308
0.0057986742
-0.61988264
0.0046824291
-0.66395277
0.0035822788
-0.71075559
0.002544545
-0.76042536
0.001614722
-0.81313143
0.00082997509
-0.86908359
0.00021392045
-0.92854192
-0.00022498896
-0.9918169
-0.00049273593
-1.0592573
-0.00060557355
-1.1312791
-0.00058783673
-1.2083145
-0.00046442637
-1.290923
-0.00026396884
-1.3795445
0.00088038986
-0.20041713
0.0021094428
-0.19971909
0.0030676898
-0.19875512
0.004535497
-0.19735571
0.0060385337
-0.19545135
0.007805588
-0.19291806
0.0096746874
-0.18964309
0.011716121
-0.1855036
0.013878185
-0.17913259
0.01446891
-0.1925065
0.01489394
-0.20717583
0.015148516
-0.22326164
0.015207477
-0.24084886
0.015072746
-0.25997409
0.014750848
-0.28063789
0.01426727
-0.30281792
0.013655213
-0.32649633
0.012952852
-0.35168735
0.012190173
-0.37845156
0.011384823
-0.40689386
0.010540102
-0.43714973
0.0096495672
-0.46936865
0.008702417
-0.50370087
0.007690389
-0.54028578
0.0066147441
-0.57924687
0.0054918041
-0.62069202
0.0043541283
-0.66472462
0.0032463393
-0.71145739
0.0022175603
-0.7610282
0.0013127793
-0.81361423
0.00056583119
-0.8694355
-4.7158032e-06
-0.92876219
-0.000395864
-0.99191377
-0.00061831261
-1.0592446
-0.0006917245
-1.1311752
-0.00064212729
-1.2081368
-0.00049462259
-1.2906924
-0.00027654098
-1.379268
0.00042446061
-0.200302
0.0013600063
-0.19966769
0.002205818
-0.19885722
0.0034826374
-0.19770226
0.0048269397
-0.19614412
0.0064203682
-0.19406613
0.0081159902
-0.19135936
0.0099698615
-0.18789683
0.01192492
-0.18355034
0.014024811
-0.17868849
0.01457238
-0.19218494
0.014968903
-0.20699622
0.015180485
-0.22323465
0.015199107
-0.24097522
0.015020103
-0.26024335
0.014658958
-0.28102958
0.014142384
-0.30330509
0.013508883
-0.32705236
0.012795029
-0.35229221
0.01202796
-0.3790947
0.011219083
-0.40757284
0.010366559
-0.43786672
0.0094601202
-0.47012636
0.008487725
-0.50449821
0.0074427419
-0.54111378
0.0063313467
-0.58008642
0.0051769607
-0.62151485
0.0040191035
-0.66549738
0.0029073366
-0.71214716
0.0018923918
-0.76160781
0.0010174733
-0.81406588
0.0003120566
-0.86975227
-0.00021091271
-0.92894714
-0.0005539459
-0.99197814
-0.00073220359
-1.0592041
-0.00076825701
-1.1310491
-0.00068929241
-1.2079421
-0.00052024428
-1.2904486
-0.0002869243
-1.3789811
-0.20023396
5.6351114e-10
0.00066909597
-0.19961109
0.0014308713
-0.19889275
0.0025367727
-0.19791135
0.0037443302
-0.19661965
0.0051881189
-0.19491187
0.006739736
-0.19268988
0.0084404897
-0.18982999
0.010227968
-0.18619987
0.01213939
-0.18166491
0.014151975
-0.17826809
0.01467766
-0.1918937
0.015035486
-0.20685122
0.015210895
-0.22324644
0.015186802
-0.24114192
0.01496753
-0.26055192
0.014569524
-0.28145672
0.01402617
-0.30382238
0.013376454
-0.32763378
0.012656034
-0.35292028
0.011886152
-0.37976177
0.011072291
-0.40827858
0.010207532
-0.43861413
0.009278868
-0.4709175
0.0082740721
-0.50532954
0.0071898298
-0.54197226
0.0060388727
-0.58094833
0.0048524376
-0.62234819
0.003676923
-0.66626697
0.002565828
-0.7128206
0.0015701458
-0.76216048
0.00072999752
-0.81448382
6.9577424e-05
-0.87003276
-0.0004041772
-0.92909691
-0.00069918931
-0.99201115
-0.00083470385
-1.0591377
-0.00083562713
-1.1309027
-0.0007298029
-1.2077326
-0.00054166278
-1.2901939
-0.00029531998
-1.3786857
-0.19956487
8.2621399e-10
-0.20023396
-0.00042445981
0.00070653607
-0.19888675
0.0016610776
-0.19801705
0.0027505732
-0.19691759
0.0040634005
-0.19549493
0.0054951464
-0.19366728
0.0070724316
-0.19132182
0.0087287827
-0.1883308
0.01049169
-0.18455217
0.012331012
-0.17984395
0.014283675
-0.1778741
0.014775573
-0.19163379
0.015102855
-0.20674318
0.015239213
-0.22329885
0.015175872
-0.24135026
0.014917809
-0.26090021
0.014488446
-0.28191899
0.013923403
-0.30436933
0.013263381
-0.32824113
0.012539418
-0.35357355
0.011766558
-0.38045604
0.010944092
-0.40901513
0.010060995
-0.43939626
0.0091023644
-0.47174579
0.0080573676
-0.50619708
0.0069279116
-0.5428613
0.0057345633
-0.58183045
0.0045168894
-0.62318815
0.0033275324
-0.66702867
0.0022226699
-0.71347312
0.0012520805
-0.76268256
0.0004515431
-0.81486578
-0.00016079447
-0.87027614
-0.00058417038
-0.92921193
-0.00083171292
-0.99201414
-0.00092622368
-1.0590471
-0.00089435969
-1.1307382
-0.00076415908
-1.2075101
-0.00055925219
-1.28993
-0.00030192466
-1.3783838
-0.19885833
1.4099688e-09
-0.19956487
-0.00066909488
-0.200302
-0.00088038849
0.00082437262
-0.19805005
0.0018122891
-0.19707877
0.0030083279
-0.19586252
0.0043380113
-0.19433779
0.0058146911
-0.19240954
0.0073710268
-0.18996407
0.0090227356
-0.18686185
0.010731512
-0.18295267
0.012527583
-0.17808786
0.014408821
-0.17750735
0.014876905
-0.19140784
0.015170383
-0.20667435
0.01527061
-0.22339359
0.015168884
-0.24160134
0.014876639
-0.2612884
0.014420282
-0.28241587
0.013840019
-0.30494596
0.013174101
-0.32887581
0.01244792
-0.35425491
0.011669567
-0.38118151
0.010832958
-0.4097871
0.009923635
-0.44021753
0.0089261637
-0.47261459
0.0078330423
-0.50710221
0.0066531192
-0.54377986
0.0054159732
-0.58272954
0.0041693983
-0.62403002
0.002971293
-0.66777729
0.0018790071
-0.71410005
0.00093956876
-0.76317059
0.00018326098
-0.81520984
-0.00037837235
-0.87048194
-0.0007507262
-0.92929292
-0.00095177835
-0.99198859
-0.0010072646
-1.0589342
-0.00094502924
-1.1305573
-0.00079287452
-1.2072764
-0.00057338205
-1.2896585
-0.00030692868
-1.3780769
-0.19803396
1.838166e-09
-0.19885833
-0.000706533
-0.19961109
-0.0013600044
-0.20041713
-0.0014145148
0.0009026837
-0.19714044
0.0019931195
-0.19606356
0.003232238
-0.19475675
0.004623554
-0.19314666
0.0061034095
-0.19114192
0.0076756863
-0.18861702
0.0092936051
-0.18542394
0.010976305
-0.1814014
0.012715427
-0.17639447
0.014540104
-0.17717055
0.014980421
-0.19121788
0.015243384
-0.20664712
0.01530764
-0.22353235
0.015171373
-0.24189607
0.014848057
-0.26171617
0.014371208
-0.28294706
0.013781272
-0.30555314
0.013112338
-0.32954023
0.012382811
-0.35496816
0.01159432
-0.38194288
0.010735925
-0.41059939
0.0097909038
-0.44108227
0.0087450578
-0.47352661
0.0075961553
-0.50804524
0.0063617842
-0.54472567
0.0050810858
-0.58364122
0.0038095556
-0.62486828
0.0026089981
-0.66850729
0.0015362446
-0.71469673
0.00063404933
-0.76362138
-7.377816e-05
-0.81551443
-0.00058261393
-0.87065005
-0.00090384596
-0.92934085
-0.0010597883
-0.99193606
-0.0010784189
-1.0588008
-0.00098823585
-1.130362
-0.00081646234
-1.2070334
-0.00058441093
-1.289381
-0.00031051256
-1.3777664
-0.19713128
2.3197276e-09
-0.19803396
-0.00082436899
-0.19888675
-0.0014308683
-0.1996677
-0.0021094413
-0.20056698
-0.0020752491
0.00099566466
-0.19614299
0.0021513571
-0.19498268
0.0034651357
-0.19359833
0.0048830764
-0.19192632
0.0063987133
-0.18986495
0.0079591945
-0.18728261
0.009569396
-0.18401703
0.011211839
-0.17989781
0.012909338
-0.1747637
0.014675485
-0.17686561
0.01509201
-0.1910665
0.015324107
-0.20666359
0.015355871
-0.22371684
0.015186566
-0.24223458
0.014838203
-0.26218317
0.014347169
-0.28351296
0.013751857
-0.30619266
0.013080364
-0.33023778
0.012344071
-0.35571791
0.011538399
-0.38274535
0.010648597
-0.41145708
0.009657204
-0.44199442
0.0085531645
-0.47448361
0.0073417729
-0.50902523
0.0060505972
-0.54569518
0.0047284415
-0.58456011
0.003437517
-0.6256968
0.0022418658
-0.66921291
0.0011959954
-0.71525867
0.00033698106
-0.76403214
-0.00031860706
-0.81577844
-0.00077314653
-0.87078075
-0.0010436991
-0.92935694
-0.0011562392
-0.99185824
-0.0011402791
-1.0586487
-0.0010245902
-1.1301538
-0.00083542647
-1.2067824
-0.00059267961
-1.2890989
-0.00031284518
-1.3774535
-0.19613562
2.7889789e-09
-0.19713128
-0.00090267911
-0.19805005
-0.0016610738
-0.19889275
-0.0022058146
-0.19971909
-0.0029573325
-0.20073493
-0.0029131737
0.0010775854
-0.19506922
0.0023159431
-0.19383349
0.0036775067
-0.19239276
0.0051491066
-0.19067672
0.0066757935
-0.18858155
0.0082477441
-0.18596095
0.009836425
-0.18264162
0.011453376
-0.17844185
0.013106086
-0.1731943
0.014821737
-0.17659534
0.015213915
-0.19095631
0.01541834
-0.20672606
0.015417481
-0.22394776
0.015220304
-0.24261669
0.014853581
-0.26268958
0.014353719
-0.28411482
0.013755095
-0.30686739
0.013079166
-0.33097288
0.012330012
-0.35650952
0.011497786
-0.38359454
0.010565261
-0.41236514
0.0095159266
-0.44295718
0.0083443417
-0.47548618
0.0070651752
-0.51003981
0.0057167948
-0.54668353
0.0043572464
-0.58547984
0.0030540315
-0.62650897
0.0018714959
-0.66988841
0.00086002945
-0.71578172
4.9790233e-05
-0.76440054
-0.00055038778
-0.8160012
-0.00094976607
-0.87087468
-0.0011706045
-0.92934257
-0.001241628
-0.99175689
-0.0011934927
-1.0584798
-0.0010546993
-1.1299345
-0.00085024797
-1.2065248
-0.00059850577
-1.2888132
-0.00031408084
-1.3771394
-0.19505803
3.2137185e-09
-0.19613562
-0.00099565905
-0.19714044
-0.0018122844
-0.19801706
-0.0025367688
-0.19885722
-0.0030676863
-0.19974463
-0.0039476337
-0.20090196
-0.0039810608
0.0011626998
-0.19391597
0.0024662692
-0.19262225
0.0038959468
-0.1911396
0.0054004725
-0.1894014
0.0069579049
-0.18729171
0.0085287327
-0.18465326
0.010109602
-0.18129785
0.011697533
-0.17703329
0.013313592
-0.17168615
0.014980833
-0.17636226
0.015352633
-0.1908906
0.015527053
-0.20683563
0.015497784
-0.22422524
0.015279578
-0.24304268
0.014900418
-0.26323628
0.01439518
-0.28475491
0.013793126
-0.30758135
0.013107971
-0.33175084
0.012337203
-0.35734894
0.011466923
-0.3844962
0.010478851
-0.41332806
0.0093598758
-0.44397272
0.008112434
-0.47653344
0.0067620973
-0.51108511
0.005358323
-0.54768461
0.0039674495
-0.58639326
0.0026604211
-0.62729789
0.0014998224
-0.6705282
0.00053021061
-0.71626214
-0.00022617555
-0.76472475
-0.00076844286
-0.81618252
-0.001112471
-0.87093282
-0.0012848821
-0.92929932
-0.0013165621
-0.99163383
-0.0012387211
-1.0582958
-0.0010791473
-1.1297057
-0.0008613765
-1.2062619
-0.00060217807
-1.2885251
-0.00031435693
-1.3768251
-0.19389534
3.309721e-09
-0.19505804
-0.001077579
-0.19614299
-0.0019931139
-0.19707877
-0.0027505684
-0.19791136
-0.0034826332
-0.19875512
-0.0040571971
-0.19972121
-0.0051283869
-0.20104857
-0.0053335816
0.0012403347
-0.19269004
0.0026214474
-0.19134775
0.0041032682
-0.1898424
0.005656545
-0.18810004
0.0072340734
-0.18599705
0.0088164229
-0.18336008
0.010386059
-0.17998637
0.011952409
-0.17567211
0.013532984
-0.1702383
0.015160043
-0.17616967
0.015507514
-0.19087106
0.015654887
-0.20699274
0.015604317
-0.22454998
0.015371061
-0.24351333
0.014983864
-0.26382497
0.014474921
-0.2854367
0.013866271
-0.30833965
0.013164145
-0.33257778
0.012360494
-0.35824251
0.011438581
-0.38545593
0.010381354
-0.41434954
0.0091815394
-0.44504182
0.0078515663
-0.47762291
0.0064289563
-0.51215575
0.0049739811
-0.54869114
0.0035597648
-0.5872926
0.0022585521
-0.62805662
0.001129042
-0.67112703
0.00020842826
-0.71669675
-0.00048967715
-0.76500351
-0.00097227856
-0.81632271
-0.0012613468
-0.87095635
-0.0013869894
-0.92922889
-0.0013816946
-0.99149085
-0.0012766212
-1.0580983
-0.0010984972
-1.1294685
-0.00086921901
-1.2059949
-0.00060395357
-1.2882355
-0.00031379793
-1.3765113
-0.19265501
3.219005e-09
-0.19389534
-0.0011626931
-0.19506922
-0.0021513507
-0.19606356
-0.0030083223
-0.1969176
-0.0037443252
-0.19770226
-0.0045354926
-0.19855827
-0.0052201292
-0.19962515
-0.0065518079
-0.20115717
-0.0070263005
0.0013209206
-0.19138951
0.002769193
-0.19001367
0.0043148472
-0.1885007
0.0059087483
-0.18677471
0.0075173379
-0.18469796
0.0091080869
-0.18208211
0.010673534
-0.1787075
0.012219283
-0.17435841
0.013771192
-0.16884945
0.015357786
-0.17601994
0.015681944
-0.19089812
0.015810164
-0.20719858
0.015743955
-0.22492287
0.01550045
-0.24402991
0.015108513
-0.26445856
0.014594505
-0.28616493
0.013972902
-0.3091484
0.013243175
-0.33346046
0.01239278
-0.35919671
0.011404213
-0.38647879
0.010264072
-0.41543207
0.0089734246
-0.44616368
0.0075564288
-0.47875038
0.0060630631
-0.51324483
0.0045634961
-0.54969487
0.003135675
-0.58816973
0.0018507671
-0.62877835
0.00076153378
-0.67168014
-0.00010346994
-0.71708295
-0.00073963226
-0.76523616
-0.0011615934
-0.81642247
-0.001396586
-0.87094676
-0.0014774796
-0.92913311
-0.0014377001
-0.99132977
-0.0013078385
-1.057889
-0.001113261
-1.1292245
-0.00087414368
-1.2057247
-0.00060406813
-1.2879452
-0.00031251717
-1.3761988
-0.19133409
3.0385498e-09
-0.19265501
-0.0012403281
-0.19391597
-0.0023159366
-0.19498268
-0.0032322318
-0.19586253
-0.0040633948
-0.19661965
-0.0048269346
-0.19735572
-0.005738049
-0.19823913
-0.0066061556
-0.19943605
-0.0082729281
-0.20121308
-0.0091152199
0.0013977228
-0.19001804
0.0029200999