/*--------------------------------*- C++ -*----------------------------------*\
| =========                 |                                                 |
| \\      /  F ield         | OpenFOAM: The Open Source CFD Toolbox           |
|  \\    /   O peration     | Version:  5.0                                   |
|   \\  /    A nd           | Web:      www.OpenFOAM.org                      |
|    \\/     M anipulation  |                                                 |
\*---------------------------------------------------------------------------*/
FoamFile
{
    version     2.0;
    format      ascii;
    class       volScalarField;
    location    "45";
    object      pMean;
}
// * * * * * * * * * * * * * * * * * * * * * * * * * * * * * * * * * * * * * //

dimensions      [0 2 -2 0 0 0 0];

internalField   nonuniform List<scalar> 
9200
(
-0.0004368147
-0.00042925715
-0.00094192499
-0.00042286811
-0.00093026482
-0.001607048
-0.00041274303
-0.00091448529
-0.0015870065
-0.0021944401
-0.00040104255
-0.00088960009
-0.0015605009
-0.0021696041
-0.0028024157
-0.00038713449
-0.00085935266
-0.001520277
-0.002134243
-0.0027727869
-0.003385888
-0.00037136144
-0.00082357198
-0.0014707884
-0.0020815057
-0.0027292241
-0.0033532596
-0.0039624129
-0.00035390585
-0.00078302465
-0.0014123982
-0.0020158235
-0.002665162
-0.0033033865
-0.0039278407
-0.0045231079
-0.00033484518
-0.00073853452
-0.0013460646
-0.0019383783
-0.0025846135
-0.0032307427
-0.0038731657
-0.0044881033
-0.0050722213
-0.00031429732
-0.00069063494
-0.0012731284
-0.0018501881
-0.0024895804
-0.0031383576
-0.0037941997
-0.0044304505
-0.0050381955
-0.0056053069
-0.00029217981
-0.0006401208
-0.0011944335
-0.0017531708
-0.0023810076
-0.0030290822
-0.0036924991
-0.0043478073
-0.0049795235
-0.005573891
-0.0061241604
-0.00026827623
-0.00058766457
-0.0011111565
-0.0016484921
-0.0022613716
-0.0029035439
-0.0035717621
-0.0042396725
-0.0048960916
-0.0055162674
-0.0060969504
-0.0066250616
-0.00024207604
-0.00053407513
-0.0010242258
-0.0015378075
-0.0021321262
-0.0027646645
-0.0034321262
-0.0041105772
-0.0047847687
-0.0054350356
-0.0060426183
-0.0066037746
-0.0071081521
-0.0002127878
-0.00048015513
-0.00093462695
-0.0014225053
-0.0019953811
-0.0026140652
-0.0032769135
-0.0039599203
-0.0046508687
-0.0053238375
-0.00596685
-0.0065550272
-0.0070945169
-0.0075703609
-0.00017933725
-0.00042680766
-0.00084318413
-0.0013041324
-0.0018528926
-0.0024542717
-0.0031078267
-0.003791357
-0.0044927955
-0.0051887118
-0.0058594575
-0.0064880574
-0.007053816
-0.0075661272
-0.0080107131
-0.00014050367
-0.00037498089
-0.00075059279
-0.0011841514
-0.0017065571
-0.0022874524
-0.0029277384
-0.0036065648
-0.0043144005
-0.0050267899
-0.0057271274
-0.0063882669
-0.0069992045
-0.0075359432
-0.008017626
-0.0084267817
-9.5173779e-05
-0.00032566813
-0.00065752806
-0.0010639993
-0.0015581297
-0.0021159899
-0.0027390993
-0.0034087193
-0.0041171888
-0.0048420081
-0.005565422
-0.0062628862
-0.0069110883
-0.0074972898
-0.0080005315
-0.0084465369
-0.0088170949
-4.2611584e-05
-0.00027987435
-0.00056467051
-0.00094502694
-0.0014093273
-0.0019420643
-0.0025446573
-0.0032005553
-0.0039045408
-0.0046355668
-0.005378188
-0.0061056157
-0.0067971677
-0.0074250722
-0.0079816049
-0.0084450571
-0.0088513317
-0.0091797531
1.7299412e-05
-0.0002384648
-0.00047258997
-0.00082849843
-0.0012617121
-0.001767784
-0.0023469503
-0.002985186
-0.0036793864
-0.0044109807
-0.0051661519
-0.0059200635
-0.0066489642
-0.0073273364
-0.0079297088
-0.0084495554
-0.0088679963
-0.0092299938
-0.0095132808
8.3887481e-05
-0.00020194775
-0.00038196757
-0.00071570893
-0.0011166968
-0.0015951025
-0.0021484135
-0.0027655062
-0.0034451699
-0.0041713201
-0.004932853
-0.005706292
-0.0064696488
-0.0071931295
-0.0078531461
-0.0084224811
-0.0088996471
-0.0092672191
-0.0095809262
-0.0098162711
0.00015575336
-0.00017040829
-0.00029372109
-0.00060786975
-0.00097551901
-0.0014257584
-0.001951285
-0.002544323
-0.0032051296
-0.0039203281
-0.0046814215
-0.0054677386
-0.0062584178
-0.0070249782
-0.0077382111
-0.008372275
-0.0089020014
-0.0093296003
-0.0096410086
-0.0099025656
-0.010087589
0.00023094747
-0.00014348037
-0.00020889233
-0.00050600745
-0.00083934839
-0.0012612992
-0.0017575947
-0.0023242297
-0.0029624312
-0.003661577
-0.0044158643
-0.0052074992
-0.0060184556
-0.0068209852
-0.0075865687
-0.0082821996
-0.0088834849
-0.0093659063
-0.0097375891
-0.0099876039
-0.010193589
-0.0103264
0.00030707432
-0.00012066551
-0.00012880952
-0.00041105849
-0.00070926549
-0.0011030611
-0.0015691139
-0.0021075738
-0.0027200161
-0.003398615
-0.0041400808
-0.0049297915
-0.0057527084
-0.0065839085
-0.0073949863
-0.0081528291
-0.0088241181
-0.0093844829
-0.0098123147
-0.010121573
-0.010305479
-0.010452911
-0.010532116
0.00038135824
-0.00010199135
-5.510809e-05
-0.00032393239
-0.00058634322
-0.0009523808
-0.0013874016
-0.0018964306
-0.0024805763
-0.0031347745
-0.0038580102
-0.0046388189
-0.0054655384
-0.0063163972
-0.0071655864
-0.007979342
-0.0087231701
-0.0093618891
-0.0098733724
-0.010238957
-0.010479726
-0.01059327
-0.010679738
-0.010704383
0.00045111738
-8.8664504e-05
1.0858362e-05
-0.00024543234
-0.00047166108
-0.00081048665
-0.0012138477
-0.0016925723
-0.0022465037
-0.0028731309
-0.0035733919
-0.0043389209
-0.0051614267
-0.0060228619
-0.0069005483
-0.0077629968
-0.0085739724
-0.009295874
-0.0098937268
-0.010347755
-0.010643765
-0.010810302
-0.010849827
-0.010873525
-0.010843163
0.00051421258
-8.2093115e-05
6.9036381e-05
-0.00017617729
-0.00036629998
-0.00067833702
-0.001049667
-0.0014975188
-0.0020198786
-0.0026164514
-0.0032897098
-0.0040342768
-0.0048451205
-0.0057080084
-0.0066042039
-0.0075052892
-0.0083766609
-0.0091776693
-0.0098694317
-0.010417261
-0.010805345
-0.011024599
-0.011111764
-0.011074283
-0.011033968
-0.010948694
0.00056901038
-8.248494e-05
0.00011979591
-0.00011655474
-0.00027115126
-0.00055664626
-0.00089591832
-0.0013126661
-0.0018024912
-0.0023671574
-0.0030101269
-0.0037288252
-0.004521269
-0.0053769817
-0.0062814056
-0.0072103039
-0.0081318043
-0.0090060195
-0.0097893809
-0.010441673
-0.010930107
-0.011243669
-0.011379483
-0.011382773
-0.011266053
-0.011161065
-0.011021433
0.00061406338
-8.9408125e-05
0.00016251478
-6.6731103e-05
-0.00018645186
-0.00044609121
-0.00075357553
-0.0011393102
-0.001595905
-0.0021273193
-0.0027374477
-0.0034261816
-0.0041943078
-0.0050349255
-0.0059376699
-0.0068829229
-0.0078430304
-0.0087802874
-0.0096506434
-0.010407333
-0.011010291
-0.011429581
-0.011660314
-0.011706543
-0.011622233
-0.01142479
-0.011255076
-0.011062048
0.00064789537
-0.0001027444
0.00019600209
-2.6669683e-05
-0.00011237082
-0.0003478713
-0.00062345861
-0.00097846107
-0.0014014935
-0.0018987016
-0.0024740962
-0.0031295938
-0.0038683473
-0.0046868209
-0.0055786517
-0.0065289731
-0.007515087
-0.0085033889
-0.0094510799
-0.010309362
-0.011029515
-0.011572563
-0.011912932
-0.012052875
-0.012004103
-0.011829313
-0.011550411
-0.011316491
-0.011071549
0.00066990422
-0.00012239986
0.00021926395
3.6280019e-06
-4.9647873e-05
-0.00026286355
-0.00050614259
-0.00083087219
-0.0012203833
-0.0016828195
-0.0022221437
-0.0028419044
-0.0035471177
-0.0043373347
-0.0052099276
-0.0061546133
-0.0071540079
-0.0081797218
-0.0091925962
-0.010143801
-0.010980688
-0.011653382
-0.012125555
-0.012377295
-0.012419059
-0.012270667
-0.012003401
-0.011643076
-0.011346031
-0.011051245
0.00068585355
-0.00014702588
0.00023244684
2.3905639e-05
8.4545433e-07
-0.00019092756
-0.00040206152
-0.00069718145
-0.0010534304
-0.0014810099
-0.0019833776
-0.002565548
-0.0032339265
-0.0039907439
-0.0048367879
-0.005766055
-0.0067664148
-0.0078153688
-0.0088789721
-0.0099112156
-0.010857717
-0.011662512
-0.012276043
-0.012666083
-0.012819801
-0.01275669
-0.012504954
-0.012144071
-0.011703154
-0.011344707
-0.011002518
0.00070790635
-0.00016702795
0.00023666
3.4700143e-05
3.8569579e-05
-0.00013177877
-0.00031172791
-0.00057828889
-0.00090134256
-0.0012943592
-0.0017593382
-0.0023025999
-0.0029316365
-0.0036508882
-0.0044641258
-0.0053692842
-0.0063591726
-0.0074173239
-0.0085161202
-0.0096144472
-0.010659469
-0.011591413
-0.012352243
-0.012894201
-0.013190812
-0.013237593
-0.013063765
-0.01270594
-0.012251191
-0.011731299
-0.011313733
-0.010926792
0.00073122959
-0.00017718569
0.00023479828
3.509033e-05
6.5080802e-05
-8.5458486e-05
-0.0002359483
-0.00047501012
-0.00076475476
-0.0011236553
-0.0015512596
-0.0020548369
-0.0026426996
-0.0033211348
-0.0040963765
-0.0049698985
-0.0059390296
-0.0069930841
-0.0081112534
-0.0092589556
-0.010387483
-0.011436886
-0.012342897
-0.01304675
-0.013504252
-0.013696285
-0.013627901
-0.013338486
-0.012872877
-0.012324956
-0.011728414
-0.011254466
-0.010825626
0.00075339451
-0.00018464638
0.000237637
3.0814587e-05
8.2787149e-05
-5.0378391e-05
-0.00017532035
-0.00038748904
-0.00064429858
-0.00096955417
-0.0013600608
-0.0018237613
-0.0023692202
-0.0030043823
-0.0037374764
-0.0045730164
-0.005512385
-0.0065502052
-0.0076724251
-0.0088519504
-0.010046423
-0.011198769
-0.012242367
-0.013109514
-0.01374242
-0.014102296
-0.014178993
-0.013988083
-0.013579308
-0.013005306
-0.012365803
-0.011695591
-0.011168379
-0.010700703
0.00077395397
-0.00019158936
0.00024159602
3.7005929e-05
9.2179718e-05
-2.7271101e-05
-0.000127422
-0.00031569725
-0.00054067658
-0.00083293092
-0.0011864306
-0.0016105042
-0.0021129858
-0.0027031171
-0.0033908444
-0.0041832286
-0.0050851466
-0.0060959827
-0.0072079999
-0.008401895
-0.0096431998
-0.010880528
-0.012048363
-0.013074062
-0.013887972
-0.014435166
-0.014684212
-0.01463543
-0.014315681
-0.013784961
-0.01310305
-0.012374393
-0.011634082
-0.011057076
-0.010553799
0.00079244201
-0.00019799072
0.00024519629
4.5958021e-05
0.00010723702
-1.6106591e-05
-9.0291769e-05
-0.00025682028
-0.00045433161
-0.000714538
-0.0010310841
-0.0014158835
-0.0018754238
-0.0024194741
-0.0030594278
-0.0038045647
-0.0046626598
-0.0056372389
-0.006726244
-0.0079179034
-0.0091864607
-0.010488407
-0.011762706
-0.012935545
-0.013929371
-0.014674327
-0.01512047
-0.015245707
-0.015062168
-0.014608475
-0.013954474
-0.013166218
-0.012351645
-0.011545313
-0.010922266
-0.010386755
0.00080823561
-0.00020362926
0.00024826625
5.4440649e-05
0.0001223963
5.682639e-06
-6.6465254e-05
-0.00021038483
-0.00038185476
-0.00061451513
-0.00089495496
-0.0012406879
-0.0016575584
-0.0021552312
-0.0027457711
-0.0034405125
-0.0042496645
-0.005180204
-0.0062350191
-0.0074092405
-0.008685933
-0.010030933
-0.01139054
-0.012693651
-0.013858781
-0.014804887
-0.015463992
-0.015793436
-0.015782401
-0.015455926
-0.014864535
-0.014087201
-0.01319521
-0.012298708
-0.011430867
-0.010765778
-0.010201485
0.00082072162
-0.00020836752
0.0002509017
6.1745373e-05
0.00013666536
2.9275992e-05
-3.3469157e-05
-0.00018178677
-0.00032154208
-0.00052880905
-0.00077853816
-0.0010860553
-0.0014601729
-0.0019116692
-0.0024520346
-0.0030940913
-0.0038502845
-0.0047304548
-0.005741593
-0.0068849129
-0.0081518399
-0.0095182229
-0.010939882
-0.012351924
-0.013673242
-0.014815624
-0.015696361
-0.016251756
-0.016448849
-0.01628991
-0.015813652
-0.015082257
-0.014182839
-0.013190705
-0.012216946
-0.011292493
-0.010589537
-0.0099999564
0.00082937782
-0.00021207237
0.00025308357
6.7917793e-05
0.0001493559
5.1825046e-05
-1.4333146e-06
-0.00014125837
-0.00028143782
-0.00045588468
-0.00067722764
-0.00095256942
-0.0012843893
-0.0016897349
-0.0021798871
-0.0027679033
-0.0034680979
-0.0042928786
-0.0052525345
-0.0063533852
-0.0075943904
-0.0089613334
-0.010420923
-0.011917403
-0.013374146
-0.014700416
-0.015802636
-0.016598671
-0.017031821
-0.017081286
-0.016763963
-0.016132596
-0.01526041
-0.014241424
-0.013153657
-0.012107879
-0.01113204
-0.010395518
-0.0097840697
0.0008338256
-0.00021463112
0.0002547673
7.2929826e-05
0.00016037403
7.1815539e-05
2.8869325e-05
-0.00010080968
-0.0002285447
-0.0004077465
-0.00058869513
-0.0008348997
-0.0011311465
-0.0014907084
-0.0019305695
-0.0024640976
-0.0031062189
-0.0038717176
-0.0047736526
-0.0058224036
-0.0070233848
-0.0083716599
-0.0098453402
-0.011399952
-0.012967006
-0.014457903
-0.015773036
-0.016815285
-0.017505815
-0.017797898
-0.017685229
-0.01720049
-0.016410373
-0.015398158
-0.014263343
-0.013085281
-0.011973215
-0.010951451
-0.010185666
-0.0095555769
-0.00021595649
0.00083382549
0.00025589033
7.6729359e-05
0.00016953758
8.897618e-05
5.5974233e-05
-6.2061716e-05
-0.00017784731
-0.0003448607
-0.00052893102
-0.00073020525
-0.0009946517
-0.0013158145
-0.0017054491
-0.0021842397
-0.0027672922
-0.0034706708
-0.0043099946
-0.0052988918
-0.0064479419
-0.0077604265
-0.0092256067
-0.010811553
-0.012460862
-0.014091448
-0.015602831
-0.016887718
-0.017847866
-0.018410965
-0.018543327
-0.018255201
-0.017595742
-0.016645024
-0.015495092
-0.014249326
-0.012987064
-0.011814838
-0.010752695
-0.0099618157
-0.0093160361
0.0002564327
-0.00021595673
0.00082937775
7.923806e-05
0.00017663047
0.00010306821
7.9471623e-05
-2.7300093e-05
-0.00012959112
-0.00028433645
-0.00045262121
-0.00065940234
-0.00087115162
-0.0011586341
-0.0015059582
-0.0019299281
-0.0024533338
-0.0030929122
-0.0038659517
-0.0047888981
-0.0058763231
-0.0071382997
-0.0085743807
-0.010165554
-0.011867587
-0.013608671
-0.015292546
-0.016807267
-0.018039658
-0.018893486
-0.019306566
-0.019261234
-0.018785911
-0.017946371
-0.016835071
-0.015551243
-0.014200471
-0.012860746
-0.011634749
-0.010537701
-0.0097256291
-0.0090669281
8.044082e-05
0.00025643241
-0.00021463141
0.00082072133
0.0001814068
0.00011384678
9.8947549e-05
2.8006809e-06
-8.6210687e-05
-0.00022635909
-0.00038029371
-0.00056985656
-0.00078696767
-0.0010145333
-0.0013252229
-0.0017029003
-0.0021663348
-0.0027410667
-0.0034453369
-0.0042976649
-0.0053158209
-0.0065151127
-0.0079039948
-0.009475962
-0.0112011
-0.013020815
-0.01484768
-0.016570885
-0.018067969
-0.019222519
-0.019944119
-0.020184501
-0.019944703
-0.019272391
-0.018249539
-0.016979566
-0.015567111
-0.014118241
-0.012708279
-0.011434953
-0.010308242
-0.0094786622
-0.0088097821
0.00018374897
8.0440417e-05
0.00025588929
-0.00021207318
0.00080823533
0.00012103324
0.00011397445
2.7697837e-05
-4.8559619e-05
-0.00017404412
-0.00031114541
-0.00048535389
-0.00068169567
-0.00091605624
-0.001157633
-0.0014957878
-0.0019083647
-0.002417565
-0.0030513844
-0.0038297433
-0.0047727501
-0.0058996761
-0.0072260654
-0.0087568137
-0.010476569
-0.012341948
-0.014278197
-0.016181159
-0.017925451
-0.019379883
-0.020428395
-0.020990735
-0.021036277
-0.020586962
-0.019710133
-0.018502992
-0.017078143
-0.015543686
-0.014004429
-0.012531684
-0.011217339
-0.010065956
-0.0092224676
-0.0085461837
0.00012452139
0.00018374848
7.9236904e-05
0.00025476566
-0.0002083684
0.00079244151
0.00012408363
4.6861962e-05
-1.734741e-05
-0.00012855474
-0.00024866701
-0.00040442585
-0.00058322356
-0.00079378037
-0.0010426696
-0.0013018798
-0.0016714585
-0.0021248769
-0.002687106
-0.003389017
-0.0042525673
-0.0052996724
-0.0065511987
-0.0080216596
-0.0097096789
-0.011588113
-0.013597772
-0.015645993
-0.017610918
-0.01935325
-0.02073597
-0.021647873
-0.022023488
-0.021853254
-0.021181579
-0.020095239
-0.018705171
-0.017131058
-0.015482433
-0.013861009
-0.012332912
-0.010983641
-0.0098124731
-0.0089586783
-0.0082775684
0.00012904874
0.00012452082
0.00018140538
7.6727377e-05
0.00025308117
-0.00020363064
0.00077395343
5.9714172e-05
6.7318371e-06
-9.0801442e-05
-0.00019428194
-0.00033113421
-0.00048899636
-0.00068009502
-0.00090085734
-0.0011685368
-0.0014476454
-0.0018544197
-0.0023555321
-0.0029792424
-0.0037599627
-0.0047217107
-0.0058887811
-0.0072831528
-0.0089159822
-0.010776478
-0.012822898
-0.014977958
-0.017129301
-0.019136789
-0.02084898
-0.022127168
-0.02287019
-0.023031967
-0.02262689
-0.02172267
-0.020424563
-0.01885528
-0.017139215
-0.015385144
-0.013689938
-0.012113771
-0.010735617
-0.0095495446
-0.0086888818
-0.008005155
6.5987647e-05
0.00012904806
0.00012103149
0.00017662804
7.2927045e-05
0.00025089866
-0.00019799222
0.00075339371
2.2918372e-05
-6.1651251e-05
-0.00014910066
-0.00026724041
-0.00040354781
-0.00057133741
-0.0007699376
-0.0010047956
-0.0012933064
-0.0015967119
-0.0020474041
-0.0026041742
-0.0032994506
-0.0041714562
-0.0052469001
-0.00655272
-0.0081103668
-0.0099245733
-0.011971959
-0.014193427
-0.016491184
-0.018731445
-0.020756119
-0.022404825
-0.023542453
-0.024083465
-0.024005477
-0.023349022
-0.022205105
-0.02069587
-0.01895335
-0.01710402
-0.015253675
-0.013493031
-0.011876114
-0.010475198
-0.0092789083
-0.0084144492
-0.0077301728
3.0844141e-05
6.5986929e-05
0.00012408164
0.00011384387
0.00016953418
6.7914126e-05
0.00024826242
-0.00019159142
0.00073122869
-4.2046948e-05
-0.00011417937
-0.00021409474
-0.00032898499
-0.00047257757
-0.00064484279
-0.00085459697
-0.001104476
-0.0014185387
-0.0017512289
-0.0022538367
-0.0028756742
-0.0036543123
-0.0046324527
-0.0058403265
-0.007306602
-0.0090496251
-0.011064333
-0.013311578
-0.015712042
-0.018144762
-0.020453295
-0.022463358
-0.02401039
-0.024969032
-0.025275016
-0.024933399
-0.02401217
-0.022624748
-0.020907926
-0.019000089
-0.017027046
-0.015089752
-0.0132722
-0.011622115
-0.010204362
-0.0090020028
-0.0081364972
-0.0074538902
-3.2446546e-05
3.0843375e-05
5.9711954e-05
0.00011397109
0.0001030641
0.00016036957
6.1740824e-05
0.00024519179
-0.00018464862
0.00070790506
-9.0668793e-05
-0.00017297171
-0.000266907
-0.00038632057
-0.00053114389
-0.00071127989
-0.00093242529
-0.0012011656
-0.0015458204
-0.0019142643
-0.0024780744
-0.003176005
-0.0040519448
-0.0051544535
-0.0065169427
-0.0081679806
-0.010119601
-0.012353398
-0.014811245
-0.017390313
-0.019943827
-0.022292631
-0.024249809
-0.025652778
-0.026392635
-0.026431759
-0.025805579
-0.024609849
-0.022978645
-0.021060405
-0.018996544
-0.016909774
-0.014895273
-0.013029874
-0.011354066
-0.0099244868
-0.0087198197
-0.0078562097
-0.0071767977
-7.9137032e-05
-3.2447443e-05
2.2915957e-05
4.6858298e-05
9.8942869e-05
8.8970865e-05
0.0001493504
5.4435127e-05
0.00024159069
-0.00017718856
0.00068585214
-0.00014525372
-0.00021882057
-0.00031444665
-0.00043177838
-0.00058092574
-0.00076857325
-0.0010044127
-0.0012957908
-0.0016779832
-0.0020896194
-0.0027254838
-0.0035124119
-0.0045029828
-0.0057518961
-0.00729456
-0.009156842
-0.011340746
-0.013810986
-0.016486813
-0.019238166
-0.021890482
-0.024243646
-0.026103533
-0.027316822
-0.027797958
-0.027540702
-0.026612775
-0.02513685
-0.023264959
-0.021153425
-0.018943704
-0.016753949
-0.014672901
-0.012768699
-0.011073259
-0.0096361915
-0.0084337286
-0.0075755011
-0.0068990888
-0.00013162789
-7.9138027e-05
-4.2049551e-05
6.7278944e-06
2.7692663e-05
7.9465553e-05
7.1808987e-05
0.00013665872
4.5951523e-05
0.00023763096
-0.00016703102
0.00066990225
-0.0001863698
-0.00025871718
-0.00034892768
-0.00046695816
-0.00061949012
-0.00081742977
-0.0010709694
-0.00139048
-0.0018182174
-0.0022817937
-0.0030023637
-0.0038945027
-0.0050210814
-0.0064423887
-0.0081939446
-0.010295502
-0.012735199
-0.015457025
-0.018353243
-0.021262857
-0.023983035
-0.026296619
-0.028009448
-0.028985515
-0.029169212
-0.028589501
-0.027347044
-0.025589283
-0.023482459
-0.02118714
-0.018842947
-0.016562392
-0.014425641
-0.012489815
-0.010779777
-0.0093415297
-0.0081470978
-0.0072961562
-0.0066100684
-0.00017038661
-0.00013162896
-9.0671651e-05
-6.1655641e-05
-1.7353007e-05
2.7940416e-06
5.5966816e-05
5.1817252e-05
0.00012238853
3.6998405e-05
0.00023479143
-0.00014702965
0.0006478933
-0.00022106141
-0.00028463848
-0.00037189266
-0.00048914126
-0.0006472725
-0.00085779689
-0.001133609
-0.0014874655
-0.0019702279
-0.0024962755
-0.0033171793
-0.0043349567
-0.0056232896
-0.0072469188
-0.0092387541
-0.011608563
-0.014326589
-0.017311469
-0.020423507
-0.023467949
-0.026215385
-0.028437816
-0.029949684
-0.030640611
-0.030490815
-0.029567025
-0.028001846
-0.025964032
-0.023630011
-0.021162238
-0.018697096
-0.016338439
-0.014154374
-0.01219258
-0.010476496
-0.0090466464
-0.0078620714
-0.0069972509
-0.0063072273
-0.00020246916
-0.00017038782
-0.00014525699
-0.00011418421
-9.0807524e-05
-4.8566747e-05
-2.7308273e-05
2.8860498e-05
2.9266939e-05
0.00010722808
3.0806066e-05
0.00023665246
-0.0001224039
0.00061406075
-0.00024115896
-0.00029808655
-0.00038040374
-0.0004985129
-0.00066380641
-0.00089063019
-0.001193855
-0.001589359
-0.0021388887
-0.0027407825
-0.0036815253
-0.0048500373
-0.0063303324
-0.0081898988
-0.010455517
-0.013122847
-0.016139542
-0.019393233
-0.022707354
-0.025852374
-0.028576626
-0.030649681
-0.031904203
-0.032263406
-0.031748094
-0.030463574
-0.028571524
-0.026258078
-0.023707111
-0.021081295
-0.018509723
-0.016082555
-0.013857521
-0.011881002
-0.01017334
-0.008753403
-0.0075465293
-0.0066843583
-0.0059954136
-0.00021964488
-0.00020247061
-0.00018637356
-0.00017297711
-0.00014910736
-0.0001285626
-8.6219472e-05
-6.2071379e-05
-1.443487e-06
5.6723489e-06
9.2169668e-05
3.5080829e-05
0.00023243852
-0.00010274913
0.00056900774
-0.00024813118
-0.00029595948
-0.00037442982
-0.00049425618
-0.00066954444
-0.00091680417
-0.0012536208
-0.0016995913
-0.0023312502
-0.0030256612
-0.0041107314
-0.0054598084
-0.0071668
-0.0092991762
-0.011873676
-0.014867136
-0.018198796
-0.021718863
-0.025210059
-0.028409689
-0.031051008
-0.032911409
-0.033851644
-0.033835603
-0.032927705
-0.031270308
-0.029050506
-0.026469165
-0.023715699
-0.020947932
-0.018280665
-0.015791952
-0.013540551
-0.011570071
-0.0098722261
-0.0084084582
-0.0072195859
-0.0063613489
-0.0056760718
-0.00022336074
-0.00021964644
-0.00022106565
-0.00021882677
-0.00021410237
-0.00019429063
-0.00017405365
-0.00012960143
-0.00010082089
-3.3480704e-05
-1.6118026e-05
8.277602e-05
3.4689771e-05
0.00021925507
-8.9413082e-05
0.0005142096
-0.00023875537
-0.00027805689
-0.00035286581
-0.00047638864
-0.00066477746
-0.00093755088
-0.0013153718
-0.0018234939
-0.0025567957
-0.0033644969
-0.0046238795
-0.0061885476
-0.0081612115
-0.010606181
-0.013525525
-0.016871547
-0.020527898
-0.024301024
-0.027931287
-0.031127691
-0.033618359
-0.035199836
-0.035770331
-0.0353399
-0.034017075
-0.031978297
-0.029433991
-0.026598017
-0.023659152
-0.020761071
-0.01800557
-0.015473929
-0.01322491
-0.011261586
-0.0094905858
-0.0080542143
-0.0068799523
-0.0060295607
-0.0053486609
-0.00021031183
-0.00022336243
-0.00024116376
-0.00025872436
-0.00026691579
-0.00026725018
-0.00024867756
-0.00022637041
-0.00017785928
-0.000141271
-6.6478008e-05
-2.7283635e-05
6.5068693e-05
2.3894464e-05
0.00019599261
-8.2490429e-05
0.00045111448
-0.00021272711
-0.00024304662
-0.00031536317
-0.00044469189
-0.00065008277
-0.00095448683
-0.00138304
-0.0019687035
-0.0028276465
-0.003774908
-0.0052445641
-0.0070648523
-0.0093463073
-0.012146007
-0.015445881
-0.019166412
-0.023147558
-0.027146979
-0.030864268
-0.033988587
-0.036254978
-0.037490558
-0.037639029
-0.036759523
-0.035003214
-0.032579264
-0.029720728
-0.026647283
-0.023535065
-0.020514325
-0.017693942
-0.01515806
-0.01291215
-0.010832795
-0.0091021564
-0.0076847273
-0.00653121
-0.0056888241
-0.0050136896
-0.00018015691
-0.00021031366
-0.0002481364
-0.00028464649
-0.00031445669
-0.00032899628
-0.00033114625
-0.00031115797
-0.00028434946
-0.00022855818
-0.00018180083
-9.0305732e-05
-5.0391976e-05
3.8556618e-05
3.6162165e-06
0.00016250499
-8.2098759e-05
0.0003813553
-0.00016854799
-0.00019029609
-0.00026128278
-0.00039916518
-0.00062629218
-0.00097035158
-0.0014624588
-0.0021449157
-0.003159886
-0.004279163
-0.006000981
-0.0081220982
-0.010759227
-0.013957353
-0.017671273
-0.021780653
-0.026073802
-0.030257286
-0.033995611
-0.036969806
-0.038934835
-0.039758851
-0.039436572
-0.038076775
-0.035873323
-0.033069006
-0.029912087
-0.026612681
-0.023334431
-0.020219756
-0.017385348
-0.014845493
-0.012427758
-0.010399013
-0.0086955506
-0.007305978
-0.0061727328
-0.0053396019
-0.0046711986
-0.00013129893
-0.00018015884
-0.00023876083
-0.00029809525
-0.00034893906
-0.00038633367
-0.00040356178
-0.00040444013
-0.00038030819
-0.00034487549
-0.00028145285
-0.00021040015
-0.00012743704
-8.5472948e-05
8.3185415e-07
-2.6681969e-05
0.00011978577
-8.867037e-05
0.00030707156
-0.0001053984
-0.00011883851
-0.00019013648
-0.00033997321
-0.00059512411
-0.00098939859
-0.0015613341
-0.0023649656
-0.0035737826
-0.0049041861
-0.0069265829
-0.0093987072
-0.012441672
-0.016082069
-0.020238492
-0.024739729
-0.029316195
-0.033625112
-0.037305893
-0.040045242
-0.041630637
-0.041979389
-0.0411401
-0.03927344
-0.036619025
-0.03344676
-0.030001102
-0.026481743
-0.023072155
-0.019929044
-0.017080358
-0.014295365
-0.011939637
-0.0099438616
-0.0082799924
-0.0069171656
-0.0058052774
-0.0049821926
-0.0043215476
-6.2827928e-05
-0.00013130087
-0.00021273279
-0.00029596876
-0.00037190509
-0.00043179316
-0.00047259369
-0.00048901298
-0.00048537057
-0.00045263777
-0.00040776293
-0.0003215585
-0.00025683688
-0.00017533636
-0.00013179391
-4.9661959e-05
-6.6743631e-05
6.9026249e-05
-0.00010199722
0.00023094496
-2.208051e-05
-2.7809741e-05
-0.00010154721
-0.00026797843
-0.00055950739
-0.0010175422
-0.0016900549
-0.0026451431
-0.0040943456
-0.0056824767
-0.0080604586
-0.010938478
-0.014439782
-0.018564032
-0.023182521
-0.028063478
-0.032876605
-0.037236495
-0.040770916
-0.043186462
-0.044313641
-0.044124125
-0.042725086
-0.040335664
-0.037236376
-0.033702077
-0.029970751
-0.026272428
-0.022814355
-0.019642028
-0.016454735
-0.013741858
-0.011426455
-0.0094805604
-0.0078542761
-0.0065192096
-0.0054291235
-0.0046170671
-0.0039650667
2.6585403e-05
-6.2829842e-05
-0.00016855391
-0.00027806658
-0.00038041691
-0.00046697434
-0.00053116228
-0.0005713568
-0.00058324306
-0.00056987563
-0.00052894952
-0.00045590282
-0.0003818726
-0.00031571485
-0.00023596504
-0.00019094322
-0.00011238517
-0.00011656739
1.0848267e-05
-0.00012067126
0.00015575108
8.2529185e-05
8.3575504e-05
4.2876198e-06
-0.00018504629
-0.00052383071
-0.0010629861
-0.0018620712
-0.003006136
-0.0047521213
-0.0066526306
-0.0094478052
-0.012790723
-0.016803416
-0.021447243
-0.026534136
-0.031764341
-0.036748978
-0.041071474
-0.044363002
-0.04636262
-0.046951161
-0.046161668
-0.044170995
-0.041255034
-0.037710402
-0.033811917
-0.029842062
-0.026068139
-0.022559815
-0.018930644
-0.015824815
-0.013159105
-0.010906307
-0.0090073743
-0.0074194673
-0.0061123719
-0.0050449072
-0.0042448102
-0.0036022247
0.00013819821
2.6583458e-05
-0.00010540437
-0.00024305656
-0.00037444357
-0.00048915859
-0.00058094598
-0.00064486486
-0.00068011772
-0.00068171805
-0.00065942394
-0.00058871567
-0.00052882876
-0.00045435063
-0.00038750757
-0.00031174531
-0.00026287955
-0.00018646635
-0.0001761898
-5.5117814e-05
-0.00014348597
8.3885702e-05
0.00020948686
0.00021561336
0.00012630817
-9.4298209e-05
-0.00049440079
-0.001136608
-0.0020946867
-0.0034735378
-0.0055837366
-0.0078599601
-0.011140265
-0.015009945
-0.019584583
-0.024773373
-0.030317703
-0.035846566
-0.040920203
-0.045105475
-0.048051097
-0.049537624
-0.049505008
-0.048063573
-0.045463687
-0.042010656
-0.03801005
-0.033799859
-0.029718855
-0.025866272
-0.021752532
-0.018212352
-0.015160576
-0.01257108
-0.010376765
-0.0085254352
-0.0069757901
-0.005697365
-0.0046534208
-0.0038661369
-0.0032334484
0.00027321394
0.00013819631
-2.2086283e-05
-0.000190306
-0.00035288001
-0.00049853105
-0.00061951174
-0.00071130423
-0.00076996362
-0.00079380664
-0.00078699314
-0.00073022924
-0.00067725008
-0.00061453643
-0.00054069682
-0.00047502942
-0.00040207942
-0.00034788756
-0.00027116572
-0.00024544464
-0.00012881886
-0.00017041339
1.7297873e-05
0.00035939932
0.00036782885
0.00026233516
-4.9595792e-07
-0.00047980992
-0.0012526061
-0.002409651
-0.0040784563
-0.0066325549
-0.0093569881
-0.013195896
-0.017654699
-0.022835154
-0.028579327
-0.034549843
-0.040306662
-0.045371504
-0.049309605
-0.051797669
-0.052667355
-0.051938047
-0.049808688
-0.046574848
-0.042561157
-0.038160494
-0.033793965
-0.029597125
-0.024952886
-0.020933768
-0.017453343
-0.014493251
-0.011974468
-0.0098389485
-0.0080348911
-0.0065240127
-0.0052751882
-0.0042555285
-0.0034812721
-0.00285944
0.00043239908
0.00027321226
8.2523696e-05
-0.00011884825
-0.00031537734
-0.00049427476
-0.00064729512
-0.00076859945
-0.00085462575
-0.00090088734
-0.00091608604
-0.00087118001
-0.00083492616
-0.00077856264
-0.00071456081
-0.00064431993
-0.00057830898
-0.00050616098
-0.00044610763
-0.00036631435
-0.0003239443
-0.00020890108
-0.00020195256
-4.2612524e-05
0.00053217902
0.00053869312
0.00040879354
8.9649464e-05
-0.00049148086
-0.0014291233
-0.0028337756
-0.004858207
-0.0079492017
-0.011203682
-0.015678476
-0.020785662
-0.026604387
-0.032895511
-0.039239367
-0.045134634
-0.050078954
-0.053647564
-0.055554545
-0.055705958
-0.054220888
-0.05136005
-0.047449928
-0.042931837
-0.03831873
-0.033789134
-0.028568539
-0.024020872
-0.020065715
-0.016694033
-0.013818454
-0.01137026
-0.0092929098
-0.007536504
-0.0060653038
-0.0048468003
-0.0038509447
-0.0030910986
-0.0024806893
0.00061584625
0.00043239773
0.00020948173
-2.7819079e-05
-0.00026129648
-0.000476407
-0.00066382962
-0.00081745721
-0.00093245616
-0.0010048288
-0.0010427037
-0.0010145667
-0.00099468307
-0.00095259831
-0.00089498141
-0.00083295538
-0.00076477733
-0.00069720231
-0.00062347745
-0.0005566629
-0.00047167533
-0.00041107005
-0.00029372925
-0.00023846887
-9.5174562e-05
0.00072671665
0.00072546589
0.00056046295
0.00016704495
-0.0005442804
-0.0016888582
-0.0033996335
-0.0058569045
-0.0095918761
-0.01346721
-0.018656043
-0.024463361
-0.030937046
-0.037745314
-0.044388189
-0.050314659
-0.055010665
-0.058070104
-0.059268141
-0.058615169
-0.056306737
-0.052646728
-0.048112149
-0.04331384
-0.038479318
-0.032638292
-0.027510312
-0.023028498
-0.019200789
-0.015928607
-0.013136905
-0.010758328
-0.0087393566
-0.0070316074
-0.0056006939
-0.0044110904
-0.0034413224
-0.0026960617
-0.0020975104
0.00082265848
0.00061584509
0.00035939488
8.3566921e-05
-0.0001901495
-0.00044470971
-0.00066956733
-0.00085782481
-0.001004445
-0.0011045117
-0.0011685745
-0.001157671
-0.0011586709
-0.0011311808
-0.0010860868
-0.0010311127
-0.00096958034
-0.00090136642
-0.00083089401
-0.00075359498
-0.00067835395
-0.00058635743
-0.00050601869
-0.00038197526
-0.00027987818
-0.000140504
0.00094078723
0.00092400042
0.00071008259