/*--------------------------------*- C++ -*----------------------------------*\
| =========                 |                                                 |
| \\      /  F ield         | OpenFOAM: The Open Source CFD Toolbox           |
|  \\    /   O peration     | Version:  5.0                                   |
|   \\  /    A nd           | Web:      www.OpenFOAM.org                      |
|    \\/     M anipulation  |                                                 |
\*---------------------------------------------------------------------------*/
FoamFile
{
    version     2.0;
    format      ascii;
    class       volScalarField;
    location    "45";
    object      pPrime2Mean;
}
// * * * * * * * * * * * * * * * * * * * * * * * * * * * * * * * * * * * * * //

dimensions      [0 4 -4 0 0 0 0];

internalField   nonuniform List<scalar> 
9200
(
5.0934327e-09
5.2090588e-09
2.4254237e-08
5.2737401e-09
2.4897561e-08
6.776879e-08
5.4826904e-09
2.5094533e-08
6.9394746e-08
1.2177624e-07
5.6564226e-09
2.5776596e-08
7.0326645e-08
1.2473225e-07
1.8972982e-07
5.8991903e-09
2.6405741e-08
7.2518748e-08
1.2675378e-07
1.945871e-07
2.6311438e-07
6.1601584e-09
2.7352902e-08
7.4783951e-08
1.3104636e-07
1.9845324e-07
2.7029326e-07
3.4096996e-07
6.4779493e-09
2.8441327e-08
7.7911168e-08
1.3567788e-07
2.0601228e-07
2.7655032e-07
3.5092669e-07
4.1912795e-07
6.8681305e-09
2.9744141e-08
8.1543757e-08
1.4185399e-07
2.1438015e-07
2.882753e-07
3.6023084e-07
4.3231121e-07
4.9575077e-07
7.3732802e-09
3.1208793e-08
8.5862938e-08
1.4895423e-07
2.25258e-07
3.0149729e-07
3.7716608e-07
4.4532577e-07
5.1243674e-07
5.6882371e-07
8.0531284e-09
3.2807667e-08
9.0811695e-08
1.5720122e-07
2.3768934e-07
3.1847439e-07
3.9652399e-07
4.6855574e-07
5.2963341e-07
5.892292e-07
6.3709221e-07
8.9802133e-09
3.4506212e-08
9.6410132e-08
1.6643476e-07
2.5193277e-07
3.3787509e-07
4.2116449e-07
4.9546243e-07
5.5995491e-07
6.1102357e-07
6.6126924e-07
6.9986172e-07
1.0239184e-08
3.6256765e-08
1.0267938e-07
1.7661634e-07
2.6770171e-07
3.6002299e-07
4.4928465e-07
5.2956206e-07
5.9549291e-07
6.4918264e-07
6.8790127e-07
7.2772835e-07
7.57024e-07
1.1893877e-08
3.803542e-08
1.0958871e-07
1.8767996e-07
2.8490667e-07
3.844103e-07
4.8124548e-07
5.6850742e-07
6.4048008e-07
6.9444744e-07
7.3435741e-07
7.5924235e-07
7.8834723e-07
8.0886551e-07
1.394546e-08
3.9826753e-08
1.1707485e-07
1.9944803e-07
3.0342084e-07
4.1074741e-07
5.163097e-07
6.1258831e-07
6.9201858e-07
7.5179661e-07
7.9016761e-07
8.1421137e-07
8.2466534e-07
8.4324011e-07
8.5634838e-07
1.627118e-08
4.1656067e-08
1.2499852e-07
2.1168498e-07
3.2300207e-07
4.3864674e-07
5.5401169e-07
6.6068046e-07
7.5037342e-07
8.1774812e-07
8.6116472e-07
8.8113372e-07
8.8814737e-07
8.8398592e-07
8.9322143e-07
9.0062146e-07
1.8564557e-08
4.3597441e-08
1.3302399e-07
2.241281e-07
3.4331985e-07
4.6757003e-07
5.9374805e-07
7.1202712e-07
8.1400052e-07
8.9251949e-07
9.4331917e-07
9.667444e-07
9.665108e-07
9.5555939e-07
9.3790145e-07
9.3927931e-07
9.4338737e-07
2.0343426e-08
4.5757196e-08
1.4064071e-07
2.3649585e-07
3.6386335e-07
4.9698503e-07
6.347309e-07
7.6570883e-07
8.8181505e-07
9.7411331e-07
1.0367939e-06
1.0665424e-06
1.067569e-06
1.0452775e-06
1.016996e-06
9.8710421e-07
9.8300034e-07
9.8647177e-07
2.1063181e-08
4.8277021e-08
1.4730768e-07
2.4846743e-07
3.8407698e-07
5.2625097e-07
6.7619988e-07
8.2061209e-07
9.5252811e-07
1.061075e-06
1.1390938e-06
1.1807074e-06
1.1864442e-06
1.1621372e-06
1.1177651e-06
1.0726479e-06
1.0330577e-06
1.0261066e-06
1.0319787e-06
2.0292277e-08
5.1300898e-08
1.5242532e-07
2.5963362e-07
4.0334376e-07
5.5471341e-07
7.1731694e-07
8.7570345e-07
1.0246438e-06
1.1516685e-06
1.2483438e-06
1.3062195e-06
1.3233708e-06
1.3010636e-06
1.250561e-06
1.183664e-06
1.1237991e-06
1.0772585e-06
1.0706339e-06
1.0821468e-06
1.7894427e-08
5.4859922e-08
1.5543553e-07
2.6960342e-07
4.2104416e-07
5.8185148e-07
7.5718142e-07
9.2988398e-07
1.0967921e-06
1.2439104e-06
1.3622821e-06
1.4407402e-06
1.4747976e-06
1.4624337e-06
1.4103546e-06
1.3320268e-06
1.2440383e-06
1.1715521e-06
1.1216481e-06
1.1187458e-06
1.1393178e-06
1.4137825e-08
5.8749293e-08
1.5605353e-07
2.7804946e-07
4.3652668e-07
6.0709891e-07
7.9489327e-07
9.820472e-07
1.1675656e-06
1.3359904e-06
1.4783669e-06
1.5814211e-06
1.6378766e-06
1.6421899e-06
1.5977933e-06
1.5130229e-06
1.4072655e-06
1.2994498e-06
1.2176743e-06
1.1682619e-06
1.1727687e-06
1.2057055e-06
9.7368715e-09
6.2497573e-08
1.5441998e-07
2.8469644e-07
4.4919701e-07
6.2978466e-07
8.2967174e-07
1.0311601e-06
1.2355653e-06
1.4260689e-06
1.594269e-06
1.7250807e-06
1.80909e-06
1.8369582e-06
1.8083615e-06
1.7277354e-06
1.6094668e-06
1.4763122e-06
1.3514246e-06
1.2639477e-06
1.2193148e-06
1.2350154e-06
1.2834506e-06
5.7704468e-09
6.5689614e-08
1.5131683e-07
2.8943453e-07
4.5854514e-07
6.4902965e-07
8.6071985e-07
1.0763253e-06
1.2994556e-06
1.5123444e-06
1.707639e-06
1.8687832e-06
1.9845329e-06
2.0424827e-06
2.0381423e-06
1.9713126e-06
1.8524078e-06
1.6991907e-06
1.5402716e-06
1.4013247e-06
1.3124612e-06
1.2770923e-06
1.3076382e-06
1.3745429e-06
3.2994724e-09
6.8720557e-08
1.4767454e-07
2.9235316e-07
4.6429572e-07
6.6403885e-07
8.8713828e-07
1.116796e-06
1.3580695e-06
1.593119e-06
1.8161908e-06
2.0095594e-06
2.1605823e-06
2.2540512e-06
2.2820622e-06
2.2393226e-06
2.1310745e-06
1.9708144e-06
1.7827985e-06
1.599966e-06
1.4510125e-06
1.365375e-06
1.3438729e-06
1.3926959e-06
1.4806214e-06
3.023166e-09
7.2481471e-08
1.4321982e-07
2.9374401e-07
4.6656266e-07
6.7432591e-07
9.081385e-07
1.1517754e-06
1.4104316e-06
1.6669125e-06
1.917774e-06
2.1445076e-06
2.3335657e-06
2.4672654e-06
2.5344994e-06
2.5258143e-06
2.4405947e-06
2.2862794e-06
2.0830737e-06
1.8605077e-06
1.6568393e-06
1.5023705e-06
1.4249173e-06
1.4217404e-06
1.4920204e-06
1.6029725e-06
5.2084049e-09
7.7180996e-08
1.3702814e-07
2.9392451e-07
4.6566953e-07
6.7935787e-07
9.2307929e-07
1.1802393e-06
1.4555952e-06
1.7325968e-06
2.0104833e-06
2.2708754e-06
2.4998726e-06
2.6776639e-06
2.790176e-06
2.8241441e-06
2.7741042e-06
2.6404306e-06
2.4366559e-06
2.1887485e-06
1.9331699e-06
1.7123482e-06
1.5574964e-06
1.4932831e-06
1.5125977e-06
1.6070356e-06
1.7425277e-06
9.7285716e-09
8.244246e-08
1.2917419e-07
2.9309532e-07
4.6119741e-07
6.7864985e-07
9.3162937e-07
1.201115e-06
1.4925158e-06
1.7893117e-06
2.0928282e-06
2.3861775e-06
2.6560387e-06
2.8808323e-06
3.0437496e-06
3.1280218e-06
3.123826e-06
3.0255188e-06
2.8383593e-06
2.5811599e-06
2.2879948e-06
2.0016422e-06
1.7682846e-06
1.6185111e-06
1.5725928e-06
1.6181434e-06
1.7388201e-06
1.8998514e-06
1.6102865e-08
8.7874581e-08
1.2048784e-07
2.910911e-07
4.5252013e-07
6.733404e-07
9.3359668e-07
1.2135879e-06
1.5201884e-06
1.836183e-06
2.163773e-06
2.4884116e-06
2.798865e-06
3.0724763e-06
3.289927e-06
3.4310992e-06
3.4822926e-06
3.4325514e-06
3.2796732e-06
3.0328911e-06
2.7192251e-06
2.3808955e-06
2.0671799e-06
1.8265374e-06
1.6875403e-06
1.6647158e-06
1.7396738e-06
1.8880715e-06
2.0751913e-06
2.350192e-08
9.3217276e-08
1.1168977e-07
2.8756896e-07
4.4025368e-07
6.6525136e-07
9.2862825e-07
1.2170467e-06
1.5378946e-06
1.8722535e-06
2.2224497e-06
2.5762461e-06
2.9256502e-06
3.2485335e-06
3.5235078e-06
3.7271077e-06
3.8419748e-06
3.8527012e-06
3.7503744e-06
3.5349191e-06
3.2228262e-06
2.850055e-06
2.4679361e-06
2.1312092e-06
1.8891124e-06
1.7665518e-06
1.7710748e-06
1.8780353e-06
2.0551363e-06
2.2684344e-06
3.1826471e-08
9.8230737e-08
1.0326857e-07
2.8254341e-07
4.256373e-07
6.5460811e-07
9.1645744e-07
1.2110949e-06
1.5452406e-06
1.896477e-06
2.2679043e-06
2.6488612e-06
3.0344891e-06
3.4054169e-06
3.7394667e-06
4.0098668e-06
4.1954862e-06
4.2770277e-06
4.2401197e-06
4.0758921e-06
3.7896577e-06
3.4064862e-06
2.9731712e-06
2.5498029e-06
2.1953871e-06
1.9579946e-06
1.8572753e-06
1.8928451e-06
2.0337369e-06
2.240049e-06
2.4791529e-06
4.2007637e-08
1.0190846e-07
9.5880497e-08
2.7623917e-07
4.0973159e-07
6.4076433e-07
8.9746678e-07
1.1969681e-06
1.5416921e-06
1.9079061e-06
2.2991891e-06
2.7055155e-06
3.1243377e-06
3.5403868e-06
3.9331806e-06
4.2733113e-06
4.5355726e-06
4.6968001e-06
4.73829e-06
4.6438705e-06
4.407499e-06
4.0414804e-06
3.5823215e-06
3.088252e-06
2.6274991e-06
2.2614789e-06
2.0350789e-06
1.9612238e-06
2.0308992e-06
2.2069626e-06
2.4425551e-06
2.7067969e-06
5.3217674e-08
1.0470131e-07
8.9131458e-08
2.6919928e-07
3.9314734e-07
6.235783e-07
8.7317784e-07
1.1768983e-06
1.5269621e-06
1.9059019e-06
2.3156074e-06
2.7454098e-06
3.1945527e-06
3.6518626e-06
4.1008304e-06
4.5116796e-06
4.855073e-06
5.1035203e-06
5.2344966e-06
5.2263056e-06
5.0628717e-06
4.7423905e-06
4.2877991e-06
3.7487868e-06
3.1953115e-06
2.7022456e-06
2.3312958e-06
2.1221106e-06
2.0796103e-06
2.1857377e-06
2.3976456e-06
2.6622172e-06
2.9508764e-06
6.483346e-08
1.0755872e-07
8.2297014e-08
2.6039217e-07
3.7643052e-07
6.0328623e-07
8.4530888e-07
1.15135e-06
1.5019987e-06
1.8903842e-06
2.3166885e-06
2.7677694e-06
3.2445168e-06
3.7391606e-06
4.2399036e-06
4.7198958e-06
5.1470352e-06
5.4888327e-06
5.7187088e-06
5.8107783e-06
5.7411381e-06
5.4944487e-06
5.0771652e-06
4.5257507e-06
3.9045974e-06
3.2946464e-06
2.7754407e-06
2.4066202e-06
2.2206292e-06
2.2133616e-06
2.3576333e-06
2.6055252e-06
2.8986036e-06
3.2109253e-06
7.6343627e-08
1.1042674e-07
7.6353341e-08
2.4980784e-07
3.5890641e-07
5.8116976e-07
8.1481276e-07
1.1202488e-06
1.4683251e-06
1.8632407e-06
2.3019509e-06
2.7719967e-06
3.2736655e-06
3.8018649e-06
4.349298e-06
4.8941827e-06
5.4050312e-06
5.8445549e-06
6.1811692e-06
6.3853061e-06
6.4274848e-06
6.2809355e-06
5.9348364e-06
5.4077272e-06
4.7525249e-06
4.0487284e-06
3.3868264e-06
2.8485904e-06
2.4891549e-06
2.3319593e-06
2.3631407e-06
2.5466428e-06
2.8302789e-06
3.1513329e-06
3.4865206e-06
8.7189454e-08
1.1314798e-07
7.138866e-08
2.4041215e-07
3.4090586e-07
5.5696918e-07
7.8266018e-07
1.0838717e-06
1.4273731e-06
1.8265739e-06
2.2720243e-06
2.757685e-06
3.281602e-06
3.8396198e-06
4.4286374e-06
5.0325448e-06
5.6237786e-06
6.1628868e-06
6.6123627e-06
6.9383585e-06
7.1074725e-06
7.0843815e-06
6.8422479e-06
6.3790243e-06
5.7296719e-06
4.9654328e-06
4.1804616e-06
3.4726533e-06
2.9232748e-06
2.5805124e-06
2.4572263e-06
2.5294193e-06
2.7526954e-06
3.071658e-06
3.4201329e-06
3.7774101e-06
9.6780346e-08
1.156243e-07
6.7311909e-08
2.3218928e-07
3.2534946e-07
5.3040085e-07
7.4698437e-07
1.0437358e-06
1.3799652e-06
1.780948e-06
2.2291184e-06
2.7253477e-06
3.2681432e-06
3.8522063e-06
4.4777688e-06
5.1343615e-06
5.7999005e-06
6.4369443e-06
7.0031059e-06
7.4588314e-06
7.767253e-06
7.8873926e-06
7.7792166e-06
7.4197399e-06
6.8211677e-06
6.0384246e-06
5.1620132e-06
4.299374e-06
3.5531508e-06
3.0011516e-06
2.6822263e-06
2.5974263e-06
2.7125835e-06
2.9757822e-06
3.3295822e-06
3.7048726e-06
4.0834404e-06
1.0455475e-07
1.1777061e-07
6.4041788e-08
2.2511446e-07
3.1182057e-07
5.0653857e-07
7.0927858e-07
9.9840289e-07
1.3277589e-06
1.7263473e-06
2.1747563e-06
2.6778004e-06
3.2335423e-06
3.8396599e-06
4.4967548e-06
5.1995451e-06
5.9320468e-06
6.6616288e-06
7.3449245e-06
7.9360521e-06
8.3936585e-06
8.6731439e-06
8.7250151e-06
8.5071946e-06
8.0065636e-06
7.254785e-06
6.3294119e-06
5.3400698e-06
4.405382e-06
3.6296163e-06
3.0839917e-06
2.7958155e-06
2.7535147e-06
2.9130802e-06
3.2160983e-06
3.6040695e-06
4.005468e-06
4.404074e-06
1.1003175e-07
1.1949489e-07
6.1516551e-08
2.192029e-07
3.002817e-07
4.8560548e-07
6.7676357e-07
9.5018504e-07
1.2676076e-06
1.6646247e-06
2.1090337e-06
2.616957e-06
3.1798325e-06
3.8024439e-06
4.4859504e-06
5.2283303e-06
6.0199357e-06
6.8342776e-06
7.6308484e-06
8.3599862e-06
8.97421e-06
9.4257128e-06
9.659189e-06
9.6171896e-06
9.2612208e-06
8.5945827e-06
7.6729921e-06
6.598149e-06
5.4977714e-06
4.4988491e-06
3.7037065e-06
3.1737569e-06
2.9228818e-06
2.9265369e-06
3.1315049e-06
3.4740475e-06
3.8951888e-06
4.3214876e-06
4.7379753e-06
1.128617e-07
1.2071746e-07
5.968323e-08
2.144801e-07
2.9073306e-07
4.6771058e-07
6.4822604e-07
9.0722858e-07
1.2041168e-06
1.591658e-06
2.0340498e-06
2.5421186e-06
3.1098024e-06
3.7425656e-06
4.4461645e-06
5.221297e-06
6.0637873e-06
6.9540445e-06
7.8563941e-06
8.721815e-06
9.4972076e-06
1.0130217e-05
1.0562233e-05
1.0725142e-05
1.0557669e-05
1.0032102e-05
9.174666e-06
8.0686346e-06
6.8403976e-06
5.6338487e-06
4.5807749e-06
3.7775751e-06
3.2727e-06
3.0652387e-06
3.1177189e-06
3.3686238e-06
3.7500151e-06
4.2028654e-06
4.6518147e-06
5.0830704e-06
1.2137126e-07
1.1286176e-07
5.8505103e-08
2.1095719e-07
2.8316372e-07
4.5286318e-07
6.2359838e-07
8.6918347e-07
1.1483841e-06
1.5144545e-06
1.9434128e-06
2.455444e-06
3.0230601e-06
3.66351e-06
4.3794616e-06
5.1796753e-06
6.0643511e-06
7.0208663e-06
8.0196289e-06
9.0149558e-06
9.9520429e-06
1.0772906e-05
1.1415998e-05
1.1807146e-05
1.1866982e-05
1.1537178e-05
1.0808862e-05
9.7368474e-06
8.4344877e-06
7.0524672e-06
5.7479126e-06
4.6530227e-06
3.8539942e-06
3.3834958e-06
3.2249853e-06
3.3284925e-06
3.6252608e-06
4.0442055e-06
4.5265166e-06
4.9946599e-06
5.4373568e-06
5.7947221e-08
1.2137093e-07
1.1003177e-07
2.0865669e-07
2.7755213e-07
4.4106062e-07
6.0296804e-07
8.3643524e-07
1.0991385e-06
1.4455649e-06
1.8479661e-06
2.3479189e-06
2.9218331e-06
3.5645872e-06
4.2894389e-06
5.1060431e-06
6.023229e-06
7.0354422e-06
8.1198899e-06
9.2357864e-06
1.0329986e-05
1.1341279e-05
1.2203935e-05
1.2840762e-05
1.3160228e-05
1.3076729e-05
1.2543714e-05
1.1578927e-05
1.0270545e-05
8.7636572e-06
7.2316996e-06
5.8408387e-06
4.718545e-06
3.9364818e-06
3.5093045e-06
3.4044933e-06
3.5603629e-06
3.9021025e-06
4.356382e-06
4.8648206e-06
5.3481375e-06
5.7998204e-06
2.0756839e-07
5.7946783e-08
1.2071668e-07
1.0455489e-07
2.7391317e-07
4.3229164e-07
5.8641156e-07
8.0911837e-07
1.0566927e-06
1.3841522e-06
1.7629194e-06
2.2345188e-06
2.7933346e-06
3.4486144e-06
4.1755649e-06
5.0042985e-06
5.9434693e-06
6.9993923e-06
8.1573704e-06
9.3827067e-06
1.0625237e-05
1.182449e-05
1.2911186e-05
1.3805555e-05
1.4409678e-05
1.4616523e-05
1.4342633e-05
1.3562736e-05
1.2328325e-05
1.0765021e-05
9.0502598e-06
7.3770748e-06
5.9151465e-06
4.7815359e-06
4.0293423e-06
3.6536919e-06
3.6061962e-06
3.8146435e-06
4.1993464e-06
4.6856381e-06
5.2160367e-06
5.7109426e-06
6.1707349e-06
2.7221324e-07
2.075674e-07
5.8503787e-08
1.1949344e-07
9.6780461e-08
4.2659741e-07
5.7398937e-07
7.8727917e-07
1.0212088e-06
1.3311005e-06
1.6870324e-06
2.132341e-06
2.6578669e-06
3.2978654e-06
4.0421393e-06
4.8739849e-06
5.829629e-06
6.916212e-06
8.1335466e-06
9.4550494e-06
1.0834808e-05
1.22143e-05
1.3524644e-05
1.4683362e-05
1.5589732e-05
1.6122765e-05
1.6166266e-05
1.5649321e-05
1.4577309e-05
1.3042147e-05
1.1210263e-05
9.2903192e-06
7.4898169e-06
5.9752694e-06
4.8474428e-06
4.137536e-06
3.8202987e-06
3.832228e-06
4.0920397e-06
4.5164165e-06
5.030427e-06
5.5785518e-06
6.0826835e-06
6.5508231e-06
4.2393111e-07
2.7221163e-07
2.0865373e-07
5.968104e-08
1.1776873e-07
8.7189687e-08
5.6583281e-07
7.7095153e-07
9.9276189e-07
1.2867138e-06
1.6214756e-06
2.0405935e-06
2.5351446e-06
3.1382886e-06
3.8648003e-06
4.721445e-06
5.6808091e-06
6.7913514e-06
8.0522245e-06
9.4537572e-06
1.0956912e-05
1.2505746e-05
1.403349e-05
1.5458214e-05
1.6677528e-05
1.7563444e-05
1.7974387e-05
1.7794927e-05
1.697788e-05
1.5568495e-05
1.3705568e-05
1.1598227e-05
9.4826913e-06
7.5738567e-06
6.0275873e-06
4.9226972e-06
4.2661679e-06
4.0123096e-06
4.0839439e-06
4.3923253e-06
4.851925e-06
5.3891308e-06
5.9515688e-06
6.4636406e-06
6.9403029e-06
5.6194393e-07
4.2392851e-07
2.739083e-07
2.1095225e-07
6.1513484e-08
1.1562181e-07
7.6343872e-08
7.6029475e-07
9.7142637e-07
1.2511004e-06
1.5666231e-06
1.9611842e-06
2.4245798e-06
2.9922238e-06
3.6759443e-06
4.5140275e-06
5.5060529e-06
6.6228713e-06
7.9194295e-06
9.3824082e-06
1.0991316e-05
1.269577e-05
1.4430201e-05
1.6116368e-05
1.7653016e-05
1.8909352e-05
1.9727574e-05
1.9953045e-05
1.9483201e-05
1.8306099e-05
1.6516412e-05
1.4305479e-05
1.1924199e-05
9.6298036e-06
7.6359558e-06
6.0799953e-06
5.0140398e-06
4.4197235e-06
4.2318933e-06
4.3615725e-06
4.7143052e-06
5.2042065e-06
5.7607721e-06
6.3351857e-06
6.8541839e-06
7.3390667e-06
7.5528251e-07
5.6194021e-07
4.2658969e-07
2.7754405e-07
2.1447318e-07
6.4037854e-08
1.131451e-07
6.4833832e-08
9.5745206e-07
1.2243753e-06
1.5225836e-06
1.8946666e-06
2.3288032e-06
2.8599609e-06
3.5016441e-06
4.2907096e-06
5.2630084e-06
6.4230389e-06
7.7318215e-06
9.2474013e-06
1.0941172e-05
1.2782574e-05
1.4710121e-05
1.6647169e-05
1.8498645e-05
2.0134556e-05
2.138862e-05
2.2076272e-05
2.2041222e-05
2.1207055e-05
1.9609429e-05
1.7402207e-05
1.4832395e-05
1.2187918e-05
9.7379379e-06
7.6851695e-06
6.1408527e-06
5.1274122e-06
4.6012999e-06
4.4798295e-06
4.6641838e-06
5.0562921e-06
5.5720285e-06
6.1451746e-06
6.7297059e-06
7.2544705e-06
7.7477922e-06
9.5084285e-07
7.5527757e-07
5.6582186e-07
4.3227873e-07
2.8315238e-07
2.1919399e-07
6.7307114e-08
1.1042329e-07
5.3218089e-08
1.206885e-06
1.4895018e-06
1.841208e-06
2.2485258e-06
2.7452137e-06
3.3431822e-06
4.0825887e-06
4.9975221e-06
6.1385672e-06
7.5043086e-06
9.0433242e-06
1.0812945e-05
1.2768201e-05
1.4869827e-05
1.7043653e-05
1.9199789e-05
2.1216094e-05
2.2923512e-05
2.4117994e-05
2.4596551e-05
2.4215242e-05
2.2938467e-05
2.0863166e-05
1.8210612e-05
1.5282118e-05
1.2394087e-05
9.8166175e-06
7.7313512e-06
6.2174833e-06
5.2669093e-06
4.8122557e-06
4.755557e-06
4.9901998e-06
5.4168934e-06
5.954978e-06
6.5424861e-06
7.1353045e-06
7.6652212e-06
8.1672843e-06
1.1986388e-06
9.5083633e-07
7.6027966e-07
5.7397095e-07
4.4104258e-07
2.907185e-07
2.2510355e-07
7.1383032e-08
1.0755496e-07
4.200821e-08
1.4678372e-06
1.8010145e-06
2.183954e-06
2.6489348e-06
3.2055147e-06
3.8925537e-06
4.7479583e-06
5.8222852e-06
7.1715965e-06
8.7874016e-06
1.0597783e-05
1.2658871e-05
1.4909595e-05
1.7300993e-05
1.9746006e-05
2.213394e-05
2.4301504e-05
2.603384e-05
2.7092204e-05
2.7267961e-05
2.6445703e-05
2.4647618e-05
2.2045685e-05
1.8932339e-05
1.5656562e-05
1.2551695e-05
9.8766162e-06
7.7828864e-06
6.314825e-06
5.4344914e-06
5.0525357e-06
5.0578157e-06
5.3382911e-06
5.7956428e-06
6.3532536e-06
6.9530821e-06
7.5528325e-06
8.0874762e-06
8.5971093e-06
1.457622e-06
1.1986299e-06
9.57432e-07
7.709265e-07
5.8638586e-07
4.5283995e-07
3.002639e-07
2.3217639e-07
7.6346903e-08
1.0469708e-07
3.1827064e-08
1.7746768e-06
2.1353607e-06
2.5714169e-06
3.0898697e-06
3.727142e-06
4.5191693e-06
5.5222862e-06
6.7939842e-06
8.4006592e-06
1.0314726e-05
1.2441231e-05
1.4835052e-05
1.7417618e-05
2.0130729e-05
2.2872515e-05
2.5494874e-05
2.7782342e-05
2.9471369e-05
3.0297507e-05
3.006273e-05
2.8699475e-05
2.6306698e-05
2.3141763e-05
1.9565373e-05
1.5963003e-05
1.2671436e-05
9.9267829e-06
7.8448712e-06
6.4351697e-06
5.6306031e-06
5.3214634e-06
5.3856283e-06
5.708175e-06
6.1929362e-06
6.7675359e-06
7.3780945e-06
7.9835543e-06
8.5210885e-06
9.0395062e-06
1.7622302e-06
1.4576105e-06
1.2068588e-06
9.7139314e-07
7.8724384e-07
6.0293478e-07
4.676822e-07
3.1179956e-07
2.403973e-07
8.2289821e-08
1.0190407e-07
2.3502692e-08
2.1035058e-06
2.5130334e-06
2.9966513e-06
3.5879919e-06
4.3195776e-06
5.245925e-06
6.4324896e-06
7.9497165e-06
9.8688306e-06
1.2137367e-05
1.4627422e-05
1.7398221e-05
2.0351027e-05
2.34221e-05
2.6480455e-05
2.9324894e-05
3.1678667e-05
3.323299e-05
3.3711641e-05
3.2947462e-05
3.0943878e-05
2.7894327e-05
2.4144605e-05
2.0114149e-05
1.621076e-05
1.2761318e-05
9.9713367e-06
7.9192008e-06
6.5794447e-06
5.85547e-06
5.6188687e-06
5.7392448e-06
6.1006795e-06
6.6098241e-06
7.1993562e-06
7.818893e-06
8.4270225e-06
8.9679135e-06
9.5069991e-06
2.0884566e-06
1.7622158e-06
1.4678033e-06
1.2243312e-06
9.9271483e-07
8.0907285e-07
6.235577e-07
4.8557187e-07
3.2532524e-07
2.4979109e-07
8.9123572e-08
9.8226092e-08
1.6103607e-08
2.4747371e-06
2.9264019e-06
3.4756965e-06
4.1514023e-06
5.0040006e-06
6.0974643e-06
7.5135639e-06
9.3305399e-06
1.1629144e-05
1.431318e-05
1.7216998e-05
2.0410431e-05
2.3778945e-05
2.7242806e-05
3.0627299e-05
3.3660645e-05
3.6002044e-05
3.7306563e-05
3.730527e-05
3.5887428e-05
3.3152211e-05
2.9398651e-05
2.5055039e-05
2.0585282e-05
1.6405192e-05
1.2822822e-05
1.001017e-05
8.0069017e-06
6.7492088e-06
6.1104034e-06
5.9460641e-06
6.1202906e-06
6.5174151e-06
7.0481576e-06
7.6504537e-06
8.2747049e-06
8.8834417e-06
9.4371008e-06
1.0001159e-05
2.4566256e-06
2.0884385e-06
1.774633e-06
1.4894445e-06
1.2510384e-06
1.0211481e-06
8.3637905e-07
6.4817762e-07
5.0649979e-07
3.408785e-07
2.6037358e-07
9.5872082e-08
9.3212723e-08
9.7293767e-09
2.8803381e-06
3.3910416e-06
4.0155427e-06
4.7995879e-06
5.8026996e-06
7.1062495e-06
8.8044383e-06
1.0986382e-05
1.3741582e-05
1.6904144e-05
2.0274178e-05
2.3946153e-05
2.7776627e-05
3.1664537e-05
3.5367551e-05
3.853191e-05
4.0755513e-05
4.1672314e-05
4.1046209e-05
3.8853052e-05
3.5308276e-05
3.0816848e-05
2.5876079e-05
2.0979422e-05
1.6542056e-05
1.2851514e-05
1.0043094e-05
8.1111153e-06
6.9479176e-06
6.3985248e-06
6.3059833e-06
6.5312111e-06
6.9605588e-06
7.509846e-06
8.119991e-06
8.7447049e-06
9.3635165e-06
9.9309503e-06
1.0513432e-05
2.8585508e-06
2.4566028e-06
2.1034505e-06
1.8009414e-06
1.5225031e-06
1.2866331e-06
1.0566174e-06
8.691166e-07
6.767075e-07
5.303568e-07
3.5887589e-07
2.6917913e-07
1.0325966e-07
8.7869964e-08
5.2090695e-09
3.3355485e-06
3.913092e-06
4.6341479e-06
5.5525779e-06
6.74532e-06
8.3085926e-06
1.0352379e-05
1.2975285e-05
1.6268277e-05
1.997817e-05
2.3877953e-05
2.8086323e-05
3.2426925e-05
3.6759549e-05
4.0751804e-05
4.3961885e-05
4.5935285e-05
4.6307051e-05
4.4906622e-05
4.1826085e-05
3.7406685e-05
3.2148464e-05
2.6601902e-05
2.1282843e-05
1.6608307e-05
1.2843558e-05
1.0074872e-05
8.2386909e-06
7.1816005e-06
6.7248002e-06
6.7022521e-06
6.9745819e-06
7.4319565e-06
7.9938175e-06
8.6060269e-06
9.2429812e-06
9.865173e-06
1.0445264e-05
1.1049306e-05
3.3093018e-06
2.8585246e-06
2.4746697e-06
2.1352684e-06
1.8411042e-06
1.566518e-06
1.3310008e-06
1.0990487e-06
9.0715043e-07
7.0921448e-07
5.5691993e-07
3.7639709e-07
2.7621765e-07
1.1168033e-07
8.2438004e-08
3.0237132e-09
3.8458888e-06
4.5092799e-06
5.3495195e-06
6.4371349e-06
7.8651056e-06
9.7485158e-06
1.2212987e-05
1.5357762e-05
1.9283013e-05
2.3614944e-05
2.8113406e-05
3.2921403e-05
3.7817477e-05
4.2600496e-05
4.6827615e-05
4.9969602e-05
5.1535268e-05
5.1191823e-05
4.8870793e-05
4.4801284e-05
3.9445253e-05
3.3380693e-05
2.7205229e-05
2.1467598e-05
1.6592377e-05
1.2804084e-05
1.0116998e-05
8.3998975e-06
7.4581954e-06
7.094496e-06
7.1379459e-06
7.4521547e-06
7.9301316e-06
8.4973821e-06
9.126725e-06
9.7616232e-06
1.0389216e-05
1.0981541e-05
1.1611289e-05
3.8140105e-06
3.3092722e-06
2.8802581e-06
2.5129195e-06
2.1838228e-06
1.8945316e-06
1.6213454e-06
1.3840323e-06
1.1482786e-06
9.5009546e-07
7.4691224e-07
5.8111552e-07
3.9311105e-07
2.8252041e-07
1.2047772e-07
7.7176536e-08
3.2998063e-09
4.4272923e-06
5.1959366e-06
6.1857121e-06
7.48321e-06
9.2022521e-06
1.1477962e-05
1.4446112e-05
1.8207476e-05
2.2866459e-05
2.7901952e-05
3.3076159e-05
3.8549875e-05
4.4042059e-05
4.9262314e-05
5.364326e-05
5.657536e-05
5.7555201e-05
5.6321071e-05
5.2938632e-05
4.7778537e-05
4.1406043e-05
3.4469497e-05
2.7635283e-05
2.1506604e-05
1.6497385e-05
1.2750253e-05
1.018582e-05
8.6066805e-06
7.7852334e-06
7.5114134e-06
7.6149176e-06
7.9623182e-06
8.4519285e-06
9.0442834e-06
9.6692195e-06
1.0305411e-05
1.0932919e-05
1.1543054e-05
1.2201749e-05
4.3882849e-06
3.8139773e-06
3.3354578e-06
2.9262681e-06
2.5712561e-06
2.248355e-06
1.9610159e-06
1.6868752e-06
1.445424e-06
1.2039952e-06
9.9830113e-07
7.8258006e-07
6.0322709e-07
4.0969228e-07
2.8754437e-07
1.2916328e-07
7.2477079e-08
5.7705563e-09
5.09487e-06
5.9948724e-06
7.1694926e-06
8.7268731e-06
1.0804103e-05
1.3554591e-05
1.7122375e-05
2.1603273e-05
2.7107992e-05
3.2937246e-05
3.8871457e-05
4.5082623e-05
5.1203932e-05
5.6827924e-05
6.1254987e-05
6.3809742e-05
6.4010891e-05
6.1708087e-05
5.7118447e-05
5.0739873e-05
4.3227817e-05
3.5332588e-05
2.783812e-05
2.1395586e-05
1.6346207e-05
1.2706944e-05
1.0299006e-05
8.8696644e-06
8.1676797e-06
7.9780497e-06
8.1322352e-06
8.501926e-06
9.0268251e-06
9.6170438e-06
1.0241205e-05
1.0868351e-05
1.1500237e-05
1.2132844e-05
1.2824113e-05
5.0465633e-06
4.388249e-06
3.8457896e-06
3.3908899e-06
2.9964609e-06
2.648724e-06
2.3285899e-06
2.0403906e-06
1.7627343e-06
1.514291e-06
1.2674686e-06
1.0436224e-06
8.1472492e-07
6.2351388e-07
4.2559464e-07
2.9106467e-07
1.3701615e-07
6.8716067e-08
9.7367404e-09
5.8688649e-06
6.9301242e-06
8.3329072e-06
1.0210459e-05
1.2724374e-05
1.6045143e-05
2.0318383e-05
2.5629963e-05
3.2103999e-05
3.8828438e-05
4.5621713e-05
5.2648899e-05
5.9424275e-05
6.5398401e-05
6.9737907e-05
7.1724954e-05
7.0941479e-05
6.7379204e-05
6.140098e-05
5.3611232e-05
4.4789505e-05
3.5874319e-05
2.7791435e-05
2.1162844e-05
1.6174607e-05
1.2699341e-05
1.0470672e-05
9.1956445e-06
8.6098979e-06
8.495625e-06
8.6873968e-06
9.1044047e-06
9.6346974e-06
1.0223676e-05
1.0834059e-05
1.1454222e-05
1.2094439e-05
1.275514e-05
1.3482448e-05
5.8083199e-06
5.0465274e-06
4.4271866e-06
3.9129242e-06
3.4754801e-06
3.089621e-06
2.7449515e-06
2.4243224e-06
2.1321007e-06
1.8477506e-06
1.5914709e-06
1.3276033e-06
1.0837467e-06
8.4521264e-07
6.4069432e-07
4.4020729e-07
2.930668e-07
1.432066e-07
6.568492e-08
1.4137461e-08
6.7713169e-06
8.0302645e-06
9.7133874e-06
1.1982621e-05
1.5024828e-05
1.9022677e-05
2.411586e-05
3.0375867e-05
3.7959893e-05
4.5703412e-05
5.3476597e-05
6.1408514e-05
6.8856384e-05
7.5107257e-05
7.9198999e-05
8.0403598e-05
7.8405409e-05
7.3346577e-05
6.5710045e-05
5.6230335e-05
4.5936418e-05
3.6037894e-05
2.7524507e-05
2.0857625e-05
1.6017976e-05
1.2746143e-05
1.07107e-05
9.5930233e-06
9.1177114e-06
9.0626862e-06
9.3129803e-06
9.751441e-06
1.028062e-05
1.0854403e-05
1.1451339e-05
1.2066447e-05
1.2720791e-05
1.341478e-05
1.4181537e-05
6.6945129e-06
5.8082852e-06
5.0947604e-06
4.5091002e-06
4.0153046e-06
3.5877091e-06
3.2052036e-06
2.8596429e-06
2.5348394e-06
2.2342393e-06
1.9431655e-06
1.664414e-06
1.379793e-06
1.1201116e-06
8.730728e-07
6.5453188e-07
4.5246947e-07
2.9389347e-07
1.4765974e-07
6.2492511e-08
1.7893827e-08
7.8282716e-06
9.3285022e-06
1.1354265e-05
1.4099168e-05
1.7773541e-05
2.2564902e-05
2.8598743e-05
3.5935967e-05
4.4799733e-05
5.3725704e-05
6.2631006e-05
7.1571343e-05
7.9705146e-05
8.613668e-05
8.9787424e-05
8.9956271e-05
8.6453436e-05
7.9549265e-05
6.9848552e-05
5.8366721e-05
4.65537e-05
3.584288e-05
2.7103054e-05
2.052782e-05
1.5900548e-05
1.2861616e-05
1.1035109e-05
1.0076029e-05
9.690696e-06
9.7020598e-06
1.0000526e-05
1.0440655e-05
1.0955153e-05
1.151249e-05
1.2096473e-05
1.2710761e-05
1.3384981e-05
1.4116901e-05
1.4925885e-05
7.7298809e-06
6.694479e-06
5.8687567e-06
5.1957528e-06
4.6338936e-06
4.1510892e-06
3.7267873e-06
3.3428056e-06
2.9918478e-06
2.6575118e-06
2.3475968e-06
2.0337708e-06
1.7261142e-06
1.4271837e-06
1.1511998e-06
8.9735193e-07
6.6516831e-07
4.6114192e-07
2.9371005e-07
1.5130021e-07
5.8743639e-08
2.0291519e-08
9.0698818e-06
1.0863353e-05
1.3305207e-05
1.6621779e-05
2.1042802e-05
2.6751084e-05
3.3854279e-05
4.2418093e-05
5.2782618e-05
6.3119979e-05
7.3351494e-05
8.3423949e-05
9.2248785e-05
9.8730324e-05
0.00010169332
0.00010049536
9.5063366e-05
8.5773694e-05
7.3499892e-05
5.9816895e-05
4.6631639e-05
3.5369112e-05
2.6590529e-05
2.020301e-05
1.5841495e-05
1.3074589e-05
1.1471874e-05
1.0644577e-05
1.0326752e-05
1.0429185e-05
1.0734715e-05
1.1164579e-05
1.1660994e-05
1.2201556e-05
1.2775312e-05
1.3393289e-05
1.4092753e-05
1.4865822e-05
1.571873e-05
8.9429416e-06
7.7298501e-06
6.771216e-06
5.9946916e-06
5.3492566e-06
4.7992521e-06
4.3191857e-06
3.892124e-06
3.501197e-06
3.1378499e-06
2.7929254e-06
2.4550813e-06
2.108725e-06
1.780691e-06
1.4681172e-06
1.1767341e-06
9.163321e-07
6.7324967e-07
4.6560855e-07
2.9231575e-07
1.5440116e-07
5.485358e-08
2.1062237e-08
1.0531134e-05
1.2678953e-05
1.5621363e-05
1.9616303e-05
2.4906368e-05
3.1661829e-05
3.9977869e-05
4.9958425e-05
6.2131497e-05
7.4208629e-05
8.6011706e-05
9.7359661e-05
0.00010685623
0.00011319314
0.0001151216
0.00011206636
0.00010403564
9.1620614e-05
7.6337606e-05
6.0509997e-05
4.6254669e-05
3.4697494e-05
2.6019118e-05
1.9907481e-05
1.5890296e-05
1.3435518e-05
1.2019844e-05
1.1249131e-05
1.1088638e-05
1.120791e-05
1.1512069e-05
1.192473e-05
1.2401963e-05
1.2927505e-05
1.3493968e-05
1.4119911e-05
1.4848464e-05
1.5663696e-05
1.6561077e-05
1.0366813e-05
8.9429182e-06
7.8281819e-06
6.9299515e-06
6.1854514e-06
5.552232e-06
5.0035799e-06
4.5186918e-06
4.0820773e-06
3.6754237e-06
3.2973615e-06
2.9213726e-06
2.5417167e-06
2.1744158e-06
1.8262923e-06
1.5017715e-06
1.1967886e-06
9.2849127e-07
6.7855068e-07
4.664956e-07
2.8939324e-07
1.5603233e-07
5.1293598e-08
2.0342425e-08
1.2252003e-05
1.4824639e-05
1.8361979e-05
2.3150787e-05
2.9439177e-05
3.738311e-05
4.7086746e-05
5.8750087e-05
7.3175996e-05
8.7459926e-05
0.00010113296
0.00011390384
0.00012398881
0.00012986349
0.00013022048
0.00012452342
0.00011291189
9.661009e-05
7.8182879e-05
6.0513604e-05
4.5515681e-05
3.3858954e-05
2.5415592e-05
1.9722017e-05
1.613453e-05
1.3939183e-05
1.2548334e-05
1.2035074e-05
1.1908674e-05
1.2041285e-05
1.2332019e-05
1.2724944e-05
1.3183948e-05
1.3696387e-05
1.425798e-05
1.489476e-05
1.5653926e-05
1.6511068e-05
1.7450411e-05
1.203936e-05
1.0366799e-05
9.0698078e-06
8.0301074e-06
7.1692442e-06
6.436791e-06
5.8022623e-06
5.2454102e-06
4.7473905e-06
4.2901138e-06
3.8642014e-06
3.4480465e-06
3.0225503e-06
2.6165152e-06
2.2287456e-06
1.8629326e-06
1.5267138e-06
1.2108991e-06
9.334473e-07
6.7924937e-07
4.64222e-07
2.8465088e-07
1.5541178e-07
4.8268807e-08
1.8563417e-08
1.4277512e-05
1.7353971e-05
2.1589629e-05
2.7295988e-05
3.4721708e-05
4.4018866e-05
5.5347159e-05
6.9088377e-05
8.6409231e-05
0.00010354333
0.00011942052
0.00013372011
0.00014416892
0.00014903649
0.00014694277
0.00013739333
0.00012104327
0.00010039292
7.9045984e-05
5.9916542e-05
4.4432744e-05
3.287487e-05
2.4906893e-05
1.9793627e-05
1.6559309e-05
1.4323314e-05
1.3339399e-05
1.2888013e-05
1.2798723e-05
1.2925694e-05
1.3197971e-05
1.3570896e-05
1.4012914e-05
1.4513237e-05
1.5070635e-05
1.5719136e-05
1.6510011e-05
1.7405868e-05
1.8381301e-05
1.4003286e-05
1.2039353e-05
1.0531083e-05
9.3283725e-06
8.3326788e-06
7.4828758e-06
6.7448809e-06
6.0969288e-06
5.5216729e-06
4.9968577e-06
4.5133415e-06
4.0414657e-06
3.5639606e-06
3.1092434e-06
2.6773171e-06
2.2716172e-06
1.8900487e-06