/*--------------------------------*- C++ -*----------------------------------*\
| =========                 |                                                 |
| \\      /  F ield         | OpenFOAM: The Open Source CFD Toolbox           |
|  \\    /   O peration     | Version:  5.0                                   |
|   \\  /    A nd           | Web:      www.OpenFOAM.org                      |
|    \\/     M anipulation  |                                                 |
\*---------------------------------------------------------------------------*/
FoamFile
{
    version     2.0;
    format      ascii;
    class       volVectorField;
    location    "45";
    object      U;
}
// * * * * * * * * * * * * * * * * * * * * * * * * * * * * * * * * * * * * * //

dimensions      [0 1 -1 0 0 0 0];

internalField   nonuniform List<vector> 
9200
(
(1.0163934 -0.00061664793 -1.1785013e-23)
(1.0168627 -0.0017915166 -7.5835247e-21)
(1.0180968 -0.00061969254 0)
(1.0168569 -0.0028694329 3.9018906e-21)
(1.0185332 -0.0017972664 -5.4173907e-21)
(1.0188736 -0.00061772991 0)
(1.0165814 -0.0038794415 3.897977e-22)
(1.0185147 -0.0028716589 -2.7233595e-22)
(1.0192919 -0.0017939071 0)
(1.0199899 -0.00061641974 0)
(1.0161548 -0.0048157739 -7.4379819e-21)
(1.0182327 -0.0038855771 -3.948902e-21)
(1.0192701 -0.0028651453 -3.0706761e-21)
(1.0203826 -0.0017937449 -1.8684251e-22)
(1.0208983 -0.00061288564 3.6098444e-25)
(1.0156059 -0.0056919394 -6.8731565e-21)
(1.0178021 -0.0048266954 5.1094794e-22)
(1.0189892 -0.0038806773 -9.8624532e-21)
(1.0203572 -0.0028611845 -3.6488288e-21)
(1.0212695 -0.0017895488 6.0808286e-23)
(1.0218457 -0.00060778643 7.5927282e-21)
(1.0149427 -0.0065051387 -6.4398919e-21)
(1.0172472 -0.0057125556 -6.6525616e-21)
(1.0185621 -0.0048237178 5.9560189e-21)
(1.0200791 -0.0038811033 3.4095153e-22)
(1.0212431 -0.0028517404 -3.7417522e-21)
(1.0221945 -0.0017831476 -3.5848749e-21)
(1.0227211 -0.00060042977 -5.2574875e-22)
(1.0141574 -0.0072603521 -2.8300397e-21)
(1.016574 -0.0065378532 -4.6031291e-21)
(1.0180101 -0.0057150912 -6.439513e-21)
(1.019658 -0.0048292886 1.8907818e-22)
(1.0209703 -0.0038746333 8.7682236e-21)
(1.0221709 -0.0028382653 3.7642052e-21)
(1.0230495 -0.0017722837 4.6626598e-21)
(1.0235722 -0.00059065927 -7.026612e-21)
(1.0132402 -0.0079581845 7.8203128e-21)
(1.0157738 -0.0073088011 -5.3388836e-21)
(1.0173388 -0.0065476831 2.1835133e-22)
(1.0191116 -0.0057310759 -3.2171227e-21)
(1.0205581 -0.004826551 4.0591472e-22)
(1.0219089 -0.0038640324 1.3360255e-20)
(1.0230295 -0.0028178665 -2.8812861e-21)
(1.0238814 -0.0017565276 7.7429769e-21)
(1.0243768 -0.00057823626 1.467423e-20)
(1.0121785 -0.0086012653 -5.918782e-21)
(1.0148362 -0.0080253701 2.6329678e-21)
(1.0165388 -0.0073285394 1.4438099e-22)
(1.0184444 -0.0065767454 -7.458558e-22)
(1.0200204 -0.0057373115 1.0806521e-21)
(1.0215116 -0.004819925 6.325201e-22)
(1.0227793 -0.0038448293 -4.6075605e-21)
(1.0238701 -0.0027895714 -8.0301721e-21)
(1.0246689 -0.001734944 -4.2825171e-21)
(1.0251423 -0.00056302236 -1.0499435e-21)
(1.010959 -0.0091915241 2.7279686e-21)
(1.0137486 -0.0086904495 -1.7016615e-22)
(1.0155996 -0.0080571166 -4.3341307e-21)
(1.0176464 -0.0073743719 4.3223807e-21)
(1.0193611 -0.0065945502 -6.2833635e-21)
(1.0209894 -0.0057409103 1.3582623e-20)
(1.0223979 -0.0048032116 1.9030498e-22)
(1.0236383 -0.0038159602 -1.3120288e-20)
(1.0246679 -0.0027519801 6.4316584e-21)
(1.0254191 -0.0017070076 -1.3158224e-20)
(1.0258647 -0.00054486751 2.0336204e-21)
(1.0095664 -0.0097312981 -9.9771123e-23)
(1.0124973 -0.0093058649 1.0095238e-21)
(1.0145084 -0.0087363804 3.6810729e-21)
(1.0167069 -0.0081226014 0)
(1.0185696 -0.0074072694 -7.1207459e-23)
(1.0203454 -0.0066115782 -4.4712835e-22)
(1.0218924 -0.0057332936 2.7370924e-21)
(1.0232807 -0.0047754777 6.545095e-21)
(1.024455 -0.0037753163 -3.1160206e-22)
(1.0254321 -0.0027041841 7.8685507e-21)
(1.0261285 -0.0016720843 5.266058e-21)
(1.0265441 -0.00052368298 -1.1064115e-21)
(1.0079827 -0.010222893 -1.0549297e-22)
(1.0110675 -0.0098740164 4.463271e-22)
(1.0132515 -0.0093679655 0)
(1.0156128 -0.0088244083 0)
(1.0176347 -0.0081732211 2.196649e-21)
(1.0195678 -0.0074419502 -3.0795167e-21)
(1.0212647 -0.0066164116 6.1188068e-21)
(1.0228001 -0.0057141586 -7.1434084e-21)
(1.0241212 -0.0047339513 -5.7614232e-22)
(1.0252454 -0.0037214069 2.0569324e-24)
(1.0261575 -0.0026453858 -9.3025311e-21)
(1.0267974 -0.0016295775 1.0051412e-20)
(1.0271787 -0.00049943339 -1.819603e-20)
(1.0061852 -0.010668681 4.0260594e-22)
(1.0094418 -0.010397327 -9.8657144e-23)
(1.0118136 -0.0099541003 1.9282477e-21)
(1.0143505 -0.0094811299 -2.131843e-21)
(1.0165435 -0.0088952777 2.3052412e-21)
(1.0186455 -0.0082287249 -6.5653771e-22)
(1.0205025 -0.0074635167 -1.8491073e-21)
(1.0221978 -0.0066098961 5.4519041e-23)
(1.0236663 -0.0056796856 -6.4361271e-21)
(1.0249439 -0.0046767608 -5.7597807e-21)
(1.0259991 -0.0036531174 -2.4597618e-21)
(1.0268452 -0.002574722 -6.6777473e-21)
(1.0274242 -0.0015791263 -4.4392647e-21)
(1.0277681 -0.00047214086 4.8554696e-21)
(1.0041446 -0.011070952 3.9650453e-21)
(1.0075992 -0.010878595 -1.7698516e-21)
(1.0101776 -0.010496788 9.8395104e-22)
(1.0129046 -0.010094897 2.0374211e-23)
(1.015282 -0.0095743549 -2.6271182e-24)
(1.0175651 -0.0089746244 6.2504443e-22)
(1.0195943 -0.008270112 -1.7548459e-21)
(1.02146 -0.0074746302 2.3010315e-21)
(1.0230898 -0.0065868257 -3.2268768e-22)
(1.0245236 -0.0056279685 5.5460675e-22)
(1.0257299 -0.0046026397 1.4768238e-22)
(1.0267195 -0.003569336 2.6828862e-22)
(1.0274936 -0.0024916508 8.9353777e-21)
(1.0280084 -0.0015204867 -4.4110129e-21)
(1.0283116 -0.00044187749 3.6065751e-21)
(1.0018255 -0.011431595 -1.9733856e-21)
(1.0055118 -0.01132112 2.2135608e-21)
(1.0083227 -0.010998028 -7.7127699e-22)
(1.0112576 -0.01066764 1.863191e-21)
(1.0138347 -0.010212343 -2.0959573e-21)
(1.0163129 -0.0096800364 5.4306857e-21)
(1.0185266 -0.0090387029 -5.0399055e-21)
(1.0205752 -0.0083024989 1.4786008e-22)
(1.0223773 -0.0074682979 1.7198409e-21)
(1.0239825 -0.0065456121 -8.1325235e-22)
(1.0253443 -0.0055575552 1.6065984e-20)
(1.0264914 -0.0045097092 -5.0390441e-21)
(1.0274035 -0.0034693861 -2.9310285e-21)
(1.0281021 -0.0023956789 -1.172327e-21)
(1.0285494 -0.0014536066 -1.5645078e-22)
(1.0288088 -0.00040875031 -3.8567002e-21)
(0.99919215 -0.011751397 0)
(1.0031439 -0.011728665 1.2300259e-21)
(1.0062221 -0.011459785 -1.7192307e-21)
(1.0093889 -0.011201363 0)
(1.0121842 -0.010810895 0)
(1.0148728 -0.010346563 0)
(1.0172856 -0.0097690403 2.0887191e-23)
(1.0195295 -0.0090957614 -3.9294004e-21)
(1.0215169 -0.0083167459 1.8610593e-21)
(1.0233042 -0.0074437666 -4.7155976e-21)
(1.0248392 -0.006484458 2.3824527e-22)
(1.0261503 -0.0054658277 -3.3251616e-21)
(1.0272177 -0.0043977309 3.1753374e-22)
(1.0280517 -0.0033524652 3.2260283e-21)
(1.0286699 -0.0022867815 7.6009827e-22)
(1.0290468 -0.0013784687 2.011304e-21)
(1.0292594 -0.0003729102 0)
(0.99622133 -0.012028987 -7.5157741e-22)
(1.0004544 -0.012104773 -2.9981525e-21)
(1.0038415 -0.011884002 2.9390031e-21)
(1.007272 -0.01169809 5.5865778e-22)
(1.0103095 -0.011371707 1.6881617e-21)
(1.0132271 -0.010975599 0)
(1.0158551 -0.010462324 2.1347486e-21)
(1.018308 -0.0098534134 -3.4920171e-22)
(1.0204945 -0.0091340494 -7.5285348e-21)
(1.0224763 -0.0083135819 2.2566122e-21)
(1.0241974 -0.007398362 2.6893749e-21)
(1.0256895 -0.0064005499 2.2003424e-22)
(1.0269212 -0.0053531175 -7.0358415e-21)
(1.0279147 -0.0042652182 1.0573998e-20)
(1.0286628 -0.0032183856 2.2893624e-21)
(1.0291966 -0.0021649325 1.4251809e-20)
(1.0295003 -0.0012952033 5.2378862e-21)
(1.0296637 -0.0003345435 4.3869714e-21)
(0.99291947 -0.012259745 2.7355042e-22)
(0.99740638 -0.012451242 -8.2554639e-22)
(1.0011405 -0.012272268 -1.1828258e-21)
(1.0048727 -0.012159915 1.7698562e-21)
(1.0081846 -0.011896355 -1.52256e-22)
(1.0113544 -0.011568672 2.7136148e-21)
(1.0142171 -0.011119629 1.3920603e-21)
(1.0168954 -0.010576209 -4.5408837e-21)
(1.0192957 -0.0099184615 -1.8655745e-21)
(1.0214846 -0.0091564026 4.1943961e-21)
(1.0234054 -0.0082889019 -4.8556806e-22)
(1.025091 -0.0073298616 6.5063807e-21)
(1.0265079 -0.0062941085 -3.2321924e-21)
(1.0276722 -0.0052167367 -3.0961044e-22)
(1.0285775 -0.0041122863 -7.3121839e-22)
(1.0292364 -0.0030668693 -2.3264809e-21)
(1.0296817 -0.0020303806 4.5865358e-21)
(1.02991 -0.0012040374 -1.0426883e-22)
(1.0300219 -0.00029387168 3.7774143e-21)
(0.98933848 -0.012435345 2.4709627e-21)
(0.99398374 -0.012766046 1.0598753e-21)
(0.9980795 -0.012624933 -7.9345483e-21)
(1.0021494 -0.012588738 -1.8462789e-22)
(1.005776 -0.012386305 1.5049842e-21)
(1.0092283 -0.012127198 1.1447297e-21)
(1.0123499 -0.011742285 2.8064394e-22)
(1.0152732 -0.011264761 3.7461359e-21)
(1.0179046 -0.010670177 -7.2394268e-22)
(1.020315 -0.0099694615 -7.2486302e-21)
(1.0224486 -0.00915696 7.6728903e-21)
(1.0243411 -0.008241531 -8.8965819e-22)
(1.0259572 -0.0072377678 -2.6678629e-21)
(1.0273128 -0.0061623655 2.140343e-22)
(1.0283902 -0.005057787 -1.5954671e-22)
(1.0292077 -0.0039382481 -8.0701564e-21)
(1.0297719 -0.0028981223 1.752444e-21)
(1.030125 -0.0018834492 -7.3809677e-21)
(1.0302759 -0.001105323 -1.784114e-21)
(1.0303344 -0.00025114543 -3.6603338e-21)
(0.98558146 -0.012544761 -1.732782e-22)
(0.99021004 -0.013041846 8.0017347e-22)
(0.99463498 -0.012939837 -1.1655999e-21)
(0.99905775 -0.012985477 1.6494552e-21)
(1.0030416 -0.012842706 1.1288579e-21)
(1.0068151 -0.012652468 -1.2232326e-21)
(1.0102269 -0.012331571 2.3378022e-21)
(1.0134193 -0.011920112 4.6723948e-21)
(1.0163025 -0.011389278 -4.7671633e-21)
(1.0189515 -0.010752263 0)
(1.0213125 -0.0099987319 -4.9175506e-21)
(1.0234247 -0.0091358521 1.6441238e-21)
(1.0252542 -0.0081701575 6.5016058e-21)
(1.0268158 -0.0071197099 -4.5404132e-21)
(1.0280896 -0.0060061782 2.9618475e-21)
(1.0290837 -0.0048741825 -6.5734945e-21)
(1.0298035 -0.0037433265 -6.1260942e-22)
(1.0302689 -0.0027123441 2.5038536e-21)
(1.0305265 -0.0017246826 -4.098846e-21)
(1.0305984 -0.00099951238 -4.2084233e-22)
(1.030602 -0.00020664217 -3.0939822e-21)
(0.9817927 -0.012577661 -6.031001e-21)
(0.98616125 -0.013266348 4.6086535e-22)
(0.99081722 -0.013211474 4.1764266e-21)
(0.99556419 -0.013348756 -4.0589232e-21)
(0.99993475 -0.01326578 -2.019724e-21)
(1.004072 -0.013145462 1.1131129e-21)
(1.0078141 -0.012888646 0)
(1.0113067 -0.012543365 3.6042986e-21)
(1.014467 -0.012076465 3.3976305e-22)
(1.0173754 -0.011504226 -7.8149488e-21)
(1.0199812 -0.01081296 -1.6289516e-21)
(1.0223275 -0.010007886 1.3213706e-21)
(1.0243832 -0.0090909054 -2.730867e-22)
(1.0261654 -0.0080729941 -2.3522176e-21)
(1.0276518 -0.0069761541 3.5191672e-21)
(1.0288478 -0.0058234275 -3.329474e-21)
(1.0297459 -0.0046670929 8.3087941e-22)
(1.0303653 -0.0035274865 -4.9754254e-21)
(1.030727 -0.0025101025 -1.107306e-21)
(1.0308862 -0.0015547585 -2.2082343e-22)
(1.030878 -0.00088716381 -1.8917973e-21)
(1.0308259 -0.00016066086 0)
(0.97813311 -0.012528618 -2.9284042e-21)
(0.98196406 -0.013425155 -1.5496592e-22)
(0.98668585 -0.013431038 2.1313531e-22)
(0.99166344 -0.013673624 -3.0844621e-21)
(0.99641465 -0.013653727 -8.3158993e-22)
(1.0009497 -0.013606253 1.2531821e-21)
(1.0050684 -0.013414327 -2.8857709e-21)
(1.0089007 -0.013135593 3.8187048e-21)
(1.0123704 -0.012732656 2.0122676e-21)
(1.0155641 -0.012225557 2.5502576e-22)
(1.0184361 -0.011598309 -4.9520395e-23)
(1.0210336 -0.010855515 -2.5289031e-21)
(1.0233297 -0.0099938662 6.2560861e-22)
(1.0253452 -0.0090210953 -1.3622366e-21)
(1.0270595 -0.0079501095 -5.4541621e-21)
(1.0284753 -0.0068051009 -5.6405877e-21)
(1.0295804 -0.0056149917 4.9568089e-22)
(1.0303807 -0.004435309 8.7129443e-21)
(1.030892 -0.0032912346 3.0560547e-22)
(1.0311462 -0.0022920708 -2.5306488e-21)
(1.0312044 -0.0013745268 0)
(1.0311155 -0.00076893214 3.7596433e-21)
(1.0310072 -0.00011351728 1.0849612e-22)
(0.97475508 -0.01239197 1.4228736e-20)
(0.97777469 -0.013507742 -1.2971163e-21)
(0.98235581 -0.013585329 4.6923784e-21)
(0.98739539 -0.013951013 2.107987e-21)
(0.99246368 -0.014001563 -4.3255815e-21)
(0.9974007 -0.014033125 0)
(1.0019381 -0.013908603 -6.0487883e-22)
(1.0061575 -0.01369759 2.6444709e-21)
(1.0099777 -0.013358869 2.2430711e-21)
(1.0134894 -0.012916832 1.1910808e-21)
(1.0166546 -0.012354397 -3.9452793e-21)
(1.0195246 -0.011676529 -3.1315542e-21)
(1.022078 -0.010876003 4.2023166e-21)
(1.0243404 -0.0099565471 -4.7369827e-21)
(1.0262953 -0.0089260962 7.5372653e-21)
(1.0279471 -0.0077998115 1.055458e-20)
(1.0292792 -0.0066071149 -2.451243e-21)
(1.0302914 -0.0053794797 3.3755995e-21)
(1.0309845 -0.0041798844 -9.7615859e-21)
(1.0313835 -0.003035093 2.2389289e-21)
(1.0315262 -0.0020591997 4.9848055e-21)
(1.0314814 -0.0011849823 -3.6690281e-21)
(1.0313119 -0.00064556239 1.8382864e-21)
(1.0311475 -6.5538126e-05 8.7445557e-23)
(0.9717803 -0.012165375 2.8357759e-21)
(0.97374961 -0.013499905 -2.6038277e-22)
(0.97799023 -0.013654206 2.6946213e-22)
(0.98285214 -0.01416823 -7.7629726e-21)
(0.98810572 -0.014300434 3.1518097e-21)
(0.99339598 -0.014421377 -4.8397183e-21)
(0.99837047 -0.014369618 -5.2445875e-22)
(1.0030234 -0.014229382 -4.3950359e-21)
(1.0072439 -0.01395595 2.1196407e-21)
(1.0111157 -0.013578926 1.7248565e-21)
(1.0146079 -0.013081363 -3.1149629e-21)
(1.0177779 -0.012469826 4.2301423e-21)
(1.0206101 -0.011734167 -2.878642e-21)
(1.0231357 -0.010875281 -2.5637677e-22)
(1.0253445 -0.0098952401 4.1031887e-21)
(1.0272448 -0.0088046983 1.0293112e-21)
(1.0288212 -0.0076223818 -5.3036026e-22)
(1.0300681 -0.0063806931 5.2979972e-21)
(1.0309774 -0.0051175844 0)
(1.0315585 -0.0039004609 9.6465721e-22)
(1.0318392 -0.0027599665 2.7055801e-22)
(1.0318671 -0.0018126159 -4.7330273e-22)
(1.031718 -0.00098727042 -2.0059787e-22)
(1.0314686 -0.00051787717 -2.6247406e-21)
(1.0312488 -1.7058403e-05 -7.8890064e-22)
(0.96925838 -0.011857263 -9.7069331e-21)
(0.97004544 -0.013384989 -5.6101916e-22)
(0.97376641 -0.013633731 1.091654e-21)
(0.97817022 -0.014309711 8.3718235e-22)
(0.98341713 -0.014537555 8.1213062e-21)
(0.98894256 -0.014762145 -1.6317704e-22)
(0.99432624 -0.014792527 -5.0763085e-22)
(0.9994409 -0.014729287 3.228575e-22)
(1.0041133 -0.014524056 3.4325989e-21)
(1.0083969 -0.014212736 -1.7650258e-21)
(1.0122598 -0.013779831 2.7673056e-21)
(1.0157647 -0.013234956 -3.8367557e-22)
(1.0189036 -0.012566457 -2.1881572e-21)
(1.0217135 -0.011773104 1.0515694e-21)
(1.0241917 -0.01085234 -9.2365709e-22)
(1.0263532 -0.0098093587 -5.441404e-21)
(1.028187 -0.008656984 -5.9343106e-21)
(1.0296872 -0.0074163491 -7.4185771e-21)
(1.0308386 -0.0061261105 -1.0771447e-20)
(1.0316396 -0.0048286337 -1.1525187e-22)
(1.0321009 -0.0035981537 1.0254268e-20)
(1.0322585 -0.0024669621 1.5860095e-21)
(1.032169 -0.0015536749 -3.4452546e-21)
(1.0319151 -0.00078266413 2.5890973e-21)
(1.0315871 -0.00038676117 -1.4680429e-21)
(1.0313129 3.155275e-05 8.6614085e-23)
(0.96715919 -0.011478561 3.7379901e-22)
(0.96675266 -0.013169163 -5.8649116e-22)
(0.96980053 -0.013529556 -4.7596069e-21)
(0.97351001 -0.014357719 4.796726e-21)
(0.9785242 -0.014696995 -7.3532597e-21)
(0.98409785 -0.01504247 3.9548773e-21)
(0.98979798 -0.015168682 1.400746e-21)
(0.99536082 -0.015192618 4.1034392e-21)
(1.0005238 -0.015061709 -4.6374007e-21)
(1.0052755 -0.014818685 -2.171192e-21)
(1.0095633 -0.014450651 5.8569177e-22)
(1.0134481 -0.013972133 -7.1232587e-21)
(1.0169297 -0.013371741 7.1161818e-21)
(1.0200519 -0.012647239 -2.2003411e-21)
(1.0228199 -0.011792067 1.324701e-21)
(1.0252571 -0.010807306 6.2311054e-22)
(1.0273605 -0.0096989085 -3.9781561e-21)
(1.0291278 -0.0084816863 4.4222734e-21)
(1.030542 -0.0071815924 -4.4308481e-21)
(1.0315923 -0.0058423347 3.2812174e-22)
(1.0322759 -0.0045132828 0)
(1.0326114 -0.0032734647 3.8901942e-21)
(1.0326412 -0.0021574858 7.5323043e-22)
(1.0324322 -0.0012839185 0)
(1.0320739 -0.00057254188 -2.9769312e-21)
(1.0316691 -0.0002531593 -3.1510696e-22)
(1.0313418 7.9612722e-05 6.9999598e-23)
(0.96538367 -0.011042928 2.5333519e-21)
(0.96387544 -0.012857855 -1.9737264e-22)
(0.96617711 -0.013328226 -3.9354739e-21)
(0.96903134 -0.014297919 5.8646237e-22)
(0.97358537 -0.014765586 -1.0771544e-21)
(0.97897048 -0.015248321 -4.4906415e-21)
(0.98482576 -0.015485384 -2.2183056e-22)
(0.99076119 -0.015610575 -3.1700404e-21)
(0.99641796 -0.015564499 -1.2000697e-23)
(1.0016852 -0.015395746 3.9750903e-21)
(1.0064587 -0.015094456 -2.9317668e-21)
(1.0107799 -0.014682021 -6.5180606e-22)
(1.0146509 -0.014149695 -2.797367e-21)
(1.0181223 -0.013495788 1.4052686e-21)
(1.0212079 -0.012710692 -2.5013386e-21)
(1.0239402 -0.011791926 1.7441144e-21)
(1.0263264 -0.01074023 -2.6378742e-21)
(1.0283726 -0.0095630172 1.479688e-20)
(1.0300647 -0.0082784006 4.9657224e-21)
(1.0313876 -0.0069167624 2.0327899e-21)
(1.0323269 -0.0055294345 5.6805251e-21)
(1.0328857 -0.0041716289 -9.1892441e-22)
(1.0330885 -0.0029278035 -3.7685404e-22)
(1.0329868 -0.0018331535 0)
(1.0326574 -0.0010050705 0)
(1.0321957 -0.00035835348 2.6253888e-22)
(1.0317165 -0.00011817514 -5.9354902e-22)
(1.0313385 0.00012488151 4.0731436e-22)
(0.96377849 -0.01056468 0)
(0.96134526 -0.012460286 -8.5565903e-22)
(0.96292903 -0.013033012 3.4097118e-21)
(0.96485498 -0.014130538 1.2870449e-21)
(0.9687525 -0.014738058 4.8887722e-21)
(0.97370412 -0.015364043 6.6510187e-23)
(0.9795024 -0.015726521 -2.9408652e-21)
(0.9856649 -0.015970049 -4.973437e-21)
(0.99176081 -0.016023883 6.0113858e-21)
(0.99756014 -0.015940021 -1.7440233e-21)
(1.0028759 -0.015710726 2.9217054e-22)
(1.0076989 -0.015365362 1.7072157e-21)
(1.0120182 -0.014900624 -8.1866715e-21)
(1.015887 -0.014317789 2.4434641e-21)
(1.0193277 -0.013605506 1.7865925e-21)
(1.022382 -0.012758422 -2.4466957e-21)
(1.0250689 -0.011772869 1.7996721e-21)
(1.0274062 -0.010650815 -3.3634004e-21)
(1.0293881 -0.0094011882 9.9782304e-21)
(1.0310004 -0.0080455733 -2.1936437e-21)
(1.032222 -0.0066212853 4.6253581e-21)
(1.033042 -0.0051869348 3.0769889e-21)
(1.0334672 -0.0038045999 -2.983336e-22)
(1.0335317 -0.0025624789 -9.0038482e-21)
(1.0332953 -0.0014958357 -2.7502201e-21)
(1.0328454 -0.00071899671 6.8324204e-22)
(1.0322822 -0.00014165303 1.4267087e-21)
(1.0317311 1.6445157e-05 8.2949631e-23)
(1.0313077 0.00016952067 -1.6161725e-21)
(0.96215486 -0.010054036 -6.0829454e-21)
(0.95903004 -0.011989499 0)
(0.96001172 -0.012653946 0)
(0.96102889 -0.013860408 0)
(0.9641475 -0.014604306 -1.2974193e-21)
(0.96845948 -0.015371972 4.3775796e-21)
(0.97396427 -0.015876648 -5.7313644e-22)
(0.98014825 -0.016254646 -7.8882689e-22)
(0.98655858 -0.01642673 7.7559798e-21)
(0.99285277 -0.016443315 -7.4455846e-21)
(0.99874171 -0.016296287 4.4036195e-21)
(1.0041309 -0.016022116 -1.6226581e-21)
(1.0089687 -0.015625184 2.1702372e-21)
(1.0132963 -0.015113038 -3.1987254e-21)
(1.0171417 -0.014474867 5.5824857e-21)
(1.0205556 -0.013703206 2.2326907e-21)
(1.0235689 -0.012790793 -2.648086e-21)
(1.0262133 -0.01173531 -4.8063784e-21)
(1.028496 -0.010538707 1.152261e-21)
(1.0304104 -0.0092118589 -2.787652e-21)
(1.0319337 -0.0077820324 -5.2297914e-21)
(1.033045 -0.0062940199 7.4805502e-22)
(1.0337353 -0.0048150711 7.0496341e-21)
(1.0340191 -0.0034131043 -4.1135381e-21)
(1.0339399 -0.0021793196 -5.6690011e-22)
(1.0335669 -0.0011475256 -1.1904653e-21)
(1.0329971 -0.00042768437 1.892691e-21)
(1.0323348 7.5659298e-05 1.2556227e-21)
(1.0317154 0.00015069313 -1.3665454e-21)
(1.0312467 0.00021805428 -1.4705748e-21)
(0.96023817 -0.0094776953 -2.7463533e-22)
(0.95675186 -0.011455783 -8.9677256e-22)
(0.9573078 -0.012205689 0)
(0.95752656 -0.013495043 0)
(0.95984386 -0.01436358 0)
(0.96338121 -0.015268039 0)
(0.9683653 -0.015923072 0)
(0.97433461 -0.016447866 1.7459661e-22)
(0.9808705 -0.016756082 -3.8293706e-21)
(0.98755291 -0.016892443 8.1889888e-21)
(0.99399642 -0.016843646 -3.5284249e-22)
(0.99999577 -0.016649949 4.8402947e-21)
(1.0054245 -0.016323658 -8.3318426e-21)
(1.0102854 -0.015881897 3.7167735e-21)
(1.0145997 -0.01531799 -3.9938355e-22)
(1.0184239 -0.014623952 3.6590559e-21)
(1.0218006 -0.013789433 -5.6279005e-21)
(1.0247757 -0.012808993 1.2819847e-21)
(1.0273733 -0.011679279 5.1526795e-21)
(1.0296002 -0.010402598 2.6930916e-21)
(1.0314392 -0.0089934171 6.6125471e-22)
(1.0328646 -0.0074859519 4.1176795e-21)
(1.0338543 -0.0059343363 1.4213353e-22)
(1.034405 -0.0044140922 -2.7328452e-21)
(1.0345396 -0.0029985878 2.0399032e-21)
(1.0343124 -0.0017802916 6.9080006e-21)
(1.0338017 -0.0007904464 1.6825833e-21)
(1.0331137 -0.00013305835 -8.226341e-22)
(1.0323555 0.00029276737 1.3546701e-22)
(1.0316716 0.00028624381 1.8147644e-21)
(1.0311592 0.00026531578 1.0741011e-21)
(0.95811822 -0.0087827869 6.6530522e-21)
(0.95416854 -0.010840604 -5.9202726e-22)
(0.95464456 -0.011698044 1.6512635e-21)
(0.95425127 -0.013048777 1.4311122e-21)
(0.9558382 -0.014021832 0)
(0.95855372 -0.015052918 0)
(0.96284849 -0.015857617 -2.5581233e-22)
(0.9683742 -0.016535962 4.80576e-21)
(0.97480696 -0.016993487 -7.6006132e-21)
(0.98170256 -0.017269812 8.5673424e-21)
(0.98861387 -0.017339946 8.5061422e-22)
(0.99522221 -0.017242351 -5.1984267e-21)
(1.001299 -0.016994516 5.2867899e-22)
(1.0067734 -0.016624728 -6.1106028e-22)
(1.0116353 -0.016134775 -4.3823795e-21)
(1.0159365 -0.015519288 4.6944188e-22)
(1.0197279 -0.014765754 6.592238e-21)
(1.0230692 -0.013866119 -4.4150665e-22)
(1.0260029 -0.012813622 -3.5764763e-21)
(1.0285545 -0.011604016 1.4666703e-20)
(1.0307197 -0.0102407 -3.1044974e-22)
(1.0324753 -0.0087434416 -4.2861348e-21)
(1.0337912 -0.0071557394 9.4316018e-21)
(1.0346478 -0.0055415967 4.9207342e-21)
(1.0350487 -0.0039847698 -5.0371072e-22)
(1.0350273 -0.0025627131 4.0956141e-21)
(1.0346488 -0.0013676333 2.0279718e-21)
(1.0340004 -0.00042679426 1.6246204e-22)
(1.0331964 0.00016303895 -5.2599775e-22)
(1.0323464 0.0005093546 -5.3483879e-22)
(1.0316019 0.00042055112 1.6809567e-21)
(1.0310491 0.00030972621 1.3768661e-22)
(0.95596371 -0.0080048681 -2.171697e-21)
(0.95135633 -0.010097279 9.0411373e-22)
(0.95171132 -0.011100266 -2.3062843e-21)
(0.95105426 -0.012527666 -1.7525693e-21)
(0.95204757 -0.01359344 0)
(0.95399402 -0.014729122 0)
(0.95752123 -0.01567313 0)
(0.96242101 -0.016501016 -8.7176527e-22)
(0.96851225 -0.017123354 6.0665496e-21)
(0.97539788 -0.017555723 6.489177e-21)
(0.98261851 -0.017767262 8.8489637e-22)
(0.98976821 -0.017787176 -1.0007083e-21)
(0.9965097 -0.017632399 1.1067617e-20)
(1.0026671 -0.017340616 -7.9114712e-21)
(1.0081647 -0.016925392 1.6543922e-21)
(1.0130259 -0.016388587 0)
(1.0173006 -0.015717855 2.1247188e-21)
(1.0210593 -0.014902856 -1.4022795e-21)
(1.0243623 -0.013934519 3.4432473e-21)
(1.027257 -0.012804751 5.223621e-22)
(1.0297591 -0.011507918 -6.6734831e-21)
(1.0318565 -0.010050212 -1.0444271e-22)
(1.0335177 -0.0084593886 -6.5547297e-21)
(1.0347114 -0.0067896943 -8.0613623e-21)
(1.0354226 -0.0051156179 2.4545432e-21)
(1.0356643 -0.0035281535 9.3870918e-22)
(1.0354808 -0.0021074859 -6.2947916e-22)
(1.0349487 -0.00094369197 1.876052e-23)
(1.0341635 -5.8805598e-05 -6.2383556e-22)
(1.0332469 0.00045912719 -9.2942465e-22)
(1.0323095 0.00072338383 6.5942767e-22)
(1.0315088 0.00055171649 -5.846802e-21)
(1.0309179 0.0003520832 2.660252e-21)
(0.95382596 -0.0071466978 -1.8592138e-21)
(0.94849089 -0.0092531953 3.5812525e-22)
(0.94852064 -0.010366823 -4.3132654e-21)
(0.94755633 -0.011908148 -3.2111178e-21)
(0.94832624 -0.013089978 1.4519104e-21)
(0.9496429 -0.014312255 -1.2248302e-22)
(0.95242261 -0.015373485 7.6123354e-21)
(0.95659268 -0.016346992 -4.0834691e-21)
(0.96213792 -0.017132475 -4.9433708e-23)
(0.96877537 -0.017732733 -1.4449699e-20)
(0.97609118 -0.018104558 6.1079813e-21)
(0.98364031 -0.018266475 7.8017799e-21)
(0.99099904 -0.018226251 -4.9193639e-22)
(0.99787369 -0.01802535 -4.1870004e-21)
(1.0040889 -0.01768923 -5.2468975e-21)
(1.0096055 -0.017231628 -1.5147796e-21)
(1.0144508 -0.016644634 9.7080971e-22)
(1.018697 -0.015916816 5.4449968e-21)
(1.022419 -0.015037131 -7.4351877e-22)
(1.0256868 -0.013995734 -8.7937385e-22)
(1.0285414 -0.012781362 1.2376403e-21)
(1.0309905 -0.011388146 -1.0661981e-20)
(1.0330105 -0.0098277798 2.136767e-22)
(1.0345645 -0.008138409 2.3827041e-21)
(1.0356223 -0.0063864355 -1.0556926e-20)
(1.036176 -0.004656517 -3.4959677e-21)
(1.0362494 -0.0030456968 -2.9720921e-21)
(1.0358986 -0.0016351307 -1.5470842e-21)
(1.0352118 -0.00051093628 -1.3672328e-21)
(1.0342919 0.000311341 -1.6180105e-22)
(1.0332668 0.0007533597 1.9230571e-22)
(1.0322469 0.00093354794 -1.4268288e-22)
(1.0313942 0.000679527 2.7192745e-21)
(1.0307677 0.00039269432 -5.5883229e-21)
(0.95177267 -0.0062093397 2.0330267e-21)
(0.94563936 -0.00830415 -4.8388281e-22)
(0.94524009 -0.009521785 4.6989271e-21)
(0.94377199 -0.011144224 2.3236904e-21)
(0.9443589 -0.01247159 -5.1451903e-21)
(0.94538027 -0.013809661 -6.1569243e-21)
(0.94751444 -0.014972702 -8.9930493e-22)
(0.95094473 -0.016070603 0)
(0.9558165 -0.017011636 -4.5163569e-21)
(0.96198709 -0.017784983 -1.6415049e-20)
(0.96915914 -0.018331699 6.1925135e-22)
(0.97690303 -0.018658161 -2.9167886e-21)
(0.98475531 -0.018758618 0)
(0.99232004 -0.018669237 -5.3300654e-22)
(0.9993045 -0.018423014 9.228285e-21)
(1.0055706 -0.018047767 2.036919e-21)
(1.0110893 -0.01754541 -8.3374458e-21)
(1.0159139 -0.016906553 0)
(1.0201255 -0.016118536 5.2220044e-22)
(1.0238137 -0.015170771 1.4132901e-21)
(1.0270473 -0.014049708 -8.7871581e-21)
(1.0298614 -0.012741026 1.1333328e-21)
(1.0322503 -0.011240828 0)
(1.0341809 -0.0095694423 -9.2379787e-21)
(1.0356131 -0.0077777544 3.2711177e-21)
(1.0365206 -0.0059448425 -1.9551296e-22)
(1.0369047 -0.0041648411 -4.4444099e-21)
(1.0368016 -0.0025391671 3.2780978e-21)
(1.0362798 -0.0011480778 2.1210051e-22)
(1.0354382 -7.1861869e-05 -2.2398275e-21)
(1.0343866 0.00068150754 9.0430254e-22)
(1.0332577 0.001044034 -1.7066161e-23)
(1.0321606 0.0011389234 0)
(1.0312601 0.00080381851 -1.0701893e-22)
(1.0306009 0.0004314037 -1.8752526e-21)
(0.94988312 -0.005197413 1.3518072e-21)
(0.94289277 -0.007249496 -3.4370921e-23)
(0.94195729 -0.008562305 4.1316911e-21)
(0.9398763 -0.010258782 6.3590164e-22)
(0.94008011 -0.011701741 -1.666032e-21)
(0.94083759 -0.01318393 -1.8492572e-22)
(0.94268823 -0.014479525 -5.6791828e-21)
(0.94545961 -0.015686708 2.6133001e-22)
(0.94962132 -0.01676157 0)
(0.95517624 -0.017700793 5.3980989e-21)
(0.96197259 -0.018432613 -5.534782e-21)
(0.96967278 -0.018939897 9.9184982e-22)
(0.97782562 -0.019206817 -3.132563e-21)
(0.9859759 -0.019255802 4.6721854e-21)
(0.99372367 -0.019118451 2.3678779e-21)
(1.0008085 -0.018834302 8.1628139e-21)
(1.0071066 -0.018419253 -1.6595042e-20)
(1.0126192 -0.017871026 -5.1875234e-21)
(1.0174142 -0.017177068 7.6903783e-21)
(1.0215925 -0.016326195 -1.0623205e-20)
(1.0252489 -0.015304942 8.9168755e-21)
(1.0284507 -0.014094925 -6.2822708e-21)
(1.0312201 -0.012679806 0)
(1.0335388 -0.011061085 -2.3632429e-21)
(1.0353656 -0.0092710195 7.633554e-22)
(1.0366601 -0.0073748133 4.7462297e-21)
(1.0374025 -0.0054642002 1.7084454e-21)
(1.0376055 -0.0036415229 9.5227264e-22)
(1.0373187 -0.002010642 2.1753729e-21)
(1.0366231 -0.00064890015 0)
(1.035628 0.00037103584 2.1923527e-21)
(1.0344486 0.0010496237 1.0415729e-21)
(1.0332213 0.0013297197 4.9328459e-21)
(1.0320526 0.0013387146 -2.3864162e-21)
(1.0311086 0.00092413563 1.2285701e-22)
(1.0304198 0.00046811973 6.8435144e-21)
(0.94824079 -0.0041188553 -1.3174021e-21)
(0.94035856 -0.0060937265 -1.521989e-22)
(0.93878242 -0.0074882371 -1.1789258e-21)
(0.93596771 -0.0092450171 4.5401909e-23)
(0.93563472 -0.010799584 6.0246025e-21)
(0.93593327 -0.01239711 6.3329099e-21)
(0.93759241 -0.013851988 -1.1292156e-22)
(0.94005369 -0.01520254 -4.7862945e-21)
(0.9435552 -0.016396562 2.3229149e-22)
(0.94843189 -0.017481152 -4.6306825e-21)
(0.95467902 -0.018391297 -1.4936237e-22)
(0.96209658 -0.019093563 2.7591949e-21)
(0.97031388 -0.019546406 -5.877267e-23)
(0.97886985 -0.019762324 4.281503e-21)
(0.98729713 -0.019760419 -1.8270878e-20)
(0.99521627 -0.019584144 1.0745173e-21)
(1.0023805 -0.019263619 5.1329109e-21)
(1.0086989 -0.018808936 7.86315e-21)
(1.0141934 -0.018211534 -7.9966853e-21)
(1.0189571 -0.017460126 -2.5451978e-21)
(1.0231036 -0.01654225 4.5120073e-21)
(1.0267326 -0.015439501 -9.8310181e-21)
(1.0299019 -0.014127959 8.0027159e-21)
(1.0326197 -0.012592276 0)
(1.034855 -0.010843385 6.6456844e-21)
(1.0365615 -0.008928246 9.8240295e-21)
(1.0377014 -0.0069272861 -3.8753211e-21)
(1.038264 -0.0049442037 8.1535325e-21)
(1.038275 -0.0030878943 2.4335974e-22)
(1.0377985 -0.0014624632 -2.4086721e-21)
(1.0369277 -0.00014026157 -1.9049588e-21)
(1.0357816 0.00081531937 -2.0045307e-21)
(1.0344793 0.0014137991 -2.5059641e-22)
(1.0331595 0.0016092106 5.4751767e-21)
(1.0319248 0.0015322719 -8.7784251e-22)
(1.0309417 0.001040104 -2.6249005e-22)
(1.0302262 0.0005028538 2.621526e-21)
(0.94692553 -0.0029846145 2.0167154e-22)
(0.93815059 -0.0048462961 -3.2203562e-22)
(0.93584357 -0.0063041399 -1.4324141e-21)
(0.93217687 -0.0081017461 -3.043808e-22)
(0.93114918 -0.0097548023 -3.9154958e-23)
(0.93083444 -0.011466361 1.4274383e-22)
(0.93212893 -0.013052081 -3.9376082e-21)
(0.93436447 -0.014571644 2.1840656e-21)
(0.93755611 -0.015923029 0)
(0.94177636 -0.017139217 9.2515187e-22)
(0.94738676 -0.018205504 0)
(0.95432611 -0.019099846 0)
(0.96236242 -0.019756448 2.9358899e-21)
(0.97109162 -0.020162812 -3.7355229e-22)
(0.98003386 -0.020326778 -2.7771497e-21)
(0.98872561 -0.020283648 -5.4632882e-21)
(0.99679385 -0.020072222 1.2592153e-20)
(1.0040223 -0.019717579 3.6112807e-21)
(1.0103451 -0.019220392 6.5244623e-21)
(1.0158156 -0.018571431 2.9634487e-21)
(1.0205476 -0.017759339 -7.9793212e-21)
(1.0246675 -0.016768242 4.8307655e-21)
(1.0282718 -0.015572174 1.4078243e-21)
(1.0314054 -0.014143398 -1.8104419e-21)
(1.0340609 -0.012471813 7.1818181e-24)
(1.0361969 -0.010581774 1.9559019e-21)
(1.0377649 -0.0085369845 -1.2440385e-21)
(1.0387325 -0.0064332374 -4.9933345e-21)
(1.0391007 -0.0043850014 -4.7925859e-22)
(1.0389098 -0.0025056766 -7.4790247e-21)
(1.0382388 -0.00089719918 -2.5452986e-21)
(1.0371929 0.00037513989 -1.163851e-21)
(1.0358994 0.0012586535 -2.9634018e-21)
(1.03448 0.0017723845 3.5251252e-21)
(1.0330742 0.0018815331 -1.0859761e-20)
(1.0317793 0.0017191144 -1.9110641e-21)
(1.0307614 0.0011515499 -2.3638321e-21)
(1.0300219 0.00053565766 0)
(0.94600586 -0.0018083082 1.1449855e-21)
(0.93637845 -0.0035213903 -1.2459643e-22)