/*--------------------------------*- C++ -*----------------------------------*\
| =========                 |                                                 |
| \\      /  F ield         | OpenFOAM: The Open Source CFD Toolbox           |
|  \\    /   O peration     | Version:  5.0                                   |
|   \\  /    A nd           | Web:      www.OpenFOAM.org                      |
|    \\/     M anipulation  |                                                 |
\*---------------------------------------------------------------------------*/
FoamFile
{
    version     2.0;
    format      ascii;
    class       volVectorField;
    location    "45";
    object      UMean;
}
// * * * * * * * * * * * * * * * * * * * * * * * * * * * * * * * * * * * * * //

dimensions      [0 1 -1 0 0 0 0];

internalField   nonuniform List<vector> 
9200
(
(1.0106633 -0.00049454037 -1.7497453e-23)
(1.0110815 -0.0014317787 -6.4650494e-21)
(1.0120185 -0.00050859526 0)
(1.0110445 -0.0023086999 3.3004306e-21)
(1.0124244 -0.0014668756 -4.7773078e-21)
(1.0126692 -0.00051769299 0)
(1.0107437 -0.0031086172 3.316043e-22)
(1.0123684 -0.0023637364 -3.194016e-22)
(1.0130704 -0.0014925403 0)
(1.0136021 -0.00053156435 0)
(1.0102919 -0.0038440992 -6.1189901e-21)
(1.0120432 -0.0031842212 -3.0894705e-21)
(1.0130055 -0.0024051751 -2.6536851e-21)
(1.0139946 -0.0015330679 -1.6532321e-22)
(1.0143861 -0.00054405103 1.4705483e-24)
(1.0097244 -0.0045179085 -5.6196755e-21)
(1.0115679 -0.0039396628 5.4662296e-22)
(1.0126701 -0.0032423949 -8.3939863e-21)
(1.0139186 -0.0024689268 -3.0092847e-21)
(1.0147718 -0.001572019 1.4591984e-22)
(1.0152335 -0.00055788798 6.9310058e-21)
(1.0090484 -0.0051331947 -4.9326401e-21)
(1.010974 -0.004634332 -5.6964231e-21)
(1.012185 -0.0040136759 5.0921459e-21)
(1.0135711 -0.0033320859 2.6012414e-22)
(1.0146872 -0.002530259 -3.3329531e-21)
(1.0156118 -0.0016171057 -3.1468502e-21)
(1.0160316 -0.00057066169 -4.0994974e-22)
(1.0082577 -0.0056939714 -1.7921611e-21)
(1.010269 -0.0052703806 -3.6569311e-21)
(1.0115801 -0.0047250464 -5.2843436e-21)
(1.0130745 -0.0041281764 3.783577e-22)
(1.0143306 -0.0034189303 7.4599492e-21)
(1.0155208 -0.0026010297 3.1859552e-21)
(1.016403 -0.0016610264 4.4419507e-21)
(1.0168488 -0.00058322441 -6.6490799e-21)
(1.0073425 -0.0062029949 5.7415673e-21)
(1.0094465 -0.0058526133 -4.5582996e-21)
(1.0108632 -0.0053775863 3.7798551e-22)
(1.012457 -0.0048659273 -2.7554197e-21)
(1.0138258 -0.004239307 8.4062566e-22)
(1.0151586 -0.0035198857 1.1665809e-20)
(1.0163066 -0.0026697301 -3.4190763e-21)
(1.0172138 -0.0017065107 7.4408458e-21)
(1.0176373 -0.00059420069 1.4021932e-20)
(1.0062906 -0.006663756 -4.1030336e-21)
(1.0084971 -0.0063837106 2.6066092e-21)
(1.0100279 -0.0059766201 5.7510725e-23)
(1.011726 -0.0055448335 -1.3134222e-21)
(1.013199 -0.005002948 8.3084176e-22)
(1.0146496 -0.0043693164 1.3829997e-21)
(1.01594 -0.0036184699 -4.0254547e-21)
(1.0171153 -0.0027408534 -7.3212154e-21)
(1.0179966 -0.0017490615 -3.8066332e-21)
(1.018429 -0.00060386649 -9.1678805e-22)
(1.0050884 -0.0070790239 1.9104547e-21)
(1.0074086 -0.0068677944 3.4522886e-22)
(1.0090653 -0.0065245022 -3.7150253e-21)
(1.0108754 -0.0061709489 3.4185499e-21)
(1.0124578 -0.0057076454 -6.1098929e-21)
(1.0140177 -0.0051643318 1.2274256e-20)
(1.015428 -0.0044966228 4.4662973e-22)
(1.016749 -0.0037216635 -1.2368097e-20)
(1.0178973 -0.002807191 6.1879369e-21)
(1.0187836 -0.0017896597 -1.2398888e-20)
(1.0191981 -0.00061134873 2.0918865e-21)
(1.0037218 -0.0074514143 -1.647215e-22)
(1.0061671 -0.0073082507 -1.8256062e-23)
(1.0079635 -0.0070254015 2.6762063e-21)
(1.0098965 -0.006746195 0)
(1.011596 -0.0063600988 -1.4777127e-23)
(1.0132706 -0.0059006334 -1.2043544e-21)
(1.0147924 -0.005322852 2.5039013e-21)
(1.0162391 -0.0046310739 6.1173465e-21)
(1.0175329 -0.0038190064 -1.2996077e-21)
(1.0186868 -0.0028704168 7.5551671e-21)
(1.019549 -0.0018252826 5.1654126e-21)
(1.019959 -0.00061662208 -1.0392122e-21)
(1.0021777 -0.0077826368 -9.5475081e-23)
(1.0047573 -0.0077087489 6.6628313e-22)
(1.006709 -0.0074825526 0)
(1.0087777 -0.0072749122 0)
(1.0106054 -0.0069616987 2.0688074e-21)
(1.0124015 -0.0065855871 -3.8666493e-21)
(1.0140405 -0.0060906294 6.2524449e-21)
(1.0156051 -0.0054918662 -6.3579294e-21)
(1.0170271 -0.0047588783 -4.4711096e-22)
(1.0183292 -0.0039133031 1.4280975e-23)
(1.0194566 -0.0029257591 -9.4650601e-21)
(1.0203076 -0.0018558698 1.0805965e-20)
(1.0206981 -0.00061916953 -1.8809434e-20)
(1.000447 -0.0080732739 6.9749145e-22)
(1.0031635 -0.0080723355 -1.1422044e-22)
(1.0052865 -0.0078995086 1.8626912e-21)
(1.0075058 -0.0077603389 -2.1365349e-21)
(1.0094748 -0.0075168115 2.3181801e-21)
(1.0114029 -0.0072198336 -9.6618023e-22)
(1.0131659 -0.0068080167 -1.5449793e-21)
(1.014854 -0.0062949692 1.099611e-22)
(1.0163968 -0.0056538811 -5.0976421e-21)
(1.0178326 -0.0048842343 -4.4177103e-21)
(1.0191083 -0.0039976949 -2.3715272e-21)
(1.020223 -0.0029731745 -6.3876558e-21)
(1.0210458 -0.0018794934 -4.307098e-21)
(1.02142 -0.00061883069 5.0720067e-21)
(0.998529 -0.0083223105 1.8506247e-21)
(1.0013717 -0.0084012719 -2.5213604e-21)
(1.0036802 -0.0082790928 5.4285529e-22)
(1.0060652 -0.0082062617 1.0104397e-22)
(1.0081914 -0.0080284617 -8.3647846e-23)
(1.0102637 -0.0078076728 1.070037e-21)
(1.012161 -0.0074748801 -1.4348635e-21)
(1.0139786 -0.007049063 1.9072045e-21)
(1.0156485 -0.0064922809 -7.0142976e-22)
(1.0172113 -0.0058148814 3.4269752e-22)
(1.0186237 -0.0049982737 1.4017454e-22)
(1.0198888 -0.0040723453 -3.4882515e-22)
(1.0209713 -0.0030096616 9.1212802e-21)
(1.0217684 -0.0018955393 -4.7252151e-21)
(1.0221177 -0.0006153135 3.9272638e-21)
(0.99643882 -0.0085267453 -2.0352848e-21)
(0.99937375 -0.0086964335 1.9951712e-21)
(1.0018749 -0.0086233112 -1.1368462e-21)
(1.0044391 -0.0086157401 1.9374409e-21)
(1.00674 -0.0085004352 -2.1579053e-21)
(1.0089715 -0.0083518156 4.7293759e-21)
(1.0110156 -0.0080954375 -5.3638674e-21)
(1.0129719 -0.0077529811 2.5142164e-22)
(1.0147748 -0.0072833919 1.5524983e-21)
(1.0164709 -0.006690624 -1.9600651e-21)
(1.0180147 -0.0059638729 1.4982492e-20)
(1.0194214 -0.0051014887 -5.8807053e-21)
(1.0206544 -0.0041329907 -2.9942069e-21)
(1.0217072 -0.0030342663 -9.2887119e-22)
(1.0224684 -0.0019027928 1.9968104e-22)
(1.0227912 -0.00060845749 -4.2167752e-21)
(0.99421434 -0.0086815473 0)
(0.99717363 -0.0089565118 1.6330612e-21)
(0.99986024 -0.0089328731 -9.6730545e-22)
(1.0026108 -0.0089915868 0)
(1.0051037 -0.0089359179 0)
(1.0075113 -0.0088559928 0)
(1.0097174 -0.0086720608 2.0814078e-22)
(1.0118236 -0.0084106603 -3.2865859e-21)
(1.0137687 -0.0080249553 3.2764056e-21)
(1.0156033 -0.0075213564 -4.1605538e-21)
(1.0172857 -0.0068769054 6.7045355e-22)
(1.0188299 -0.0061018883 -3.0293675e-21)
(1.0202079 -0.0051884921 5.4384637e-22)
(1.0214125 -0.004178356 3.2277837e-21)
(1.0224234 -0.0030450901 4.8757961e-22)
(1.0231459 -0.0019005325 2.1765688e-21)
(1.0234365 -0.00059811186 0)
(0.99192133 -0.0087801709 -1.7831038e-21)
(0.99479581 -0.0091773835 -2.8665539e-21)
(0.99763603 -0.0092067091 4.2324079e-21)
(1.000566 -0.0093354218 1.6824484e-21)
(1.0032644 -0.009337521 2.4314323e-21)
(1.0058659 -0.0093233152 0)
(1.0082518 -0.0092082735 3.1485034e-21)
(1.0105221 -0.009023912 -8.983331e-22)
(1.0126204 -0.0087206068 -7.9048587e-21)
(1.0146017 -0.0083035431 4.1538717e-21)
(1.0164281 -0.0077478135 2.3494735e-21)
(1.0181174 -0.0070528974 7.8770454e-22)
(1.0196384 -0.0062223824 -7.3802843e-21)
(1.0209924 -0.0052577034 1.0116409e-20)
(1.0221545 -0.0042057324 1.4323835e-21)
(1.0231201 -0.0030409745 1.5394211e-20)
(1.023797 -0.0018879931 5.4956727e-21)
(1.024052 -0.00058418682 4.9459861e-21)
(0.98965246 -0.0088157088 3.0313963e-22)
(0.99229272 -0.0093519317 -1.1287301e-21)
(0.99521984 -0.0094414251 -9.4003573e-22)
(0.99829774 -0.0096468845 2.4071844e-21)
(1.0012055 -0.0097068074 -2.808498e-22)
(1.0040164 -0.0097565752 1.8945399e-21)
(1.0066016 -0.0097070637 -1.3441729e-21)
(1.0090531 -0.0095960304 -6.6678072e-21)
(1.0113185 -0.0093715574 -2.6670841e-21)
(1.0134564 -0.009040352 3.2473974e-21)
(1.0154346 -0.0085717031 -9.5172875e-22)
(1.0172742 -0.0079654404 6.0093168e-21)
(1.018947 -0.0072109291 -4.136212e-21)
(1.0204502 -0.0063235902 9.4354241e-23)
(1.0217651 -0.0053057494 -1.2429718e-22)
(1.0228818 -0.0042134379 -2.4700959e-21)
(1.0237932 -0.0030207029 5.0413947e-21)
(1.02442 -0.0018646197 -2.8752245e-22)
(1.0246351 -0.00056663857 4.4505498e-21)
(0.98751847 -0.0087825441 2.4816704e-21)
(0.98974762 -0.0094709942 1.3034145e-21)
(0.99265554 -0.009630456 -9.110896e-21)
(0.99581463 -0.0099226365 -8.0233771e-22)
(0.99891556 -0.01004383 1.3328917e-21)
(1.0019438 -0.010157686 7.7216239e-22)
(1.0047472 -0.010171298 5.3963764e-22)
(1.0073997 -0.010129828 3.3116093e-21)
(1.009849 -0.0099807404 -1.0634061e-21)
(1.0121564 -0.0097322191 -8.4725265e-21)
(1.0142957 -0.0093511921 6.630611e-21)
(1.016293 -0.0088331159 -2.8562865e-22)
(1.0181232 -0.0081655236 -2.1077737e-21)
(1.0197855 -0.0073492485 1.4721893e-22)
(1.0212556 -0.0064014236 4.1340765e-22)
(1.0225284 -0.0053303724 -8.5453336e-21)
(1.0235895 -0.0041996584 2.6572741e-21)
(1.0244411 -0.0029833597 -7.8660757e-21)
(1.0250122 -0.0018299884 -1.8939256e-21)
(1.0251841 -0.00054547065 -4.3609655e-21)
(0.98563179 -0.0086781643 6.2915813e-23)
(0.98726961 -0.0095250131 1.5907329e-21)
(0.99001845 -0.0097654752 -5.472276e-23)
(0.99314997 -0.010156847 2.1391416e-21)
(0.9963959 -0.010346334 4.0459045e-22)
(0.99963247 -0.010527247 -1.7039938e-21)
(1.0026679 -0.010603083 4.2566894e-21)
(1.0055419 -0.010628157 8.3852718e-21)
(1.0081953 -0.010550666 -3.4581089e-21)
(1.0106884 -0.010381616 0)
(1.0130008 -0.010085828 -4.1700744e-21)
(1.0151641 -0.0096578538 3.0342819e-21)
(1.0171588 -0.0090781828 6.6911707e-21)
(1.0189863 -0.0083464563 -5.9227952e-21)
(1.0206231 -0.0074630343 2.5175803e-21)
(1.0220575 -0.0064530965 -6.6363683e-21)
(1.023277 -0.0053292626 2.6618789e-22)
(1.0242763 -0.0041629578 3.0867067e-21)
(1.0250609 -0.0029282309 -4.7920724e-21)
(1.0255718 -0.0017838338 -3.1985449e-22)
(1.025697 -0.00052073372 -3.8282134e-21)
(0.98408701 -0.0085044116 -4.3025659e-21)
(0.98497957 -0.0095065001 1.2160957e-21)
(0.98741222 -0.0098372869 4.1916556e-21)
(0.9903679 -0.01034053 -4.4095765e-21)
(0.99366946 -0.010608734 -2.9555366e-21)
(0.99707639 -0.010863642 8.1726947e-22)
(1.0003446 -0.01100325 0)
(1.0034577 -0.01109331 2.4417616e-21)
(1.0063375 -0.011084099 -1.1859987e-21)
(1.009036 -0.010990667 -8.1887999e-21)
(1.011537 -0.010777485 -7.9557496e-22)
(1.0138771 -0.010438156 1.8947751e-21)
(1.016044 -0.0099500329 -5.4253949e-22)
(1.0180436 -0.0093055663 -2.0142688e-21)
(1.0198542 -0.0085027662 3.9968102e-21)
(1.0214633 -0.0075491469 -3.8387788e-21)
(1.0228502 -0.0064757325 8.1974874e-22)
(1.0240099 -0.0053003587 -5.2551193e-21)
(1.0249391 -0.0041021708 -5.4534002e-22)
(1.0256505 -0.0028548294 -1.0567106e-22)
(1.0260968 -0.0017260517 -2.2808212e-21)
(1.0261727 -0.00049252372 0)
(0.98294364 -0.0082674446 -1.6739008e-21)
(0.98299003 -0.0094119791 -5.723665e-22)
(0.98495814 -0.0098378692 5.6966542e-23)
(0.98756431 -0.010463195 -3.9926566e-21)
(0.99078984 -0.010822535 -1.8468497e-21)
(0.9942885 -0.011162171 1.6646214e-21)
(0.99776506 -0.011370705 -1.9061358e-21)
(1.0011251 -0.011526569 5.2443561e-21)
(1.0042526 -0.011583429 2.0443686e-21)
(1.0071795 -0.011561955 4.6571458e-22)
(1.0098883 -0.011427757 -1.1777843e-22)
(1.0124196 -0.011175155 -3.9600278e-21)
(1.0147685 -0.010778388 5.4889756e-22)
(1.0169473 -0.010226778 1.3128673e-21)
(1.0189389 -0.0095092743 -4.4704885e-21)
(1.0207309 -0.0086310574 -5.4022701e-21)
(1.0223008 -0.0076040661 4.9258649e-23)
(1.0236334 -0.0064666154 8.9939019e-21)
(1.0247235 -0.0052420528 5.0330981e-22)
(1.0255755 -0.004016407 -2.813602e-21)
(1.0262078 -0.0027629225 0)
(1.0265857 -0.0016566938 4.6895949e-21)
(1.02661 -0.00046098113 7.1153713e-23)
(0.9822164 -0.0079764664 8.7475033e-21)
(0.98138446 -0.0092430367 -1.6256818e-21)
(0.982776 -0.009762075 3.9956132e-21)
(0.98485791 -0.010514632 1.9431336e-21)
(0.98784437 -0.010976766 -4.8233211e-21)
(0.99131068 -0.011414084 0)
(0.99493286 -0.011701376 -3.84241e-22)
(0.9985261 -0.011927406 2.5835168e-21)
(1.0019161 -0.012050238 3.5209411e-21)
(1.0050954 -0.012097893 3.845517e-21)
(1.0080355 -0.012038928 -3.7702617e-21)
(1.0107764 -0.01186978 -3.6231754e-21)
(1.0133205 -0.011563478 4.7319254e-21)
(1.0156871 -0.011106064 -4.4012014e-21)
(1.0178661 -0.010481731 7.4674051e-21)
(1.0198489 -0.0096857842 9.1845007e-21)
(1.0216116 -0.0087272123 -4.2752678e-21)
(1.0231353 -0.0076245282 3.4106373e-21)
(1.0244032 -0.0064235957 -1.0998218e-20)
(1.0254157 -0.0051529126 3.4896816e-21)
(1.026183 -0.0039051197 5.8965633e-21)
(1.026731 -0.002652514 -4.8215513e-21)
(1.0270372 -0.0015759732 2.7092734e-21)
(1.0270081 -0.00042627695 5.9587254e-23)
(0.98187231 -0.0076437717 1.0191287e-21)
(0.98020359 -0.0090048176 -7.735521e-22)
(0.9809621 -0.0096101015 -3.5181062e-22)
(0.98237312 -0.010487232 -8.4230314e-21)
(0.98494818 -0.011060453 3.0630821e-21)
(0.98821928 -0.011608511 -5.6187357e-21)
(0.99187809 -0.011987616 -3.1889285e-22)
(0.99565568 -0.012292617 -5.9196365e-21)
(0.99930556 -0.01248456 1.8361275e-21)
(1.0027575 -0.012600347 2.2482628e-21)
(1.0059549 -0.01261332 -2.480463e-21)
(1.0089287 -0.012523879 5.6905418e-21)
(1.0116852 -0.0123054 -2.5861855e-21)
(1.0142514 -0.011942579 -4.1528532e-22)
(1.0166257 -0.011414629 2.7403809e-21)
(1.0188053 -0.010711388 1.1692097e-21)
(1.0207694 -0.0098304831 -8.2301539e-22)
(1.0224962 -0.008787464 5.2469995e-21)
(1.0239631 -0.0076077099 0)
(1.0251576 -0.0063445764 8.5216439e-22)
(1.0260834 -0.0050320178 2.5442219e-22)
(1.0267596 -0.0037680683 -4.7471786e-22)
(1.0272183 -0.0025238539 4.1753525e-23)
(1.0274503 -0.001484247 -3.6117466e-21)
(1.0273667 -0.00038861098 -1.3503673e-21)
(0.98183464 -0.0072829197 -4.8351179e-21)
(0.97943898 -0.0087077122 5.2957754e-23)
(0.97956706 -0.0093895592 1.007177e-21)
(0.98021799 -0.010377443 8.7570105e-22)
(0.98222829 -0.011064391 8.455174e-21)
(0.9851222 -0.011733023 2.9843585e-22)
(0.98866543 -0.012218216 -2.9408149e-22)
(0.99253186 -0.012615269 3.9673942e-22)
(0.99640786 -0.012883885 4.6319626e-21)
(1.0001393 -0.013069864 -1.1303479e-21)
(1.003619 -0.013152969 3.142013e-21)
(1.0068529 -0.013139569 -6.114692e-22)
(1.0098446 -0.013005419 -2.9468596e-21)
(1.0126264 -0.012735411 7.509523e-22)
(1.0152063 -0.012305873 -1.5736434e-21)
(1.0175897 -0.011700756 -3.4372175e-21)
(1.0197614 -0.010910784 -1.6099799e-21)
(1.0217011 -0.0099391971 -7.2125311e-21)
(1.0233816 -0.0088083062 -1.0736094e-20)
(1.0247823 -0.007550861 -2.0114111e-23)
(1.0258932 -0.0062280973 1.0512669e-20)
(1.0267244 -0.0048787203 2.3358222e-21)
(1.0273031 -0.0036053536 -4.5294949e-21)
(1.0276686 -0.0023774189 3.6465562e-21)
(1.0278243 -0.0013819927 -2.2358588e-21)
(1.0276855 -0.00034821702 1.1173866e-22)
(0.98199576 -0.006906484 1.5680188e-22)
(0.97902946 -0.0083655223 -6.709395e-23)
(0.97858633 -0.0091093997 -3.4478095e-21)
(0.97846407 -0.010187264 4.3124674e-21)
(0.97980204 -0.010983813 -6.654588e-21)
(0.98214644 -0.011777034 4.489506e-21)
(0.98539465 -0.012380285 2.65026e-21)
(0.98920645 -0.012884411 4.4819238e-21)
(0.99322981 -0.013242143 -6.4237273e-21)
(0.99722054 -0.013504712 -2.8738545e-21)
(1.0009982 -0.013658892 3.2452583e-22)
(1.0045209 -0.013718958 -7.9665831e-21)
(1.0077755 -0.013665296 7.5605994e-21)
(1.0107945 -0.013485059 -2.9907439e-21)
(1.0135944 -0.013153345 1.0763922e-21)
(1.0161905 -0.012650368 1.1330014e-21)
(1.0185763 -0.011959303 -4.4914295e-21)
(1.0207357 -0.011075471 5.1624697e-21)
(1.0226412 -0.010007793 -4.7361543e-21)
(1.0242659 -0.0087863038 7.9589968e-22)
(1.0255894 -0.007451809 0)
(1.0266074 -0.0060729281 4.1502896e-21)
(1.0273359 -0.0046928569 4.3198288e-22)
(1.0278118 -0.0034173925 0)
(1.0280807 -0.0022138971 -4.0938673e-21)
(1.028159 -0.0012698022 -2.2632915e-22)
(1.0279647 -0.00030537245 6.1811313e-22)
(0.98223123 -0.0065250944 9.6821685e-22)
(0.97887346 -0.0079911196 -7.264691e-23)
(0.97796908 -0.0087797337 -2.4378852e-21)
(0.97713214 -0.0099246622 3.7894067e-22)
(0.97775427 -0.010820157 -1.1753505e-21)
(0.97941645 -0.011733301 -4.6953197e-21)
(0.98219044 -0.012461315 -2.6067003e-22)
(0.98576875 -0.013086379 -3.8487472e-21)
(0.98980982 -0.013549065 4.1359108e-22)
(0.99399701 -0.013899705 4.7963771e-21)
(0.99806584 -0.014130081 -4.5516501e-21)
(1.0019005 -0.014263445 -1.6643634e-21)
(1.0054494 -0.01428708 -3.5298725e-21)
(1.0087334 -0.014192763 1.168779e-21)
(1.0117735 -0.01395658 -3.4611997e-21)
(1.0145952 -0.013556695 1.470236e-21)
(1.0172025 -0.012970936 -5.2204607e-21)
(1.0195875 -0.012185724 1.3777001e-20)
(1.0217259 -0.011200806 4.3831778e-21)
(1.0235883 -0.010032182 -4.5000455e-22)
(1.0251459 -0.0087184923 5.709501e-21)
(1.0263818 -0.0073086323 -3.7617316e-22)
(1.0272972 -0.005878412 -3.4580145e-22)
(1.0279158 -0.0044746023 0)
(1.0282841 -0.0032049273 0)
(1.028454 -0.0020341657 3.1364588e-22)
(1.0284541 -0.0011483883 -1.583456e-21)
(1.0282049 -0.00026051971 -5.9473371e-22)
(0.98241162 -0.0061463208 0)
(0.97884406 -0.0075956474 -4.3612803e-22)
(0.97762236 -0.0084133446 1.7537885e-21)
(0.97618668 -0.0096021925 1.232092e-21)
(0.9761198 -0.01057895 4.1421887e-21)
(0.97703151 -0.011598873 3.3797539e-22)
(0.9791826 -0.012452277 -3.0240999e-21)
(0.98233837 -0.013207513 -5.8490316e-21)
(0.9862249 -0.013790853 6.8378995e-21)
(0.99049346 -0.014245302 -1.6602922e-21)
(0.9948078 -0.014562292 3.9751619e-22)
(0.99895974 -0.014772723 1.5042827e-21)
(1.0028326 -0.014872451 -9.8527844e-21)
(1.0064147 -0.014860359 2.0068026e-21)
(1.009722 -0.014716107 1.6008723e-21)
(1.0127877 -0.014418088 -3.4756495e-21)
(1.0156277 -0.013940537 1.6184759e-21)
(1.0182448 -0.013263127 -4.0845939e-21)
(1.0206221 -0.012375031 1.0511873e-20)
(1.0227315 -0.011282131 -3.6838771e-21)
(1.0245397 -0.01000859 4.5510714e-21)
(1.0260189 -0.00860214 3.0225989e-21)
(1.0271561 -0.007119977 -1.4451431e-22)
(1.0279598 -0.0056442802 -9.8048787e-21)
(1.0284619 -0.0042245675 -2.5297972e-21)
(1.0287186 -0.0029690244 4.7358301e-22)
(1.0287879 -0.0018392785 2.5191948e-21)
(1.02871 -0.0010186373 -5.7254909e-22)
(1.028407 -0.00021414359 -1.6377624e-22)
(0.98241109 -0.0057738339 -1.4678852e-21)
(0.97880194 -0.0071880677 0)
(0.9774209 -0.0080220311 0)
(0.97554197 -0.0092330747 0)
(0.97487854 -0.010269935 -9.4792667e-22)
(0.97504697 -0.011378464 3.6904654e-21)
(0.97648198 -0.012349398 -3.3573122e-22)
(0.97904789 -0.013236434 -4.2566997e-22)
(0.98258742 -0.013952504 8.8603958e-21)
(0.98677327 -0.014527835 -9.2642222e-21)
(0.99123527 -0.014946922 4.5821127e-21)
(0.99567521 -0.015243486 -1.6921794e-21)
(0.99988857 -0.015421737 2.988639e-21)
(1.0038035 -0.015489665 -2.604046e-21)
(1.0074122 -0.015433364 6.7792697e-21)
(1.0107475 -0.01523414 2.0103487e-21)
(1.0138367 -0.014865038 -3.8913504e-21)
(1.0166954 -0.014300729 -4.3709467e-21)
(1.0193173 -0.013521825 2.7030197e-21)
(1.0216803 -0.012522154 -1.6404813e-21)
(1.0237503 -0.011314921 -5.0487926e-21)
(1.0254927 -0.0099334197 1.0901654e-22)
(1.0268814 -0.0084350347 7.1842405e-21)
(1.027909 -0.006884921 -4.6320826e-21)
(1.0285924 -0.005370781 -1.7210291e-22)
(1.0289723 -0.0039437269 -1.4521854e-21)
(1.0291144 -0.0027111002 2.9047615e-21)
(1.0290824 -0.0016305251 9.3473662e-22)
(1.0289272 -0.00088153621 9.7449396e-22)
(1.0285719 -0.00016593707 -6.4251989e-22)
(0.98215882 -0.0053830793 2.1849815e-22)
(0.97860679 -0.0067710828 -6.0948798e-22)
(0.97721979 -0.0076169657 0)
(0.97507552 -0.0088295222 0)
(0.97395616 -0.0099059965 0)
(0.97345967 -0.011082013 0)
(0.97415805 -0.012154598 0)
(0.97601825 -0.013166907 8.9516096e-23)
(0.97902993 -0.014020815 -3.7511319e-21)
(0.98293916 -0.014731273 9.7619176e-21)
(0.98739692 -0.015270702 -2.5689539e-22)
(0.99204486 -0.015668133 4.9463125e-21)
(0.99658568 -0.015932563 -9.3478931e-21)
(1.00086 -0.016081557 4.8399846e-21)
(1.0048086 -0.016110156 -5.169076e-22)
(1.0084478 -0.01600568 3.8117617e-21)
(1.01181 -0.015742844 -5.5159171e-21)
(1.0149246 -0.015293794 1.9629522e-21)
(1.017799 -0.014632257 3.9487896e-21)
(1.0204209 -0.013741748 2.2141738e-21)
(1.0227606 -0.01262194 6.274458e-22)
(1.0247802 -0.011294716 3.0152141e-21)
(1.0264441 -0.009803489 4.22515e-23)
(1.02773 -0.0082153992 -2.7395717e-21)
(1.0286373 -0.0066031055 1.3553e-21)
(1.0291925 -0.0050586151 7.5282815e-21)
(1.0294452 -0.0036334383 1.7821215e-21)
(1.0294708 -0.0024325489 -1.1857657e-21)
(1.0293376 -0.0014093259 1.0290689e-22)
(1.0291064 -0.00073770802 2.4387157e-22)
(1.0287006 -0.00011613619 5.9458728e-22)
(0.981751 -0.0049339189 1.9157856e-21)
(0.97813179 -0.0063304394 -2.3359943e-22)
(0.97686508 -0.0072037644 7.6759755e-23)
(0.9746426 -0.0084046421 3.5265297e-22)
(0.97323286 -0.0094998551 0)
(0.97220744 -0.010721667 0)
(0.97222474 -0.011875109 -1.0606719e-22)
(0.97333533 -0.01299803 4.2411866e-21)
(0.97568151 -0.013986929 -7.3649285e-21)
(0.97912111 -0.014840536 9.1744804e-21)
(0.98338343 -0.015517127 5.9963606e-22)
(0.98810194 -0.016034067 -6.3997305e-21)
(0.99290927 -0.016398404 1.0020812e-21)
(0.99754519 -0.016634567 -7.3637969e-22)
(1.0018689 -0.016747776 -4.9314792e-21)
(1.0058532 -0.016734294 3.8808948e-22)
(1.0095219 -0.016573928 8.2075784e-21)
(1.0129141 -0.016239267 -4.9505019e-22)
(1.0160531 -0.015699691 -5.7536603e-21)
(1.0189406 -0.014929879 1.3661675e-20)
(1.0215555 -0.013917315 -2.3535353e-21)
(1.0238619 -0.012669159 -3.9348103e-21)
(1.0258183 -0.011217325 9.7236806e-21)
(1.0273903 -0.0096160072 3.9346212e-21)
(1.0285608 -0.0079420302 -1.4853389e-21)
(1.0293377 -0.0062747002 4.388042e-21)
(1.0297577 -0.0047089518 2.1232096e-21)
(1.0298794 -0.0032953701 5.9432601e-22)
(1.0297874 -0.0021350971 -1.0754834e-21)
(1.029554 -0.0011768858 -3.9059509e-22)
(1.0292487 -0.00058796686 8.881566e-22)
(1.0287946 -6.5183458e-05 8.9809795e-23)
(0.98124743 -0.0044534647 -6.5520445e-22)
(0.97748434 -0.0058271451 3.7857521e-22)
(0.97625858 -0.0067549406 -5.0538212e-23)
(0.97409191 -0.0079593325 7.8225403e-23)
(0.97255708 -0.0090660786 0)
(0.97117956 -0.010309957 0)
(0.97063586 -0.011522144 0)
(0.97103168 -0.01273579 -6.1163466e-22)
(0.97264172 -0.013848322 6.0116463e-21)
(0.97545376 -0.014844497 6.8105729e-21)
(0.97931938 -0.015669399 5.9938769e-22)
(0.98392326 -0.016324534 -1.1705965e-21)
(0.98887684 -0.016807552 1.3063679e-20)
(0.99383259 -0.017143277 -8.1944527e-21)
(0.99854795 -0.017345607 1.344474e-21)
(1.0029197 -0.01742153 0)
(1.0069376 -0.017359426 2.4211257e-21)
(1.0106393 -0.017135986 -1.9834909e-21)
(1.0140623 -0.016719326 2.2334777e-21)
(1.0172253 -0.016077794 8.9403534e-22)
(1.0201211 -0.015187842 -5.8572368e-21)
(1.0227207 -0.014042696 9.1196989e-22)
(1.0249818 -0.012658658 -5.843263e-21)
(1.0268613 -0.011078846 -7.6482179e-21)
(1.0283273 -0.0093687152 2.9503571e-21)
(1.02937 -0.0076142976 5.5644005e-22)
(1.0300069 -0.0059004347 -4.155643e-22)
(1.0302856 -0.0043233882 6.0487255e-23)
(1.0302737 -0.0029314692 -1.5233526e-21)
(1.0300641 -0.0018205933 -1.1606143e-21)
(1.0297322 -0.00093464387 5.1665188e-22)
(1.0293552 -0.00043332871 -3.7293918e-21)
(1.0288553 -1.3423066e-05 1.9457449e-21)
(0.98067864 -0.0039429606 -4.9495338e-22)
(0.97672575 -0.0052847536 1.3044806e-22)
(0.97546504 -0.0062346171 -5.2778236e-22)
(0.97325013 -0.0074757206 -6.0205057e-23)
(0.9717611 -0.0086133472 3.9650753e-22)
(0.97022998 -0.0098637974 -1.9638049e-23)
(0.96928866 -0.011108568 4.5679136e-21)
(0.96907564 -0.01239189 -2.9811615e-21)
(0.96995972 -0.013608523 -2.5059107e-22)
(0.97204955 -0.014737983 -1.3639281e-20)
(0.97534248 -0.015713906 6.3266169e-21)
(0.97962524 -0.016521309 9.1159873e-21)
(0.98454969 -0.01714338 -3.8866974e-22)
(0.98972399 -0.017597022 -5.0941537e-21)
(0.99480845 -0.017899367 -5.74421e-21)
(0.99959719 -0.018067525 -1.2298779e-21)
(1.0040122 -0.01810093 1.0698756e-21)
(1.0080665 -0.01798435 4.5912235e-21)
(1.0118031 -0.017688545 -8.8200723e-22)
(1.0152586 -0.017178661 -6.6346067e-22)
(1.0184435 -0.016422472 2.3047145e-21)
(1.0213416 -0.015399959 -9.7941667e-21)
(1.0239154 -0.01411191 -3.6086136e-22)
(1.0261178 -0.012585406 3.6308729e-21)
(1.0279053 -0.010875805 -9.9528096e-21)
(1.029251 -0.0090599271 -3.4562314e-21)
(1.0301537 -0.0072322007 -3.1037699e-21)
(1.0306419 -0.0054815827 -1.0633315e-21)
(1.0307745 -0.0039039272 -1.6420109e-21)
(1.0306273 -0.0025439299 -2.5597205e-23)
(1.0303012 -0.0014910197 -9.2346142e-23)
(1.0298732 -0.00068413594 -1.2878404e-22)
(1.0294275 -0.00027479525 1.9109145e-21)
(1.0288845 3.8884197e-05 -4.2943774e-21)
(0.98008149 -0.0034016393 7.0467525e-22)
(0.97589158 -0.0047004898 -1.7679087e-22)
(0.97453419 -0.0056670856 6.5177138e-22)
(0.97219998 -0.0069134911 6.4218647e-22)
(0.97072396 -0.0081044513 -1.3277982e-21)
(0.9691948 -0.0093878093 -1.9654193e-21)
(0.96803598 -0.010652351 -4.6422703e-22)
(0.96737645 -0.011977742 0)
(0.96762201 -0.013276656 -3.4247782e-21)
(0.96897517 -0.014522087 -1.4348257e-20)
(0.97157611 -0.015642923 1.0434586e-22)
(0.97534589 -0.016608514 -3.2368132e-21)
(0.98003333 -0.01738665 0)
(0.98526386 -0.017979632 -2.1876245e-22)
(0.99063678 -0.018399538 1.0124614e-20)
(0.99583864 -0.018669132 1.6537674e-21)
(1.000692 -0.018799185 -8.8514154e-21)
(1.0051508 -0.01878574 0)
(1.0092433 -0.018606694 1.5778444e-21)
(1.0130182 -0.018228076 3.1586445e-21)
(1.0165065 -0.017612083 -7.7176421e-21)
(1.0197099 -0.016727493 2.3991642e-21)
(1.0226021 -0.015559648 0)
(1.0251378 -0.014118884 -8.6290218e-21)
(1.0272663 -0.012444639 3.8807931e-21)
(1.0289461 -0.010605239 -2.6309462e-22)
(1.0301567 -0.0086886111 -4.0578018e-21)
(1.030908 -0.0067963798 3.4140049e-21)
(1.0312399 -0.0050199469 1.5071823e-22)
(1.0312226 -0.0034529397 -3.484449e-21)
(1.0309399 -0.0021351543 2.4087475e-21)
(1.0304991 -0.0011484393 5.2382325e-22)
(1.0299782 -0.00042689284 0)
(1.0294671 -0.00011329002 -7.8957754e-23)
(1.0288838 9.1435098e-05 -1.4892472e-21)
(0.97949699 -0.0028306348 3.4615684e-22)
(0.97502922 -0.0040725637 -9.1407365e-24)
(0.97351525 -0.0050499107 4.9489758e-22)
(0.97100607 -0.006296725 2.3485355e-22)
(0.96946858 -0.0075099562 -4.8959686e-22)
(0.96788258 -0.0088514247 -5.969124e-23)
(0.96670581 -0.010163055 -2.3692143e-21)
(0.96579458 -0.011513115 1.0537354e-22)
(0.9655501 -0.01286469 0)
(0.96623494 -0.014205013 4.254423e-21)
(0.96810291 -0.0154555 -4.9214869e-21)
(0.97121753 -0.016575702 8.0209325e-22)
(0.97546317 -0.017519193 -3.5255455e-21)
(0.98054436 -0.018271158 5.3395278e-21)
(0.98605971 -0.018830683 3.0105172e-21)
(0.99161564 -0.01921807 8.1226658e-21)
(0.99692124 -0.019452145 -1.7537682e-20)
(1.0018356 -0.0195413 -6.1509992e-21)
(1.0063386 -0.01947462 7.2234914e-21)
(1.0104734 -0.019223965 -1.1672603e-20)
(1.0142891 -0.018750139 8.7434265e-21)
(1.0178097 -0.018013652 -7.8552529e-21)
(1.0210263 -0.016985974 0)
(1.0239021 -0.015659981 -2.1688704e-21)
(1.0263853 -0.014057585 8.8847667e-22)
(1.0284234 -0.012231966 4.5979545e-21)
(1.0299786 -0.010264804 1.0492573e-21)
(1.0310399 -0.0082544415 6.0183469e-22)
(1.031629 -0.0063081269 2.3814805e-21)
(1.0317982 -0.0045178317 0)
(1.0316287 -0.0029731151 2.9560035e-21)
(1.0312113 -0.0017077066 2.4426965e-21)
(1.0306586 -0.00079498457 2.8206502e-21)
(1.0300486 -0.00016442823 -1.7677915e-21)
(1.0294756 5.0259217e-05 8.7975572e-23)
(1.0288552 0.00014403156 5.5432441e-21)
(0.97896674 -0.0022327601 -4.2387595e-22)
(0.97419291 -0.0034018855 -5.584299e-23)
(0.97246602 -0.004382318 -1.7352795e-22)
(0.96971677 -0.0056219184 4.8901773e-24)
(0.96803209 -0.0068545506 2.0474973e-21)
(0.96632447 -0.0082190204 2.4823378e-21)
(0.96512822 -0.0095977238 -3.7196272e-23)
(0.96416146 -0.011007052 -2.0924028e-21)
(0.96361054 -0.012393069 1.001158e-22)
(0.96376498 -0.01379785 -3.2554991e-21)
(0.9649456 -0.015157037 -8.2212011e-23)
(0.96733816 -0.016419436 2.6211848e-21)
(0.97097802 -0.017527837 9.5137452e-23)
(0.97569523 -0.018451471 4.527119e-21)
(0.98115383 -0.019172542 -2.0138661e-20)
(0.98693681 -0.019699851 7.0664451e-22)
(0.99265769 -0.020052832 5.5197664e-21)
(0.99805829 -0.020249986 7.9480957e-21)
(1.0030307 -0.020293598 -8.4776561e-21)
(1.007581 -0.020166274 -2.7998139e-21)
(1.0117621 -0.019832755 3.8910414e-21)
(1.0156209 -0.019249451 -1.0297213e-20)
(1.0191715 -0.018376559 8.7392424e-21)
(1.0223935 -0.017190425 0)
(1.0252404 -0.0156938 4.7732326e-21)
(1.0276546 -0.013922144 9.0231948e-21)
(1.0295841 -0.011943506 -4.1365761e-21)
(1.0309978 -0.0098528729 8.1201163e-21)
(1.0318957 -0.0077578405 1.6176061e-22)
(1.032313 -0.0057693761 -2.6260586e-21)
(1.0323145 -0.0039779976 -2.9839224e-21)
(1.0319919 -0.0024674077 -6.767548e-22)
(1.0314418 -0.0012642627 -2.2331472e-22)
(1.0307809 -0.00043280098 3.4905384e-21)
(1.0300859 0.00010175975 -7.3397252e-22)
(1.029455 0.00021497988 -2.1252488e-22)
(1.0288007 0.00019641427 2.1531609e-21)
(0.97852952 -0.0016122378 1.3923719e-22)
(0.97343851 -0.0026919852 -1.1745505e-22)
(0.97145108 -0.0036656082 -2.5897264e-22)
(0.96839786 -0.0048876561 -1.4503975e-22)
(0.96648048 -0.006131216 4.3655308e-24)
(0.96457508 -0.007516273 3.4615985e-23)
(0.96330546 -0.0089259006 -1.7055357e-21)
(0.96227072 -0.010414744 8.8227988e-22)
(0.9616346 -0.01187368 0)
(0.9614417 -0.013321994 5.7913532e-22)
(0.96205691 -0.014757816 0)
(0.96374907 -0.016142757 0)
(0.96668976 -0.017406549 2.9018695e-21)
(0.97085913 -0.018504629 -4.2253659e-22)
(0.97604006 -0.019403365 -3.0257104e-21)
(0.98186122 -0.020094299 -5.8454631e-21)
(0.98789176 -0.020587883 1.2444651e-20)
(0.99376361 -0.020906173 4.3691353e-21)
(0.99925135 -0.021063408 6.7825613e-21)
(1.0042823 -0.021056053 3.1505302e-21)
(1.0088839 -0.020858553 -7.4736628e-21)
(1.0131157 -0.020428788 6.2999736e-21)
(1.0170183 -0.019719677 1.0112176e-21)
(1.0205948 -0.018693119 -3.8185762e-21)
(1.023812 -0.017332811 -3.5338317e-22)
(1.0266146 -0.015653825 1.946826e-21)
(1.0289412 -0.013707008 -5.6702944e-22)
(1.030743 -0.011576027 -4.8628738e-21)
(1.031998 -0.0093686152 -4.1674396e-22)
(1.0327193 -0.0072000045 -7.8277524e-21)
(1.0329566 -0.0051826758 -1.8679321e-21)
(1.032787 -0.0034036083 -7.8861438e-22)
(1.0323117 -0.0019389784 -3.2554979e-21)
(1.0316318 -0.00080756801 1.9066612e-21)
(1.030867 -6.4040331e-05 -7.3018826e-21)
(1.0300918 0.00037022077 -1.4216994e-21)
(1.029407 0.00038000308 -1.9135905e-21)
(1.0287222 0.00024836936 0)