/*--------------------------------*- C++ -*----------------------------------*\
| =========                 |                                                 |
| \\      /  F ield         | OpenFOAM: The Open Source CFD Toolbox           |
|  \\    /   O peration     | Version:  5.0                                   |
|   \\  /    A nd           | Web:      www.OpenFOAM.org                      |
|    \\/     M anipulation  |                                                 |
\*---------------------------------------------------------------------------*/
FoamFile
{
    version     2.0;
    format      ascii;
    class       volSymmTensorField;
    location    "45";
    object      UPrime2Mean;
}
// * * * * * * * * * * * * * * * * * * * * * * * * * * * * * * * * * * * * * //

dimensions      [0 2 -2 0 0 0 0];

internalField   nonuniform List<symmTensor> 
9200
(
(8.5994362e-06 -2.4960562e-07 8.2091447e-27 7.5605724e-09 -2.206297e-28 1.2936286e-47)
(8.9393746e-06 -7.7429467e-07 -2.6372251e-24 7.0251392e-08 2.4842696e-25 1.1544198e-42)
(1.0088294e-05 -2.6979909e-07 0 7.6114826e-09 0 0)
(9.1045905e-06 -1.2415225e-06 1.4118694e-24 1.7773129e-07 -2.0886392e-25 3.121719e-43)
(1.0431616e-05 -8.3960021e-07 -1.8166343e-24 7.1578104e-08 1.6509722e-25 5.9459325e-43)
(1.0810993e-05 -2.7322942e-07 0 7.3724507e-09 0 0)
(9.2315891e-06 -1.7059055e-06 1.3978637e-25 3.3007768e-07 -2.8100379e-26 3.1005122e-45)
(1.0611306e-05 -1.3372853e-06 5.0347385e-26 1.7935634e-07 -3.0945851e-27 4.6919752e-45)
(1.1140571e-05 -8.5440285e-07 0 7.0199715e-08 0 0)
(1.1850599e-05 -2.7579121e-07 0 7.0083627e-09 0 0)
(9.3795911e-06 -2.1423566e-06 -3.0001888e-24 5.1064563e-07 7.3023295e-25 1.2343781e-42)
(1.0760979e-05 -1.8410451e-06 -2.0544864e-24 3.3426766e-07 3.7132697e-25 4.6308921e-43)
(1.1333373e-05 -1.3566398e-06 -1.1548935e-24 1.750804e-07 1.5453869e-25 1.7951113e-43)
(1.21637e-05 -8.6817138e-07 -6.5455416e-26 6.7793877e-08 5.3389352e-27 5.961983e-46)
(1.2721767e-05 -2.7178635e-07 -1.9967732e-27 6.5357823e-09 3.9105202e-29 4.4817689e-49)
(9.5506186e-06 -2.5674085e-06 -2.8588251e-24 7.1723319e-07 8.1460133e-25 1.0800054e-42)
(1.0926285e-05 -2.3135639e-06 3.3305326e-27 5.1792261e-07 -8.9625988e-27 1.0451391e-44)
(1.1502109e-05 -1.8715953e-06 -3.9772934e-24 3.2726439e-07 7.1477253e-25 1.9519404e-42)
(1.2377691e-05 -1.3724101e-06 -1.7193772e-24 1.6805822e-07 2.0826672e-25 2.945498e-43)
(1.3013357e-05 -8.6255688e-07 -1.5924083e-25 6.4276351e-08 9.3941929e-27 3.7715858e-45)
(1.3596777e-05 -2.616822e-07 2.2667402e-24 5.9477178e-09 -5.1955912e-26 7.6961735e-43)
(9.7607143e-06 -2.9757845e-06 -3.2003318e-24 9.3895779e-07 1.0062841e-24 1.154341e-42)
(1.1110413e-05 -2.7767039e-06 -2.6445408e-24 7.2983358e-07 7.2744259e-25 1.0009463e-42)
(1.1686714e-05 -2.3555671e-06 2.3816439e-24 5.0804686e-07 -5.3096258e-25 7.124844e-43)
(1.257607e-05 -1.8993312e-06 2.0344166e-25 3.1550078e-07 -3.2470156e-26 3.6095335e-45)
(1.3249019e-05 -1.3578506e-06 -1.3002971e-24 1.5852674e-07 1.5546635e-25 2.194179e-43)
(1.386016e-05 -8.3963889e-07 -1.3494008e-24 5.9610107e-08 9.4070414e-26 1.9852879e-43)
(1.4405045e-05 -2.4579404e-07 -3.002375e-25 5.318185e-09 5.5001205e-27 7.1408193e-45)
(1.0016992e-05 -3.3720357e-06 -1.9893612e-24 1.1705264e-06 6.6350035e-25 4.2001723e-43)
(1.1326264e-05 -3.220776e-06 -2.3660115e-24 9.5802255e-07 7.1046281e-25 5.8735098e-43)
(1.1886022e-05 -2.8334882e-06 -3.0142935e-24 7.1828705e-07 7.7388187e-25 9.5308356e-43)
(1.279109e-05 -2.3960105e-06 -3.4624116e-25 4.9116937e-07 5.6533553e-26 2.4830115e-44)
(1.3479262e-05 -1.8861094e-06 3.804283e-24 2.9899406e-07 -5.9583655e-25 1.429265e-42)
(1.4124759e-05 -1.3151199e-06 1.6956035e-24 1.4626729e-07 -1.7766906e-25 2.5815708e-43)
(1.4639457e-05 -8.0033678e-07 1.0184177e-24 5.4382645e-08 -7.4598391e-26 2.5434374e-43)
(1.512647e-05 -2.2265954e-07 -1.5781636e-24 4.6552998e-09 3.1121219e-26 5.2191915e-43)
(1.0326371e-05 -3.7574812e-06 4.3842165e-24 1.4055332e-06 -1.6232349e-24 1.9592271e-42)
(1.1582668e-05 -3.650201e-06 -2.263235e-24 1.1970354e-06 7.7469332e-25 7.0457227e-43)
(1.2110779e-05 -3.293335e-06 -2.5914659e-25 9.4603441e-07 5.9935743e-26 1.9893748e-44)
(1.3016733e-05 -2.8916661e-06 -1.3643517e-24 6.975012e-07 3.375187e-25 2.0771475e-43)
(1.3727877e-05 -2.3859751e-06 -8.431254e-25 4.669729e-07 1.2874004e-25 1.2516843e-43)
(1.4398076e-05 -1.8356949e-06 5.3356741e-24 2.7737219e-07 -7.856972e-25 2.8930751e-42)
(1.4934794e-05 -1.2462812e-06 8.6446487e-25 1.3287924e-07 -4.2750511e-26 3.6785787e-43)
(1.5327534e-05 -7.4001329e-07 1.518803e-24 4.8573952e-08 -1.0428565e-25 6.4570827e-43)
(1.5776408e-05 -1.9341913e-07 2.8865141e-24 4.037718e-09 -5.1180616e-26 2.1070083e-42)
(1.0689218e-05 -4.1352922e-06 -3.7594108e-24 1.6402164e-06 1.4641526e-24 1.3633926e-42)
(1.1890582e-05 -4.0643106e-06 5.8330413e-25 1.4389986e-06 -2.4781345e-25 2.3816086e-43)
(1.2367527e-05 -3.7393945e-06 1.7963212e-25 1.1863698e-06 -5.2966559e-26 3.2057606e-45)
(1.3261428e-05 -3.3710782e-06 9.8817816e-25 9.2259578e-07 -2.1418686e-25 2.3894468e-43)
(1.398335e-05 -2.8908113e-06 6.6598303e-25 6.6635361e-07 -1.4629155e-25 3.4176967e-44)
(1.4693629e-05 -2.3309062e-06 -1.5502028e-24 4.3486073e-07 2.1748058e-25 3.6180783e-43)
(1.525442e-05 -1.7502055e-06 -1.8674655e-24 2.5346057e-07 2.5067342e-25 3.2694503e-43)
(1.5662396e-05 -1.143611e-06 -2.5306928e-24 1.1832092e-07 2.3345682e-25 7.7882946e-43)
(1.5943524e-05 -6.6223254e-07 -1.5377628e-24 4.2837499e-08 7.7643425e-26 2.2997508e-43)
(1.6308208e-05 -1.571904e-07 -4.0219267e-25 3.5079058e-09 4.7104583e-27 1.4823488e-44)
(1.1090007e-05 -4.5078422e-06 1.7135804e-24 1.8734095e-06 -7.0391816e-25 2.741582e-43)
(1.226015e-05 -4.4654595e-06 -8.3564575e-25 1.6782177e-06 2.8372659e-25 1.2689446e-43)
(1.2666114e-05 -4.1697484e-06 -1.8641535e-24 1.4314218e-06 6.661839e-25 4.3391554e-43)
(1.3529682e-05 -3.8383268e-06 2.4574177e-24 1.1620062e-06 -7.4028946e-25 5.0634446e-43)
(1.4250935e-05 -3.3823804e-06 -1.2908314e-24 8.8561321e-07 4.1339818e-25 7.9530096e-43)
(1.4993863e-05 -2.8388403e-06 4.7351255e-24 6.2398948e-07 -1.0732335e-24 2.9659533e-42)
(1.5600955e-05 -2.2325523e-06 -5.6236093e-25 3.9906107e-07 7.1711081e-26 4.132262e-44)
(1.6041771e-05 -1.6189616e-06 -3.2797973e-24 2.2700538e-07 4.5084641e-25 2.0512432e-42)
(1.6318e-05 -1.0127747e-06 1.2373803e-24 1.0428945e-07 -1.1839818e-25 4.3221331e-43)
(1.6440752e-05 -5.6392956e-07 -3.0083461e-24 3.7455853e-08 1.4770976e-25 1.6505345e-42)
(1.6743222e-05 -1.150537e-07 2.4767427e-27 3.1430988e-09 -2.0297505e-27 4.3028363e-44)
(1.1482308e-05 -4.8733847e-06 1.205389e-25 2.1073808e-06 -4.6632779e-26 3.2189761e-45)
(1.2692939e-05 -4.8565085e-06 1.7867086e-24 1.9108259e-06 -6.5919285e-25 4.1305804e-43)
(1.3017449e-05 -4.5859583e-06 2.4834344e-24 1.6753867e-06 -8.9710911e-25 4.9398265e-43)
(1.3831365e-05 -4.2897396e-06 0 1.4075822e-06 0 0)
(1.4531852e-05 -3.8645556e-06 -1.274909e-25 1.1209418e-06 3.2846595e-26 1.4712307e-45)
(1.5300378e-05 -3.3381886e-06 1.6000564e-24 8.3391478e-07 -3.1274575e-25 3.597214e-43)
(1.5950923e-05 -2.736299e-06 9.0041217e-25 5.7601799e-07 -1.9168485e-25 1.1129763e-43)
(1.6455465e-05 -2.0776068e-06 1.8144937e-24 3.5900534e-07 -3.0552445e-25 5.4592429e-43)
(1.6757097e-05 -1.4490451e-06 2.3913493e-24 2.0104217e-07 -1.8790741e-25 5.6343696e-43)
(1.686436e-05 -8.4887079e-07 1.5101973e-24 9.1555887e-08 -1.2383782e-25 5.9817295e-43)
(1.6841295e-05 -4.4840916e-07 6.5549637e-25 3.3066983e-08 -3.4813923e-26 2.4955029e-43)
(1.7049914e-05 -6.7045379e-08 -2.3231171e-25 3.0087653e-09 1.6392788e-27 1.1124617e-44)
(1.1767649e-05 -5.2208666e-06 -2.1126382e-26 2.3494689e-06 1.0478349e-26 1.4193221e-46)
(1.3167518e-05 -5.2388148e-06 -1.6123227e-25 2.1358456e-06 4.9956833e-26 4.5798253e-44)
(1.3427108e-05 -4.9901858e-06 0 1.9138267e-06 0 0)
(1.4180075e-05 -4.725713e-06 0 1.6529527e-06 0 0)
(1.4834112e-05 -4.3318218e-06 6.4974055e-25 1.3642195e-06 -2.308461e-25 1.0371447e-43)
(1.5611182e-05 -3.8330074e-06 1.2476732e-24 1.0616549e-06 -2.0926145e-25 7.8570389e-43)
(1.6301749e-05 -3.2370365e-06 5.4876757e-25 7.7433974e-07 -2.2876066e-25 7.8674895e-43)
(1.6873546e-05 -2.5677364e-06 -2.8216303e-24 5.2137254e-07 5.2376212e-25 7.641886e-43)
(1.7238601e-05 -1.8738566e-06 -3.8792738e-25 3.1922467e-07 4.7050149e-26 9.4218737e-45)
(1.7378496e-05 -1.2334386e-06 -3.0916151e-26 1.7686669e-07 2.003271e-27 8.5752062e-47)
(1.7312827e-05 -6.569231e-07 -3.4360614e-25 8.1737697e-08 7.0105863e-26 9.5566116e-43)
(1.711496e-05 -3.1526687e-07 -1.3303162e-24 3.0190142e-08 -8.9547995e-27 1.5482027e-42)
(1.7239891e-05 -1.4096733e-08 8.9759898e-25 3.1764181e-09 9.5851524e-27 3.7173102e-42)
(1.1778876e-05 -5.5206014e-06 -6.0794968e-25 2.6128629e-06 2.7609301e-25 4.981573e-44)
(1.3615853e-05 -5.6092783e-06 -1.454065e-26 2.3576376e-06 7.7195078e-27 7.8584275e-46)
(1.3883044e-05 -5.3836963e-06 5.8137144e-25 2.144557e-06 -2.5375541e-25 1.0916221e-43)
(1.4588095e-05 -5.1474567e-06 -4.79569e-25 1.8925673e-06 2.1321137e-25 1.4032849e-43)
(1.5171632e-05 -4.7833588e-06 4.2522582e-25 1.6089265e-06 -1.8606827e-25 1.4811212e-43)
(1.5932056e-05 -4.3160292e-06 5.6966089e-25 1.2994036e-06 -1.2523685e-25 8.3707486e-44)
(1.6645843e-05 -3.7385971e-06 -9.9511413e-25 9.9174258e-07 2.5126129e-25 7.3879984e-44)
(1.7288635e-05 -3.0620747e-06 -1.2898678e-25 7.0526299e-07 2.0093942e-26 2.0946274e-45)
(1.7726667e-05 -2.3406754e-06 -4.1807008e-24 4.6606607e-07 6.2391033e-25 1.0753655e-42)
(1.794645e-05 -1.6126023e-06 -4.0993119e-24 2.8164202e-07 4.1753145e-25 1.009539e-42)
(1.790005e-05 -9.7828724e-07 -4.5366349e-25 1.5736755e-07 4.5381946e-26 5.7997079e-44)
(1.764118e-05 -4.3633978e-07 -1.2484841e-24 7.6205242e-08 6.4216998e-26 3.8292605e-43)
(1.7273369e-05 -1.6725279e-07 -5.6932972e-25 2.9424257e-08 1.5472478e-26 1.6404086e-43)
(1.7299813e-05 4.3032203e-08 -4.9461192e-25 3.7177594e-09 -2.6194386e-27 3.0405573e-43)
(1.1285396e-05 -5.7119923e-06 4.0733746e-24 2.9166275e-06 -2.0904144e-24 1.6315894e-42)
(1.3896333e-05 -5.9530039e-06 3.293658e-25 2.5877929e-06 -1.0802817e-25 5.7224006e-43)
(1.4333238e-05 -5.7646307e-06 1.0170143e-24 2.3700052e-06 -4.1018811e-25 7.5782299e-44)
(1.505713e-05 -5.5564068e-06 -1.4123991e-25 2.1225729e-06 4.83139e-26 3.1935997e-45)
(1.5560082e-05 -5.2193436e-06 1.6327609e-25 1.8490279e-06 -5.0771486e-26 3.4094704e-45)
(1.6275642e-05 -4.7848665e-06 -8.6032499e-25 1.5405954e-06 2.1627786e-25 1.4692263e-43)
(1.6985064e-05 -4.2315862e-06 -1.0466352e-24 1.220763e-06 2.8844083e-25 7.6160514e-44)
(1.7688424e-05 -3.5650943e-06 1.3185742e-24 9.09323e-07 -3.0246e-25 1.174617e-43)
(1.8209048e-05 -2.8195469e-06 9.3605872e-25 6.3402045e-07 -1.2847213e-25 9.6569643e-44)
(1.8526007e-05 -2.0453176e-06 6.2449208e-25 4.1267695e-07 -7.3501596e-26 2.3401589e-44)
(1.8551956e-05 -1.3003952e-06 3.487927e-26 2.5050142e-07 -4.1049209e-27 2.2369359e-46)
(1.8313976e-05 -6.8220216e-07 1.6969523e-24 1.450164e-07 -5.9680653e-26 2.1492972e-43)
(1.7852862e-05 -1.9131791e-07 8.7292207e-27 7.6469256e-08 -4.094668e-26 8.415621e-43)
(1.7304079e-05 -6.1611228e-09 7.3527189e-25 3.1395198e-08 7.8459533e-27 3.0811338e-43)
(1.7235914e-05 1.0336064e-07 -9.0997211e-25 4.6949443e-09 -5.2408287e-27 2.5954491e-43)
(1.0053003e-05 -5.6916615e-06 1.0437314e-25 3.2840293e-06 -2.9787978e-26 3.2256267e-44)
(1.3774125e-05 -6.2310743e-06 1.0760903e-24 2.8465487e-06 -5.0758403e-25 1.9274265e-43)
(1.465872e-05 -6.1217594e-06 4.0101009e-25 2.598954e-06 -1.5304966e-25 8.9925336e-44)
(1.5558041e-05 -5.9539806e-06 3.9911611e-25 2.3438611e-06 -1.8696064e-25 1.2596252e-43)
(1.600842e-05 -5.6400861e-06 -3.9272179e-25 2.0794173e-06 1.8585949e-25 1.4392552e-43)
(1.6659521e-05 -5.2380462e-06 2.7157112e-24 1.7786869e-06 -9.5214748e-25 7.0129756e-43)
(1.7329965e-05 -4.7121156e-06 -1.4849647e-25 1.4549738e-06 1.8312089e-25 8.2300834e-43)
(1.8070116e-05 -4.0657151e-06 -2.3778504e-25 1.1268686e-06 4.5781669e-26 8.339087e-45)
(1.8667807e-05 -3.3155107e-06 6.8015341e-25 8.2246393e-07 -1.5428057e-25 4.6525573e-44)
(1.9098953e-05 -2.4994674e-06 2.9953698e-24 5.6395681e-07 -3.5039069e-25 8.7644146e-43)
(1.9223051e-05 -1.6873936e-06 4.7306772e-24 3.6668017e-07 -6.4555534e-25 2.9233657e-42)
(1.9067383e-05 -9.3480645e-07 1.8775415e-24 2.2961933e-07 -2.6876996e-26 9.2364658e-43)
(1.8608317e-05 -3.5041906e-07 -2.6315681e-26 1.4253293e-07 2.1528823e-26 9.4763232e-44)
(1.7939665e-05 7.5310564e-08 -7.3527884e-25 8.4149888e-08 2.7890862e-28 3.398922e-44)
(1.7213342e-05 1.6520803e-07 -1.0169261e-24 3.6651138e-08 -9.8916899e-27 7.5321645e-44)
(1.7047409e-05 1.6575113e-07 1.1548146e-24 6.1667216e-09 9.2592542e-27 3.4902564e-43)
(7.9838764e-06 -5.3083787e-06 0 3.7376867e-06 0 0)
(1.2944813e-05 -6.3656481e-06 -1.922434e-25 3.1629931e-06 8.5209159e-26 1.9781563e-43)
(1.4643926e-05 -6.4223921e-06 -1.7777712e-24 2.8478663e-06 7.8760151e-25 2.264305e-43)
(1.5994041e-05 -6.331911e-06 0 2.5617354e-06 0 0)
(1.6501099e-05 -6.0462393e-06 0 2.2986223e-06 0 0)
(1.7099438e-05 -5.6746075e-06 0 2.0075231e-06 0 0)
(1.7698551e-05 -5.1770343e-06 -4.4094936e-25 1.6876283e-06 1.1938987e-25 2.0760665e-44)
(1.8440216e-05 -4.5586635e-06 -2.3190693e-24 1.3519471e-06 6.5105549e-25 3.682247e-43)
(1.9095462e-05 -3.815945e-06 -3.4987833e-24 1.0255872e-06 6.0287752e-25 1.5562705e-42)
(1.964081e-05 -2.9812821e-06 -2.1592357e-24 7.3554741e-07 4.212374e-25 3.6241376e-43)
(1.989029e-05 -2.105286e-06 -1.1847223e-24 5.0144897e-07 1.132031e-25 1.2327183e-43)
(1.9849103e-05 -1.2638239e-06 -1.1820728e-24 3.3339819e-07 1.2113839e-25 1.2890145e-43)
(1.9459222e-05 -5.2191627e-07 -6.2125766e-25 2.230197e-07 1.1942328e-26 3.6108053e-44)
(1.8784542e-05 1.3763472e-08 1.7545264e-25 1.5291922e-07 -1.8681399e-26 9.9143959e-44)
(1.7902941e-05 3.5923648e-07 8.073086e-25 1.0064099e-07 1.4568151e-26 4.083269e-44)
(1.7000675e-05 3.4378472e-07 -5.1185742e-25 4.5755424e-08 -9.9389881e-27 8.3645883e-44)
(1.6740732e-05 2.2906887e-07 0 8.177759e-09 0 0)
(5.3187214e-06 -4.3761968e-06 1.1512401e-24 4.2916321e-06 -9.605337e-25 2.9149054e-43)
(1.1142278e-05 -6.2250168e-06 -7.5776206e-25 3.5718174e-06 4.5183774e-25 3.362179e-43)
(1.3984651e-05 -6.5973298e-06 -1.2041551e-24 3.1405768e-06 5.4221081e-25 9.5250132e-43)
(1.6175616e-05 -6.6667943e-06 -1.7941023e-24 2.7893299e-06 7.1514206e-25 5.3642192e-43)
(1.6970472e-05 -6.4348442e-06 -9.3637124e-25 2.5107602e-06 3.0450725e-25 4.1254427e-43)
(1.7594845e-05 -6.0952441e-06 0 2.2240983e-06 0 0)
(1.8111937e-05 -5.6241636e-06 -1.9036702e-24 1.9119341e-06 4.8588315e-25 9.0158589e-43)
(1.881505e-05 -5.0389167e-06 1.3418998e-24 1.5778896e-06 -3.2429149e-25 2.0905703e-43)
(1.9494757e-05 -4.3145106e-06 -2.101188e-25 1.2380682e-06 2.7326457e-25 1.5646645e-42)
(2.013891e-05 -3.4768131e-06 -5.0229177e-24 9.2271865e-07 7.5395196e-25 2.7980682e-42)
(2.0523253e-05 -2.5617921e-06 1.3239146e-24 6.5529045e-07 -2.2063429e-25 1.2063433e-43)
(2.0629576e-05 -1.634191e-06 -1.6284514e-24 4.5348422e-07 1.1801225e-25 2.1189595e-43)
(2.0351636e-05 -7.804721e-07 3.3151634e-25 3.181068e-07 8.7671142e-26 7.5644791e-43)
(1.9745713e-05 -6.4385309e-08 2.1084255e-24 2.3545437e-07 -1.0054745e-25 9.962881e-43)
(1.8833965e-05 4.0486031e-07 2.6186447e-24 1.7875643e-07 4.6081126e-26 4.0886536e-43)
(1.7743232e-05 6.5563345e-07 -3.3766673e-24 1.2739621e-07 -1.3338449e-25 4.014768e-42)
(1.6672456e-05 5.2633097e-07 -9.8659691e-25 5.9151768e-08 -2.3955842e-26 4.7994497e-43)
(1.6322279e-05 2.9207322e-07 -2.1229178e-24 1.0760665e-08 -3.0388893e-26 7.9759422e-43)
(2.7990803e-06 -2.7135521e-06 -2.837451e-26 4.9423674e-06 -1.8602255e-26 1.401281e-45)
(8.3515681e-06 -5.6196766e-06 3.304339e-25 4.1058096e-06 -2.2628655e-25 9.4721195e-44)
(1.2375877e-05 -6.5280439e-06 -7.0234701e-25 3.505922e-06 3.8686414e-25 5.1334566e-44)
(1.5806329e-05 -6.9083304e-06 -5.3472055e-25 3.0502671e-06 2.1219857e-25 2.9765345e-43)
(1.7258492e-05 -6.7907329e-06 1.9743788e-25 2.7273417e-06 -7.2950452e-26 8.4986591e-45)
(1.8102456e-05 -6.4988106e-06 2.5935076e-24 2.430087e-06 -9.5720155e-25 3.8903772e-43)
(1.8581918e-05 -6.0539165e-06 6.8101042e-24 2.1237868e-06 -2.1311779e-24 3.8586501e-42)
(1.9218248e-05 -5.5022195e-06 4.4743239e-24 1.7973356e-06 -1.0489791e-24 4.250127e-42)
(1.9879373e-05 -4.8045815e-06 1.8740385e-24 1.4536163e-06 -3.6375642e-25 6.5530294e-43)
(2.0590805e-05 -3.9786292e-06 3.3755046e-24 1.1209039e-06 -7.468563e-25 6.058893e-43)
(2.1102738e-05 -3.0422002e-06 1.3093672e-24 8.2465981e-07 -1.6583431e-25 1.6807414e-43)
(2.1373564e-05 -2.0555004e-06 2.3013761e-24 5.9048152e-07 -3.6539879e-25 5.5893556e-43)
(2.1252188e-05 -1.0900999e-06 2.3673762e-24 4.2643706e-07 -5.7329843e-26 8.2190466e-43)
(2.0762079e-05 -2.3928297e-07 -1.2473431e-24 3.2753983e-07 1.7758084e-26 9.889618e-44)
(1.9900356e-05 4.3066616e-07 -1.8798741e-24 2.7080846e-07 -3.39578e-26 2.2053745e-43)
(1.8760709e-05 8.1675995e-07 3.8832028e-25 2.2282697e-07 2.2269994e-26 8.8382394e-44)
(1.7464264e-05 9.5936069e-07 -1.498496e-24 1.655462e-07 -7.5817078e-26 5.4621414e-43)
(1.6235039e-05 7.0931771e-07 5.784647e-25 7.721219e-08 2.3914467e-26 2.8318374e-44)
(1.5801339e-05 3.5355377e-07 -2.6191976e-24 1.3931573e-08 -4.8516628e-26 9.9107394e-43)
(1.6413274e-06 -2.0446139e-07 -3.3791997e-25 5.6627746e-06 -6.0089371e-25 1.5183095e-43)
(5.0615112e-06 -4.3218534e-06 -2.7584124e-25 4.7835772e-06 2.3658013e-25 9.0326577e-44)
(9.6966169e-06 -6.0428221e-06 -2.7382478e-25 3.9758441e-06 3.5689598e-25 2.2017824e-42)
(1.4525523e-05 -6.96239e-06 9.7998616e-25 3.3792138e-06 -4.6913047e-25 1.3950583e-43)
(1.7088089e-05 -7.073055e-06 8.4782241e-25 2.9681463e-06 -3.6644203e-25 6.871679e-44)
(1.849644e-05 -6.8755626e-06 1.1773868e-24 2.6340931e-06 -4.47859e-25 7.8758255e-44)
(1.9086623e-05 -6.465798e-06 -5.1566287e-25 2.3227282e-06 1.5783404e-25 4.22755e-44)
(1.9669786e-05 -5.9471896e-06 2.0721916e-24 2.0049041e-06 -7.149616e-25 3.6255484e-43)
(2.0272727e-05 -5.2799388e-06 7.9938198e-25 1.664698e-06 -1.709595e-25 1.1565082e-43)
(2.100592e-05 -4.4782716e-06 2.3982358e-24 1.3243415e-06 -2.3657867e-25 3.1285455e-42)
(2.1620312e-05 -3.5385744e-06 4.2848103e-24 1.005906e-06 -9.1384745e-25 1.1928572e-42)
(2.2056008e-05 -2.5125143e-06 -1.9803615e-24 7.4210335e-07 2.4243069e-25 2.2436776e-43)
(2.2118205e-05 -1.4630101e-06 -2.0627983e-24 5.4827638e-07 1.9453376e-25 2.1447099e-43)
(2.1795351e-05 -4.7515962e-07 2.3024315e-25 4.2904336e-07 -8.7396595e-27 2.7015357e-45)
(2.1040159e-05 3.5182042e-07 -1.7930516e-24 3.6698307e-07 -2.5779406e-26 2.1183184e-43)
(1.9937858e-05 9.5722283e-07 1.1377195e-24 3.3361866e-07 9.4550588e-26 1.0295585e-42)
(1.8563325e-05 1.2427421e-06 -2.8224874e-24 2.8734823e-07 -1.8220463e-25 7.3256848e-43)
(1.7071848e-05 1.2647512e-06 1.9083595e-24 2.1605263e-07 1.1639446e-25 1.1944661e-42)
(1.5697484e-05 8.8921118e-07 5.3242822e-25 1.0017229e-07 2.2225607e-26 8.5067176e-44)
(1.5188809e-05 4.1231205e-07 2.8986483e-24 1.7688924e-08 6.5248807e-26 1.2083322e-42)
(3.2374381e-06 3.1380293e-06 1.2878031e-25 6.4025765e-06 3.0431915e-25 1.6619586e-44)
(2.3998345e-06 -2.1192971e-06 -5.3530544e-25 5.5985045e-06 9.175827e-25 3.1364057e-43)
(6.2683827e-06 -4.9233497e-06 -1.367585e-24 4.5718457e-06 1.2339102e-24 3.8944596e-43)
(1.2064549e-05 -6.6702731e-06 -3.4270739e-25 3.8123502e-06 1.6874258e-25 1.7756422e-43)
(1.6084128e-05 -7.1997306e-06 1.7064329e-24 3.2614634e-06 -7.7453088e-25 2.0575706e-43)
(1.8530279e-05 -7.195826e-06 5.3487828e-25 2.8532312e-06 -1.8087729e-25 1.6487072e-43)
(1.9533752e-05 -6.8542057e-06 -3.576361e-24 2.5147245e-06 1.1450296e-24 2.2132887e-42)
(2.016693e-05 -6.3731649e-06 -8.0751386e-24 2.1982477e-06 2.2693335e-24 1.0030819e-41)
(2.0700647e-05 -5.7376832e-06 -4.8003845e-24 1.8652926e-06 1.4282949e-24 1.1956578e-42)
(2.1405946e-05 -4.9673663e-06 0 1.5255531e-06 0 0)
(2.208039e-05 -4.0411312e-06 -3.0987094e-24 1.1941221e-06 7.1703025e-25 5.7552069e-43)
(2.2661842e-05 -2.9971014e-06 -4.1900401e-24 9.0565778e-07 4.8442866e-25 1.6628049e-42)
(2.2918016e-05 -1.884196e-06 2.5657702e-25 6.8258041e-07 -2.0199059e-25 7.599782e-43)
(2.2799063e-05 -7.8692472e-07 3.8856766e-24 5.3940813e-07 -3.7945253e-26 1.9432041e-42)
(2.2212561e-05 2.0377206e-07 1.7145151e-24 4.6813587e-07 -3.4196367e-26 1.6238851e-43)
(2.1207877e-05 9.8744937e-07 -2.2632054e-25 4.4309339e-07 4.8480192e-26 4.7219364e-43)
(1.9844873e-05 1.5064176e-06 -2.8223937e-24 4.2734848e-07 -2.0143347e-25 5.1688944e-43)
(1.824769e-05 1.6753154e-06 -1.939233e-24 3.743073e-07 -1.6560626e-25 4.6043221e-43)
(1.657357e-05 1.5660959e-06 2.5849492e-24 2.7951465e-07 2.1438078e-25 9.8903653e-43)
(1.5070358e-05 1.0624663e-06 -2.7751367e-25 1.281288e-07 -2.0582815e-26 5.7992987e-45)
(1.4496901e-05 4.6722443e-07 3.1148042e-24 2.201199e-08 8.4504152e-26 1.3450423e-42)
(8.6608821e-06 7.1379936e-06 4.4181061e-24 7.097028e-06 3.9776125e-24 2.365767e-42)
(1.9834499e-06 1.1062027e-06 -4.8733382e-26 6.5119996e-06 9.0794033e-25 2.1982048e-43)
(3.0664703e-06 -2.9518082e-06 1.9865055e-25 5.295909e-06 -6.6796214e-25 3.6490462e-43)
(8.527145e-06 -5.8157353e-06 -2.6925296e-25 4.3824067e-06 3.1057768e-25 4.814755e-43)
(1.3896452e-05 -7.0340665e-06 1.0001595e-24 3.6431556e-06 -4.8945294e-25 4.4909393e-43)
(1.7832015e-05 -7.395556e-06 1.0046011e-24 3.1142886e-06 -4.2888581e-25 6.2902889e-44)
(1.9714519e-05 -7.1990039e-06 0 2.7144123e-06 0 0)
(2.0648616e-05 -6.7766555e-06 4.169049e-24 2.3805123e-06 -1.4192989e-24 9.0099714e-43)
(2.1174829e-05 -6.1761715e-06 4.3786896e-24 2.0515367e-06 -1.2281467e-24 1.5206245e-42)
(2.1819263e-05 -5.4408029e-06 -5.1592158e-25 1.7179947e-06 4.1631176e-25 2.0475549e-42)
(2.250103e-05 -4.5395726e-06 -2.951273e-24 1.3822503e-06 6.3486395e-25 4.6731424e-43)
(2.3189214e-05 -3.4983084e-06 -1.6935288e-24 1.0772457e-06 2.0134223e-25 3.6986856e-43)
(2.3629805e-05 -2.3459635e-06 8.5464007e-25 8.2764132e-07 -7.5630887e-26 6.2029253e-44)
(2.3735109e-05 -1.1603658e-06 -1.4329359e-24 6.5874114e-07 1.3711951e-25 1.1180302e-43)
(2.3364439e-05 -3.210099e-08 -1.1700756e-24 5.7215897e-07 -6.6440658e-26 4.0756977e-43)
(2.2526487e-05 9.4114076e-07 1.3879888e-24 5.524237e-07 9.589277e-26 3.9629901e-43)
(2.1242213e-05 1.6569915e-06 7.5842678e-26 5.6076272e-07 2.9309027e-28 6.713208e-45)
(1.9631645e-05 2.0700635e-06 9.3192731e-25 5.5544048e-07 9.4529071e-26 4.4006971e-43)
(1.7818578e-05 2.1066899e-06 -1.7822607e-24 4.8504162e-07 -2.0532881e-25 2.0614244e-43)
(1.5978975e-05 1.8576227e-06 -3.582826e-25 3.5618304e-07 -4.103274e-26 9.3120973e-45)
(1.4365687e-05 1.2256768e-06 1.6437096e-24 1.6101387e-07 1.198132e-25 3.96459e-43)
(1.3738367e-05 5.1727492e-07 0 2.686088e-08 0 0)
(1.8215947e-05 1.1474816e-05 3.7472512e-24 7.6781285e-06 2.455472e-24 7.9831749e-43)
(5.4501351e-06 5.3071053e-06 -3.0416373e-25 7.4565448e-06 -5.5655487e-25 6.0935554e-44)
(1.6716019e-06 1.8576503e-08 8.8323545e-27 6.1210643e-06 -2.0929735e-25 8.1323803e-45)
(4.6661271e-06 -4.1503554e-06 5.8426258e-25 5.1053393e-06 -4.8039364e-25 5.2563054e-43)
(1.0450259e-05 -6.3749089e-06 1.344506e-24 4.1473429e-06 -8.4371242e-25 3.8275901e-43)
(1.598367e-05 -7.3585975e-06 -3.5336563e-25 3.4526692e-06 1.4784999e-25 1.1564821e-43)
(1.9276229e-05 -7.4501115e-06 -3.2966341e-24 2.9456654e-06 1.3088444e-24 6.1056611e-43)
(2.0946647e-05 -7.143877e-06 -2.0223576e-24 2.5628703e-06 5.6580205e-25 1.7410337e-42)
(2.1661673e-05 -6.5928489e-06 5.7274911e-25 2.2242068e-06 -2.3454078e-25 1.258724e-43)
(2.2268355e-05 -5.8952062e-06 -5.858013e-25 1.8965405e-06 1.3918488e-25 4.1060861e-44)
(2.2910469e-05 -5.02673e-06 2.1586207e-25 1.563703e-06 -4.3829907e-26 4.3522634e-45)
(2.365121e-05 -4.0040403e-06 4.4934596e-24 1.250486e-06 -6.4632883e-25 2.2937754e-42)
(2.4244966e-05 -2.8367663e-06 3.5387979e-25 9.8077743e-07 -6.4895377e-26 8.0164516e-45)
(2.4574497e-05 -1.5888123e-06 -9.3962729e-24 7.8625037e-07 6.8314936e-25 5.2972399e-42)
(2.4451499e-05 -3.4316285e-07 -4.0936163e-24 6.8009882e-07 2.2056183e-25 8.0789709e-43)
(2.3837533e-05 7.9602831e-07 -1.4324386e-24 6.5728365e-07 6.4744858e-26 3.5065529e-43)
(2.2709932e-05 1.7264014e-06 1.5519913e-24 6.8864044e-07 1.023745e-25 1.3449251e-43)
(2.1156362e-05 2.3523037e-06 -7.3540558e-25 7.2541059e-07 -1.0600908e-25 1.0557344e-42)
(1.9296348e-05 2.6379454e-06 -6.762017e-25 7.2018248e-07 -8.6709791e-26 3.8460355e-44)
(1.728441e-05 2.5289074e-06 1.1897318e-24 6.2030354e-07 1.477694e-25 2.6149074e-43)
(1.5299039e-05 2.1337047e-06 0 4.4587988e-07 0 0)
(1.3596322e-05 1.3757029e-06 -4.0267745e-24 1.9858642e-07 -3.5132913e-25 2.3687688e-42)
(1.2927294e-05 5.6159958e-07 1.0537408e-25 3.2177831e-08 4.6410816e-27 9.1052122e-46)
(3.12647e-05 1.5743585e-05 -2.1928094e-23 8.0828918e-06 -1.1141068e-23 1.5481256e-41)
(1.3862654e-05 1.0243624e-05 -7.8502442e-25 8.3451547e-06 -7.4141167e-25 1.5862845e-43)
(3.8753528e-06 3.9852792e-06 -9.4062685e-25 6.9866596e-06 -1.3575447e-24 4.0404431e-43)
(1.9791415e-06 -1.4566236e-06 4.7993963e-26 5.9672374e-06 -5.0147946e-25 9.3266633e-44)
(6.2691571e-06 -4.975113e-06 1.5208587e-26 4.798168e-06 1.327004e-25 5.1363962e-43)
(1.2740636e-05 -6.9044133e-06 0 3.9099453e-06 0 0)
(1.7769282e-05 -7.5109961e-06 -6.9502969e-25 3.2415956e-06 3.0304561e-25 2.9988799e-44)
(2.0743123e-05 -7.4382845e-06 1.2709917e-24 2.7663889e-06 -5.0783169e-25 2.1737389e-43)
(2.2033513e-05 -6.9784807e-06 -2.6416585e-24 2.3913733e-06 7.4303042e-25 1.295706e-42)
(2.2742974e-05 -6.3276202e-06 -7.8357928e-24 2.0597877e-06 2.0629553e-24 5.6334617e-42)
(2.3337635e-05 -5.4972253e-06 -1.4440767e-24 1.7325801e-06 4.885518e-25 3.9339569e-43)
(2.4073596e-05 -4.504986e-06 1.2259362e-24 1.4190321e-06 -9.5518217e-26 6.7192588e-43)
(2.4770271e-05 -3.3431448e-06 -1.2912997e-24 1.1365997e-06 3.2403575e-27 9.0353155e-43)
(2.5301213e-05 -2.060603e-06 -1.8906627e-24 9.2059534e-07 3.419746e-25 3.7987552e-43)
(2.5437675e-05 -7.2453181e-07 1.3341359e-24 7.9191619e-07 -2.8730795e-25 8.6805307e-43)
(2.5090941e-05 5.623937e-07 6.2131349e-24 7.5932186e-07 -1.656919e-25 2.089782e-42)
(2.4187462e-05 1.6878236e-06 6.1717892e-24 8.0346075e-07 4.1612899e-25 2.8137728e-42)
(2.2774417e-05 2.5509119e-06 5.3560652e-26 8.8418208e-07 -1.9555476e-26 1.3505216e-43)
(2.0941694e-05 3.060794e-06 4.3196912e-24 9.4051237e-07 5.9454062e-25 3.3471754e-42)
(1.8847963e-05 3.2004948e-06 -4.4711615e-24 9.231993e-07 -7.0544364e-25 1.7565957e-42)
(1.665449e-05 2.9340156e-06 -3.7971713e-24 7.8006075e-07 -5.8489114e-25 2.0011339e-42)
(1.454612e-05 2.389058e-06 4.7403231e-24 5.4798152e-07 6.9253425e-25 2.8747664e-42)
(1.2775486e-05 1.509768e-06 -3.5838978e-24 2.4043418e-07 -3.762936e-25 1.7272888e-42)
(1.2077293e-05 5.99445e-07 7.6493716e-26 3.7885765e-08 3.8679507e-27 5.1262261e-46)
(4.6439699e-05 1.9556927e-05 -7.2112257e-24 8.2755173e-06 -3.063048e-24 1.1534395e-42)
(2.7275032e-05 1.5504815e-05 -2.2518517e-24 9.0761538e-06 -1.3606348e-24 2.4248377e-43)
(1.1045305e-05 8.7485692e-06 -9.0209985e-25 7.8109328e-06 -8.6665655e-25 1.2435706e-43)
(2.4510135e-06 2.3654158e-06 3.9695096e-25 6.9192138e-06 -2.7057861e-26 1.175271e-42)
(2.6835001e-06 -2.5908373e-06 1.3877159e-25 5.5943287e-06 -5.3841816e-25 1.9068201e-43)
(8.3769582e-06 -5.7849611e-06 1.5846223e-25 4.5152624e-06 7.5830832e-27 8.0134706e-43)
(1.482508e-05 -7.2210925e-06 -5.7133086e-25 3.6409086e-06 2.918754e-25 2.5029947e-44)
(1.9581185e-05 -7.5826836e-06 1.5961418e-24 3.0216292e-06 -5.327616e-25 1.7285394e-42)
(2.2014858e-05 -7.3063674e-06 1.6800533e-24 2.5705294e-06 -6.0438068e-25 1.768116e-43)
(2.3154245e-05 -6.7313348e-06 -9.7605921e-25 2.2127167e-06 2.1798192e-25 3.4919604e-43)
(2.3790219e-05 -5.9469306e-06 -2.9805529e-24 1.8857914e-06 8.508038e-25 4.4344926e-43)
(2.4488186e-05 -4.9934829e-06 -4.5625703e-24 1.5765583e-06 7.4245646e-25 3.4190254e-42)
(2.522688e-05 -3.853924e-06 -1.5149031e-24 1.2893904e-06 3.6187933e-25 1.8725035e-43)
(2.5914842e-05 -2.5613213e-06 5.5890298e-25 1.0576349e-06 -4.7871671e-26 2.9275539e-44)
(2.6299249e-05 -1.1651618e-06 5.6786788e-24 9.0768049e-07 -4.5718793e-25 1.4492699e-42)
(2.6243678e-05 2.425357e-07 -3.6621766e-25 8.5897975e-07 -3.063621e-26 4.1337738e-44)
(2.5619601e-05 1.548334e-06 1.0045414e-24 9.0697384e-07 6.0988843e-26 7.9802182e-44)
(2.4423853e-05 2.634664e-06 6.0231543e-25 1.0201983e-06 -6.859642e-27 3.149608e-43)
(2.2707726e-05 3.4012499e-06 0 1.1443345e-06 0 0)
(2.0607267e-05 3.7719678e-06 3.6600287e-25 1.2092063e-06 6.6207049e-26 1.0974454e-44)
(1.8292096e-05 3.7470649e-06 3.0665869e-26 1.1647505e-06 8.353929e-27 7.2192944e-46)
(1.5939988e-05 3.3143823e-06 8.2267336e-26 9.6348578e-07 1.0139884e-26 4.6863651e-45)
(1.3733383e-05 2.6189071e-06 -8.3116304e-25 6.6139814e-07 -1.5141862e-25 6.5191477e-44)
(1.1917247e-05 1.6255083e-06 4.4053797e-24 2.859748e-07 5.2567289e-25 3.0236868e-42)
(1.120202e-05 6.302055e-07 2.4926805e-24 4.388945e-08 1.2209158e-25 9.824038e-43)
(6.2177186e-05 2.2646911e-05 2.3436121e-23 8.2523962e-06 8.5463977e-24 8.8703523e-42)
(4.466313e-05 2.0598701e-05 2.8399852e-24 9.5729537e-06 1.3393874e-24 1.967504e-43)
(2.3605682e-05 1.3958335e-05 -5.3395364e-25 8.527099e-06 -2.9782275e-25 1.8407567e-44)
(7.964059e-06 7.2241962e-06 -3.0100321e-26 7.8776765e-06 1.0087727e-26 1.0283318e-44)
(1.7054874e-06 9.3552606e-07 -4.9904559e-25 6.5013641e-06 -4.9675574e-25 1.1567922e-42)
(3.9935188e-06 -3.7296034e-06 -4.2962324e-25 5.2785171e-06 5.6580478e-25 8.0973633e-44)
(1.0489879e-05 -6.3508718e-06 -4.7481372e-25 4.1802142e-06 3.1615699e-25 2.5874705e-44)
(1.6998651e-05 -7.4412587e-06 -2.7086312e-26 3.3669501e-06 6.8943192e-27 5.4351069e-45)
(2.1165251e-05 -7.5165631e-06 -1.464095e-24 2.789325e-06 4.3909959e-25 1.1802848e-42)
(2.3275269e-05 -7.0875085e-06 -2.6543833e-24 2.369284e-06 8.5061444e-25 3.458849e-43)
(2.4213326e-05 -6.370049e-06 -3.9036337e-25 2.0256115e-06 -1.0600145e-27 4.560694e-43)
(2.4915548e-05 -5.4635653e-06 7.7220885e-25 1.718692e-06 -1.5285185e-25 6.9249532e-44)
(2.5645976e-05 -4.359205e-06 2.6370828e-24 1.4328602e-06 -3.5893547e-25 1.0039821e-42)
(2.6430342e-05 -3.0782069e-06 1.3281781e-24 1.1926168e-06 -2.1372049e-25 7.9083013e-44)
(2.702781e-05 -1.6503142e-06 2.3950869e-24 1.0247386e-06 -1.332224e-25 4.8315897e-43)
(2.7264161e-05 -1.5388656e-07 -8.546592e-24 9.5772474e-07 3.5961948e-25 3.2453886e-42)
(2.6956807e-05 1.3067506e-06 -1.7274726e-23 9.9966783e-07 -4.3370667e-25 1.4544285e-41)