/*--------------------------------*- C++ -*----------------------------------*\
| =========                 |                                                 |
| \\      /  F ield         | OpenFOAM: The Open Source CFD Toolbox           |
|  \\    /   O peration     | Version:  5.0                                   |
|   \\  /    A nd           | Web:      www.OpenFOAM.org                      |
|    \\/     M anipulation  |                                                 |
\*---------------------------------------------------------------------------*/
FoamFile
{
    version     2.0;
    format      ascii;
    class       volScalarField;
    location    "300";
    object      p;
}
// * * * * * * * * * * * * * * * * * * * * * * * * * * * * * * * * * * * * * //

dimensions      [0 2 -2 0 0 0 0];

internalField   nonuniform List<scalar> 
9200
(
0.0010001802
0.0010146613
0.0025935284
0.001025021
0.0026277387
0.0043144071
0.0010490361
0.0026632717
0.0043663376
0.0058718455
0.0010700224
0.0027300412
0.0044274716
0.0059377876
0.0074013966
0.0010918395
0.0028061794
0.0045320651
0.0060207037
0.0074799969
0.0088251138
0.0011046931
0.0028994182
0.0046549175
0.0061568184
0.0075822638
0.0089137471
0.01016296
0.0011058326
0.0029988794
0.0048023047
0.0063207802
0.0077464184
0.0090313143
0.010259303
0.011409744
0.0010972693
0.0030958137
0.004964925
0.0065195228
0.0079467234
0.0092166511
0.010388362
0.011512072
0.012571267
0.0010642786
0.0031625128
0.0051406113
0.0067496495
0.0081910307
0.009443064
0.010587991
0.011650127
0.012678494
0.013650789
0.0009558118
0.0031876052
0.0053148701
0.0070144896
0.0084804946
0.0097169496
0.010829419
0.011860002
0.012824286
0.013761996
0.014652739
0.00071583898
0.0032300676
0.0054742785
0.0073142437
0.0088205525
0.010038442
0.011115057
0.012111567
0.013043155
0.013914598
0.014767081
0.01558136
0.00033245944
0.0032466746
0.0056274345
0.0076716219
0.0092211809
0.01041119
0.011441037
0.012404059
0.013305364
0.014141666
0.014925719
0.015697971
0.016440972
-0.00019576494
0.0031478559
0.0057600968
0.0080834075
0.0096967521
0.010844922
0.011806104
0.012729606
0.013605593
0.014413678
0.015159809
0.015862111
0.016558858
0.017235881
-0.00088628595
0.0028865732
0.0058279227
0.0085336072
0.010256003
0.01135907
0.012221326
0.013083536
0.013932474
0.014719714
0.01544083
0.016103093
0.01672789
0.01735384
0.01797049
-0.0017524154
0.0024274203
0.0057774937
0.009013876
0.010920479
0.011962221
0.012686864
0.013464893
0.014272278
0.015046268
0.015755452
0.016394016
0.01697547
0.017526566
0.0180871
0.018649292
-0.0028196986
0.0016855492
0.0055542174
0.0095073644
0.011712342
0.012681849
0.013221237
0.013801644
0.014600354
0.015372962
0.016090747
0.016723313
0.017277841
0.017779101
0.018261758
0.018762957
0.019276795
-0.0041923044
0.00063304663
0.0051013353
0.0099923494
0.012655655
0.013544303
0.013844843
0.014160792
0.014896436
0.015673235
0.016425719
0.017078803
0.017624307
0.018092402
0.01851661
0.01893741
0.019385855
0.019857439
-0.0063434066
-0.00076785299
0.0043549271
0.010462481
0.013778256
0.01457795
0.014571896
0.014566056
0.015127896
0.015952857
0.016734199
0.017440163
0.018006944
0.018455743
0.018837304
0.019191156
0.01955776
0.019960265
0.020395628
-0.0083421117
-0.0026706535
0.0032294602
0.010901049
0.015087182
0.015808117
0.015437821
0.014983048
0.015262056
0.016149679
0.017016836
0.017793467
0.018409374
0.018866412
0.019214433
0.019514674
0.019806583
0.020127176
0.020490623
0.020895678
-0.011011096
-0.0057705576
0.001657707
0.011219845
0.016566733
0.017239727
0.016482019
0.015406326
0.015309828
0.016202533
0.017232327
0.018136531
0.018832763
0.019315064
0.019647972
0.019899233
0.020127781
0.020367175
0.020650116
0.020981331
0.021361588
-0.014505539
-0.009940929
-0.00030941256
0.011263097
0.018210789
0.018927831
0.017407519
0.015830734
0.015232542
0.016075806
0.017328769
0.018431217
0.019265957
0.019804525
0.020133348
0.020347071
0.020512464
0.020680802
0.020877537
0.021131176
0.021436618
0.021797028
-0.017114884
-0.014347742
-0.002850899
0.010802563
0.020073316
0.020829463
0.018790105
0.016233213
0.014975618
0.015712147
0.017249114
0.018648411
0.019689099
0.020325689
0.020672371
0.02085515
0.020964798
0.02105859
0.021178616
0.021342616
0.021574745
0.021860301
0.02220566
-0.019099398
-0.018804946
-0.0066691813
0.0095398383
0.022250411
0.022945347
0.020322922
0.016656677
0.014478123
0.015025972
0.016923723
0.018747863
0.020088052
0.020879461
0.021265921
0.021427259
0.021482318
0.021505974
0.021543055
0.021626554
0.021766986
0.021984551
0.022256082
0.022591085
-0.020805984
-0.023174293
-0.011625312
0.0079105231
0.024815258
0.025236148
0.021986772
0.017071046
0.013682077
0.013907893
0.016267454
0.018684926
0.020444839
0.02146437
0.021920854
0.022067563
0.02206873
0.022020119
0.021977389
0.021971754
0.022029498
0.022154264
0.022364519
0.022628178
0.022956274
-0.022273308
-0.027583559
-0.016650323
0.0063178721
0.027428473
0.027618911
0.02371687
0.017447909
0.012501072
0.012226246
0.015181891
0.018407893
0.020745089
0.022085037
0.022646167
0.022783841
0.022727212
0.022603288
0.022477823
0.022386089
0.022350373
0.022391426
0.022509043
0.022719583
0.02298003
0.023303673
-0.023517049
-0.031972189
-0.021479894
0.0045749279
0.029170125
0.030007565
0.025416767
0.017724852
0.010779455
0.0098337776
0.013542272
0.017837918
0.020964651
0.022745705
0.023454619
0.023587181
0.023463759
0.023256081
0.023044774
0.022865126
0.022739266
0.022683646
0.022718028
0.022837807
0.02305317
0.02331341
0.023635861
-0.024523049
-0.03611927
-0.025904553
0.0027607867
0.029833759
0.032184988
0.026920848
0.017760499
0.0083291613
0.0063705053
0.011217806
0.016870731
0.021056904
0.023439664
0.024354748
0.024489716
0.024286318
0.023980619
0.023675848
0.023407787
0.023191335
0.023043136
0.022978119
0.023016375
0.023143449
0.023366628
0.023630416
0.023955004
-0.025253338
-0.03989147
-0.029892721
0.00087403515
0.029886209
0.034274658
0.028026312
0.017441917
0.0050805624
0.0016922919
0.0080850022
0.015329996
0.02094439
0.024158095
0.025356309
0.025503252
0.025203327
0.024778172
0.024367947
0.024008598
0.023705266
0.023464281
0.023301352
0.023241129
0.023286776
0.023425145
0.023662364
0.023933974
0.024262743
-0.025722849
-0.04316604
-0.033363597
-0.0010276027
0.029217747
0.035733774
0.028581291
0.016743926
0.0011043244
-0.0041835723
0.0040128899
0.013032814
0.020515661
0.024873045
0.026463433
0.026637148
0.026222081
0.02564981
0.025112461
0.024658027
0.024273095
0.02394692
0.023688233
0.023521472
0.02346957
0.023528129
0.023686627
0.023944318
0.024226608
0.024560812
-0.025805333
-0.045859026
-0.036249554
-0.0029097861
0.027883568
0.035622285
0.028472675
0.015560131
-0.0036573793
-0.011393012
-0.001425077
0.0097772895
0.019620703
0.025546264
0.027664905
0.027893161
0.027344836
0.026593176
0.025903817
0.025342147
0.024880848
0.024482721
0.024138286
0.023868352
0.02370923
0.02366645
0.023748696
0.023935154
0.024215704
0.024510207
0.024850827
-0.025608431
-0.047999185
-0.038506554
-0.0047652324
0.025982283
0.03417438
0.027640971
0.013857974
-0.0095339209
-0.020442788
-0.0090390829
0.005354307
0.01792731
0.026112962
0.028930021
0.029257315
0.028565929
0.027601938
0.026726876
0.026042314
0.025509379
0.02505609
0.024644701
0.024283217
0.024012206
0.0238622
0.023840522
0.023957512
0.024173894
0.024477887
0.024786233
0.025134024
-0.025020258
-0.049812414
-0.040319713
-0.006615887
0.023537605
0.032221521
0.02597206
0.011708079
-0.016126458
-0.031478473
-0.019469098
-0.00060887712
0.015357209
0.02637486
0.030186063
0.030693763
0.029864609
0.028659624
0.027562549
0.026732939
0.026130673
0.025644838
0.025193432
0.024761631
0.024386483
0.024118315
0.023984374
0.023997988
0.024152883
0.024401565
0.024732306
0.025055971
0.025411308
-0.023948005
-0.050267548
-0.041794548
-0.0090350634
0.020619853
0.02952067
0.023481889
0.0090732618
-0.023187648
-0.043197659
-0.031995802
-0.008941001
0.011875699
0.026143311
0.031332321
0.032113016
0.031197254
0.029736528
0.028382339
0.027380383
0.026707805
0.026215201
0.025762607
0.025293
0.024833433
0.02444626
0.024186432
0.024083233
0.024140834
0.02433634
0.024622135
0.024981264
0.025320603
0.025683505
-0.02249847
-0.049068323
-0.042394021
-0.01173952
0.016315624
0.026585752
0.020213268
0.0058902254
-0.030519286
-0.055304967
-0.046252622
-0.019731179
0.0063779116
0.025334409
0.032182856
0.03341547
0.032484876
0.030782543
0.029145507
0.027941197
0.027192413
0.026722011
0.026317668
0.02586063
0.025348881
0.02485522
0.02446072
0.024223254
0.024163422
0.024270651
0.024513511
0.024839267
0.025226083
0.025580915
0.025951241
-0.020725008
-0.0467079
-0.042035002
-0.014451647
0.011364168
0.021933118
0.016385754
0.0021900282
-0.037816977
-0.067602883
-0.061027261
-0.032138238
-0.0012758508
0.023734811
0.032879424
0.034446856
0.033625065
0.031732347
0.029798623
0.028361971
0.02752511
0.027105229
0.026810925
0.02643437
0.025924379
0.025350553
0.024823931
0.024435111
0.024234522
0.024227947
0.024392038
0.024686352
0.025052218
0.025467179
0.025837595
0.026214838
-0.01866645
-0.043433155
-0.040734164
-0.017028044
0.0056626356
0.016922455
0.011937409
-0.0017913217
-0.044586107
-0.079483528
-0.075370775
-0.044912673
-0.0092283773
0.020992347
0.033231358
0.035159731
0.034474287
0.032489174
0.030267047
0.02857041
0.027627445
0.027287092
0.027176235
0.026970936
0.026539885
0.025933334
0.025289048
0.024740338
0.024373609
0.024224201
0.024281383
0.024508536
0.024856391
0.02526307
0.025705917
0.02609122
0.026474767
-0.016327855
-0.039494798
-0.038726674
-0.019413566
-0.00049786847
0.010665043
0.0077049876
-0.0050092302
-0.05109526
-0.090281879
-0.088864144
-0.057212212
-0.017325268
0.016949297
0.032702524
0.035040124
0.03485609
0.032939236
0.03045089
0.028471129
0.027394832
0.027158259
0.027324503
0.027406329
0.027163219
0.026596439
0.025867681
0.025158919
0.02460644
0.024280811
0.024197927
0.024328002
0.024622934
0.025026013
0.025473767
0.025942952
0.026342096
0.026731163
-0.013760107
-0.034778793
-0.036032555
-0.021560559
-0.0070423608
0.003341965
0.0026997306
-0.0078536271
-0.055420327
-0.10005664
-0.10143806
-0.068553476
-0.025961898
0.012188543
0.030835897
0.034088945
0.034485466
0.032947274
0.030246246
0.027959841
0.026715028
0.026593191
0.027137796
0.02765735
0.027745002
0.027324016
0.026566626
0.025712804
0.024958809
0.024426674
0.024163603
0.024161481
0.024372001
0.024738157
0.02519685
0.02568431
0.026178436
0.026590456
0.026984074
-0.011059953
-0.029287737
-0.032535529
-0.023383593
-0.013855911
-0.0049341369
-0.0033573175
-0.011299679
-0.059185786
-0.10670828
-0.11326519
-0.079354752
-0.034770191
0.0069764298
0.02771397
0.032582321
0.033251566
0.032357494
0.029543769
0.026928981
0.025468928
0.025445694
0.026466081
0.02760947
0.028216078
0.028088108
0.027387633
0.026421402
0.025461198
0.024692137
0.024209671
0.024029995
0.024119201
0.024418054
0.02485644
0.025370126
0.02589557
0.026412918
0.026836429
0.027233703
-0.023428517
-0.0082850021
-0.02842065
-0.024901463
-0.02084232
-0.01406141
-0.01046604
-0.015564576
-0.062673031
-0.11328122
-0.12316439
-0.089086438
-0.043267643
0.00097031717
0.02333728
0.030427317
0.031211876
0.030989601
0.028262731
0.025259215
0.0235221
0.023533871
0.025112368
0.027097717
0.028469164
0.02884368
0.02832446
0.027302397
0.02614356
0.025114
0.02436853
0.023964659
0.023884331
0.02407599
0.024468185
0.024979483
0.025546924
0.026108294
0.026646481
0.027080027
0.027479846
-0.023823443
-0.017206817
-0.0055167669
-0.025934508
-0.027977602
-0.023912074
-0.018711191
-0.020796012
-0.065621611
-0.11826283
-0.1340115
-0.097624828
-0.051280176
-0.0055239371
0.017698527
0.027367985
0.028275862
0.028713334
0.02631016
0.022844658
0.020726265
0.020644664
0.0228184
0.025913461
0.028359301
0.029516108
0.029357409
0.028367988
0.027036402
0.025729609
0.024680528
0.023997583
0.02369668
0.023733373
0.024039409
0.024525036
0.025109516
0.025727945
0.026322313
0.026879111
0.027321205
0.027722558
-0.026343621
-0.018752754
-0.010899077
-0.0027894032
-0.03507001
-0.034293272
-0.027668173
-0.02674965
-0.06811714
-0.1214735
-0.14251684
-0.10881586
-0.060514056
-0.012192357
0.011742195
0.023202326
0.02450561
0.025469943
0.023570416
0.019606152
0.016948879
0.016539342
0.019261053
0.023751256
0.027702245
0.029997962
0.030448145
0.029621025
0.028166278
0.026578884
0.025187965
0.024171362
0.023587964
0.023416362
0.023588813
0.024013739
0.024592164
0.02524735
0.025913311
0.026537879
0.027110827
0.027559869
0.027961719
-0.04190498
-0.026233707
-0.013502857
-0.0047045479
-0.00014370229
-0.044916872
-0.036781336
-0.032844741
-0.070085951
-0.12272913
-0.15209382
-0.11998043
-0.070356993
-0.021918847
0.0056568807
0.018019845
0.019924468
0.021183324
0.01997059
0.01550871
0.01206983
0.010990168
0.014041565
0.020212805
0.026206213
0.030127425
0.031533907
0.031050304
0.029552432
0.027698923
0.025936922
0.02453116
0.023600122
0.023154085
0.023138358
0.02345659
0.024001025
0.024671575
0.025393337
0.026103249
0.026754926
0.027341454
0.027795862
0.028197146
-0.055459714
-0.048424424
-0.025649677
-0.0083004111
0.0012927591
0.0023703927
-0.045864098
-0.03867821
-0.071352913
-0.12144079
-0.15939287
-0.13054586
-0.078956139
-0.031669904
-0.0046354707
0.012554036
0.014195114
0.015922249
0.015452566
0.010559562
0.0060682176
0.0037907999
0.0066867559
0.014766316
0.023463036
0.029668413
0.032500049
0.032621537
0.031201275
0.029120031
0.026971182
0.025125718
0.023778038
0.022985645
0.022713657
0.022872626
0.023340095
0.024004398
0.02476417
0.02554806
0.026297962
0.026973242
0.027570803
0.028029013
0.028428817
-0.054615193
-0.065530108
-0.054362357
-0.024693253
-0.0032556489
0.0069877028
0.0047551779
-0.044125775
-0.07169054
-0.11764772
-0.15797408
-0.13800581
-0.085917397
-0.041870499
-0.014366243
0.002970248
0.0081455619
0.0096209581
0.010056552
0.0048458505
-0.0010445431
-0.0051940215
-0.0034889012
0.0066332439
0.018944675
0.02825731
0.033167245
0.034262237
0.033095821
0.030859346
0.028328224
0.026003584
0.024170644
0.022953903
0.022350006
0.022282213
0.022624902
0.023244226
0.024025988
0.024870754
0.02571179
0.026497103
0.027192585
0.027798632
0.028259135
0.028656504
-0.049130451
-0.062667083
-0.074668664
-0.059623668
-0.023497577
0.0014613153
0.012187684
0.0070053357
-0.070819088
-0.11216245
-0.15030194
-0.14064548
-0.090837562
-0.051582759
-0.025756459
-0.0067860104
-0.00058669992
0.0027833562
0.0037480111
-0.0015179863
-0.0091930609
-0.016212315
-0.017366489
-0.0053698223
0.011807841
0.025468634
0.033289644
0.035845069
0.03518316
0.032910435
0.030032224
0.02720483
0.024828143
0.023104336
0.022087879
0.021715156
0.021870015
0.022401574
0.023172732
0.024067535
0.024991725
0.025884366
0.02670036
0.027412566
0.028024686
0.028486083
0.028880153
-0.068663024
-0.053737292
-0.069643555
-0.082769448
-0.064059219
-0.022154527
0.005798579
0.01680044
0.0090539477
-0.10501937
-0.14147813
-0.13873326
-0.094043001
-0.060631196
-0.03763647
-0.019358371
-0.0089601101
-0.0058266935
-0.0030352524
-0.0084817065
-0.018431587
-0.029137518
-0.035796573
-0.021516919
0.0014910773
0.020272566
0.032424645
0.037173648
0.037357609
0.035229978
0.032083841
0.028757398
0.025793418
0.02348732
0.021963203
0.021206487
0.021097199
0.021485019
0.022209335
0.023128105
0.024130107
0.025126979
0.026065276
0.026907284
0.02763288
0.028248815
0.028709679
0.029099525
-0.096365699
-0.065168462
-0.057527651
-0.075425365
-0.089911675
-0.067514991
-0.020680661
0.0097777223
0.020830779
0.010872405
-0.13072185
-0.13318994
-0.095388722
-0.06877335
-0.05005444
-0.033389324
-0.019991916
-0.013464622
-0.010756011
-0.015671589
-0.028292165
-0.044039319
-0.056039405
-0.040015847
-0.010735594
0.012045068
0.029491751
0.037825609
0.039439524
0.037723005
0.034446713
0.030667642
0.027091821
0.024146478
0.022029259
0.020789949
0.020336966
0.020510187
0.021137558
0.022052272
0.023112448
0.024214013
0.025275942
0.026253891
0.02711745
0.027853391
0.028470764
0.028929516
0.029314443
-0.11808444
-0.086299007
-0.060553907
-0.059924069
-0.079903736
-0.096203133
-0.069932355
-0.019092842
0.013338054
0.024246582
0.01242951
-0.12498178
-0.094261277
-0.075574347
-0.062509189
-0.048661842
-0.033587853
-0.023346651
-0.017547138
-0.022791549
-0.038954258
-0.059475181
-0.077327826
-0.061168633
-0.025628376
0.00080317862
0.02478344
0.037197826
0.041079696
0.040223027
0.037035029
0.032906194
0.028733381
0.025102723
0.022322171
0.020506357
0.019615183
0.019497094
0.019965926
0.02083472
0.021933418
0.023126715
0.02431874
0.025437914
0.026449979
0.027330912
0.028073713
0.028689752
0.029145135
0.029525049
-0.11423655
-0.10368891
-0.075351564
-0.055087267
-0.060943857
-0.082924513
-0.10212829
-0.070988103
-0.017471365
0.016357442
0.026923208
0.013700731
-0.090854789
-0.080690134
-0.074536233
-0.064665555
-0.049682988
-0.03642016
-0.025895254
-0.02855443
-0.047115046
-0.076430345
-0.09787772
-0.084603946
-0.04621186
-0.014688307
0.01768242
0.035453912
0.041861138
0.042433557
0.039696649
0.035397467
0.030697764
0.026366489
0.022864663
0.02038761
0.018963271
0.018466292
0.018705655
0.019475946
0.020581345
0.021855143
0.023170771
0.024443471
0.025612847
0.026653657
0.027546933
0.028292287
0.028904926
0.029357034
0.02974179
-0.085756212
-0.10135162
-0.088478827
-0.063830824
-0.049028535
-0.060551257
-0.084173798
-0.10392981
-0.070607247
-0.015830008
0.018855893
0.029064512
0.014653837
-0.084046626
-0.085988131
-0.081388007
-0.068167358
-0.052188849
-0.036598693
-0.035536269
-0.052915674
-0.087200302
-0.11971052
-0.10874138
-0.070479657
-0.03314856
0.0068612927
0.031431119
0.041690576
0.044015892
0.042192993
0.038008877
0.03291986
0.027925455
0.023663318
0.020458633
0.018407003
0.017438224
0.017368772
0.017979395
0.01904881
0.020381067
0.021817839
0.023243748
0.02458832
0.025801065
0.026863526
0.027762606
0.028507517
0.029117585
0.02957678
0.029968374
-0.085284371
-0.078656877
-0.087428191
-0.072942306
-0.052255474
-0.04247705
-0.058674579
-0.083421256
-0.10117207
-0.069032782
-0.014094677
0.021039029
0.030669619
0.015433134
-0.096456456
-0.09862587
-0.088603231
-0.070448079
-0.049452279
-0.044129228
-0.058935088
-0.096393066
-0.13350363
-0.13606224
-0.09861013
-0.053519931
-0.0067902584
0.023829424
0.039607946
0.044823731
0.044262049
0.040546884
0.035285339
0.029722949
0.024707747
0.020722581
0.017965448
0.016431334
0.015966351
0.016347111
0.017330608
0.018690103
0.02023594
0.021820721
0.023345927
0.02475399
0.026000277
0.027074815
0.027975442
0.028722268
0.029342145
0.029805551
0.030198744
-0.10534546
-0.084342418
-0.070011067
-0.073015487
-0.057656801
-0.040926644
-0.035417337
-0.055555997
-0.080444219
-0.094272975
-0.06640248
-0.012020114
0.022753776
0.031956476
0.015958953
-0.11584372
-0.11026853
-0.090796434
-0.064197781
-0.054089624
-0.065883028
-0.10370127
-0.15096858
-0.15836058
-0.13020176
-0.077618485
-0.023200128
0.014227691
0.034237629
0.043951918
0.045522031
0.042761246
0.03762777
0.03165669
0.025950472
0.02116568
0.017641291
0.015455359
0.01450643
0.014580215
0.015419806
0.016768389
0.018402649
0.020144942
0.021864017
0.023478753
0.024937336
0.026203194
0.02728405
0.028190901
0.028957526
0.02957416
0.030039799
0.030432667
-0.13202054
-0.11243843
-0.081641264
-0.060788247
-0.05880949
-0.043040764
-0.029842511
-0.028056382
-0.0513764
-0.075736692
-0.083977466
-0.063217138
-0.0094004091
0.023994115
0.032174451
0.016138325
-0.13272925
-0.11272432
-0.080683467
-0.064979197
-0.073994401
-0.11013701
-0.16360395
-0.19064685
-0.16107074
-0.10430053
-0.042642804
0.0026065957
0.026979987
0.040568583
0.045487177
0.044301189
0.039732883
0.033581193
0.02730567
0.021747371
0.0174177
0.014510013
0.012990516
0.012676623
0.013306404
0.014600013
0.01629832
0.018187155
0.020107956
0.021950263
0.023638478
0.025127719
0.02640503
0.027500519
0.028440204
0.0291993
0.029813848
0.03027862
0.030670138
-0.15524733
-0.14669886
-0.11736133
-0.077738233
-0.051608641
-0.045260598
-0.029420433
-0.019129211
-0.020714624
-0.046294692
-0.070354116
-0.079767761
-0.058641645
-0.0068263712
0.024644082
0.031333905
0.01603914
-0.13569401
-0.098913009
-0.076325856
-0.082603688
-0.11692261
-0.17317505
-0.21428544
-0.20394838
-0.1280826
-0.063263876
-0.01062112
0.018164554
0.035246884
0.043882488
0.044763362
0.041332837
0.035362893
0.028648861
0.022393984
0.017257145
0.01357613
0.011411134
0.010628559
0.01097905
0.012164949
0.013896646
0.01592164
0.018045611
0.020128939
0.022075726
0.023810112
0.025318161
0.026620433
0.027770021
0.028695376
0.029451399
0.030058833
0.030522154
0.030910941
-0.15880799
-0.17695112
-0.15883539
-0.12011528
-0.073126324
-0.042894424
-0.032698664
-0.017084912
-0.0089963679
-0.013437951
-0.040558856
-0.065820451
-0.073893365
-0.053378045
-0.0043224185
0.024603988
0.029230693
0.015809148
-0.11781573
-0.087508541
-0.091029396
-0.12349489
-0.1807606
-0.23447853
-0.23989814
-0.16553748
-0.087923956
-0.02468199
0.0081934659
0.028435349
0.040400478
0.043870082
0.042130436
0.036689091
0.029822712
0.022994674
0.017094477
0.012616374
0.0097451561
0.0084196967
0.0084196152
0.0094418677
0.011168921
0.013313217
0.015640854
0.017984523
0.020206869
0.022220068
0.023983039
0.025530407
0.026915977
0.028045117
0.028963837
0.029709388
0.030309712
0.030769836
0.031155018
-0.135422
-0.18077109
-0.19593645
-0.16829127
-0.12066495
-0.068085778
-0.034622008
-0.021218842
-0.0063140294
0.00046941493
-0.006646254
-0.035117589
-0.06060564
-0.067591879
-0.047356872
-0.0020137074
0.023851303
0.026788124
0.015485213
-0.098218705
-0.098639538
-0.12921479
-0.18580632
-0.24898709
-0.27567237
-0.20781003
-0.11724133
-0.046159057
-0.0027802535
0.020180362
0.034711799
0.041520431
0.041716234
0.037291107
0.030606707
0.023404867
0.016829837
0.011570673
0.0079533335
0.0060205466
0.0056014321
0.0064019008
0.0080833771
0.010324271
0.01285416
0.015465343
0.01799784
0.020313232
0.022367219
0.024188171
0.025859593
0.02721775
0.028337016
0.02923869
0.029974581
0.030565542
0.031021682
0.031402118
-0.10806552
-0.1505129
-0.19932036
-0.2116048
-0.17503203
-0.11926895
-0.062782324
-0.026791357
-0.011272566
0.0025179664
0.0085018802
-0.0002119513
-0.030475763
-0.05462628
-0.06022309
-0.040765129
4.4532538e-05
0.022456938
0.023859916
0.015158931
-0.1054532
-0.13370401
-0.18747699
-0.25710662
-0.30161157
-0.2492527
-0.14831527
-0.069630337
-0.021808301
0.010293343
0.027461845
0.037240157
0.039620027
0.037021795
0.030748479
0.023437685
0.01633897
0.010349212
0.005977439
0.0033876128
0.0024873587
0.0030075533
0.004598804
0.0069110641
0.009638168
0.012532236
0.0153921
0.018050231
0.020423782
0.022559712
0.02455996
0.026196695
0.0275403
0.028635716
0.029522036
0.030245708
0.030826314
0.031277153
0.031652115
-0.11093957
-0.11595607
-0.16101586
-0.21312702
-0.22364332
-0.17793215
-0.11640463
-0.057667973
-0.02007566
-0.0039386061
0.0091781679
0.01615422
0.0039969794
-0.025712781
-0.048049879
-0.052057386
-0.033812897
0.0017525296
0.020660641
0.020462778
0.014673691
-0.135413
-0.18515423
-0.2578512
-0.3180745
-0.28732115
-0.18090362
-0.097852743
-0.039308164
-0.0082263508
0.019618164
0.030850984
0.035932601
0.035254505
0.030022074
0.022878238
0.015458302
0.0088455368
0.0037350197
0.00046127004
-0.00097255273
-0.00078700204
0.00067007312
0.0030248135
0.0059405478
0.0091296065
0.012343343
0.015372387
0.018107344
0.020595926
0.022985165
0.024942938
0.026559446
0.027869895
0.028944348
0.029812252
0.030522705
0.031091284
0.031536116
0.031904782
-0.13367281
-0.11351269
-0.12165355
-0.16523311
-0.22088165
-0.22811596
-0.17625911
-0.11260199
-0.053152029
-0.014840041
0.0012891045
0.015585049
0.021091447
0.0078656099
-0.020914109
-0.040780132
-0.04327367
-0.026956938
0.0031648102
0.018698932
0.017070123
0.013660559
-0.17873875
-0.2498613
-0.32229303
-0.31505911
-0.21246698
-0.12695184
-0.062670109
-0.02301257
0.0015544458
0.024605666
0.029780608
0.03196496
0.02804175
0.021515454
0.014009554
0.0069160605
0.0011328848
-0.0028376896
-0.0048424373
-0.0050396208
-0.0037589389
-0.0013888152
0.0017056114
0.0052000903
0.0087942299
0.012223409
0.01535834
0.018247735
0.02108955
0.023426656
0.025357456
0.02692915
0.028210808
0.029260836
0.030109219
0.030804665
0.031360213
0.031798106
0.032159983
-0.16879967
-0.12859278
-0.11317786
-0.12485544
-0.16412169
-0.22211352
-0.2230024
-0.17103567
-0.10798447
-0.048865249
-0.010154931
0.0069833045
0.020032128
0.025573713
0.011608969
-0.016254739
-0.032817867
-0.034121893
-0.020305477
0.0041900553
0.016677332
0.014177835
0.011912786
-0.23522626
-0.31109504
-0.32512538
-0.24068439
-0.15538654
-0.086626834
-0.04403739
-0.012268731
0.0092250435
0.025211302
0.026232119
0.024765069
0.019012663
0.011805883
0.0044189963
-0.0019573113
-0.0065953922
-0.0092025459
-0.0098214545
-0.0087551373
-0.0063961845
-0.0031313452
0.00067859429
0.0046799534
0.0085458979
0.01211508
0.015454108
0.01882771
0.021605073
0.023907111
0.025778289
0.027311615
0.028560534
0.029585063
0.030411837
0.031091277
0.031632509
0.032063083
0.032417401
-0.21594915
-0.15531243
-0.12039066
-0.1092772
-0.12378971
-0.15946216
-0.2144757
-0.21146381
-0.16316392
-0.10199381
-0.044474744
-0.0045083945
0.011889094
0.024100346
0.029385209
0.015056076
-0.011792379
-0.024423348
-0.025141406
-0.013819642
0.0048587622
0.014675736
0.011861578
0.0097036746
-0.28877079
-0.31941931
-0.26006393
-0.17758067
-0.11055958
-0.065683158
-0.032059949
-0.0047875737
0.010319827
0.019680232
0.019277848
0.015316984
0.0085997568
0.0011904951
-0.0056432385
-0.010931558
-0.014138966
-0.015217545
-0.014398245
-0.012073582
-0.008645185
-0.0045064407
-7.1006176e-05
0.0042673515
0.0083092851
0.012162284
0.016144663
0.019435374
0.022169085
0.024392396
0.026213352
0.027703846
0.028918999
0.029915867
0.030719657
0.031381873
0.031908302
0.032330463
0.032676822
-0.26020259
-0.19220964
-0.13941488
-0.10946358
-0.10147287
-0.11765524
-0.15111483
-0.19842894
-0.19553882
-0.15324135
-0.094697957
-0.038670515
0.00086028288
0.016664232
0.02720176
0.032303685
0.018193005
-0.0075508458
-0.016078968
-0.01706103
-0.0084239593
0.0053247358
0.012678724
0.009949366
0.0076522872
-0.30150528
-0.26573123
-0.19075739
-0.13113161
-0.08776096
-0.053124708
-0.024907027
-0.0028036477
0.0078867678
0.012893044
0.0097335277
0.0043305091
-0.0029450337
-0.010075923
-0.015927257
-0.01976943
-0.02132017
-0.020780777
-0.018509741
-0.014920685
-0.01043685
-0.0055358813
-0.00069037167
0.0038667622
0.0082767819
0.012990027
0.016866771
0.020104047
0.022735091
0.024893443
0.026659018
0.028105898
0.029284937
0.030252579
0.031031965
0.031676913
0.032186585
0.032599954
0.032937979
-0.27291576
-0.2265487
-0.16639355
-0.12173016
-0.096657924
-0.090515983
-0.10694323
-0.13869717
-0.17815219
-0.18515097
-0.1398037
-0.087006554
-0.030273197
0.005520303
0.020530433
0.029418048
0.03409673
0.021115067
-0.0029052978
-0.0087061692
-0.010321256
-0.0044575357
0.0056956212
0.010815939
0.0082789214
0.0059391424
-0.25764041
-0.19596944
-0.14620812
-0.10830897
-0.075496189
-0.04630175
-0.02307564
-0.0032037966
0.0026957674
0.0036042441
-0.0015676281
-0.0080396033
-0.015361893
-0.021737105
-0.026160539
-0.028250005
-0.028005701
-0.025805993
-0.022054697
-0.01720376
-0.011801575
-0.0064103917
-0.0012993878
0.0037331593
0.0092831937
0.013850151
0.017665545
0.020770992
0.023318102
0.025405832
0.027115619
0.028516379
0.029657418
0.030594603
0.031349772
0.031974767
0.032467043
0.032871071
0.033200634
-0.23726396
-0.23701953
-0.19132054
-0.13989281
-0.10303103
-0.082366392
-0.077378429
-0.093067727
-0.12353977
-0.15576932
-0.16120906
-0.12816528
-0.074527331
-0.022341891
0.0097925188
0.023557499
0.03074542
0.034481867
0.022700881
0.002364417
-0.0032983287
-0.0050330039
-0.0012438169
0.0058948809
0.0091900075
0.0068294131
0.004564672
-0.19284231
-0.15456786
-0.12568645
-0.097171827
-0.069450508
-0.046928834
-0.024536444
-0.0069684568
-0.0050770159
-0.0079114433
-0.014495952
-0.021577962
-0.028395014
-0.033488422
-0.036073681
-0.036199874
-0.034078183
-0.030157279
-0.024909888
-0.018963414
-0.012984737
-0.0072792352
-0.0015610988
0.0049624573
0.010314289
0.014808685
0.018457106
0.021455296
0.023913271
0.025930342
0.027581543
0.028934106
0.030036078
0.030943578
0.031670786
0.032275093
0.032749034
0.033143453
0.033464542
-0.18165614
-0.2088702
-0.19934922
-0.15658722
-0.11396228
-0.084096118
-0.067149411
-0.063146457
-0.077749298
-0.10778179
-0.13182963
-0.14184175
-0.1113581
-0.062305644
-0.014581872
0.013503831
0.0257339
0.031203909
0.033242791
0.022222021
0.006646791
0.00047641009
-0.0012946283
0.0013059386
0.0059677223
0.0078920441
0.0056140826
0.0034987544
-0.15610876
-0.13743487
-0.11615552
-0.093332723
-0.072659627
-0.047803295
-0.025123892
-0.011829777
-0.015539048
-0.021419026
-0.028950179
-0.036043727
-0.041717203
-0.04499985
-0.045444944
-0.043461328
-0.0393558
-0.033671963
-0.02712744
-0.020512977
-0.014171382
-0.0077006857
-5.1274469e-05
0.0061983297
0.011472794
0.015751649
0.01926681
0.022152327
0.024521534
0.026464986
0.028055463
0.029359087
0.03042344
0.031296184
0.031994677
0.03257701
0.033032153
0.033416712
0.033729469
-0.15113969
-0.16351648
-0.17759597
-0.16238083
-0.12434046
-0.089557595
-0.065708323
-0.051906601
-0.048725493
-0.061727544
-0.091712298
-0.11437137
-0.12052734
-0.094406515
-0.049978296
-0.0073755423
0.016531612
0.027105516
0.031004546
0.03078987
0.021341318
0.0091218573
0.0033388524
0.0014792089
0.0032119464
0.0059502391
0.0068048877
0.0046319159
0.0027020406
-0.14232056
-0.1307488
-0.11619661
-0.10003442
-0.078365919
-0.050127858
-0.026884211
-0.019755099
-0.028370453
-0.036878012
-0.044710593
-0.051115988
-0.054934501
-0.055980514
-0.054065301
-0.049792819
-0.043622939
-0.036412033
-0.02910328
-0.022080994
-0.01478762
-0.0058402064
0.0014296847
0.0076019424
0.012601892
0.016714064
0.020089028
0.022863352
0.025140979
0.027008452
0.028537834
0.029794902
0.030815057
0.031652123
0.032320335
0.03288004
0.033315999
0.033690512
0.033995019
-0.14143539
-0.14030165
-0.14113759
-0.14546759
-0.12813658
-0.095276516
-0.067106145
-0.048319058
-0.037573671
-0.034355211
-0.046649626
-0.077358794
-0.096350973
-0.099742525
-0.077002765
-0.038017559
-0.00096276703
0.018803602
0.027688026
0.030300191
0.028432139
0.020462502