/*--------------------------------*- C++ -*----------------------------------*\
| =========                 |                                                 |
| \\      /  F ield         | OpenFOAM: The Open Source CFD Toolbox           |
|  \\    /   O peration     | Version:  5.0                                   |
|   \\  /    A nd           | Web:      www.OpenFOAM.org                      |
|    \\/     M anipulation  |                                                 |
\*---------------------------------------------------------------------------*/
FoamFile
{
    version     2.0;
    format      ascii;
    class       surfaceScalarField;
    location    "300";
    object      phi;
}
// * * * * * * * * * * * * * * * * * * * * * * * * * * * * * * * * * * * * * //

dimensions      [0 3 -1 0 0 0 0];

internalField   nonuniform List<scalar> 
18180
(
-0.0018969703
-1.3896051
-0.0036922591
-1.2996308
-0.0018472732
-1.3877578
-0.0053766938
-1.2156123
-0.0035968334
-1.2978813
-0.0017625802
-1.3859952
-0.006972251
-1.1371285
-0.0052527596
-1.2139564
-0.0034343307
-1.2962095
-0.0016406615
-1.3843546
-0.0084606411
-1.0637921
-0.0068317691
-1.1355495
-0.0050244916
-1.2123662
-0.0031987535
-1.2946514
-0.0015051569
-1.3828494
-0.0098240453
-0.99526124
-0.0083367036
-1.0622872
-0.0065526104
-1.1340214
-0.0046828472
-1.2108821
-0.0029314874
-1.2932251
-0.0013688053
-1.3814806
-0.011025394
-0.93121555
-0.0097661429
-0.9938318
-0.0080347963
-1.060805
-0.0061149131
-1.1325893
-0.0042866532
-1.2095269
-0.0026598353
-1.2919341
-0.0012496358
-1.380231
-0.012027293
-0.87137968
-0.011111122
-0.92987057
-0.009490751
-0.99237585
-0.0075170567
-1.0594029
-0.0055861436
-1.1312898
-0.0038792338
-1.2083075
-0.0024207449
-1.290763
-0.0011527813
-1.3790782
-0.012798511
-0.8154881
-0.012361153
-0.87012965
-0.010952023
-0.92840929
-0.0089234743
-0.99096943
-0.0068457782
-1.0581432
-0.0050334701
-1.1301356
-0.0035207696
-1.2072075
-0.0022273805
-1.2896884
-0.0010763229
-1.3780019
-0.013221311
-0.76334551
-0.013476691
-0.81437256
-0.012471205
-0.86861047
-0.010390906
-0.92694186
-0.0080906325
-0.98972458
-0.0061269281
-1.0570498
-0.004548878
-1.1291075
-0.0032351769
-1.2061997
-0.0020786858
-1.288686
-0.0010128403
-1.376989
-0.013185786
-0.71470552
-0.014509764
-0.76231243
-0.014148787
-0.81269498
-0.011988063
-0.86701331
-0.0093574478
-0.92567505
-0.0071645371
-0.98868697
-0.0055020056
-1.0560967
-0.0041726814
-1.12817
-0.0030224684
-1.2052559
-0.001960173
-1.2877387
-0.00095486886
-1.3760342
-0.012590538
-0.66945508
-0.015628598
-0.71358668
-0.016139536
-0.76032168
-0.013826722
-0.81085632
-0.010685932
-0.86568483
-0.0081491479
-0.92469044
-0.0063666394
-0.98782233
-0.0050364158
-1.0552329
-0.0039062908
-1.1272861
-0.0028581745
-1.2043579
-0.0018543351
-1.2868392
-0.00089668011
-1.3751375
-0.011309997
-0.62740455
-0.016933645
-0.66815003
-0.018453996
-0.71127222
-0.015967017
-0.75818139
-0.012123338
-0.80941891
-0.0090812359
-0.86475274
-0.0071199951
-0.92393708
-0.0058066274
-0.98705212
-0.0047303977
-1.0544088
-0.0037099031
-1.1264344
-0.0027120803
-1.2035002
-0.0017463209
-1.2859896
-0.00083421697
-1.3743033
-0.0092583715
-0.58830901
-0.018409287
-0.6259289
-0.021209699
-0.66539433
-0.018489427
-0.70874981
-0.013704658
-0.75660007
-0.0099378764
-0.80856227
-0.0077291333
-0.8641436
-0.0064511304
-0.92329258
-0.0054789507
-0.98630357
-0.004519858
-1.0535989
-0.0035364676
-1.12561
-0.002559625
-1.2026869
-0.0016263607
-1.2851974
-0.00076521045
-1.3735381
-0.0063717373
-0.55196341
-0.020022949
-0.58669535
-0.02467103
-0.62246757
-0.021590278
-0.66229348
-0.015506083
-0.70694839
-0.010676489
-0.75586145
-0.0081348341
-0.80815657
-0.0069226568
-0.86367207
-0.0061238204
-0.92264771
-0.0052819609
-0.98554146
-0.0043370424
-1.0527983
-0.0033494328
-1.1248202
-0.0023855854
-1.2019277
-0.0014905926
-1.284472
-0.00069004037
-1.372848
-0.0026606714
-0.51807011
-0.021793034
-0.55019333
-0.02908448
-0.5822819
-0.025486167
-0.61857168
-0.017616426
-0.66018313
-0.011295089
-0.70632979
-0.0082174228
-0.75577887
-0.0071328091
-0.80794642
-0.0066164399
-0.86317945
-0.0059789354
-0.92195073
-0.0051215923
-0.98475691
-0.0041321779
-1.0520155
-0.0031262374
-1.1240796
-0.0021841459
-1.2012341
-0.001341212
-1.2838209
-0.00061185925
-1.3722362
0.0019662809
-0.48640533
-0.02374245
-0.5161207
-0.034680256
-0.54459755
-0.030398333
-0.57736973
-0.020136055
-0.61605206
-0.011757581
-0.65972064
-0.00788357
-0.70666364
-0.0069673531
-0.75594432
-0.0068660714
-0.80769678
-0.0065705104
-0.86258788
-0.0058955406
-0.92117678
-0.0049277492
-0.98396134
-0.0038698599
-1.0512719
-0.0028590683
-1.1234046
-0.0019594337
-1.2006159
-0.001185221
-1.2832475
-0.00053525684
-1.3717009
0.0077228213
-0.45704493
-0.025972347
-0.48417543
-0.041700822
-0.50910013
-0.036542004
-0.53845388
-0.023181843
-0.57432394
-0.012021353
-0.61578828
-0.0070157638
-0.66058845
-0.0062635931
-0.7073674
-0.0068536595
-0.75595673
-0.0070363924
-0.8072309
-0.0066637241
-0.86181969
-0.0057688707
-0.92033566
-0.0046430402
-0.98318816
-0.0035356115
-1.0505954
-0.0025545559
-1.1228095
-0.001723215
-1.2000779
-0.0010319449
-1.2827508
-0.00046449238
-1.3712364
0.015145475
-0.4304972
-0.028243073
-0.4547742
-0.050261928
-0.47561433
-0.044064777
-0.50157736
-0.026862077
-0.53477365
-0.012044935
-0.57430036
-0.0054632523
-0.61734079
-0.004872583
-0.66197946
-0.0064278207
-0.70779324
-0.0074185664
-0.75557456
-0.0074848916
-0.80640974
-0.0067075748
-0.86088099
-0.0054912136
-0.91948749
-0.004241275
-0.9824825
-0.0031406211
-1.0500093
-0.0022304441
-1.1223023
-0.0014905894
-1.1996192
-0.00089024699
-1.282325
-0.0004025857
-1.3708338
0.024226468
-0.40644911
-0.029822276
-0.42891799
-0.06036801
-0.44466812
-0.053071801
-0.46660731
-0.031225842
-0.49721359
-0.011777611
-0.53504097
-0.003053504
-0.57671011
-0.0025976801
-0.6196157
-0.0054089579
-0.66299832
-0.0076700574
-0.70754175
-0.0083821323
-0.75467732
-0.0078238621
-0.80529345
-0.0064827331
-0.85988947
-0.0050158528
-0.91871291
-0.0037388679
-0.98188425
-0.0027134856
-1.0495263
-0.0019095205
-1.1218834
-0.0012756026
-1.1992339
-0.00076660203
-1.281961
-0.0003513456
-1.3704825
0.033394443
-0.38224382
-0.029542442
-0.40672894
-0.072001039
-0.41728496
-0.063872324
-0.4338676
-0.036359005
-0.46147414
-0.011170548
-0.49782065
0.00040492616
-0.5384994
0.00078872698
-0.58009651
-0.0036191325
-0.62140552
-0.0076763786
-0.662992
-0.0093961053
-0.70652777
-0.0091596452
-0.75334154
-0.0076884444
-0.80408774
-0.0059179119
-0.85898741
-0.0043775005
-0.91807428
-0.0031823993
-0.98141534
-0.0022883952
-1.0491474
-0.0016128466
-1.1215461
-0.0010883948
-1.1989121
-0.00066447758
-1.2816479
-0.00031157464
-1.3701709
0.042912326
-0.35715219
-0.027279222
-0.38450704
-0.085415714
-0.39331427
-0.077143802
-0.40401349
-0.042707767
-0.42751883
-0.010151691
-0.462493
0.0051131411
-0.50252887
0.0055486469
-0.54325932
-0.00084497843
-0.58287067
-0.0073237165
-0.62175819
-0.010583936
-0.66180417
-0.010834324
-0.7048531
-0.0091916202
-0.75183836
-0.0070078907
-0.80299776
-0.0050934132
-0.8582715
-0.0036523916
-0.91760429
-0.0026267027
-0.98107703
-0.0018965935
-1.0488636
-0.0013558284
-1.1212787
-0.00093426032
-1.1986423
-0.00058461348
-1.2813749
-0.00028293685
-1.369888
0.052548386
-0.33227792
-0.024594056
-0.35983736
-0.09910835
-0.3708144
-0.09372258
-0.37673549
-0.05128684
-0.39543441
-0.0087908717
-0.42887965
0.011246623
-0.46862648
0.011921333
-0.50890156
0.003152652
-0.54725695
-0.0064867268
-0.58370766
-0.011985342
-0.62035678
-0.013004441
-0.65963405
-0.011144679
-0.70290004
-0.0083759151
-0.75047034
-0.0059295621
-0.80216161
-0.0041368295
-0.85778706
-0.0029251903
-0.9173058
-0.0021184161
-0.98085521
-0.0015609057
-1.0486586
-0.0011468893
-1.121066
-0.00081418923
-1.1984127
-0.00052564727
-1.2811322
-0.00026367072
-1.3696243
0.061610892
-0.30712793
-0.023478291
-0.33339369
-0.11300969
-0.34593602
-0.11387281
-0.35066417
-0.062962744
-0.36505959
-0.0074557937
-0.39676949
0.018995789
-0.43662882
0.020156413
-0.47686156
0.0086455871
-0.51439449
-0.0050231317
-0.54872055
-0.013647024
-0.58204598
-0.015852204
-0.61750902
-0.013732032
-0.6570467
-0.010144582
-0.70113137
-0.0069443217
-0.74945558
-0.0046511141
-0.80164733
-0.0031763271
-0.85753593
-0.0022659582
-0.91715826
-0.0016902559
-0.98072586
-0.0012936038
-1.0485119
-0.00098759272
-1.1208926
-0.0007261589
-1.1982122
-0.00048475156
-1.2809111
-0.00025095456
-1.3693733
0.069920771
-0.28228179
-0.023685237
-0.30692098
-0.12775137
-0.31865201
-0.13495165
-0.32485718
-0.077467339
-0.33615957
-0.0064544803
-0.3660609
0.028582989
-0.40635669
0.030487471
-0.44695988
0.01590806
-0.48412404
-0.0027626951
-0.51665493
-0.015631369
-0.5467362
-0.01960294
-0.57829524
-0.017184221
-0.61405683
-0.012466831
-0.65472445
-0.0082066725
-0.69986902
-0.0052120647
-0.74889463
-0.0033674472
-0.80145621
-0.002315827
-0.85748606
-0.0017229542
-0.91712556
-0.001358449
-0.98066101
-0.0010964625
-1.048403
-0.0008738267
-1.120745
-0.00066620619
-1.1980308
-0.00045820021
-1.2807038
-0.00024201269
-1.3691313
0.077343935
-0.25832703
-0.024038827
-0.2819282
-0.1422797
-0.29239266
-0.15408122
-0.29952243
-0.09305081
-0.30927371
-0.0056887629
-0.33692529
0.040174172
-0.37765208
0.043132287
-0.41900151
0.025168169
-0.45621998
0.00048177997
-0.48736851
-0.017995319
-0.51429098
-0.024525672
-0.54181347
-0.021769819
-0.57370964
-0.015526588
-0.61099707
-0.009802225
-0.6531289
-0.0058351779
-0.69924591
-0.003478639
-0.74878344
-0.0022344833
-0.80153755
-0.0016262439
-0.85758277
-0.0013179657
-0.91716604
-0.0011236959
-0.98063378
-0.00096244441
-1.0483144
-0.00079822338
-1.120613
-0.00062888832
-1.1978601
-0.00044210844
-1.2805037
-0.00023537294
-1.368896
0.083923739
-0.23576728
-0.024579952
-0.2577859
-0.1563561
-0.2678518
-0.17104842
-0.27542546
-0.10793048
-0.28464277
-0.0053716468
-0.30959083
0.053667702
-0.35041882
0.058158719
-0.39267852
0.036485758
-0.4303191
0.0048488412
-0.46058705
-0.020816984
-0.48454685
-0.030930874
-0.50788578
-0.027793069
-0.53579022
-0.019523365
-0.56971286
-0.011825192
-0.6089741
-0.0065346808
-0.65242939
-0.0034804292
-0.69924412
-0.0019749598
-0.74904296
-0.0013546102
-0.80180918
-0.001137001
-0.85776373
-0.0010486165
-0.91724112
-0.00097512043
-0.98062111
-0.0008788652
-1.0482337
-0.0007526338
-1.1204892
-0.00060799602
-1.1976942
-0.00043342285
-1.2803057
-0.00023103876
-1.3686649
0.08975295
-0.21480051
-0.025226985
-0.23512025
-0.16981693
-0.24432507
-0.18700665
-0.25189357
-0.12186112
-0.26149481
-0.0059292014
-0.28408521
0.068601672
-0.3245248
0.075359552
-0.36761965
0.049746744
-0.4059395
0.010260515
-0.43573077
-0.024313616
-0.45709041
-0.03919423
-0.47628349
-0.035597063
-0.50008178
-0.024675473
-0.53063811
-0.014374201
-0.56716386
-0.0073194615
-0.60818932
-0.0033306879
-0.65257913
-0.0014748713
-0.6997442
-0.00084593509
-0.74955163
-0.00076704628
-0.80217914
-0.00084022771
-0.85797212
-0.00089627271
-0.91731997
-0.00089423808
-0.98060573
-0.00083130336
-1.0481551
-0.00072906091
-1.1203681
-0.00059811788
-1.1975295
-0.00043017825
-1.2801065
-0.00022922982
-1.3684357
0.09492267
-0.19547873
-0.025900963
-0.21412654
-0.18249986
-0.22243732
-0.20168687
-0.22964485
-0.13450762
-0.23924708
-0.0070652892
-0.26035872
0.084395609
-0.29987915
0.094507462
-0.34367271
0.064955805
-0.38282871
0.016671682
-0.41235067
-0.028892296
-0.43115209
-0.049788468
-0.44649618
-0.045549443
-0.46633111
-0.031217259
-0.49354
-0.017544271
-0.52746804
-0.0081929188
-0.5662904
-0.0029745742
-0.60854544
-0.00065478496
-0.65339922
-1.9278932e-05
-0.70057086
-0.0001423165
-0.75017636
-0.00045511886
-0.80256425
-0.00070450595
-0.85816389
-0.00083378675
-0.91738042
-0.00085870692
-0.98057833
-0.00080660931
-1.0480775
-0.00072038232
-1.1202459
-0.00059593888
-1.1973637
-0.00043043066
-1.2799053
-0.00022925457
-1.3682064
0.099499699
-0.177785
-0.026521836
-0.19485786
-0.1943281
-0.20229829
-0.21509236
-0.20903183
-0.14560765
-0.21854481
-0.007850209
-0.23846216
0.10058429
-0.2765474
0.11547857
-0.32085026
0.082422494
-0.3611394
0.024737721
-0.39089475
-0.034451837
-0.40679113
-0.063121212
-0.41781935
-0.057945388
-0.43410023
-0.039366012
-0.45818236
-0.021415917
-0.48966835
-0.0091434888
-0.52651747
-0.0023457271
-0.56691925
0.00058141681
-0.60978164
0.0012256721
-0.65464417
0.0008222801
-0.70153546
0.00016571513
-0.7507972
-0.00036752338
-0.80290123
-0.00068758773
-0.85831009
-0.00083042495
-0.9174087
-0.00084750487
-0.98053743
-0.00080304118
-1.0479949
-0.00072363521
-1.1201182
-0.00059855517
-1.1971956
-0.00043196855
-1.2797026
-0.00022987642
-1.3679766
0.10248755
-0.18937888
-0.026987367
-0.17731946
-0.20524521
-0.18394076
-0.22727073
-0.19011993
-0.15527878
-0.19936069
-0.0079973677
-0.21839766
0.11676759
-0.25464546
0.13757125
-0.29864008
0.10212697
-0.34055474
0.035578991
-0.37198067
-0.039541747
-0.38580484
-0.078802058
-0.39111028
-0.072864056
-0.40290068
-0.049194671
-0.42427157
-0.026034201
-0.45356407
-0.010133453
-0.48867839
-0.0013635618
-0.52749964
0.0023452273
-0.56868306
0.0030083121
-0.61156428
0.0022323803
-0.65605427
0.0010991649
-0.70246891
0.00015855845
-0.75132328
-0.00043904617
-0.80314977
-0.00074466968
-0.85839584
-0.00085514123
-0.91740107
-0.00085737688
-0.9804831
-0.00081650326
-1.047902
-0.00073160177
-1.1199851
-0.00060154966
-1.197026
-0.00043316782
-1.2794993
-0.0002301431
-1.3677464
0.10561701
-0.18350183
-0.02701975
-0.1893465
-0.2152439
-0.16732078
-0.23823488
-0.17297661
-0.16366725
-0.18173147
-0.0074200406
-0.19993802
0.13257379
-0.23420385
0.15977883
-0.27685303
0.12259919
-0.3191123
0.048984244
-0.35395999
-0.042601689
-0.36892073
-0.09555055
-0.36905635
-0.090235225
-0.37373911
-0.060591934
-0.39150342
-0.031329718
-0.41897606
-0.011090102
-0.45260742
6.9778535e-05
-0.49011173
0.0047567374
-0.52991115
0.0054631419
-0.57113789
0.0042133305
-0.61354523
0.0024404942
-0.6573956
0.00093055131
-0.7032409
-6.5188876e-05
-0.75169714
-0.00060261751
-0.80329182
-0.00083382708
-0.85841716
-0.00089378767
-0.91736466
-0.00088246436
-0.98041714
-0.00083125786
-1.0478023
-0.00073535695
-1.1198513
-0.00060297469
-1.1968562
-0.00043344094
-1.279296
-0.0002296337
-1.3675168
0.10880168
-0.17745573
-0.026201731
-0.18431985
-0.22420238
-0.18038802
-0.24804802
-0.15750763
-0.17090922
-0.16573463
-0.0062243619
-0.18292715
0.14779139
-0.21515563
0.18133034
-0.25575536
0.14297864
-0.29723248
0.062268288
-0.33239635
-0.043228509
-0.35333317
-0.11265631
-0.35181496
-0.11011655
-0.34917503
-0.074009168
-0.36032188
-0.0370994
-0.38573373
-0.01188907
-0.41817709
0.0020711459
-0.45460879
0.0079414582
-0.49329645
0.0087344942
-0.5331825
0.0069083369
-0.57383289
0.0043060301
-0.61541077
0.002022381
-0.65848743
0.00046508455
-0.70377117
-0.00040407382
-0.75189568
-0.00079859268
-0.80332706
-0.00092773293
-0.85838321
-0.00093941323
-0.91730771
-0.00090704005
-0.98034135
-0.00083773933
-1.0476999
-0.00073809993
-1.1197162
-0.00060388067
-1.1966858
-0.00043242439
-1.2790932
-0.00022827737
-1.3672885
0.1120315
-0.17137309
-0.024863099
-0.17879436
-0.23222093
-0.1763013
-0.25827655
-0.17015949
-0.17714451
-0.15127235
-0.0046554847
-0.16730351
0.16228086
-0.19741661
0.20172878
-0.23555407
0.16285139
-0.27562811
0.075333655
-0.31029785
-0.041768455
-0.3338564
-0.13013459
-0.3358549
-0.13259487
-0.32933664
-0.0909114
-0.3322728
-0.043616111
-0.35380517
-0.012324164
-0.38529864
0.0047708462
-0.42087679
0.012023493
-0.45869083
0.012967166
-0.49752912
0.010473099
-0.53674726
0.0068315973
-0.57635846
0.0035252959
-0.61691368
0.0011936504
-0.659216
-0.00014613871
-0.70402911
-0.00076922277
-0.75192505
-0.0009829634
-0.80327183
-0.0010112659
-0.85831136
-0.00097748102
-0.91723727
-0.00091916456
-0.98025993
-0.00084143117
-1.0475966
-0.00073985008
-1.1195802
-0.00060244868
-1.1965158
-0.00042983011
-1.2788917
-0.00022615584
-1.3670623
0.11523926
-0.16544752
-0.023230986
-0.1730052
-0.23912703
-0.17188826
-0.26738418
-0.16719367
-0.18710053
-0.16020347
-0.0027838513
-0.15314398
0.17586512
-0.18088777
0.22074135
-0.21642918
0.18172175
-0.25442443
0.088104313
-0.28839877
-0.041083718
-0.31098259
-0.146659
-0.31733199
-0.1574959
-0.31095388
-0.11206212
-0.30818592
-0.052332803
-0.32355611
-0.012241386
-0.35388795
0.0083155543
-0.38884335
0.017115929
-0.42596923
0.018295811
-0.46401947
0.015067137
-0.50212316
0.010170099
-0.54008576
0.0055500744
-0.57838324
0.0021742544
-0.61789428
0.00017619083
-0.65953833
-0.00076982504
-0.70402851
-0.0010930833
-0.75181493
-0.0011277761
-0.80315532
-0.0010683062
-0.85822053
-0.00099463722
-0.91716179
-0.00092153916
-0.98017982
-0.00084155408
-1.0474949
-0.00073704043
-1.1194456
-0.00059845989
-1.1963471
-0.00042584221
-1.278692
-0.00022343294
-1.3668389
0.11838537
-0.15990336
-0.021344787
-0.16733372
-0.24469202
-0.16744021
-0.27519344
-0.164079
-0.19602752
-0.15826668
-0.0085960809
-0.15439124
0.18854017
-0.16581903
0.23836166
-0.19850808
0.19927707
-0.23398451
0.10007794
-0.26639805
-0.042242395
-0.28724009
-0.16302023
-0.29462136
-0.18321757
-0.29161031
-0.13619906
-0.28681693
-0.064810123
-0.2957086
-0.011940397
-0.32385709
0.012862284
-0.35843468
0.023305904
-0.39503332
0.024836392
-0.43250981
0.020844151
-0.46979648
0.014486492
-0.50643955
0.0082281548
-0.54276385
0.003475493
-0.57968448
0.00057161803
-0.61828971
-0.00083097011
-0.65947718
-0.0013047354
-0.70381685
-0.0013329916
-0.75160971
-0.0012154913
-0.80300813
-0.0010901507
-0.85812502
-0.00099335434
-0.91708998
-0.00091655159
-0.98010482
-0.00083597657
-1.047396
-0.00073122562
-1.1193129
-0.00059280319
-1.1961802
-0.00042080965
-1.2784946
-0.0002202447
-1.3666187
0.12145269
-0.15487728
-0.019216095
-0.16203205
-0.24885308
-0.16317267
-0.28163016
-0.16100349
-0.20384169
-0.15626484
-0.013822734
-0.15304002
0.19350679
-0.15935786
0.25443057
-0.18188794
0.21534884
-0.21457985
0.11105057
-0.24495714
-0.044159265
-0.26448118
-0.17941132
-0.27084901
-0.20660897
-0.27122996
-0.16049598
-0.2673134
-0.080619583
-0.27100747
-0.012367767
-0.29528123
0.018682999
-0.32967781
0.030681879
-0.36581065
0.03267393
-0.40287086
0.02794187
-0.43960753
0.019951019
-0.47526101
0.011711144
-0.50992254
0.0051848557
-0.54447321
0.0010546747
-0.58016753
-0.00099018088
-0.6181305
-0.0016783506
-0.65910357
-0.0016882377
-0.70346161
-0.0014692644
-0.75135594
-0.001242732
-0.80285555
-0.0010803469
-0.85803803
-0.00097803511
-0.91702849
-0.00090439063
-0.98003641
-0.00082653687
-1.0473007
-0.00072344292
-1.1191822
-0.00058568163
-1.1960153
-0.00041486679
-1.2783
-0.00021674486
-1.3664019
0.12438958
-0.15045331
-0.016910542
-0.15718284
-0.25161914
-0.15926599
-0.28669608
-0.15810675
-0.21048757
-0.15435761
-0.018459064
-0.1516285
0.19848897
-0.1580222
0.26645768
-0.17138498
0.22974271
-0.19628181
0.12080316
-0.22433244
-0.046501503
-0.2426149
-0.19532394
-0.24856856
-0.22713065
-0.25032733
-0.18299715
-0.24872878
-0.098249599
-0.24968338
-0.01447801
-0.26889723
0.025709011
-0.30230724
0.039277633
-0.33827356
0.041845191
-0.37498191
0.036460508
-0.4113895
0.026726528
-0.44638304
0.016168978
-0.47971885
0.0074134606
-0.51215115
0.001649581
-0.54506812
-0.0012908614
-0.57986685
-0.0022886607
-0.61752019
-0.0022723535
-0.65851945
-0.0018960911
-0.70303478
-0.0015024029
-0.75109627
-0.0012162959
-0.8027196
-0.0010457821
-0.85797028
-0.00095176487
-0.91698112
-0.00088681801
-0.97997613
-0.00081445586
-1.0472096
-0.0007136239
-1.1190543
-0.0005772338
-1.1958529
-0.00040838519
-1.2781084
-0.00021309238
-1.3661888
0.12721827
-0.1468473
-0.014321884
-0.15304197
-0.25296901
-0.15583297
-0.29040708
-0.15555499
-0.21592013
-0.15267418
-0.022387011
-0.15042966
0.20330006
-0.15643959
0.2783179
-0.16988242
0.24477657
-0.18641884
0.12934703
-0.20482568
-0.049197483
-0.22163646
-0.21060336
-0.22733549
-0.24602134
-0.22967787
-0.20328507
-0.23003942
-0.11637807
-0.2306003
-0.019021238
-0.24514015
0.033360824
-0.27654904
0.049290352
-0.31231996
0.052290017
-0.34871839
0.046450357
-0.38497176
0.034953487
-0.41961646
0.021785673
-0.45199973
0.010297883
-0.48260327
0.002396132
-0.5128977
-0.0017793566
-0.54457962
-0.0032277738
-0.57892774
-0.0031844508
-0.61660809
-0.002581791
-0.65783375
-0.0019344316
-0.70260275
-0.001446382
-0.75086618
-0.0011477625
-0.80261762
-0.0009932396
-0.8579288
-0.00091803364
-0.9169499
-0.00086618546
-0.9799244
-0.0008003958
-1.0471229
-0.00070254329
-1.118929
-0.0005683078
-1.195693
-0.00040168917
-1.2779198
-0.00020943255
-1.3659794
-0.14423012
0.12997444
-0.011408615
-0.14976057
-0.2529394
-0.15307157
-0.29279604
-0.153444
-0.22014315
-0.15133197
-0.025492639
-0.14956855
0.20791421
-0.15504382
0.28972335
-0.16784504
0.25926233
-0.18436819
0.14542064
-0.20249244
-0.051788754
-0.20223441
-0.2249086
-0.20733121
-0.26348865
-0.20986818
-0.22166584
-0.2112971
-0.13369708
-0.21272041
-0.025871155
-0.22375039
0.040697532
-0.25247686
0.060647773
-0.28790647
0.063964452
-0.32399439
0.057908345
-0.36017638
0.044746313
-0.39476459
0.028754754
-0.42658554
0.014009996
-0.45571184
0.0033560516
-0.48356319
-0.0025057636
-0.51217129
-0.0046087577
-0.54319864
-0.0045480144
-0.57756418
-0.0036345513
-0.61555533
-0.0026224032
-0.65714578
-0.0018294092
-0.70221973
-0.001321727
-0.75069222
-0.0010502933
-0.80256057
-0.00093038839
-0.85791645
-0.00088122067
-0.91693487
-0.00084436548
-0.97988043
-0.00078555881
-1.0470399
-0.00069118968
-1.1188061
-0.00055919125
-1.1955355
-0.00039500364
-1.2777342
-0.00020586433
-1.3657735
-0.14742653
-0.0082122065
-0.14261599
0.1326569
-0.25159007
-0.1511099
-0.29397602
-0.15189159
-0.2232251
-0.15036205
-0.027857291
-0.14896732
0.21249808
-0.15415242
0.30027673
-0.1655972
0.27294505
-0.18152775
0.16077284
-0.19972039
-0.04084569
-0.21343551
-0.23812784
-0.18901517
-0.27946343
-0.19135643
-0.23823863
-0.19329539
-0.14940134
-0.19559284
-0.034132697
-0.20445887
0.047091616
-0.23014447
0.073113861
-0.26494295
0.076792997
-0.30073501
0.070765645
-0.33685169
0.056192584
-0.37162265
0.037276717
-0.40328655
0.018757566
-0.43133311
0.0046215635
-0.45697735
-0.0035123393
-0.48255661
-0.0065624119
-0.51021764
-0.0065133939
-0.54123326
-0.0051875112
-0.57601122
-0.0036698812
-0.61450786
-0.0024393551
-0.65653583
-0.0016163313
-0.70192512
-0.0011522212
-0.75059029
-0.00093877139
-0.80255218
-0.00086534645
-0.85793232
-0.0008443565
-0.91693488
-0.00082263427
-0.97984335
-0.00077093832
-1.0469601
-0.00067992787
-1.1186854
-0.00055024306
-1.1953803
-0.00038855992
-1.2775515
-0.00020247511
-1.3655711
-0.1498758
-0.24914079
-0.14613407
-0.0046941307
-0.14232594
0.13518364
-0.29414345
-0.15094248
-0.22528693
-0.14982976
-0.029506642
-0.1487127
0.21704164
-0.15351088
0.30969033
-0.16356601
0.28538477
-0.17803692
0.1751691
-0.19592401
-0.029382648
-0.21118344
-0.24019215
-0.2113712
-0.29416681
-0.1743118
-0.25301672
-0.17657833
-0.16325874
-0.17943798
-0.04274355
-0.18698199
0.052323279
-0.20969053
0.086350423
-0.24338103
0.090700821
-0.27885077
0.084876724
-0.31484609
0.069319552
-0.34997866
0.047544874
-0.3818908
0.024790946
-0.40931993
0.0063329658
-0.43304451
-0.004837833
-0.45565186
-0.0092409393
-0.47987808
-0.009263161
-0.50746787
-0.00740136
-0.53901941
-0.0052019372
-0.57447916
-0.0033660543
-0.61358116
-0.002091386
-0.65606078
-0.0013351773
-0.70174217
-0.00096245021
-0.75056661
-0.00082582976
-0.8025917
-0.00080185919
-0.85797482
-0.00080933769
-0.91694817
-0.00080218918
-0.9798121
-0.00075713868
-1.0468829
-0.00066925707
-1.1185664
-0.00054182978
-1.195227
-0.00038250378
-1.2773715
-0.00019931142
-1.3653717
-0.1505951
-0.29342415
-0.14978064
-0.24549423
-0.14580375
-0.0012163256
-0.14287725
0.13764086
-0.22648408
-0.14974533
-0.030307127
-0.14902928
0.22143245
-0.15310351
0.31795558
-0.16177614
0.29607235
-0.1742536
0.18801944
-0.19088725
-0.018386839
-0.20691982
-0.24075623
-0.21061935
-0.30572149
-0.19981651
-0.26611575
-0.16121277
-0.17538326
-0.16445381
-0.050988191
-0.17119334
0.056485747
-0.19114445
0.09990382
-0.22324393
0.10559027
-0.25827048
0.10006407
-0.29403812
0.084091372
-0.32961791
0.059732143
-0.36216593
0.032394738
-0.3894946
0.0086773366
-0.4116643
-0.0065050485
-0.43137729
-0.012825738
-0.45206706
-0.013019669
-0.47612158
-0.010468394
-0.50440083
-0.0073657949
-0.53685555
-0.0047146227
-0.57313059
-0.0028174719
-0.61285507
-0.0016421413
-0.65575382
-0.0010243063
-0.70168031
-0.00077189248
-0.75062055
-0.00071769457
-0.80267586
-0.00074285821
-0.8580413
-0.00077822907
-0.91697213
-0.00078411122
-0.97978513
-0.00074481265
-1.0468073
-0.00065966859
-1.1184485
-0.00053410534
-1.1950754
-0.0003769181
-1.2771939
-0.00019639
-1.3651754
-0.15052579
-0.22655339
-0.15168814
-0.29151665
-0.15026502
-0.24103296
-0.14632819
0.0022346143
-0.1443127
0.13978152
-0.030064291
-0.14998817
0.22568528
-0.1532821
0.32512754
-0.16027546
0.30479964
-0.17050342
0.19905944
-0.18529359
-0.0079801697
-0.20129392
-0.24000588
-0.20767018
-0.31603568
-0.20030516
-0.28265044
-0.18328181
-0.18603711
-0.15055893
-0.058502717
-0.15693928
0.059681923
-0.17438952
0.11335619
-0.20459682
0.12126496
-0.23891862
0.1161379
-0.27434431
0.10040226
-0.31034901
0.073987822
-0.34387359
0.04188918
-0.37166037
0.011903338
-0.3927206
-0.0085169044
-0.40965244
-0.017514757
-0.42668828
-0.018044313
-0.44704242
-0.014615964
-0.471974
-0.010331533
-0.5014351
-0.0066043711
-0.5349658
-0.0038742522
-0.57207381
-0.0021221914
-0.61237502
-0.0011504836
-0.65562764
-0.00071413652
-0.70173807
-0.00059227198
-0.75074597
-0.00061881803
-0.8027999
-0.00069230305
-0.85812723
-0.0007525037
-0.91700374
-0.00076932934
-0.97976061
-0.00073455966
-1.0467325
-0.00065133324
-1.1183313
-0.00052719749
-1.1949251
-0.00037184608
-1.2770184
-0.00019371664
-1.3649816
-0.1519524
-0.02863768
-0.15289353
-0.225348
-0.1532523
-0.28852937
-0.15141068
-0.23595048
-0.14748891
0.0054108155
-0.14648362
0.14140689
0.22994055
-0.15424344
0.3310467
-0.15920127
0.3116297
-0.16710553
0.20792385
-0.17936784
0.0015996639
-0.19487343
-0.23776801
-0.20353179
-0.32496136
-0.1987445
-0.29763057
-0.18532504
-0.20672281
-0.16259611
-0.065169051
-0.14389259
0.062096887
-0.15935425
0.12637119
-0.18740453
0.13743417
-0.22076603
0.13288365
-0.25566437
0.11803886
-0.29198091
0.090345151
-0.32670634
0.053560731
-0.35554514
0.016328971
-0.37608601
-0.010833462
-0.39040404
-0.023548464
-0.40361874
-0.02465589
-0.4200767
-0.020107176
-0.44155121
-0.014289876
-0.46801566
-0.0091665131
-0.49887295
-0.0053474735
-0.53349258
-0.0028282118
-0.57136779
-0.0013690371
-0.61215647
-0.00066310265
-0.65567867
-0.00042490691
-0.70190543
-0.00043057752
-0.75093421
-0.00053523278
-0.80295697
-0.00065245996
-0.85822727
-0.00073313637
-0.91703993
-0.00075839566
-0.97973678
-0.00072651457
-1.0466573
-0.00064433045
-1.1182142
-0.00052113435
-1.1947758
-0.0003672759
-1.2768449
-0.00019126615
-1.3647904
-0.15605123
0.23403938
-0.15487845
-0.026652759
-0.15591528
-0.22268502
-0.15552612
-0.28441392
-0.15313203
-0.23030735
-0.14916252
0.0080897104
-0.14919819
0.14245381
0.3355009
-0.15869764
0.3166054
-0.16417696
0.21447695
-0.17365862
0.0098679834
-0.18763616
-0.23460479
-0.19803664
-0.33248541
-0.19600774
-0.31089714
-0.18547793
-0.2257893
-0.16625855
-0.087420139
-0.14034502
0.064183495
-0.1459792
0.1386162
-0.17159926
0.15381473
-0.20378509
0.1500413
-0.23792369
0.13663927
-0.27426477
0.10844327
-0.31007903
0.067326131
-0.34047174
0.02211639
-0.36133256
-0.013378495
-0.37354097
-0.031172088
-0.38278042
-0.033226915
-0.39504771
-0.027252307
-0.41293157
-0.019448187
-0.43639289
-0.01253825
-0.46464392
-0.0073248292
-0.4968956
-0.0038133905
-0.5325074
-0.001707118
-0.57102971
-0.0006277481
-0.61219182
-0.00021227075
-0.65589131
-0.00016797195
-0.70216804
-0.00029451141
-0.75117493
-0.0004707495
-0.80313868
-0.00062417014
-0.85833624
-0.00072057626
-0.91707775
-0.00075138917
-0.9797119
-0.00072072907
-1.0465809
-0.00063871481
-1.1180966
-0.0005158866
-1.1946272
-0.00036316739
-1.2766729
-0.00018901256
-1.3646014
-0.15890259
0.33835226
-0.15795771
0.23711864
-0.15891711
-0.023650926
-0.1597648
-0.21844634
-0.15849488
-0.27905107
-0.15547721
-0.22399266
-0.15142853
0.010320046
-0.15236122
0.14289007
0.31971608
-0.16180832
0.21857761
-0.16827762
0.016411132
-0.18020177
-0.23072174
-0.19151921
-0.33846994
-0.19205211
-0.32244251
-0.18446238
-0.24325887
-0.16800836
-0.10865718
-0.14502151
0.049588575
-0.1257501
0.150367
-0.15773
0.17006693
-0.18785145
0.16729219
-0.22103598
0.15566549
-0.25694991
0.12743348
-0.29325499
0.082374842
-0.32512774
0.028626183
-0.34698153
-0.016568921
-0.35814213
-0.040724121
-0.36398894
-0.04418826
-0.37181907
-0.036403431
-0.38589659
-0.02602522
-0.40635454
-0.016854029
-0.43207712
-0.0098901241
-0.46207863
-0.0051253464
-0.49558364
-0.0021882411
-0.53202628
-0.00061270211
-0.57104476
5.2660925e-05
-0.61245675
0.00018355863
-0.65624284
4.6975493e-05
-0.70250952
-0.00019023465
-0.75145545
-0.00042632288
-0.80333653
-0.00060761422
-0.8584492
-0.0007147454
-0.9171144
-0.00074818477
-0.97968445
-0.00071716522
-1.0465024
-0.00063436249
-1.1179781
-0.00051136613
-1.194479
-0.00035945533
-1.2765025
-0.00018691635
-1.3644144
-0.16010633
0.32091982
-0.15896881
0.33936336
-0.16127762
0.23947916
-0.16371207
-0.019703659
-0.16430532
-0.21263591
-0.16222158
-0.2723067
-0.15848469
-0.21693651
-0.15423431
0.012193135
-0.15596441
0.14262944
0.22026897
-0.16349968
0.0210198
-0.17288629
-0.22635681
-0.1845667
-0.34266946
-0.18731969
-0.33203862
-0.182456
-0.25897211
-0.16874914
-0.12855323
-0.1481123
0.033601789
-0.12903472
0.14997967
-0.12536277
0.18596713
-0.17363021
0.18429401
-0.20485327
0.17447507
-0.23984555
0.14623995
-0.27575638
0.096774035
-0.30765418
0.034617215
-0.33111877
-0.022217827
-0.34133263
-0.053297117
-0.34556914
-0.058098876
-0.35007832
-0.047977514
-0.36024499
-0.034243942
-0.37767787
-0.022232849
-0.40097572
-0.013113597
-0.42885364
-0.0068014131
-0.46040256
-0.0028278445
-0.49494404
-0.00061579293
-0.53202319
0.0003837893
-0.57137589
0.00064486795
-0.61291806
0.00051246853
-0.65670833
0.00021175287
-0.70291151
-0.00011911696
-0.75176265
-0.00040146941
-0.80354268
-0.00060229216
-0.85856165
-0.00071518683
-0.9171474
-0.00074848279
-0.97965313
-0.00071554767
-1.0464212
-0.00063109677