/*--------------------------------*- C++ -*----------------------------------*\
| =========                 |                                                 |
| \\      /  F ield         | OpenFOAM: The Open Source CFD Toolbox           |
|  \\    /   O peration     | Version:  5.0                                   |
|   \\  /    A nd           | Web:      www.OpenFOAM.org                      |
|    \\/     M anipulation  |                                                 |
\*---------------------------------------------------------------------------*/
FoamFile
{
    version     2.0;
    format      ascii;
    class       surfaceScalarField;
    location    "300";
    object      phi_0;
}
// * * * * * * * * * * * * * * * * * * * * * * * * * * * * * * * * * * * * * //

dimensions      [0 3 -1 0 0 0 0];

internalField   nonuniform List<scalar> 
18180
(
-0.0018955258
-1.3895844
-0.0036892644
-1.2996112
-0.0018462212
-1.3877382
-0.0053721017
-1.2155933
-0.0035944037
-1.297863
-0.0017627536
-1.3859754
-0.0069658704
-1.1371097
-0.0052486088
-1.2139391
-0.0034344265
-1.2961913
-0.0016421148
-1.3843333
-0.0084521488
-1.0637728
-0.0068250909
-1.1355332
-0.0050241849
-1.2123493
-0.0032015455
-1.2946319
-0.0015070846
-1.3828262
-0.0098128381
-0.99524024
-0.0083260543
-1.0622718
-0.0065512641
-1.1340061
-0.0046868404
-1.210864
-0.0029354205
-1.2932036
-0.0013703238
-1.3814559
-0.011010493
-0.93119154
-0.0097489654
-0.99381732
-0.0080312517
-1.0607918
-0.006120005
-1.1325729
-0.0042926906
-1.2095068
-0.0026631302
-1.2919108
-0.0012501608
-1.3802058
-0.012006759
-0.87135141
-0.011083211
-0.92985729
-0.0094828677
-0.99236571
-0.0075231085
-1.0593887
-0.0055947048
-1.1312709
-0.0038844773
-1.2082854
-0.0024221185
-1.2907388
-0.0011521719
-1.3790536
-0.012768754
-0.81545405
-0.012316053
-0.87011857
-0.010936023
-0.92840414
-0.0089301798
-0.99095864
-0.0068576997
-1.0581257
-0.005041194
-1.1301142
-0.0035230703
-1.2071845
-0.0022263396
-1.2896646
-0.001074865
-1.3779787
-0.013176337
-0.76330469
-0.013404447
-0.81436566
-0.012441453
-0.86861314
-0.010397813
-0.92693651
-0.0081074545
-0.98970888
-0.0061381036
-1.0570288
-0.0045523995
-1.1290849
-0.0032335583
-1.2061773
-0.0020756527
-1.2886639
-0.0010109896
-1.3769677
-0.013117289
-0.71466027
-0.014395413
-0.76231372
-0.014096396
-0.81271071
-0.01199496
-0.86701599
-0.0093819679
-0.92566199
-0.0071811402
-0.98866585
-0.0055071947
-1.056074
-0.0041702876
-1.1281482
-0.0030175626
-1.2052353
-0.0019561175
-1.2877187
-0.00095305898
-1.3760147
-0.01248578
-0.6694065
-0.01545645
-0.71359923
-0.016055086
-0.76035503
-0.013834832
-0.81087084
-0.010722641
-0.86567532
-0.0081747144
-0.92466842
-0.0063745336
-0.98779851
-0.0050328792
-1.0552114
-0.0038989628
-1.1272668
-0.0028516356
-1.2043398
-0.0018503414
-1.2868214
-0.00089528383
-1.3751194
-0.011151909
-0.62734915
-0.016681894
-0.66818106
-0.018327925
-0.71132639
-0.015979299
-0.75821056
-0.012180498
-0.80941298
-0.0091211833
-0.86472885
-0.0071325208
-0.92391043
-0.0058016348
-0.98702975
-0.004719883
-1.0543905
-0.0037002758
-1.1264181
-0.0027057367
-1.2034844
-0.0017433189
-1.2859734
-0.00083354628
-1.3742858
-0.0090280915
-0.58824396
-0.018043485
-0.62598756
-0.021030874
-0.66547811
-0.018507768
-0.70879792
-0.013793364
-0.7565977
-0.0099999043
-0.80853426
-0.0077494676
-0.8641119
-0.0064445096
-0.92326756
-0.0054641428
-0.98628549
-0.0045063633
-1.0535844
-0.0035272503
-1.1255966
-0.0025549533
-1.2026728
-0.0016249969
-1.285182
-0.00076544029
-1.3735204
-0.0060477818
-0.55188888
-0.019498209
-0.58678923
-0.024425622
-0.62259281
-0.021619004
-0.66236687
-0.015639629
-0.70695166
-0.010773305
-0.7558243
-0.0081676516
-0.80811608
-0.0069145626
-0.86364185
-0.0061033516
-0.92262835
-0.0052631639
-0.98552869
-0.0043241083
-1.0527875
-0.0033427553
-1.1248088
-0.0023835649
-1.2019142
-0.0014911269
-1.2844563
-0.00069112091
-1.3728293
-0.0022187471
-0.51798794
-0.021056081
-0.55033101
-0.028754878
-0.58245998
-0.025534042
-0.61867778
-0.017813925
-0.66019257
-0.011443878
-0.70628109
-0.0082705247
-0.75572142
-0.0071247006
-0.80790594
-0.0065892805
-0.86315592
-0.0059526103
-0.9219389
-0.0051033155
-0.98474948
-0.0041227347
-1.0520076
-0.0031235139
-1.1240688
-0.0021851459
-1.2012202
-0.0013434752
-1.2838039
-0.00061353587
-1.3722158
0.0025593647
-0.48632055
-0.022731442
-0.51631258
-0.034246213
-0.54483968
-0.030477731
-0.57751629
-0.020423109
-0.61606859
-0.01198051
-0.65965594
-0.0079690584
-0.70658255
-0.0069579912
-0.75588813
-0.0068302224
-0.807665
-0.0065330585
-0.86257547
-0.0058687376
-0.92117348
-0.0049142415
-0.98395798
-0.0038661866
-1.0512649
-0.0028607661
-1.1233932
-0.0019631387
-1.2006005
-0.0011886931
-1.2832288
-0.00053719014
-1.3716786
0.0084993898
-0.45694238
-0.024627308
-0.48442468
-0.041143148
-0.50941564
-0.036669388
-0.53864802
-0.023590198
-0.5743492
-0.012347289
-0.61570181
-0.0071481629
-0.66047684
-0.0062548919
-0.70728565
-0.006798696
-0.75591966
-0.0069790244
-0.80721903
-0.0066220862
-0.86182212
-0.0057485654
-0.92033915
-0.0046379027
-0.98318626
-0.0035384913
-1.0505872
-0.0025601925
-1.1227962
-0.0017287725
-1.2000605
-0.0010359347
-1.28273
-0.00046636876
-1.3712122
0.016125137
-0.43033713
-0.026500847
-0.45506884
-0.049564365
-0.47600347
-0.044262021
-0.50182301
-0.027429194
-0.53480902
-0.01251111
-0.57418538
-0.0056609546
-0.61718902
-0.00486738
-0.66186435
-0.0063405371
-0.70774381
-0.0073329667
-0.75556572
-0.0074189964
-0.80642212
-0.0066755642
-0.86089512
-0.0054838845
-0.91949317
-0.0042458878
-0.98247886
-0.0031491551
-1.0499982
-0.0022387433
-1.1222862
-0.0014969032
-1.1995995
-0.00089408655
-1.2823023
-0.00040415473
-1.370808
0.025431141
-0.40621869
-0.027598066
-0.42923991
-0.059506291
-0.44512692
-0.053358133
-0.46690735
-0.031993844
-0.49725836
-0.012430683
-0.53488945
-0.003338943
-0.57650739
-0.0025996393
-0.61945676
-0.0052789553
-0.66292593
-0.0075405358
-0.70753624
-0.0082828215
-0.75470189
-0.0077749018
-0.80532278
-0.0064722436
-0.85990677
-0.0050233364
-0.91871572
-0.003751879
-0.98187614
-0.0027257105
-1.0495112
-0.0019188603
-1.1218642
-0.001281629
-1.199212
-0.00076977523
-1.2819367
-0.00035241423
-1.3704556
0.034780695
-0.38199031
-0.026753966
-0.40706279
-0.070920126
-0.41782607
-0.064247986
-0.43423706
-0.037374754
-0.46152644
-0.012058837
-0.4976302
5.2014879e-06
-0.53823359
0.00077414316
-0.57988117
-0.0034337955
-0.62130192
-0.0074786524
-0.66298781
-0.0092495322
-0.70656953
-0.009086334
-0.75339046
-0.0076741978
-0.80412083
-0.0059304773
-0.85899962
-0.0043972886
-0.91807031
-0.0032005289
-0.98140132
-0.0023019149
-1.0491282
-0.0016216733
-1.1215242
-0.0010933394
-1.1988884
-0.00066666257
-1.2816224
-0.00031202134
-1.3701436
0.044476663
-0.35690115
-0.023916917
-0.38482736
-0.084001067
-0.39398184
-0.077578363
-0.4044957
-0.044021458
-0.42759036
-0.011334152
-0.46225113
0.0045582493
-0.50218325
0.0055142195
-0.54297367
-0.00058884256
-0.58272613
-0.0070281351
-0.62175244
-0.010367356
-0.66186999
-0.01072522
-0.70493064
-0.0091713285
-0.75189333
-0.0070284652
-0.80302284
-0.005123868
-0.85827304
-0.0036794213
-0.91759142
-0.0026462615
-0.98105697
-0.0019091153
-1.0488407
-0.001362919
-1.1212546
-0.00093764604
-1.1986174
-0.00058567792
-1.2813488
-0.00028276754
-1.3698608
0.054272427
-0.33204882
-0.020619915
-0.36019816
-0.097182303
-0.37164612
-0.09417392
-0.37738629
-0.052953723
-0.39556343
-0.01034334
-0.42858117
0.010501706
-0.46819459
0.011861668
-0.5085307
0.0034978038
-0.54706032
-0.0060566934
-0.58369757
-0.011665893
-0.6204539
-0.0128437
-0.65975151
-0.011115739
-0.70298623
-0.0084084318
-0.75051336
-0.0059762218
-0.80217049
-0.0041773853
-0.85777508
-0.0029537838
-0.9172839
-0.0021360448
-0.98083004
-0.0015706287
-1.048633
-0.0011514918
-1.1210408
-0.00081582297
-1.1983873
-0.00052562788
-1.2811059
-0.00026305216
-1.3695978
0.063552319
-0.30698928
-0.018830781
-0.33383795
-0.1105198
-0.34686066
-0.11432449
-0.35149555
-0.06505611
-0.3652839
-0.0094944472
-0.39641232
0.018018964
-0.43609843
0.020058958
-0.47639187
0.0090999901
-0.51413289
-0.00441357
-0.54870344
-0.01318026
-0.5821832
-0.015617163
-0.61768044
-0.013691541
-0.65717571
-0.01019573
-0.70119893
-0.0070154079
-0.74947417
-0.0047119936
-0.80163588
-0.0032184366
-0.85751043
-0.0022910785
-0.91712886
-0.0017034254
-0.98069724
-0.0012994543
-1.0484851
-0.00098948413
-1.1208671
-0.00072606739
-1.1981868
-0.00048382108
-1.2808851
-0.00025013901
-1.3693476
0.072066924
-0.28218433
-0.018401132
-0.30741893
-0.12477518
-0.31958257
-0.1354317
-0.32575344
-0.080083884
-0.33646778
-0.0091351174
-0.36564323
0.027320772
-0.40571413
0.030339059
-0.44637853
0.016491516
-0.4837834
-0.0019201352
-0.51662632
-0.014958507
-0.54692519
-0.019262457
-0.57853791
-0.017129049
-0.61424293
-0.012546536
-0.6548249
-0.0083141738
-0.69990017
-0.0053029645
-0.7488832
-0.0034295473
-0.80142477
-0.0023519627
-0.85744954
-0.0017409406
-0.91709135
-0.0013657734
-0.98063093
-0.00109818
-1.0483764
-0.00087322992
-1.1207199
-0.00066461006
-1.198006
-0.00045661562
-1.2806787
-0.0002411878
-1.3691065
0.079676029
-0.2582719
-0.018134921
-0.28245054
-0.13897544
-0.29321868
-0.1546603
-0.30035397
-0.096204728
-0.3096326
-0.0091566403
-0.33644626
0.038567687
-0.37689014
0.042927494
-0.41830257
0.025903293
-0.45579031
0.0016217581
-0.48732529
-0.017039728
-0.5145451
-0.024040429
-0.54214722
-0.021697908
-0.57396905
-0.015649406
-0.61114006
-0.009963009
-0.65317607
-0.0059694367
-0.6992337
-0.0035697866
-0.74874297
-0.0022866431
-0.80149009
-0.0016510588
-0.85753943
-0.00132702
-0.9171301
-0.0011249114
-0.98060419
-0.00096050583
-1.0482891
-0.00079558091
-1.120589
-0.00062618397
-1.1978365
-0.00044012821
-1.2804797
-0.00023456668
-1.3688719
0.086424038
-0.23574755
-0.018091458
-0.25831536
-0.152781
-0.26864498
-0.1716887
-0.27619027
-0.11152843
-0.28503027
-0.0097070599
-0.30908218
0.051670526
-0.3495491
0.057905939
-0.39186859
0.037407802
-0.42980708
0.0063653566
-0.46053391
-0.01948015
-0.48488487
-0.030251833
-0.5083337
-0.027704709
-0.53614042
-0.019709801
-0.56990865
-0.01206221
-0.60904086
-0.0067303997
-0.6524151
-0.0036128389
-0.69919065
-0.0020500753
-0.74897953
-0.0013891229
-0.80175202
-0.0011481262
-0.85771832
-0.0010486598
-0.91720635
-0.00097089617
-0.9805938
-0.0008742237
-1.0482105
-0.00074846641
-1.1204667
-0.00060464423
-1.1976719
-0.00043123473
-1.2802831
-0.00023018014
-1.3686417
0.092406742
-0.21480701
-0.018198166
-0.23564084
-0.16602284
-0.24507352
-0.18772449
-0.25260919
-0.12582353
-0.26189517
-0.011154067
-0.28358326
0.066156773
-0.32356843
0.075068427
-0.36671158
0.050895534
-0.40535632
0.012243768
-0.43568549
-0.022467377
-0.45754668
-0.038262741
-0.47687396
-0.035495601
-0.5005428
-0.024952655
-0.53089757
-0.01471713
-0.56725373
-0.0076001839
-0.60817108
-0.0035202831
-0.65250766
-0.0015822285
-0.69965849
-0.00089410769
-0.74947455
-0.00078074845
-0.8021194
-0.00083791836
-0.85792906
-0.00088847774
-0.91728877
-0.00088605605
-0.98058197
-0.00082501683
-1.0481339
-0.00072394888
-1.1203474
-0.00059447751
-1.1975087
-0.00042793523
-1.2800853
-0.00022830723
-1.3684134
0.097716189
-0.19550157
-0.018378229
-0.21462694
-0.17852773
-0.22313595
-0.20250676
-0.23029125
-0.13882292
-0.23960979
-0.013168784
-0.25988046
0.08142411
-0.2988506
0.094163406
-0.34266341
0.066335577
-0.38215163
0.019196401
-0.41230895
-0.026389419
-0.43176345
-0.048545451
-0.44726397
-0.045445243
-0.46692432
-0.031621493
-0.49387397
-0.018030776
-0.52758392
-0.0085881729
-0.56626574
-0.0032414217
-0.60844994
-0.00080624895
-0.65328364
-8.6397113e-05
-0.7004662
-0.00015932414
-0.75009597
-0.00044878629
-0.80250853
-0.00069081025
-0.85812673
-0.00082016714
-0.91735466
-0.00084848191
-0.98055851
-0.00079930617
-1.0480585
-0.00071478637
-1.1202271
-0.0005922859
-1.1973443
-0.00042832504
-1.2798853
-0.00022836342
-1.368185
0.10241677
-0.17781357
-0.018552853
-0.19532695
-0.19021011
-0.20294456
-0.21603187
-0.20961084
-0.15026271
-0.21885146
-0.014776651
-0.23800193
0.097019504
-0.27547585
0.11505195
-0.31973915
0.083988708
-0.36031654
0.027814052
-0.39076928
-0.031187705
-0.40751067
-0.061532702
-0.4187762
-0.057867335
-0.43484188
-0.039945636
-0.45860018
-0.022093271
-0.48981147
-0.0096891004
-0.526483
-0.0027143109
-0.56679286
0.00037101964
-0.60962721
0.0011326352
-0.65450267
0.00080093606
-0.70142646
0.00017837734
-0.75072314
-0.00034450395
-0.80285484
-0.00066562884
-0.85828127
-0.00081366257
-0.91738948
-0.0008366077
-0.9805212
-0.00079484933
-1.0479785
-0.00071805379
-1.1201013
-0.00059526958
-1.1971774
-0.00043018348
-1.2796835
-0.0002291381
-1.3679559
0.10549252
-0.18937838
-0.018617364
-0.17774906
-0.20100515
-0.18453192
-0.22833923
-0.1906372
-0.16026211
-0.19961144
-0.015680593
-0.21794752
0.11259005
-0.25357248
0.13705858
-0.29748248
0.10386248
-0.33961292
0.039171525
-0.37167401
-0.035461584
-0.3864954
-0.076857737
-0.39218563
-0.072863221
-0.40378031
-0.050012872
-0.42477464
-0.026960476
-0.45373297
-0.010871485
-0.48862909
-0.0018625822
-0.52733472
0.0020580146
-0.56847985
0.0028807871
-0.61137536
0.0022053764
-0.65590711
0.0011213528
-0.70236944
0.00019577142
-0.75126341
-0.00040419212
-0.80311628
-0.00071817348
-0.85837676
-0.00083787849
-0.91738821
-0.00084574362
-0.98047031
-0.00080844372
-1.0478881
-0.00072700105
-1.1199696
-0.00059891853
-1.1970087
-0.0004318047
-1.2794808
-0.00022963191
-1.3677263
0.10870074
-0.18350293
-0.018283315
-0.18971243
-0.2108978
-0.16785641
-0.23943493
-0.17343622
-0.16896673
-0.18193258
-0.015798657
-0.19949337
0.12780321
-0.23316068
0.15919401
-0.27570791
0.12457546
-0.31819546
0.053081011
-0.3535224
-0.037624171
-0.36951142
-0.093186328
-0.37016681
-0.090320088
-0.37472877
-0.061715361
-0.39207782
-0.032571194
-0.41916392
-0.012068219
-0.45253624
-0.00059157065
-0.4899001
0.0043720763
-0.52964879
0.0052906099
-0.57088967
0.0041786715
-0.61334865
0.0024761362
-0.6572619
0.00098850802
-0.70316218
-1.086499e-05
-0.75165674
-0.00056140924
-0.80327304
-0.00080656252
-0.85840807
-0.00087675397
-0.9173572
-0.00087118787
-0.98040757
-0.00082485908
-1.0477902
-0.00073180788
-1.1198367
-0.00060099957
-1.1968395
-0.00043254288
-1.2792779
-0.00022936992
-1.3674969
0.11195625
-0.17746808
-0.017129197
-0.18465705
-0.219693
-0.18091723
-0.24937571
-0.15791563
-0.17650456
-0.1658984
-0.015235184
-0.18249605
0.14247348
-0.21416364
0.18069158
-0.25465824
0.14522252
-0.29635497
0.066883911
-0.33199836
-0.037265766
-0.35388081
-0.10971878
-0.35297897
-0.11018193
-0.35030497
-0.075469469
-0.36097466
-0.038723537
-0.38592548
-0.013157366
-0.41807478
0.0012140193
-0.45434183
0.0074365575
-0.49296458
0.008504338
-0.53286251
0.0068632004
-0.5735742
0.0043598348
-0.61523235
0.0021096552
-0.65838304
0.00054780345
-0.70372085
-0.00034096128
-0.75187719
-0.00075643366
-0.80332317
-0.00090189751
-0.85838293
-0.00092356715
-0.91730482
-0.00089797801
-0.98033445
-0.00083302552
-1.047689
-0.00073543424
-1.1197023
-0.00060263846
-1.1966694
-0.00043201718
-1.2790752
-0.00022824928
-1.3672686
0.11524345
-0.17140245
-0.01549309
-0.17910419
-0.2275414
-0.17680864
-0.25962533
-0.17066761
-0.18302105
-0.15139913
-0.014238077
-0.16689551
0.15646144
-0.19648401
0.20105649
-0.23452855
0.16533732
-0.27477304
0.080471016
-0.30994208
-0.034869667
-0.33439446
-0.126429
-0.33717059
-0.13248922
-0.33067168
-0.092677954
-0.33309648
-0.04570123
-0.35399697
-0.013930268
-0.38515258
0.0036854011
-0.42054616
0.011374653
-0.45827993
0.012664807
-0.49712505
0.010413437
-0.53641275
0.0069087988
-0.57612317
0.0036526563
-0.61677535
0.0013166363
-0.65915188
-5.117591e-05
-0.70401063
-0.00070535398
-0.75192827
-0.00094399819
-0.80328107
-0.00098869355
-0.8583178
-0.00096502205
-0.91723778
-0.00091291779
-0.98025456
-0.00083817166
-1.0475863
-0.00073840004
-1.1195665
-0.00060202518
-1.1964994
-0.0004298937
-1.2788736
-0.00022633502
-1.3670423
0.11849575
-0.1654896
-0.013610505
-0.17328504
-0.23428708
-0.17235851
-0.26875578
-0.16767819
-0.19309855
-0.16059011
-0.012871914
-0.1527653
0.16958592
-0.18001999
0.22005981
-0.21548733
0.1844301
-0.25362134
0.093805235
-0.28810726
-0.033194697
-0.31161705
-0.14209791
-0.31872555
-0.15715129
-0.31250852
-0.11406742
-0.30928222
-0.054999851
-0.32379786
-0.014241523
-0.35368571
0.006974036
-0.38844121
0.016299609
-0.42547112
0.0179049
-0.46352002
0.014987106
-0.50169872
0.010275905
-0.53977986
0.0057305135
-0.57820102
0.0023528944
-0.61781161
0.000316486
-0.65951954
-0.00067466954
-0.70404132
-0.0010351808
-0.75183709
-0.001095288
-0.80317448
-0.0010512425
-0.85823158
-0.00098644524
-0.91716425
-0.00091782137
-0.98017491
-0.00084008678
-1.0474846
-0.0007368167
-1.1194317
-0.00059875877
-1.1963305
-0.00042631698
-1.2786736
-0.00022378716
-1.3668185
0.12166917
-0.15994592
-0.011529367
-0.16757074
-0.23971112
-0.167861
-0.27658512
-0.16452917
-0.20214021
-0.15863653
-0.019117167
-0.15434485
0.18183331
-0.16501269
0.23768762
-0.1976478
0.20219141
-0.23324864
0.10637213
-0.26618824
-0.033331696
-0.28797026
-0.15767788
-0.29603708
-0.18263847
-0.29323837
-0.1384428
-0.28813313
-0.068185979
-0.29609609
-0.014452056
-0.32358733
0.011239814
-0.35795149
0.022300418
-0.39444202
0.024338953
-0.43190517
0.020735371
-0.46926828
0.014625232
-0.50604805
0.0084765808
-0.54252592
0.0037291573
-0.57957729
0.00077507866
-0.6182702
-0.00069131544
-0.65950289
-0.0012196738
-0.70385682
-0.0012859798
-0.7516464
-0.0011917726
-0.80303395
-0.0010794262
-0.8581386
-0.00098918782
-0.91709288
-0.00091537965
-0.98009961
-0.00083622471
-1.0473852
-0.00073200676
-1.1192985
-0.00059373273
-1.1961631
-0.00042164067
-1.2784758
-0.00022073897
-1.3665978
0.12474195
-0.15490987
-0.0092568158
-0.16221847
-0.24374599
-0.16353587
-0.28303565
-0.16141047
-0.21005728
-0.1566121
-0.024746729
-0.15300697
0.18617506
-0.1586866
0.2537939
-0.18111898
0.21846278
-0.21391917
0.11792959
-0.2448061
-0.03428607
-0.26523386
-0.17343562
-0.27221252
-0.20591362
-0.27276192
-0.16300144
-0.26867973
-0.084738691
-0.27158042
-0.015577253
-0.2949709
0.016756316
-0.32910383
0.029471442
-0.36512251
0.032051175
-0.40215424
0.027793331
-0.43896313
0.020125061
-0.47476811
0.012043566
-0.50961503
0.0055371851
-0.54433395
0.0013444584
-0.58014667
-0.00078831344
-0.61817321
-0.0015548745
-0.65916769
-0.0016204972
-0.7035223
-0.0014360084
-0.75140216
-0.0012286115
-0.80288476
-0.0010757834
-0.85805201
-0.00097765522
-0.91703061
-0.00090564432
-0.98003019
-0.00082824316
-1.0472889
-0.00072516103
-1.119167
-0.00058717909
-1.1959975
-0.00041598232
-1.2782805
-0.00021733991
-1.3663804
0.12767239
-0.15048058
-0.0068406701
-0.15732601
-0.24640068
-0.15956378
-0.28810975
-0.15846177
-0.21679414
-0.15467361
-0.029747588
-0.15161124
0.19052996
-0.15736187
0.26566392
-0.17055661
0.233054
-0.1957102
0.1282469
-0.22423648
-0.035724032
-0.24336813
-0.18881129
-0.24985819
-0.22640113
-0.25172501
-0.18570039
-0.25006298
-0.10299069
-0.25042773
-0.018551656
-0.26860601
0.023410051
-0.30162463
0.037859415
-0.3374918
0.041080132
-0.37415147
0.036259055
-0.41061996
0.026935316
-0.44577338
0.01660141
-0.47932596
0.0078922604
-0.51197011
0.0020550713
-0.54504456
-0.00100335
-0.57993163
-0.0021115999
-0.61761648
-0.0021756838
-0.65861251
-0.0018496098
-0.7031087
-0.001483826
-0.75114694
-0.0012115631
-0.80274898
-0.0010469411
-0.85798272
-0.00095484913
-0.9169814
-0.00089016773
-0.97996827
-0.00081746379
-1.0471966
-0.00071614971
-1.1190381
-0.00057915935
-1.1958344
-0.00040969998
-1.2780882
-0.0002137477
-1.3661667
0.13048516
-0.14686647
-0.0041917068
-0.15312955
-0.2476621
-0.15606459
-0.29181755
-0.15585598
-0.22230331
-0.1529526
-0.033999867
-0.15042133
0.19472992
-0.15581121
0.27740683
-0.16910478
0.24799054
-0.18549316
0.13729709
-0.20476039
-0.037602839
-0.22235767
-0.20361497
-0.22856446
-0.24528467
-0.23097466
-0.20610774
-0.23131765
-0.12158684
-0.23146683
-0.02403865
-0.24494074
0.030579913
-0.27577588
0.047676879
-0.3114421
0.051366885
-0.34777856
0.046179731
-0.38407214
0.035191259
-0.41887591
0.022331733
-0.45150371
0.01093464
-0.48236834
0.0029543074
-0.51286934
-0.0013752373
-0.54467268
-0.0029769574
-0.57906627
-0.0030480649
-0.6167441
-0.002517412
-0.6579447
-0.001910187
-0.70268234
-0.001441987
-0.75091652
-0.0011516673
-0.80264426
-0.00099950626
-0.85793807
-0.00092411606
-0.91694746
-0.00087125068
-0.97991448
-0.00080446159
-1.0471083
-0.00070565053
-1.1189116
-0.00057052992
-1.1956735
-0.000403125
-1.2778988
-0.00021011107
-1.3659566
-0.14423882
0.13321823
-0.0012721502
-0.14978603
-0.24755956
-0.15323209
-0.29419252
-0.15368963
-0.22658674
-0.15157255
-0.037400328
-0.14955214
0.19878407
-0.15447547
0.28871684
-0.16712122
0.26238884
-0.18350308
0.1534841
-0.20168016
-0.03946226
-0.20290097
-0.21749004
-0.2084826
-0.26278117
-0.21106795
-0.22461155
-0.21247085
-0.13927324
-0.21363125
-0.03183663
-0.22366885
0.037287774
-0.2516486
0.058835232
-0.28693423
0.062877796
-0.32295301
0.057546203
-0.35914503
0.044999407
-0.39388029
0.02942247
-0.42596664
0.014838503
-0.45540757
0.0041121203
-0.48352615
-0.001945017
-0.51229956
-0.0042578091
-0.54339183
-0.0043579659
-0.57775637
-0.0035465439
-0.61571497
-0.0025912808
-0.65726361
-0.0018263068
-0.70229802
-0.0013301372
-0.75073805
-0.00106152
-0.80258224
-0.00094066306
-0.85792152
-0.00088954373
-0.91692916
-0.00085074751
-0.9798682
-0.00079039858
-1.0470236
-0.00069470459
-1.1187874
-0.00056159523
-1.1955151
-0.00039648468
-1.2777124
-0.00020653243
-1.3657501
-0.14739645
0.0018854851
-0.14261024
0.13586791
-0.24614864
-0.15119695
-0.2953464
-0.15207821
-0.22971041
-0.15056596
-0.040030814
-0.14894207
0.20287602
-0.15364409
0.2992002
-0.16495884
0.27599915
-0.18073152
0.16892386
-0.19894284
-0.027868723
-0.2132737
-0.23027693
-0.19011408
-0.27880862
-0.19245515
-0.24132343
-0.19435607
-0.15527334
-0.19647074
-0.040993906
-0.20447398
0.042916938
-0.22929802
0.071067869
-0.26388124
0.075547703
-0.29960414
0.070286056
-0.33569286
0.056438541
-0.37058416
0.038065343
-0.40252317
0.01981147
-0.43093961
0.0056302987
-0.45692575
-0.0027436262
-0.48272754
-0.0060764894
-0.51048088
-0.0062518315
-0.54149796
-0.0050690809
-0.57623383
-0.0036309362
-0.61467531
-0.0024392718
-0.65665064
-0.0016318514
-0.70199631
-0.0011709485
-0.75062862
-0.00095538622
-0.80256752
-0.00087854413
-0.85793252
-0.00085439566
-0.91692551
-0.00083007559
-0.97982852
-0.00077630327
-1.046942
-0.00068368191
-1.1186653
-0.0005527053
-1.1953588
-0.00039001698
-1.2775289
-0.00020310399
-1.3655469
-0.1499079
-0.24363719
-0.14604881
0.0053240574
-0.14231483
0.13835998
-0.29546215
-0.1510812
-0.23179408
-0.14999454
-0.041911203
-0.14868557
0.20699048
-0.15305653
0.30859155
-0.16303544
0.28837009
-0.17732978
0.18341689
-0.19522455
-0.015844359
-0.21096721
-0.23140074
-0.21214989
-0.29361136
-0.17531134
-0.25623879
-0.17753979
-0.16939156
-0.18023785
-0.050371559
-0.18709309
0.047307114
-0.20886415
0.084009967
-0.24224012
0.089310267
-0.2776438
0.084252182
-0.31357026
0.06952569
-0.34878001
0.048442047
-0.38096087
0.026101139
-0.40881284
0.0076588415
-0.43296816
-0.00379503
-0.45587435
-0.0085737143
-0.48023031
-0.0089075757
-0.50782514
-0.007244773
-0.53932227
-0.0051549966
-0.57470977
-0.0033719906
-0.61374259
-0.002118003
-0.65616449
-0.001365296
-0.70180196
-0.00098872024
-0.75059529
-0.00084640378
-0.80259966
-0.00081740046
-0.85796951
-0.00082067081
-0.91693492
-0.00081030329
-0.97979452
-0.00076279219
-1.0468629
-0.00067306988
-1.1185449
-0.00054424475
-1.1952046
-0.00038387957
-1.2773481
-0.0001998787
-1.3653471
-0.15068548
-0.29468456
-0.14974264
-0.23994336
-0.14568779
0.008697019
-0.14286096
0.14078475
-0.23300807
-0.14986721
-0.042908993
-0.14899675
0.21102373
-0.15271882
0.31688122
-0.16134619
0.29898834
-0.17365368
0.19638794
-0.19030083
-0.0043581421
-0.20671077
-0.23101386
-0.21135409
-0.30485165
-0.2009096
-0.26948191
-0.16206822
-0.18176412
-0.16516723
-0.059234308
-0.1713751
0.050580788
-0.19036676
0.09719189
-0.22204608
0.10406974
-0.25699959
0.099268971
-0.29266059
0.084212424
-0.328257
0.060709515
-0.36104748
0.033985005
-0.38884474
0.010395773
-0.41154977
-0.0051031935
-0.43165999
-0.011917515
-0.45253054
-0.012541939
-0.47659595
-0.010265364
-0.50480455
-0.0073121698
-0.53716509
-0.0047315838
-0.57335018
-0.0028611188
-0.61299948
-0.001689281
-0.65584051
-0.0010649434
-0.70172574
-0.00080347944
-0.75063821
-0.00074134399
-0.80267572
-0.00075996817
-0.85803022
-0.0007903048
-0.91695492
-0.00079252258
-0.97976479
-0.00075050745
-1.0467854
-0.00066338908
-1.1184258
-0.00053638512
-1.1950521
-0.00037816554
-1.2771699
-0.00019687822
-1.3651502
-0.15058561
-0.23310795
-0.15171554
-0.29271166
-0.15017414
-0.23545701
-0.1461901
0.012026162
-0.14429551
0.14288917
-0.042842988
-0.14993321
0.21500511
-0.15297814
0.32410496
-0.15994256
0.30767889
-0.17003675
0.20752506
-0.1847908
0.0063851078
-0.20104408
-0.22938928
-0.20833535
-0.31487178
-0.20133396
-0.28574935
-0.18464216
-0.19264063
-0.15119172
-0.067251828
-0.15714971
0.052883006
-0.17367732
0.11019641
-0.20337128
0.11962133
-0.23759766
0.11515393
-0.27288455
0.10038148
-0.30882965
0.074999072
-0.34254656
0.043770538
-0.37083301
0.014099136
-0.3925481
-0.0066472432
-0.41000572
-0.016286227
-0.42729128
-0.017409032
-0.44766345
-0.014358541
-0.47250278
-0.010275118
-0.5018416
-0.0066403951
-0.53525628
-0.0039435012
-0.5722678
-0.0021942587
-0.6124945
-0.0012120225
-0.65569343
-0.00076178599
-0.70176743
-0.00062763777
-0.75075192
-0.00064436914
-0.80279132
-0.00071014849
-0.85811037
-0.00076481046
-0.91698263
-0.0007776951
-0.9797376
-0.00074008723
-1.0467087
-0.00065484067
-1.1183073
-0.00052926873
-1.194901
-0.00037292945
-1.2769938
-0.00019411407
-1.3649561
-0.15187504
-0.041553555
-0.15291027
-0.23191321
-0.15321631
-0.2896695
-0.1512676
-0.23037951
-0.14733228
0.015062926
-0.14647174
0.14447376
0.2190999
-0.154028
0.33009966
-0.15897284
0.31451718
-0.16678085
0.21646204
-0.17897373
0.016153351
-0.19455904
-0.22635714
-0.20407622
-0.32352244
-0.19968469
-0.3004664
-0.18661691
-0.213137
-0.16414579
-0.074349287
-0.14409426
0.054451257
-0.15871796
0.12269524
-0.18617615
0.1356635
-0.21941346
0.13170326
-0.25414699
0.11782309
-0.29032616
0.091343773
-0.32517435
0.055743058
-0.35451907
0.01909672
-0.37583059
-0.0083593374
-0.390836
-0.021897292
-0.40439465
-0.023819118
-0.4208812
-0.019788964
-0.44223303
-0.014238906
-0.46853899
-0.0092339515
-0.49924804
-0.0054545489
-0.53374524
-0.0029360408
-0.57152602
-0.0014603562
-0.61224617
-0.00073366189
-0.65572155
-0.00047698292
-0.70191809
-0.0004681381
-0.75092815
-0.00056139532
-0.80294007
-0.00067034119
-0.85820484
-0.00074522752
-0.9170151
-0.00076643744
-0.97971125
-0.00073170761
-1.0466319
-0.00064751976
-1.1181891
-0.0005229422
-1.194751
-0.00036817056
-1.2768198
-0.0001915658
-1.3647645
-0.15592831
0.22315317
-0.15481642
-0.039647403
-0.15586629
-0.22926323
-0.15541746
-0.28551963
-0.15292848
-0.22478331
-0.14898192
0.0175731
-0.14918796
0.14547598
0.33465105
-0.15857939
0.31953665
-0.16399231
0.2230594
-0.17337821
0.024515524
-0.1873359
-0.22246564
-0.19845055
-0.33074811
-0.19685055
-0.31346416
-0.18668693
-0.23200072
-0.16775319
-0.096764511
-0.14173056
0.055738563
-0.14538157
0.13437329
-0.17039601
0.15190838
-0.20242102
0.14867146
-0.23638166
0.13619831
-0.27252221
0.10943503
-0.30841742
0.069872593
-0.33930389
0.025600557
-0.36102291
-0.01012073
-0.3740692
-0.028969201
-0.38376409
-0.032135142
-0.39607863
-0.026871441
-0.41379872
-0.01941781
-0.43705413
-0.012655409
-0.46511753
-0.0074868844
-0.49721571
-0.0039714011
-0.53270988
-0.0018399758
-0.5711464
-0.0007303488
-0.61224948
-0.00028771087
-0.65591082
-0.00022229036
-0.70216393
-0.00033240188
-0.75115714
-0.00049652084
-0.80311389
-0.00064150654
-0.85830856
-0.00073208911
-0.91704945
-0.00075888928
-0.97968407
-0.00072544374
-1.0465539
-0.00064150703
-1.1180705
-0.00051739278
-1.1946018
-0.00036385817
-1.2766475
-0.00018921124
-1.3645753
-0.1588893
0.33761204
-0.157947
0.22628374
-0.15885281
-0.036660887
-0.15964507
-0.22503562
-0.1583
-0.28014812
-0.15519943
-0.2185658
-0.15121579
0.019600931
-0.15235043
0.14586186
0.32271424
-0.16175697
0.22719647
-0.16812939
0.031080758
-0.17994344
-0.21802538
-0.19177616
-0.33642103
-0.19277763
-0.32474585
-0.18556886
-0.24926768
-0.16941997
-0.11803723
-0.14648047
0.04018094
-0.12617294
0.14556195
-0.15657022
0.1680126
-0.18650024
0.16575839
-0.21950795
0.15502346
-0.2552068
0.12851759
-0.29160476
0.085430952
-0.32397578
0.033084543
-0.34678787
-0.012230047
-0.35891359
-0.037788647
-0.36524975
-0.042773553
-0.37312568
-0.035965149
-0.38698492
-0.026041511
-0.40717502
-0.017047363
-0.43266217
-0.01013034
-0.46247408
-0.005352473
-0.49583464
-0.0023778597
-0.53217199
-0.00075899351
-0.57111775
-5.4739212e-05
-0.61248245
0.00010635647
-0.65623947
-7.0181405e-06
-0.70248932
-0.0002269684
-0.7514267
-0.00045096174
-0.80330443
-0.00062394222
-0.85841671
-0.00072540192
-0.91708293
-0.00075497058
-0.97965454
-0.00072129939
-1.0464742
-0.00063670814
-1.1179512
-0.00051254784
-1.1944531
-0.00035993569
-1.2764767
-0.00018701457
-1.3643883
-0.16018277
0.32400771
-0.15904695
0.33871199
-0.16137711
0.22880805
-0.16365181
-0.032654144
-0.16411997
-0.21921565
-0.16193752
-0.27341003
-0.15813585
-0.21164574
-0.15398998
0.021240482
-0.1559547
0.14554174
0.22892123
-0.16348173
0.035616117
-0.17266474
-0.21328878
-0.18468004
-0.34028558
-0.18791162
-0.33408652
-0.18343696
-0.26477466
-0.17006188
-0.13792853
-0.14952868
0.023305198
-0.12960473
0.14416826
-0.12477926
0.18375568
-0.1723133
0.18263052
-0.20337237
0.17369019
-0.23817468
0.14755577
-0.27424499
0.10060687
-0.30678068
0.040295009
-0.33118625
-0.016313794
-0.34270412
-0.049367654
-0.34733459
-0.056276932
-0.35174638
-0.047495846
-0.36159499
-0.034348599
-0.37867783
-0.022539613
-0.40168277
-0.013462267
-0.42933024
-0.007122019
-0.46070453
-0.0030931961
-0.4951193
-0.00082041111
-0.53211057
0.00023307907
-0.57140557
0.00053669091
-0.61291278
0.0004365971
-0.65668309
0.00016009344
-0.70287638
-0.00015371544
-0.75172394
-0.00042438157
-0.803504
-0.000617258
-0.85852485
-0.00072477612
-0.91711313
-0.00075442596
-0.97962142
-0.00071903494
-1.0463918
-0.0006329619