/*--------------------------------*- C++ -*----------------------------------*\
| =========                 |                                                 |
| \\      /  F ield         | OpenFOAM: The Open Source CFD Toolbox           |
|  \\    /   O peration     | Version:  5.0                                   |
|   \\  /    A nd           | Web:      www.OpenFOAM.org                      |
|    \\/     M anipulation  |                                                 |
\*---------------------------------------------------------------------------*/
FoamFile
{
    version     2.0;
    format      ascii;
    class       volScalarField;
    location    "300";
    object      pMean;
}
// * * * * * * * * * * * * * * * * * * * * * * * * * * * * * * * * * * * * * //

dimensions      [0 2 -2 0 0 0 0];

internalField   nonuniform List<scalar> 
9200
(
0.00053221297
0.00055229977
0.00134117
0.00057401813
0.0013847997
0.0022050109
0.00061336872
0.0014355517
0.0022703614
0.0029505817
0.00066241571
0.0015193485
0.0023554547
0.0030336381
0.0036505572
0.00072337043
0.0016219668
0.0024873636
0.0031471703
0.0037486532
0.0042620363
0.00079880777
0.0017416258
0.0026490113
0.0033168092
0.0038870363
0.0043713991
0.0047974781
0.00088678548
0.001878585
0.0028337135
0.0035259647
0.0040891149
0.0045305354
0.0049160176
0.005254835
0.00098423644
0.0020256931
0.00303929
0.0037646888
0.0043382928
0.0047592532
0.0050927944
0.00537971
0.0056382137
0.0010824055
0.0021788558
0.0032558861
0.0040306158
0.004620219
0.0050423808
0.0053435154
0.0055706227
0.0057671633
0.0059526614
0.0011658384
0.0023270735
0.0034799168
0.0043095645
0.0049313773
0.005361697
0.0056553111
0.005838829
0.0059691846
0.0060830814
0.0062029529
0.0012007582
0.0024569728
0.0036953319
0.0045903929
0.0052544098
0.0057135451
0.0060067412
0.0061747352
0.0062506354
0.0062928669
0.0063323546
0.006395376
0.0011454739
0.0025445404
0.0038775202
0.004853458
0.0055767599
0.0060788875
0.0063945585
0.0065540477
0.0066061249
0.0065828898
0.0065464372
0.0065210216
0.0065354362
0.0010028854
0.0025627067
0.0039976079
0.0050775261
0.0058786086
0.0064451438
0.0067979414
0.0069746101
0.0070087262
0.0069530761
0.0068402118
0.0067356212
0.0066546311
0.0066301874
0.00081549748
0.0024935835
0.0040365468
0.0052360127
0.0061416987
0.0067912654
0.0072044005
0.0074146835
0.0074581552
0.0073743357
0.00721964
0.0070278295
0.0068658451
0.0067400684
0.0066851474
0.00064150896
0.0023165975
0.003961465
0.0052988139
0.0063370588
0.0070994991
0.0075940501
0.0078620487
0.0079323763
0.0078484851
0.0076538387
0.0074103648
0.0071509489
0.0069436641
0.006783019
0.0067075987
0.00046198357
0.0020445307
0.0037305938
0.0052330085
0.0064311209
0.0073402052
0.007949441
0.0082986013
0.0084200484
0.0083535662
0.0081473691
0.0078511893
0.0075299755
0.0072156291
0.0069748754
0.0067907808
0.0067029188
0.00028280717
0.0017169096
0.0033693798
0.0050038393
0.0063894604
0.007478146
0.0082405622
0.0087058888
0.0089039638
0.0088797879
0.0086792403
0.0083577456
0.00797007
0.007583884
0.0072276665
0.0069666289
0.0067688085
0.006677994
9.7665874e-05
0.0013804953
0.0029450992
0.0046191871
0.0061798318
0.0074770313
0.0084323835
0.0090541467
0.0093645053
0.0094102725
0.0092404461
0.0089097919
0.0084819464
0.0080150582
0.0075776597
0.0071939611
0.0069245879
0.0067242651
0.0066379946
-0.00010184341
0.0010621746
0.0024826414
0.0041349794
0.0057949625
0.0073073066
0.0084866236
0.0093089768
0.009774209
0.0099255684
0.0098146782
0.0095001875
0.0090466829
0.0085233828
0.0079911154
0.0075177552
0.0071205716
0.0068560925
0.0066625237
0.0065887752
-0.00041541617
0.00071323444
0.0020046787
0.0035757774
0.0052707418
0.0069469727
0.008370083
0.0094324136
0.010098944
0.01039967
0.010383569
0.010113753
0.0096589592
0.0090914155
0.0084860553
0.0079041548
0.0074103746
0.007014928
0.0067666879
0.0065898037
0.0065350225
-0.00077579524
0.00033736193
0.0014942486
0.002964304
0.004638791
0.0064136941
0.0080548736
0.0093786006
0.010299731
0.010799918
0.010922532
0.010732942
0.010305236
0.0097162774
0.009046876
0.0083749684
0.0077602881
0.0072629272
0.0068829254
0.0066631261
0.006511035
0.0064813384
-0.0010648436
-6.3275909e-05
0.00089605365
0.0022954295
0.0039194985
0.0057427657
0.0075423221
0.0091240176
0.010325322
0.011084646
0.011400431
0.011334841
0.010968882
0.010385949
0.0096734153
0.0089168823
0.0081959542
0.0075667862
0.0070819384
0.0067319887
0.0065506564
0.0064312403
0.0064315764
-0.00127316
-0.00045008629
0.00016383766
0.0014880619
0.0031161418
0.0049482121
0.006859132
0.0086591179
0.010146097
0.011205846
0.011774081
0.011889578
0.011628519
0.011085633
0.010355472
0.0095323388
0.0087064423
0.0079558227
0.0073306383
0.0068752792
0.0065678163
0.0064349477
0.0063545867
0.0063891853
-0.0014817418
-0.00086269784
-0.00067158214
0.00046194707
0.0021447225
0.0040350758
0.0060116832
0.0079875121
0.0097406897
0.011113931
0.011997538
0.012355775
0.012256924
0.011795814
0.011080088
0.01021345
0.0092969819
0.0084217059
0.0076618287
0.0070600641
0.0066492876
0.0063970335
0.0063206338
0.0062848165
0.0063569573
-0.0017117212
-0.0013870091
-0.0015895533
-0.00073295554
0.00089870044
0.0029319594
0.0050083612
0.007113314
0.0090985762
0.010777106
0.01200657
0.012683394
0.012814496
0.012490788
0.011830138
0.010949534
0.009962401
0.0089726234
0.0080699097
0.0073225056
0.0067623696
0.0064116432
0.0062248738
0.0062121184
0.0062250375
0.0063371313
-0.0019798012
-0.001999533
-0.0025772606
-0.0020163429
-0.00060371949
0.0015114006
0.0037833743
0.006040305
0.0082171685
0.010182676
0.01175799
0.012811433
0.013248252
0.013134576
0.012581319
0.011725529
0.010694329
0.0096059626
0.0085661511
0.0076597316
0.0069460827
0.0064460475
0.0061683155
0.0060567412
0.0061130437
0.006177829
0.0063315356
-0.0023023765
-0.0027299221
-0.0036895832
-0.0033699824
-0.0022355846
-0.00025444992
0.0022035101
0.0047207524
0.0070919173
0.0093124272
0.011231456
0.012675683
0.013502426
0.013674294
0.013301272
0.012519996
0.011480296
0.01031624
0.0091503177
0.0080859403
0.0072001112
0.0065417425
0.0061181301
0.0059260053
0.0058970231
0.0060265311
0.0061452671
0.0063416616
-0.0026596206
-0.0035577057
-0.0049268595
-0.0048791928
-0.0039556081
-0.0021997718
0.00020977848
0.0030099925
0.0056874518
0.00814925
0.010394958
0.012232228
0.013494517
0.014049544
0.013941379
0.013302572
0.012301238
0.011093743
0.0098202948
0.0086034715
0.0075413214
0.0067010917
0.0061177895
0.0057865695
0.0056898047
0.0057497175
0.0059551678
0.0061289826
0.00636825
-0.0030251923
-0.00444615
-0.0062404314
-0.0064953053
-0.0058480124
-0.0042798849
-0.0020452716
0.00081752436
0.003856921
0.0066594924
0.0092198321
0.011452325
0.013157724
0.014184932
0.014434904
0.014029395
0.01312971
0.011922084
0.010569209
0.0092134997
0.0079749795
0.0069431184
0.0061723316
0.0056836402
0.0054574313
0.005464828
0.0056180103
0.0059009827
0.006130066
0.0064110845
-0.0034254612
-0.0053451758
-0.0075566903
-0.0081470141
-0.0078484888
-0.0065487688
-0.0044869736
-0.0017451712
0.0014822803
0.0047196553
0.0076640744
0.010294159
0.0124607
0.01398622
0.01471437
0.014635468
0.013926025
0.012776849
0.011383428
0.0099120625
0.0085051155
0.0072760671
0.0063023396
0.0056244248
0.0052471068
0.0051377692
0.0052551448
0.0055046824
0.0058654238
0.0061490612
0.006469914
-0.0038232592
-0.0062689413
-0.0088606312
-0.0097954218
-0.0098722254
-0.0089355642
-0.0071278024
-0.0045539562
-0.0013731533
0.0021868631
0.0056424794
0.0087010725
0.011341929
0.013393961
0.014671664
0.015043762
0.014629941
0.013621215
0.012241384
0.010688664
0.0091311002
0.0077067199
0.0065186672
0.0056307989
0.0050669336
0.004816439
0.0048328864
0.0050649633
0.0054119889
0.005849449
0.006186211
0.0065457358
-0.0041275939
-0.0072067292
-0.010192976
-0.011424887
-0.011887841
-0.011350866
-0.0098967675
-0.0075646989
-0.004540456
-0.00093748439
0.0029874271
0.0066300413
0.0097420124
0.012341059
0.014210447
0.015165062
0.015157928
0.014401558
0.01311001
0.011524821
0.0098453382
0.0082376857
0.0068311708
0.0057161861
0.0049397015
0.0045096302
0.0043982889
0.0045479735
0.0048973833
0.0053414536
0.0058536591
0.0062416561
0.0066393598
-0.0042954623
-0.0080192271
-0.011564697
-0.013074025
-0.013881737
-0.013749696
-0.012700963
-0.010708148
-0.0079238165
-0.0044552491
-0.00037226149
0.0038868526
0.0076410628
0.010767373
0.013259219
0.014864971
0.015427317
0.015036035
0.013940246
0.012390934
0.010633205
0.0088645006
0.0072454107
0.0058930044
0.0048815445
0.0042408454
0.0039610109
0.003999539
0.0042869178
0.0047546005
0.0052941168
0.0058783152
0.0063151965
0.0067502432
-0.0043802935
-0.0086663919
-0.012798769
-0.014779653
-0.015885434
-0.01611956
-0.01547906
-0.013897879
-0.011436663
-0.008206872
-0.0042308028
0.00033575775
0.0048197472
0.0086547077
0.011740546
0.014043816
0.015304903
0.015429084
0.014658266
0.013242065
0.011467836
0.0095760068
0.007760096
0.0061697105
0.0049068977
0.0040284077
0.0035448462
0.0034296367
0.0036253582
0.0040534083
0.0046382507
0.0052706056
0.0059233867
0.0064064808
0.0068760478
-0.0044080883
-0.0092035931
-0.013816642
-0.01640147
-0.017964419
-0.018496558
-0.01822063
-0.017060222
-0.015012573
-0.012094798
-0.0083392335
-0.0038134998
0.0011302676
0.00579105
0.0096345761
0.012604309
0.014640884
0.015477287
0.015161048
0.014012751
0.012308885
0.010348795
0.0083671937
0.0065482939
0.0050271264
0.0038885938
0.0031696162
0.0028621902
0.0029225326
0.0032808687
0.003849877
0.0045495648
0.0052710106
0.0059883882
0.0065153029
0.0070143765
-0.0044036595
-0.0096768605
-0.014656297
-0.01783645
-0.019982231
-0.020956707
-0.020965853
-0.020177256
-0.018566643
-0.016065271
-0.012613215
-0.0082701286
-0.0032411915
0.0020274756
0.0067700647
0.010522444
0.013316403
0.014996309
0.015342652
0.014603797
0.013096631
0.011146714
0.0090472306
0.00702396
0.0052471883
0.0038353717
0.0028531694
0.0023179125
0.0022019155
0.002446453
0.0029696737
0.0036784383
0.0044892339
0.0052950736
0.0060722794
0.0066402001
0.0071639993
-0.004397726
-0.010067856
-0.015410534
-0.01904362
-0.021820629
-0.023364923
-0.023812928
-0.023299692
-0.022072874
-0.020027652
-0.016989743
-0.012923498
-0.0080033945
-0.0024962473
0.0029861114
0.0076794981
0.011286565
0.013823356
0.015050579
0.014889805
0.013740152
0.011914035
0.0097675677
0.0075806506
0.0055653941
0.0038763948
0.0026118089
0.001815784
0.0014846755
0.0015726331
0.002006592
0.0026951564
0.0035402646
0.004457384
0.005342284
0.0061741261
0.0067795364
0.007323418
-0.0044011511
-0.010379789
-0.016052945
-0.020113895
-0.023403069
-0.025626638
-0.026613882
-0.026544414
-0.025586108
-0.023941116
-0.021372818
-0.017699422
-0.013002244
-0.0075154524
-0.0016427587
0.0039083886
0.0084696384
0.011886192
0.014065077
0.01475021
0.014111848
0.012569258
0.010477351
0.0081893925
0.0059695675
0.0040132983
0.0024558117
0.0013741823
0.0007903607
0.00068066337
0.00098148618
0.0016077587
0.0024592751
0.0034361223
0.0044534283
0.005411695
0.0062928627
0.0069320269
0.0074918345
-0.0044194475
-0.010620627
-0.016573535
-0.021040146
-0.024767118
-0.027610087
-0.029309119
-0.029751044
-0.029242673
-0.027862206
-0.025706898
-0.022501057
-0.018156843
-0.012833207
-0.0068782823
-0.00079027072
0.0047278161
0.0091077059
0.012266495
0.013962935
0.014074844
0.01299382
0.011101921
0.0088042368
0.0064344815
0.0042375062
0.0023899578
0.0010057921
0.00013911951
-0.00020975063
-8.4820391e-05
0.0004349785
0.0012531475
0.0022636721
0.0033660156
0.0044766704
0.0055021777
0.0064272719
0.0070962579
0.0076690618
-0.0107925
-0.0044605618
-0.016960222
-0.021797053
-0.025967544
-0.029297127
-0.031713163
-0.032876203
-0.032862852
-0.031943319
-0.030052307
-0.027261303
-0.023362871
-0.018346987
-0.012487609
-0.0061965771
-4.9724085e-07
0.0054036908
0.0095486315
0.012343669
0.013454829
0.013029074
0.011532273
0.0093557359
0.0069178005
0.0045276128
0.0024092399
0.00071848466
-0.00045425809
-0.0010773533
-0.0011728069
-0.00080323752
-6.2075612e-05
0.00094538763
0.0021089005
0.0033296669
0.0045261563
0.0056124553
0.0065760988
0.0072709265
0.0078545649
-0.017201307
-0.010868918
-0.004528186
-0.022357291
-0.026949877
-0.030781704
-0.033761169
-0.035707556
-0.036410823
-0.03598777
-0.03457929
-0.032032721
-0.028529623
-0.023936425
-0.018333769
-0.012048804
-0.0055301428
0.00068064383
0.0058911676
0.0097274296
0.012039849
0.012520846
0.011612166
0.0097435843
0.0073560418
0.0048456943
0.0024963707
0.00051061995
-0.00097887415
-0.0019053406
-0.0022607316
-0.0020880732
-0.0014676837
-0.00050565791
0.0006859666
0.0019952098
0.0033260556
0.004600603
0.0057411298
0.0067380514
0.0074548698
0.0080472799
-0.022684476
-0.017270021
-0.010844592
-0.0046124072
-0.027668428
-0.03199216
-0.035528051
-0.038141696
-0.039678661
-0.03997219
-0.039065113
-0.037009465
-0.033717525
-0.029499162
-0.024289599
-0.01819943
-0.011592618
-0.004933471
0.0011967981
0.0061298922
0.009564298
0.011285231
0.01116581
0.0098235393
0.0076554167
0.005132493
0.0026178176
0.00036941014
-0.0014329278
-0.0026801387
-0.0033300766
-0.0033975023
-0.0029463
-0.0020724166
-0.00089297947
0.00047587957
0.0019219314
0.00335399
0.0046985489
0.0058867232
0.006911795
0.0076470695
0.008246131
-0.028083193
-0.022750898
-0.017159541
-0.010738149
-0.0047076482
-0.032891338
-0.036980299
-0.040199356
-0.042498747
-0.043682209
-0.043504177
-0.041953674
-0.039134546
-0.035097934
-0.030233483
-0.024500413
-0.01801815
-0.011178263
-0.0044787328
0.0014826962
0.0060345811
0.008974621
0.010036771
0.0094064254
0.0076843971
0.005300821
0.0027185269
0.00026559367
-0.0018248575
-0.0033964175
-0.004364901
-0.0047121172
-0.0044759697
-0.003739471
-0.0026131378
-0.0012221615
0.00031497578
0.0018881119
0.0034119138
0.004818423
0.0060477268
0.0070959247
0.0078462974
0.0084500774
-0.033425899
-0.028171737
-0.022550837
-0.016887853
-0.010548325
-0.0047955046
-0.03807321
-0.041894593
-0.04484142
-0.046881291
-0.047669265
-0.046862121
-0.044534807
-0.040959524
-0.03623784
-0.030808362
-0.02463931
-0.017850464
-0.010873432
-0.0042352534
0.0014403595
0.0055310422
0.0079032266
0.0083163175
0.0072606063
0.005229693
0.002717841
0.0001491985
-0.0021792201
-0.0040583825
-0.005356374
-0.0060138237
-0.0060369396
-0.0054857215
-0.0044613753
-0.0030866649
-0.0014923737
0.00020265976
0.0018922123
0.0034981783
0.004958547
0.0062225942
0.0072891239
0.0080513769
0.0086580104
-0.038738649
-0.033561997
-0.027931051
-0.022103429
-0.016467335
-0.01025635
-0.004844556
-0.0431808
-0.046778233
-0.049509606
-0.051247972
-0.051499892
-0.049906449
-0.046811603
-0.04253934
-0.037214305
-0.031296276
-0.024770746
-0.017764922
-0.01075637
-0.0042935701
0.00098137667
0.0045684289
0.0063061172
0.0061657454
0.004748369
0.0025023212
-5.4673713e-05
-0.0025404785
-0.004685227
-0.0063044065
-0.0072905207
-0.0076094486
-0.007291463
-0.0064181376
-0.0051071114
-0.0034909008
-0.0017037627
0.00013761045
0.0019325483
0.0036108903
0.0051171215
0.0064097244
0.0074900858
0.0082612374
0.0088689584
-0.043971334
-0.038926433
-0.033292244
-0.027369477
-0.021431145
-0.01590102
-0.0098609858
-0.0048154199
-0.048245656
-0.051677466
-0.054160931
-0.055478624
-0.055013249
-0.052643701
-0.048839387
-0.043946533
-0.038085806
-0.031756835
-0.024956176
-0.017843291
-0.010920237
-0.0047583983
4.48353e-05
0.0030897766
0.0041955593
0.0036275721
0.0019127425
-0.00045242027
-0.0029770998
-0.0053156819
-0.0072228335
-0.0085377534
-0.0091784458
-0.0091358019
-0.0084644683
-0.0072661177
-0.0056731805
-0.0038249247
-0.0018572125
0.00011818739
0.0020070732
0.0037480058
0.0052921834
0.0066075043
0.0076976614
0.0084749642
0.0090820156
-0.049144245
-0.044199676
-0.038625861
-0.032633744
-0.026511031
-0.02056081
-0.015191694
-0.0093689427
-0.0046855607
-0.053306887
-0.056551673
-0.058687788
-0.05941149
-0.058215433
-0.055133961
-0.050691608
-0.045229742
-0.038917652
-0.032267234
-0.025294162
-0.018192787
-0.011486997
-0.0057113004
-0.0014108467
0.0010797776
0.0016497671
0.00073290777
-0.0011913678
-0.0035893493
-0.0060112437
-0.0081437546
-0.0097638044
-0.010735237
-0.011001243
-0.010578861
-0.0095462861
-0.0080242344
-0.0061572875
-0.0040889903
-0.0019541287
0.00014233275
0.0021134261
0.0039071342
0.0054818428
0.0068146699
0.0079109307
0.0086916179
0.0092962922
-0.054290443
-0.04939268
-0.043851933
-0.037864949
-0.031618122
-0.025392581
-0.019505071
-0.014352896
-0.0087350367
-0.0043842365
-0.058328402
-0.061304871
-0.062952269
-0.063044296
-0.06116543
-0.057445748
-0.052407557
-0.046460456
-0.039782693
-0.032920803
-0.025898192
-0.018946943
-0.0125574
-0.0071942335
-0.0033826468
-0.0014264503
-0.0012800901
-0.0024703455
-0.0045129729
-0.0068655565
-0.0091217421
-0.010993898
-0.012282349
-0.012875167
-0.012741962
-0.011926224
-0.01052897
-0.0086886077
-0.0065583237
-0.0042839824
-0.0019963668
0.00020743539
0.0022487564
0.0040860553
0.0056847458
0.0070303272
0.0081287444
0.0089098805
0.0095109185
-0.059376077
-0.054533325
-0.048974502
-0.042967261
-0.036690049
-0.030276804
-0.024058191
-0.018266493
-0.013295993
-0.0078829621
-0.0039261942
-0.063226333
-0.06580737
-0.066950918
-0.066439288
-0.063935373
-0.059619852
-0.054053322
-0.047692815
-0.040781329
-0.033837423
-0.026910239
-0.020231001
-0.014164754
-0.0091865552
-0.0058450279
-0.0043783477
-0.0045470528
-0.0059342752
-0.0080051699
-0.010241625
-0.012274777
-0.013837836
-0.014754299
-0.014937761
-0.014385335
-0.013167196
-0.011406547
-0.0092566616
-0.0068763848
-0.0044115793
-0.0019866635
0.00031021811
0.002410487
0.0042833536
0.0059000449
0.0072529461
0.0083490189
0.0091284359
0.0097255523
-0.064328725
-0.059590045
-0.054015674
-0.04794022
-0.041611243
-0.035126535
-0.028662068
-0.022461602
-0.016753069
-0.011962435
-0.0068265886
-0.0034126773
-0.067884545
-0.070057457
-0.070732241
-0.069666244
-0.066566414
-0.061706657
-0.055679921
-0.049038792
-0.042047273
-0.035174435
-0.028472843
-0.022080078
-0.016276325
-0.011688958
-0.0087845662
-0.0076960377
-0.0081070333
-0.0096040345
-0.011621945
-0.013681987
-0.015440193
-0.016649499
-0.017157557
-0.016904911
-0.015917906
-0.014293129
-0.012174616
-0.0097269161
-0.0071125829
-0.0044744815
-0.0019287165
0.00044766172
0.002597227
0.0044982594
0.006125599
0.0074791222
0.0085698358
0.0093477337
0.0099509283
-0.06905177
-0.064504593
-0.058952694
-0.05279997
-0.046366032
-0.039806116
-0.033207464
-0.026692843
-0.020537932
-0.014979482
-0.010409588
-0.0057191949
-0.0028913263
-0.072302584
-0.074110359
-0.07434873
-0.072764292
-0.069111259
-0.063767751
-0.057397942
-0.050633545
-0.043728259
-0.037087221
-0.030631963
-0.024449869
-0.018884741
-0.014672876
-0.012132518
-0.011309542
-0.011895782
-0.013423524
-0.015323791
-0.017154632
-0.018590167
-0.019404775
-0.019471402
-0.018760288
-0.01732806
-0.015297161
-0.01282997
-0.010099314
-0.007269318
-0.0044766799
-0.0018259835
0.00061847861
0.0028083197
0.0047277409
0.0063561384
0.0077060127
0.0087931722
0.0095826565
0.010190449
-0.073544435
-0.069196793
-0.063736523
-0.057533619
-0.050972078
-0.044286708
-0.037530282
-0.03083332
-0.024352242
-0.018344003
-0.013035501
-0.0088296346
-0.0045997101
-0.0023370414
-0.076547996
-0.078008717
-0.077838272
-0.075786495
-0.071619005
-0.065902608
-0.059349913
-0.052631329
-0.045987
-0.039639709
-0.033352384
-0.027302541
-0.021965944
-0.018057856
-0.01578618
-0.015167321
-0.015857341
-0.017349842
-0.019077988
-0.020630926
-0.021699693
-0.022081196
-0.02167701
-0.02048936
-0.018605913
-0.016173837
-0.013370826
-0.01037575
-0.0073506732
-0.0044217948
-0.0016795441
0.0008221576
0.0030394882
0.0049640759
0.0065876961
0.0079383176
0.0090407963
0.0098316962
0.010437995
-0.077884556
-0.073669433
-0.068305014
-0.062100952
-0.055425413
-0.048587466
-0.041622319
-0.034725327
-0.028044569
-0.021752153
-0.016002006
-0.011101529
-0.0072430761
-0.0034345201
-0.0017780819
-0.080656435
-0.081783311
-0.081246217
-0.07877221
-0.074200175
-0.068261577
-0.061715243
-0.055210648
-0.048908363
-0.04281122
-0.036575565
-0.030596631
-0.025449405
-0.021762402
-0.019695293
-0.019219756
-0.019955084
-0.021348487
-0.022856364
-0.024085348
-0.024745027
-0.024657605
-0.023756721
-0.022079066
-0.019743117
-0.016919267
-0.013797721
-0.010560169
-0.0073606383
-0.0043106832
-0.0014896506
0.0010529503
0.0032798742
0.0052021436
0.0068288493
0.0082104757
0.009301524
0.010090399
0.010693279
-0.08210582
-0.078005257
-0.072662402
-0.066459756
-0.059700698
-0.052695808
-0.045498266
-0.03835481
-0.031477276
-0.025021819
-0.019000177
-0.013682789
-0.0091491621
-0.0055924688
-0.002272186
-0.0012428304
-0.084658006
-0.085468059
-0.084616533
-0.081824198
-0.077002575
-0.071032494
-0.064664394
-0.05847556
-0.052503166
-0.046533052
-0.040217991
-0.034281548
-0.029277872
-0.025713141
-0.02379926
-0.023418158
-0.024145961
-0.025390205
-0.026633299
-0.027494417
-0.027703966
-0.027114097
-0.025694291
-0.023517528
-0.020733076
-0.017532358
-0.014114028
-0.010656384
-0.0072995819
-0.0041431187
-0.0012637011
0.0012961493
0.0035229978
0.0054554469
0.00713165
0.0084959032
0.0095742657
0.010357556
0.010956338
-0.086238527
-0.082236066
-0.07689674
-0.070615173
-0.06377174
-0.056613585
-0.049168498
-0.041739442
-0.034641881
-0.028016808
-0.021846605
-0.016282779
-0.011324561
-0.0071204121
-0.0038886407
-0.0011609095
-0.00072928018
-0.088575055
-0.089111402
-0.088054933
-0.085098752
-0.08022479
-0.074410509
-0.068339427
-0.062468856
-0.056687715
-0.050665952
-0.044202112
-0.038313853
-0.033350082
-0.029833095
-0.028042237
-0.027720991
-0.028398882
-0.029452486
-0.030386732
-0.030835771
-0.03055507
-0.029431565
-0.027474435
-0.024794747
-0.02157221
-0.01801503
-0.014323158
-0.010663888
-0.0071663748
-0.0039283144
-0.0010211022
0.0015436345
0.0037888494
0.0057991933
0.0074485747
0.0087962337
0.0098556272
0.01063345
0.011226864
-0.090292286
-0.086393361
-0.081038718
-0.074654869
-0.067652435
-0.060312395
-0.05263096
-0.04489862
-0.037533957
-0.030722631
-0.024409014
-0.018722869
-0.013504939
-0.0088800306
-0.0050360235
-0.002209656
-0.0001409789
-0.00023661324
-0.092433524
-0.092811431
-0.091727348
-0.088779394
-0.084072755
-0.078557767
-0.072790487
-0.067103892
-0.061310896
-0.055109413
-0.048495879
-0.042564825
-0.03753032
-0.034078376
-0.032385006
-0.032108782
-0.032691724
-0.033515147
-0.034096075
-0.034087657
-0.033276933
-0.031590823
-0.029083023
-0.025904188
-0.022261025
-0.018369523
-0.014423348
-0.010580499
-0.006971958
-0.0036912471
-0.00077216926
0.0018234433
0.0041831915
0.006158629
0.0077839299
0.0091048697
0.010146679
0.010917402
0.011504718
-0.094278814
-0.09047857
-0.085115855
-0.07861243
-0.071420347
-0.063805847
-0.055871994
-0.047840855
-0.040190048
-0.03314363
-0.026660557
-0.020878505
-0.015527083
-0.01063193
-0.0063735644
-0.002944731
-0.00062840396
0.00078873503
0.00024660813
-0.096329538
-0.096755547
-0.095816461
-0.093078446
-0.088735899
-0.083560869
-0.077954243
-0.072228623
-0.066224527
-0.059809737
-0.052990889
-0.046895261
-0.041752697
-0.038413833
-0.036808865
-0.036557103
-0.037009249
-0.037560981
-0.037740742
-0.037227745
-0.03584717
-0.033573687
-0.0305098
-0.026843752
-0.022799744
-0.018592117
-0.014410553
-0.010419331
-0.006748055
-0.0034450669
-0.00047873613
0.0022797764
0.0045962445
0.0065410466
0.0081269048
0.0094241419
0.010446296
0.011209371
0.01178955
-0.098284473
-0.094490296
-0.089127533
-0.082513836
-0.075113237
-0.067185889
-0.05890747
-0.050570227
-0.042629373
-0.035317886
-0.028622844
-0.022703641
-0.01726957
-0.012223422
-0.0076797146
-0.0038495787
-0.00094031821
0.00083069685
0.0015899106
0.0007648471
-0.10045682
-0.10114035
-0.1005424
-0.098232795
-0.09433402
-0.089353747
-0.083678829
-0.077675438
-0.071312449
-0.064674861
-0.057552199
-0.051240987
-0.046013442
-0.042828561
-0.041312758
-0.041056966
-0.041340659
-0.041572726
-0.041298938
-0.040231301
-0.038243396
-0.035365766
-0.03174953
-0.027611536
-0.023181281
-0.018676322
-0.014299612
-0.01021969
-0.0065114409
-0.0031392167
5.2339349e-05
0.0027590565
0.005037585
0.0069299756
0.0084812866
0.0097522957
0.010754425
0.011508742
0.012081147
-0.10250658
-0.098498377
-0.093060268
-0.086354579
-0.078770621
-0.070498633
-0.061828729
-0.053112645
-0.044863891
-0.037278355
-0.030335046
-0.024224176
-0.018680478
-0.013545876
-0.0088316492
-0.0047122172
-0.0014189258
0.0008966257
0.0021848827
0.0022856458
0.0012711713
-0.10503979
-0.10621242
-0.10616348
-0.104386
-0.10081792
-0.095767983
-0.089794937
-0.0832687
-0.076478696
-0.069564484
-0.06207174
-0.055523155
-0.050332741
-0.047312966
-0.045896225
-0.045600067
-0.045673279
-0.045531218
-0.044745218
-0.043072377
-0.04044691
-0.036958185
-0.032796667
-0.02819568
-0.023395414
-0.018638864
-0.014139197
-0.010002701
-0.0061963717
-0.0025195247
0.00061266771
0.0032733104
0.0054837098
0.0073309434
0.0088446627
0.010089389
0.01107027
0.011815286
0.012379176
-0.10719465
-0.10270813
-0.096965095
-0.090106353
-0.082377791
-0.073782958
-0.064683117
-0.055561332
-0.046933824
-0.039050844
-0.031846761
-0.025499273
-0.019786213
-0.014540786
-0.0097313258
-0.005436119
-0.0018486716
0.00082683324
0.0026063501
0.0033577948
0.002876181
0.0016401228
-0.11032583
-0.11220089
-0.112836
-0.1115296
-0.10800157
-0.10264171
-0.09608365
-0.088868036
-0.081626047
-0.07434456
-0.066430758
-0.059711268
-0.054735734
-0.0518585
-0.050551465
-0.050185268
-0.049993357
-0.04941224
-0.048051297
-0.045728438
-0.04244491
-0.038340178
-0.033633361
-0.028580137
-0.023460783
-0.018539017
-0.013956261
-0.0096840859
-0.0054724282
-0.0018620241
0.001215919
0.0037899313
0.0059422002
0.0077409335
0.00921708
0.010434489
0.011393467
0.012128427
0.012683436
-0.11259108
-0.10737436
-0.10105659
-0.093822525
-0.085878627
-0.077016557
-0.067506809
-0.057961035
-0.048922106
-0.040674493
-0.033181284
-0.026578175
-0.02064845
-0.015234878
-0.010325096
-0.0059271534
-0.0021545555
0.00080566027
0.0029038516
0.0041145095
0.0042760995
0.0033009327
0.0018087964
-0.11652911
-0.11927093
-0.12058214
-0.11947331
-0.11570132
-0.10973572
-0.10234894
-0.094346864
-0.086666012
-0.078901529
-0.070612008
-0.063911238
-0.059198129
-0.056502617
-0.055291737
-0.054805052
-0.054280363
-0.053187001
-0.051191473
-0.048182569
-0.04422078
-0.039486031
-0.034236705
-0.028785156
-0.023448953
-0.018409234
-0.013643632
-0.0088390554
-0.0046991747
-0.0011517258
0.0018181626
0.0043191473
0.0064094245
0.0081600712
0.0095974979
0.010787102
0.011723387
0.012448093
0.012993393
-0.11888369
-0.11273313
-0.10557934
-0.097705344
-0.089320604
-0.080116983
-0.070249921
-0.060320592
-0.050864346
-0.042218305
-0.034369024
-0.027492678
-0.021319423
-0.015688969
-0.010624587
-0.0061371812
-0.0022419743
0.00090014627
0.0032315732
0.0047234797
0.0052970573
0.0048957589
0.0035510446
0.001855104
-0.1238172
-0.12745575
-0.1292361
-0.12800673
-0.12370308
-0.11683002
-0.10844619
-0.099662248
-0.091491849
-0.083220988
-0.074667023
-0.06815722
-0.063728988
-0.061269572
-0.060120276
-0.059444928
-0.058507644
-0.056828388
-0.054145735
-0.050412241
-0.045738362
-0.040363898
-0.034627192
-0.028896804
-0.02339922
-0.018114332
-0.012659281
-0.0079297487
-0.0038610981
-0.00044688045
0.0024329369
0.0048566112
0.0068856642
0.0085871861
0.0099852754
0.01114666
0.012060205
0.012773563
0.013308753
-0.12624988
-0.11896102
-0.11074424
-0.10196687
-0.092881726
-0.083131112
-0.072835093
-0.062583913
-0.052757298
-0.043719176
-0.035478729
-0.028274067
-0.021832384
-0.015961213
-0.010695091
-0.0060700356
-0.0020807253
0.0011902385
0.0036605873
0.005336449
0.0061312404
0.0060975387
0.0052416777
0.0036129352
0.0018060554
-0.1322352
-0.1366138
-0.13856986
-0.13692481
-0.13175698
-0.12373147
-0.11430543
-0.10476011
-0.096041103
-0.087303599
-0.078600262
-0.072497161
-0.068388226
-0.066184216
-0.065028043
-0.064083104
-0.062649065
-0.060315035
-0.056885534
-0.052368149
-0.046953776
-0.040994867
-0.034907028
-0.02896213
-0.023142207
-0.016972048
-0.011591355
-0.0069408085
-0.0030342795
0.00027027873
0.0030551161
0.0054028485
0.0073696148
0.0090215334
0.010379972
0.011513746
0.012402701
0.013104359
0.013629098
-0.1347622
-0.1262295
-0.11674338
-0.10681951
-0.096757213
-0.086235927
-0.075329757
-0.064670843
-0.054540013
-0.04515933
-0.036534998
-0.028981336
-0.022218131
-0.016082135
-0.01059354
-0.0057898892
-0.0016813643
0.0016903003
0.0042560364
0.0060088789
0.0069387355
0.0070848299
0.0065623484
0.0053651462
0.0035529552
0.0016963594
-0.14167698
-0.14654236
-0.14838231
-0.14596975
-0.13963005
-0.13033207
-0.11988429
-0.1095845
-0.10028013
-0.091171343
-0.08257469
-0.076999965
-0.073247999
-0.071248119
-0.070002826
-0.068697585
-0.066684131
-0.063613851
-0.059347724
-0.053990845
-0.047888576
-0.041498229
-0.035132769
-0.028770304
-0.021822544
-0.015721596
-0.010425633
-0.0059704736
-0.0021955845
0.00099367944
0.0036855882
0.0059564296
0.0078604548
0.0094628953
0.010782856
0.011886529
0.012750306
0.013439785
0.013954083
-0.14434395
-0.13464555
-0.1237642
-0.11247412
-0.10116687
-0.089628621
-0.077899313
-0.066673073
-0.056153029
-0.046494031
-0.037525835
-0.029639761
-0.022537515
-0.016090437
-0.010360306
-0.0053594032
-0.001099485
0.0023888359
0.0050190405
0.0068042303
0.0077656743
0.0080188762
0.0076559188
0.0067681217
0.0053266271
0.0034100688
0.0015333069
-0.15195378
-0.15703678
-0.15842052
-0.15489791
-0.14718171
-0.13660799
-0.12516007
-0.11409725
-0.10419992
-0.094846986
-0.086786169
-0.081705892
-0.078326124
-0.076456862
-0.075031616
-0.073272595
-0.070577923
-0.066646789
-0.061452511
-0.055300704
-0.048682367
-0.041941613
-0.035042794
-0.027254809
-0.020363549
-0.01435087
-0.0092876825
-0.004988762
-0.0013522049
0.0017247153
0.004322842
0.0065164933
0.0083582118
0.0099134123
0.011191365
0.012264239
0.013102203
0.013779368
0.014283311
-0.15481242
-0.14415054
-0.1318958
-0.11910237
-0.10632355
-0.093508528
-0.080760186
-0.068746828
-0.057696914
-0.047684691
-0.038419494
-0.030240373
-0.022827732
-0.016057298
-0.010041146
-0.0048298586
-0.0003957734
0.0032268564
0.0059256371
0.0077096686
0.0086709209
0.0089457009
0.0086745888
0.0079356207
0.0067678228
0.0051676919
0.0032158383
0.0013702281
-0.16286136
-0.16785254
-0.16842139
-0.16353618
-0.15439773
-0.14255081
-0.13009036
-0.11828098
-0.10777175
-0.098437391
-0.091295785
-0.08666068
-0.083628573