/*--------------------------------*- C++ -*----------------------------------*\
| =========                 |                                                 |
| \\      /  F ield         | OpenFOAM: The Open Source CFD Toolbox           |
|  \\    /   O peration     | Version:  5.0                                   |
|   \\  /    A nd           | Web:      www.OpenFOAM.org                      |
|    \\/     M anipulation  |                                                 |
\*---------------------------------------------------------------------------*/
FoamFile
{
    version     2.0;
    format      ascii;
    class       volScalarField;
    location    "300";
    object      pPrime2Mean;
}
// * * * * * * * * * * * * * * * * * * * * * * * * * * * * * * * * * * * * * //

dimensions      [0 4 -4 0 0 0 0];

internalField   nonuniform List<scalar> 
9200
(
1.0114707e-06
1.0741659e-06
6.4235421e-06
1.1586788e-06
6.6910093e-06
1.7653613e-05
1.3458816e-06
7.0149458e-06
1.8285639e-05
3.2322646e-05
1.632114e-06
7.6575379e-06
1.9165009e-05
3.3303972e-05
5.055691e-05
2.1273159e-06
8.5490447e-06
2.0813824e-05
3.4695105e-05
5.1879943e-05
7.1047114e-05
2.9394678e-06
9.8822879e-06
2.3098312e-05
3.7240689e-05
5.3682375e-05
7.257247e-05
9.3365246e-05
4.280769e-06
1.1743362e-05
2.6394108e-05
4.0721144e-05
5.6953146e-05
7.4584207e-05
9.500302e-05
0.00011712486
6.3864148e-06
1.4328298e-05
3.0845963e-05
4.5670525e-05
6.1333532e-05
7.8258726e-05
9.7027432e-05
0.00011876826
0.00014209573
9.6107256e-06
1.7775128e-05
3.6847683e-05
5.2239336e-05
6.744864e-05
8.3074087e-05
0.00010079791
0.00012062039
0.00014368423
0.00016817263
1.4121205e-05
2.2288252e-05
4.4795362e-05
6.0895345e-05
7.5406634e-05
8.9720228e-05
0.00010561864
0.00012423181
0.00014523504
0.00016966663
0.00019531723
1.8612983e-05
2.7925491e-05
5.5197937e-05
7.2053494e-05
8.5718007e-05
9.8208183e-05
0.00011223209
0.00012871883
0.00014850863
0.00017083179
0.00019670358
0.00022350502
2.1296997e-05
3.5212978e-05
6.8757626e-05
8.639273e-05
9.883295e-05
0.00010903112
0.00012054441
0.00013487624
0.00015243446
0.00017366459
0.00019744164
0.00022479485
0.00025276042
2.4569534e-05
4.701627e-05
8.7399546e-05
0.00010509251
0.00011553306
0.00012257135
0.00013101679
0.00014250331
0.00015786877
0.00017690386
0.00019979638
0.0002251039
0.00025397611
0.00028305047
3.2978569e-05
6.8619806e-05
0.00011583405
0.0001308037
0.00013715705
0.00013956817
0.00014394207
0.00015202612
0.00016451342
0.0001814836
0.00020231676
0.00022700413
0.00025387755
0.00028423024
0.0003144157
4.8274422e-05
0.00010814119
0.00016150191
0.00016911138
0.00016658524
0.00016135348
0.00015999407
0.0001636551
0.000172771
0.00018701897
0.00020603091
0.00022885142
0.0002553828
0.00028377391
0.00031559415
0.00034679372
7.1475239e-05
0.00017168669
0.00023597316
0.00022910556
0.00020936616
0.00019067159
0.00018039524
0.00017800889
0.00018280105
0.00019390866
0.00021047311
0.00023178176
0.00025665784
0.00028498246
0.00031482924
0.00034800743
0.00038021392
0.00010211566
0.00025847229
0.00034915412
0.00032422487
0.0002755499
0.00023302274
0.00020759928
0.00019616184
0.00019518957
0.00020228041
0.00021604466
0.00023525621
0.00025895917
0.0002858359
0.00031584519
0.0003469923
0.00038149787
0.0004145998
0.00013639666
0.00036454087
0.00049925317
0.00046866423
0.00038039208
0.00029857778
0.00024669235
0.00022026801
0.00021088798
0.00021269135
0.00022285514
0.00023968939
0.00026167738
0.00028772372
0.00031644597
0.00034793645
0.000380282
0.00041597304
0.00044994785
0.00016843741
0.00047784338
0.00067806417
0.00066261069
0.00054002165
0.00040228645
0.000307228
0.00025482011
0.00023175491
0.00022597596
0.00023143431
0.00024515836
0.0002652327
0.00028997064
0.00031816901
0.00034847697
0.00038124917
0.00041459296
0.00045142434
0.00048619856
0.00019352118
0.00058773509
0.00086579796
0.00089549355
0.00075715654
0.00056210378
0.00040382714
0.0003083963
0.00026162094
0.00024379752
0.00024253456
0.00025214357
0.00026966271
0.00029300218
0.00032028233
0.00035031638
0.00038190392
0.0004156687
0.00044991117
0.00048777403
0.00052333085
0.00020562845
0.00068085362
0.001044326
0.0011425163
0.0010199847
0.00078576946
0.00055579209
0.0003960457
0.00030807444
0.00026933268
0.00025763899
0.00026134114
0.00027538278
0.0002967938
0.00032321206
0.00035268497
0.00038413551
0.00041660676
0.00045116074
0.00048612561
0.00052499223
0.00056130759
0.00020566331
0.00074413369
0.0012003461
0.0013755692
0.0013037926
0.001062538
0.00077524408
0.00053625747
0.00038536965
0.00030912809
0.00027944101
0.00027407039
0.00028302727
0.00030169308
0.00032685961
0.00035601216
0.00038716209
0.00041950364
0.00045250379
0.00048756529
0.00052319456
0.00056302634
0.0006001054
0.00020189015
0.00077865534
0.0013237974
0.0015790995
0.0015770662
0.0013694858
0.0010550695
0.00074383679
0.00051102107
0.00037555314
0.00031334887
0.00029267132
0.00029377021
0.00030823519
0.00033149587
0.00036012668
0.00039143435
0.00042360085
0.00045628819
0.00048939538
0.00052482184
0.00056103563
0.00060184659
0.00063970378
0.00019845706
0.00079563502
0.0013988306
0.0017442865
0.0018182507
0.0016737447
0.0013763055
0.0010190971
0.00070320203
0.00048632948
0.00036984769
0.00032140572
0.00030957091
0.00031741044
0.00033752316
0.0003652117
0.00039671846
0.00042939867
0.00046182671
0.00049424899
0.00052717718
0.0005627911
0.00059960603
0.0006414225
0.00068009148
0.00019710079
0.00080763216
0.0014381985
0.0018419699
0.0020146102
0.0019469323
0.0017039384
0.0013455713
0.00096863929
0.00066190594
0.00046654314
0.00036900336
0.00033394982
0.00033089425
0.00034573593
0.00037150067
0.00040309778
0.0004366345
0.00046971392
0.00050155335
0.00053319767
0.00056563265
0.00060140673
0.00063885721
0.00068173688
0.00072125885
0.00019762031
0.00081299951
0.0014635289
0.0018855887
0.0021417553
0.0021739861
0.002007709
0.0016925876
0.00129432
0.00091306804
0.00062335027
0.00045108317
0.00037366502
0.00035155811
0.00035753553
0.00037960302
0.0004106484
0.00044530334
0.000479705
0.00051205159
0.00054249458
0.00057283613
0.00060466236
0.0006405798
0.00067876019
0.00072277789
0.00076318684
0.00019776738
0.00081007354
0.0014700319
0.0019011328
0.0022002953
0.0023399275
0.0022690197
0.0020248955
0.0016546572
0.0012317395
0.00085520853
0.00058697857
0.0004416019
0.00038451059
0.00037527059
0.00039058124
0.00041974729
0.0004553336
0.0004917437
0.00052558776
0.00055602515
0.00058425112
0.00061298204
0.00064409507
0.00068026406
0.00071929459
0.00076453451
0.00080584378
0.00019618987
0.0007983222
0.0014584252
0.0018928779
0.0022173166
0.0024278234
0.0024735296
0.0023195125
0.0020117189
0.0015985109
0.0011621132
0.00079699118
0.00055753742
0.00044020394
0.0004027793
0.00040635491
0.00043116837
0.00046685653
0.00050563051
0.00054210891
0.00057380251
0.00060111865
0.00062650273
0.00065335708
0.00068385252
0.00072041515
0.00076045153
0.00080699287
0.00084922426
0.00019157758
0.00077773737
0.0014327467
0.0018636402
0.0022087576
0.0024592134
0.0026005128
0.0025614959
0.0023378743
0.0019764989
0.0015275414
0.0010873891
0.00074257712
0.00053625648
0.00044798144
0.00042996282
0.00044636225
0.00048035046
0.00052128122
0.00056134622
0.00059585939
0.00062369369
0.00064683895
0.0006688566
0.00069382542
0.00072383812
0.00076101582
0.00080223088
0.0008501436
0.00089336746
0.00017993223
0.00075229367
0.0013961383
0.0018210403
0.0021766547
0.0024604596
0.0026605482
0.0027387326
0.0026210002
0.0023334527
0.0019203074
0.0014437703
0.0010089589
0.00069277904
0.00052530928
0.00046689223
0.00046770156
0.00049681175
0.00053888427
0.00058306079
0.00062194483
0.00065220448
0.00067456465
0.00069261546
0.00071105752
0.00073420902
0.00076403215
0.00080207357
0.00084463801
0.00089398415
0.00093826421
0.00016418567
0.00071289159
0.0013525904
0.0017670124
0.0021307743
0.0024376406
0.0026812012
0.0028389693
0.0028491158
0.002656186
0.002305796
0.0018424436
0.0013491805
0.00092898689
0.00065461736
0.00052861224
0.00049914663
0.0005180398
0.00055902163
0.00060715923
0.0006517423
0.00068653964
0.00071022486
0.00072561336
0.00073799294
0.00075279521
0.00077446757
0.00080443205
0.00084361096
0.00088767802
0.00093850057
0.00098375633
0.000143948
0.00066534147
0.0012815048
0.0017091295
0.0020731409
0.0023999009
0.0026783022
0.0028871464
0.0029956583
0.0029292303
0.0026644048
0.002250002
0.0017433395
0.0012477702
0.0008568482
0.00063309021
0.000548801
0.00054702554
0.00058289658
0.00063384844
0.00068496335
0.0007264148
0.00075397825
0.00076883004
0.00077611356
0.0007824906
0.00079393928
0.00081452784
0.00084506741
0.00088564889
0.00093135403
0.00098365316
0.0010297181
0.00011939068
0.0006011259
0.00120028
0.0016195256
0.0020138725
0.0023506433
0.0026583613
0.0029116452
0.0030834077
0.0031329496
0.0029824079
0.0026398038
0.0021643825
0.0016285402
0.0011440303
0.0007998164
0.00063161066
0.0005890209
0.00061273355
0.00066379965
0.00072147094
0.00077145691
0.00080572363
0.00082283514
0.00082694543
0.00082533085
0.0008258093
0.00083433823
0.00085443318
0.00088597245
0.00092821454
0.0009756607
0.0010294083
0.001076152
9.4972476e-05
0.00052049141
0.001091632
0.0015252376
0.0019173843
0.0023016797
0.002626554
0.0029173696
0.0031410592
0.0032720916
0.0032493315
0.0029996575
0.0025805169
0.0020513691
0.0015043609
0.001047239
0.00076668612
0.000655297
0.0006520094
0.0006984684
0.00076149356
0.00082131047
0.00086515386
0.00088788337
0.00089160745
0.00088347132
0.0008727113
0.00086767635
0.0008740099
0.00089421567
0.00092720904
0.00097134059
0.0010205815
0.0010757211
0.0011231489
7.2850257e-05
0.0004333752
0.00095538639
0.0014053954
0.0018226091
0.0022072654
0.0025965874
0.0029102392
0.00317871
0.0033711581
0.003449216
0.0033231012
0.0029752262
0.0024843361
0.001917688
0.0013779491
0.00097157324
0.00076393945
0.00070808123
0.0007404127
0.00080583085
0.00087584565
0.00093187326
0.00096393949
0.00097089119
0.00095871313
0.00093748976
0.00091777235
0.00090801613
0.00091296238
0.00093398254
0.00096884546
0.0010150552
0.0010660972
0.0011224964
0.0011707245
5.3923664e-05
0.00034970605
0.00080567326
0.0012563969
0.0017012865
0.002122459
0.0025117262
0.0029049312
0.0032013501
0.0034492138
0.0036015127
0.0035902394
0.003347863
0.0029084798
0.002357432
0.0017724717
0.0012603878
0.00093008229
0.000796348
0.00079398763
0.00085608257
0.00093528752
0.0010055215
0.001050752
0.0010652366
0.0010525527
0.001022725
0.00098818694
0.00096026245
0.00094679218
0.00095133928
0.00097383314
0.0010109565
0.0010593778
0.0011122124
0.001169719
0.0012187645
3.9162313e-05
0.00027421365
0.0006620791
0.0010845424
0.0015487392
0.0020070354
0.0024459024
0.0028327402
0.0032260358
0.0035110316
0.0037286946
0.003806619
0.0036835885
0.0033216654
0.0028032782
0.0022081515
0.0016271139
0.0011720532
0.00093249488
0.00086929881
0.00091510711
0.0010004786
0.0010859517
0.0011479779
0.0011748007
0.0011661355
0.0011307787
0.0010823494
0.0010350283
0.0010000414
0.0009841386
0.00098927114
0.0010139089
0.0010536096
0.0011043079
0.0011588905
0.0012173673
0.0012672096
2.965066e-05
0.00021257138
0.00053159378
0.00091532175
0.0013677567
0.0018610631
0.0023439729
0.0027908064
0.003168456
0.0035744995
0.0038386989
0.0039901966
0.0039663209
0.0037137378
0.0032483779
0.0026663838
0.0020488853
0.0014987413
0.0011291116
0.00098350263
0.00098848564
0.0010731806
0.0011733603
0.0012552865
0.0012995265
0.0013002699
0.0012636912
0.0012035947
0.0011366207
0.0010776642
0.0010371868
0.0010202275
0.001026979
0.0010543363
0.0010968659
0.0011498432
0.0012060828
0.0012653781
0.0013159611
2.6141e-05
0.00016972944
0.00042406741
0.00076138372
0.0011806592
0.0016800124
0.0022120082
0.0027063947
0.0031549603
0.0035368623
0.0039518599
0.0041574591
0.0042099599
0.004068213
0.0036880129
0.0031383553
0.002508603
0.001893455
0.0014058776
0.0011473287
0.0010900213
0.0011563206
0.0012686098
0.0013724846
0.0014391526
0.0014554732
0.0014231796
0.0013550263
0.0012694033
0.001184834
0.0011160399
0.0010718816
0.0010553462
0.0010646615
0.0010952555
0.001140766
0.0011959735
0.0012537373
0.0013136921
0.0013648775
0.00014948121
2.890311e-05
0.00034860374
0.00063448069
0.0010108963
0.0014819492
0.0020368589
0.0025903556
0.0030907874
0.0035573162
0.0039444956
0.004329792
0.00443952
0.0043825571
0.0041132494
0.0036196301
0.0029983996
0.0023419838
0.0017614949
0.0013765441
0.0012345032
0.0012578274
0.0013733235
0.0014998367
0.0015935054
0.0016319748
0.0016106324
0.0015394865
0.0014376607
0.0013269504
0.0012266775
0.0011502858
0.0011044689
0.0010897967
0.0011025646
0.0011367728
0.0011853409
0.0012426723
0.0013017891
0.0013622349
0.0014138455
0.00031237228
0.0001536931
3.8004419e-05
0.00054568837
0.00087067703
0.0013019791
0.0018338656
0.0024242456
0.0029913998
0.0035188745
0.0040123855
0.0043610768
0.0046786081
0.0046776055
0.0045007796
0.0040990843
0.0035118375
0.0028374797
0.0021837368
0.0016828026
0.0014285037
0.0013936849
0.0014911196
0.0016380628
0.0017624367
0.0018298764
0.0018271237
0.001759519
0.0016455357
0.0015095456
0.0013755077
0.0012621427
0.0011807797
0.0011353498
0.0011239424
0.0011408824
0.0011789927
0.0012306002
0.0012898989
0.0013501664
0.0014109233
0.0014627877
0.00050304003
0.00031853798
0.00018218725
5.3357206e-05
0.00077255957
0.0011531995
0.0016450387
0.0022218431
0.0028384154
0.0034405695
0.0040095346
0.0044901113
0.0047576678
0.0049893911
0.0048702134
0.0045639983
0.0040390406
0.0033731281
0.0026688526
0.0020651383
0.0016859548
0.0015734233
0.0016330604
0.0017884247
0.0019461026
0.0020491115
0.0020734277
0.0020173742
0.0018969456
0.0017381506
0.0015692889
0.0014147765
0.0012915735
0.0012080227
0.0011650239
0.0011581005
0.0011798275
0.0012219837
0.0012765399
0.0013376012
0.0013987926
0.0014596657
0.0015116303
0.000725165
0.00051037062
0.00036649002
0.00023249183
7.4559364e-05
0.0010503156
0.0014902333
0.0020253486
0.0026398909
0.0033048503
0.0039608568
0.0045348266
0.004957083
0.0051238513
0.005263803
0.0050176605
0.0045762236
0.0039414333
0.0032127812
0.0025211156
0.002021395
0.0017979351
0.0018145248
0.0019562349
0.0021449326
0.0022896998
0.0023501087
0.0023149385
0.002195613
0.0020182485
0.0018149755
0.0016160971
0.0014449595
0.0013155474
0.0012326703
0.001194012
0.0011926256
0.0012195624
0.0012658021
0.0013231351
0.0013857163
0.0014475904
0.0015083825
0.0015602895
0.001001996
0.00073274449
0.00056596387
0.00045119257
0.00030007492
0.00010032869
0.0013844509
0.0018645164
0.0024354001
0.0031110164
0.0038502081
0.0045292796
0.0050605477
0.0054086707
0.0054631831
0.0055002824
0.0051152697
0.0045362795
0.0038080127
0.0030530246
0.0024355128
0.0020884863
0.0020315659
0.0021553058
0.0023605543
0.0025517009
0.0026575076
0.002653809
0.0025449075
0.0023552157
0.002119708
0.0018744717
0.0016498943
0.0014666553
0.0013348852
0.0012554505
0.0012228345
0.0012278225
0.001260234
0.0013104699
0.0013703466
0.0014341728
0.0014964755
0.001556992
0.0016086842
0.0013371908
0.0010127749
0.00079315328
0.00066326852
0.00056399868
0.00037877044
0.00012944086
0.001755713
0.0022685268
0.002897726
0.0036632673
0.0044563176
0.0051094795
0.0055825752
0.0058451125
0.0057764224
0.0056940042
0.0051576822
0.0044501942
0.0036558434
0.0029349692
0.0024569878
0.0022934554
0.0023921366
0.0026000969
0.0028351109
0.0029957926
0.0030352352
0.0029478657
0.0027542091
0.0024906483
0.0021986581
0.0019160252
0.0016711668
0.0014808313
0.0013505466
0.0012771243
0.0012519823
0.001263967
0.0013019393
0.001355991
0.0014181201
0.0014828936
0.0015453629
0.0016054116
0.0016567348
0.0017096184
0.0013528598
0.0010795806
0.00089831102
0.00079127153
0.00069360558
0.00046223598
0.00016004142
0.0021563686
0.0027227155
0.0034395401
0.0042853474
0.0050845773
0.0056990097
0.0061041876
0.0062692553
0.0060578741
0.0058345624
0.0051378463
0.0043262184
0.0035218711
0.0029137882
0.0026259158
0.0026585795
0.0028769573
0.0031421116
0.0033644984
0.0034599231
0.0034070882
0.003220054
0.0029349193
0.0025976586
0.0022536545
0.0019398665
0.0016809902
0.0014887049
0.001363583
0.0012984421
0.0012819169
0.0013012787
0.0013447497
0.0014023419
0.0014663923
0.0015317974
0.0015941651
0.0016535583
0.0017043713
0.0021115988
0.0017304458
0.0014276844
0.0011932654
0.0010356596
0.00093659404
0.00082777979
0.00054386563
0.00018921147
0.0026049684
0.0032529426
0.0040542817
0.004941703
0.0057344172
0.0063028192
0.0066294625
0.0066770695
0.0062942484
0.0059133774
0.0050630563
0.004197008
0.0034662036
0.0030407455
0.0029760446
0.003184984
0.0034827312
0.0037636458
0.0039280878
0.0039246389
0.0037571762
0.0034594226
0.003080677
0.0026736086
0.0022844393
0.0019470544
0.0016808441
0.0014916687
0.0013750799
0.0013201213
0.0013130349
0.0013399345
0.0013886977
0.0014494867
0.0015150863
0.0015807918
0.0016427927
0.0017013554
0.0017515285
0.0025599637
0.0021381784
0.0018133619
0.0015507441
0.0013395616
0.0011891108
0.0010837875
0.00095781954
0.00061325932
0.00021133089
0.0031256752
0.003856393
0.0047151902
0.0056318845
0.0064111181
0.0069271943
0.0071552851
0.0070545134
0.0064729771
0.0059245138
0.004959068
0.0041218096
0.0035513493
0.0033638254
0.0035229238
0.0038617079
0.0041984025
0.0044393662
0.0045016741
0.0043693425
0.0040707227
0.0036568226
0.003187112
0.0027173766
0.0022918858
0.0019392828
0.0016724894
0.0014912181
0.0013861027
0.0013428081
0.0013456779
0.0013800601
0.001433793
0.001497364
0.0015641076
0.0016297774
0.0016911663
0.0017487403
0.0017981455
0.0030767739
0.0025918212
0.0022299246
0.0019455963
0.0017057015
0.0014996479
0.0013419157
0.0012186626
0.0010638051
0.00065688519
0.00022440512
0.0037184946
0.0045104994
0.0054221379
0.0063647139
0.0071244472
0.0075728706
0.0076700021
0.0073799404
0.0065828691
0.0058822678
0.0048826939
0.0041726249
0.0038369218
0.003913567
0.0042648863
0.004675352
0.004994983
0.0051382875
0.0050593381
0.0047746836
0.0043350227
0.0038055494
0.0032518476
0.0027294349
0.0022778137
0.0019187413
0.001657926
0.001488863
0.0013976408
0.0013670701
0.0013801191
0.0014217404
0.0014800047
0.0015458838
0.0016133477
0.0016786719
0.001739232
0.0017956565
0.0018441559
0.0036642845
0.0031116809
0.0026927151
0.0023721926
0.0021081826
0.0018706001
0.0016544573
0.0014701521
0.0013129905
0.0011265237
0.00067127231
0.00022996227
0.0043653237
0.0052145767
0.0061814959
0.0071511646
0.0078769668
0.0082266365
0.0081461307
0.007638004
0.0066225253
0.0058319205
0.0049104585
0.00441991
0.0043713015
0.0047045272
0.0051856025
0.0055986221
0.0058335261
0.005828118
0.005576047
0.0051235229
0.0045403224
0.0039015
0.0032746401
0.0027115962
0.0022448466
0.0018880038
0.0016392231
0.0014860552
0.0014105918
0.0013933959
0.0014165607
0.0014650026
0.001527257
0.0015949313
0.0016627237
0.0017274344
0.001786935
0.0018420164
0.0018916885
0.004308061
0.0037016867
0.0032212677
0.0028458038
0.0025425414
0.0022772595
0.0020233791
0.0017672401
0.001544226
0.0013546038
0.0011423246
0.00066958711
0.00022561418
0.0050639524
0.0059740773
0.0070045281
0.0079975657
0.0086598954
0.0088627522
0.0085579189
0.0078182322
0.0066189171
0.0058576473
0.0051214725
0.0049240636
0.0051885977
0.0057235621
0.0062470866
0.0065897742
0.0066750043
0.0064776087
0.0060293799
0.0054022519
0.0046801129
0.0039432094
0.0032570574
0.0026668408
0.0021961742
0.0018498201
0.001618421
0.0014841486
0.0014257549
0.0014221767
0.0014551207
0.0015098009
0.0015754386
0.0016444274
0.0017122105
0.0017760114
0.0018341453
0.0018895946
0.0019418233
0.005004483
0.0043502944
0.0038201255
0.0033853466
0.0030246437
0.002715999
0.0024218789
0.0021133565
0.0018114306
0.0015580816
0.0013464455
0.0011374274
0.00064803033
0.0002147092
0.0058192805
0.0068010346
0.0079021906
0.008898601
0.009446907
0.0094467484
0.0088885872
0.0079272877
0.0066466922
0.0060454395
0.0055863347
0.0057391207
0.0062881476
0.0069289616
0.0074042648
0.0076005544
0.0074801642
0.0070577761
0.0064010922
0.0056012479
0.0047512935
0.0039317282
0.0032023291
0.0025990191
0.0021353578
0.0018069755
0.0015974755
0.0014843721
0.0014437947
0.0014536819
0.0014958164
0.0015560472
0.0016244895
0.0016943706
0.0017617525
0.0018242
0.0018823533
0.0019396203
0.0019932062
0.0057571258
0.0050523025
0.0044797767
0.0039948728
0.0035718261
0.0032037409
0.0028463472
0.0024852368
0.0021195904
0.0017923079
0.0015203715
0.0013250874
0.0010958405
0.00061336823
0.0001980538
0.0066432977
0.0077067769
0.0088701263
0.0098313273
0.01020392
0.0099498988
0.0091377576
0.0080210091
0.0067936925
0.0064784389
0.0063742616
0.0068883393
0.0076285427
0.0082603529
0.0086006697
0.008581726
0.008210849
0.0075444388
0.006677511
0.0057150925
0.0047539536
0.0038703581
0.0031149676
0.0025126066
0.0020661048
0.0017621963
0.0015782103
0.0014877774
0.0014651903
0.0014880306
0.0015386154
0.0016037141
0.0016744344
0.0017446913
0.0018110578
0.0018732006
0.0019330182
0.0019911173
0.0020458315
0.0065782095
0.0058094426
0.0051929232
0.0046659597
0.0041873867
0.0037513258
0.0033138258
0.0028786174
0.0024514561
0.0020618662
0.0017157575
0.0014778705
0.0012626141
0.0010345171
0.00056262449
0.00017727621
0.007548066
0.0086882164
0.0098881676
0.010756042
0.010890416
0.010361359
0.0093291637
0.0081771411
0.0071493634
0.0072344988
0.0075287108
0.0083430793
0.0091408145
0.0096544244
0.0097787278
0.0094869938
0.0088366736
0.0079193144
0.0068501929
0.0057424701
0.0046911837
0.0037642038
0.003000448
0.0024124184
0.0019921229
0.0017180789
0.0015622187
0.0014951739
0.0014902341
0.0015252897
0.0015835488
0.0016528592
0.00172518
0.0017949957
0.0018610786
0.001924794
0.0019853787
0.0020440813
0.0020996836
0.0074801809
0.00663455
0.0059598697
0.0053892241
0.0048637134
0.0043664536
0.0038393975
0.0033090578
0.0028046744
0.0023522982
0.0019398369
0.0016442204
0.0013870858
0.0011810932
0.00095085381
0.00049799196
0.00015508979
0.0085313867
0.0097273588
0.010918449
0.011620349
0.011482644
0.010691501
0.0095321634
0.008491949
0.0077976476
0.0083725095
0.0090469269
0.010025982
0.010743088
0.011048409
0.010881425
0.010277935
0.0093337499
0.0081700492
0.006915732
0.0056858534
0.0045685297
0.0036197978
0.0028648432
0.0023033745
0.0019169956
0.0016769593
0.0015507676
0.001507124
0.0015191592
0.0015655925
0.0016307139
0.0017033529
0.0017762147
0.0018460318
0.0019139822
0.0019783348
0.0020394639
0.0020984803
0.0021547438
0.0084607741
0.0075416852
0.0067943578
0.0061633651
0.0055904382
0.0050340263
0.004422956
0.0037897439
0.0031908436
0.0026616095
0.0021823648
0.001833629
0.0015153304
0.0012787453
0.0010762855
0.00084685224
0.0004231232
0.00013314659
0.0095734735
0.010785259
0.011905318
0.01238635
0.011977283
0.010991449
0.0098344641
0.0090497378
0.008809707
0.0099135141
0.010858816
0.011834471
0.01235637
0.01237434
0.011861573
0.010923346
0.0096852564
0.0082905955
0.006875625
0.0055510088
0.0043935693
0.0034446324
0.0027145418
0.002190308
0.0018440115
0.0016407459
0.0015448078
0.0015241052
0.0015522721
0.0016090892
0.0016799311
0.0017545552
0.001828134
0.0019004214
0.0019691067
0.0020339102
0.0020952185
0.0021542867
0.0022109863
0.0094951247
0.0085269867
0.0077120859
0.0070036663
0.0063637339
0.0057389056
0.0050515524
0.0043188204
0.0036226158
0.0030001953
0.002440158
0.0020405917
0.0016613648
0.0013720529
0.0011475994
0.000953533
0.00072526036
0.00034554778
0.0001124648
0.010633261
0.011819565
0.012803486
0.013041
0.012408759
0.01134426
0.01032326
0.0099279376
0.010221709
0.011805671
0.012846512
0.013674279
0.013914923
0.013572145
0.012683607
0.011401466
0.0098815043
0.0082807803
0.0067354502
0.0053464558
0.0041753485
0.0032467805
0.0025559271
0.0020777174
0.0017759501
0.0016109438
0.0015452037
0.0015466533
0.0015897915
0.0016555264
0.0017304212
0.0018070044
0.0018840906
0.0019573375
0.0020266295
0.0020914339
0.00215261
0.0022114565
0.0022683839
0.010540705
0.0095584982
0.0087071661
0.0079271422
0.0071988308
0.0064815001
0.005706876
0.0048838271
0.0040952011
0.0033782818
0.0027245744
0.0022621674
0.0018218277
0.0014774614
0.0012080005
0.0010011895
0.00081520358
0.00059617076
0.00027131988
9.312604e-05
0.0116692
0.01278734
0.013591843
0.013606984
0.012851704
0.011822282
0.011078603
0.011179698
0.012008338
0.013929304
0.014895728
0.015465843
0.015351144
0.014596605
0.013317515
0.011697552
0.0099197922
0.0081454483
0.0065044722
0.0050828124
0.0039238604
0.0030344897
0.0023950076
0.0019695019
0.0017151026
0.0015889637
0.0015528608
0.0015751044
0.0016313615
0.0017039895
0.0017827755
0.0018644544
0.0019429353
0.0020170912
0.0020864348
0.0021508768
0.0022115805
0.0022699451
0.0023269023
0.011561077
0.010596191
0.0097406713
0.0089246165
0.0081182508
0.0072787377
0.0063874191
0.0054663212
0.0045915293
0.0037885954
0.0030404786
0.0025080054
0.0019949036
0.0015946337
0.0012745921
0.001032067
0.00084353346
0.00067092784
0.00047252063
0.00020457084
7.5617077e-05
0.012640164
0.01364944
0.014279233
0.014150573
0.013372403
0.012499949
0.012166721
0.012798444
0.014079963
0.016151384
0.016911444
0.01714024
0.016605867
0.015415693
0.013741915
0.011805912
0.0098035573
0.0078942319
0.0061948017
0.0047722008
0.0036495164
0.0028156595
0.0022371379
0.0018690423
0.0016636521
0.0015762106
0.0015682452
0.0016089799
0.0016759499
0.001755295
0.0018414299
0.0019252243
0.002005159
0.0020795398
0.0021484944
0.0022121676
0.0022720704
0.002329695
0.0023865044
0.012516872
0.011606137
0.010774522
0.0099497832
0.009107701
0.0081510691
0.0071086411
0.0060651227
0.0050951057
0.0042152183
0.0033811111
0.0027812895
0.0021891037
0.0017222057
0.0013520244
0.0010640884
0.00085057419
0.00068396163
0.00053367153
0.0003600413
0.00014870555
6.0150222e-05
0.013507499
0.014407402
0.014926145
0.014742653
0.014030422
0.01345784
0.013589828
0.014719632
0.01630759
0.018360675
0.018813468
0.018643805
0.017636193
0.016003995
0.013947903
0.011727825
0.0095422148
0.0075405288
0.0058207821
0.0044275258
0.0033625
0.0025974644
0.0020871076
0.0017795921
0.0016236871
0.0015733566
0.0015906961
0.0016471731
0.0017248107
0.0018146249
0.0019039491
0.0019900485
0.0020705807
0.0021446528
0.0022127338
0.0022752326
0.002334005
0.0023906462
0.0024471455
0.013368302
0.012546423
0.011777848
0.010967161
0.01011255
0.0090798028
0.0078896929
0.0066959898
0.0056045175
0.0046404715
0.0037279141
0.0030745391
0.0024054473
0.0018683622
0.0014383207
0.0011062617
0.00085595584
0.00067420073
0.0005363044
0.00040941498
0.00026503972
0.00010543763
4.6510261e-05
0.014269448
0.015112656
0.015604316
0.015429514
0.014906495
0.014702361
0.015293045
0.016843169
0.018572964
0.020465782
0.020550116
0.019924736
0.018416388
0.01634255
0.013933076
0.011471615
0.0091500689
0.0071008536
0.0053980777
0.0040616268
0.0030722476
0.0023864962
0.0019495698
0.0017041428
0.0015961464
0.0015796125
0.0016191236
0.0016916553
0.0017839325
0.0018785163
0.0019713771
0.0020586891
0.0021391753
0.0022123489
0.0022790656
0.0023399845
0.0023973019
0.0024527268
0.0025087927
0.014115881
0.013378993
0.012704285
0.011951739
0.011095871
0.010005851
0.008703628
0.0073690583
0.0061343607
0.0050611482
0.0040623479
0.0033685107
0.0026356746
0.0020330161
0.0015405352
0.0011564899
0.00087027867
0.00066064036
0.00051506164
0.00040668004
0.00030559981
0.00019288207
7.369361e-05
3.4332136e-05
0.014974138
0.015835509
0.016358202
0.016280405
0.0160239
0.016187281
0.01720633
0.019069522
0.02077889
0.022410013
0.022079993
0.020942096
0.01893316
0.016426546
0.01370393
0.01105194
0.0086455798
0.0065938129
0.0049426357
0.0036867005
0.0027876127
0.0021892108
0.001828733
0.0016439951
0.0015801002
0.0015940291
0.0016565891
0.0017492566
0.0018485374
0.0019484039
0.0020433966
0.0021311357
0.0022108531
0.0022825338
0.0023473906
0.00240632
0.0024618652
0.0025158785
0.002571395
0.014802605
0.014109458
0.013525243
0.012860568
0.012032284
0.0108936
0.0094945765
0.0080600335
0.0066924436
0.0054926308
0.0043845713
0.0036468262
0.002862786
0.0022082161
0.0016588107
0.0012207734
0.00089239741
0.00065500131
0.00048899323
0.00038121455
0.00030216272
0.00022688662
0.00014063948
5.1363776e-05
2.4683801e-05
0.01568874
0.01662292
0.017243049
0.01732571
0.017331384
0.017846513
0.019259699
0.021298524
0.022855934
0.024154588
0.023364102
0.021668251
0.019169886
0.016255457
0.013274612
0.010488488
0.0080502548
0.0060387686
0.0044698636
0.0033144268
0.0025173597
0.0020113881
0.0017264178
0.0015980955
0.0015749579
0.0016209434
0.001710773
0.0018135682
0.0019205355
0.0020238606
0.0021200197
0.0022072883
0.0022855145
0.0023550973
0.0024175844
0.0024741213
0.0025276202
0.0025800244
0.0026349006
0.015496198
0.014776649
0.014245128
0.013666723
0.012884096
0.011723498
0.010235602
0.0087104817
0.007250446
0.005939668
0.0047073659
0.0039073212
0.0030703415
0.002377407
0.0017854732
0.0012990432
0.00092713465
0.00065773341
0.00047083413
0.00035139439
0.00027859772
0.00022557026
0.00017006375
0.00010277804
3.5983325e-05
1.6874362e-05
0.016469557
0.017529458
0.018289598
0.018512842
0.018749603
0.019624917
0.02136892
0.023454339
0.024762146
0.025679999
0.02436074
0.022082239
0.019107485
0.015841695
0.012664495
0.0098051378
0.0073871001
0.0054549116
0.0039949289
0.0029564938
0.0022692543
0.0018555949
0.0016414679
0.0015664657
0.0015866977
0.0016690342
0.0017733282
0.0018870755
0.0019993515
0.0021049296
0.0022011326
0.0022870433
0.0023630389
0.0024298987
0.0024895087
0.0025432962
0.0025944685
0.0026450822
0.002699253
0.016263159
0.015444642
0.014897145
0.01437513
0.013635564
0.012467601
0.010913015
0.0093082103
0.0077626231
0.0063739738
0.0050313821
0.0041613445
0.0032578231
0.0025266465
0.0019059943
0.0013847567
0.00097413337
0.00067316322
0.00046248276
0.00032912521
0.00025134849
0.00020711468
0.00017159387
0.00012900883
7.5720114e-05
2.5583906e-05
1.0962651e-05
0.017369405
0.018583948
0.019448118
0.019757577
0.020232046
0.021483824
0.023456895
0.025487416
0.026473364
0.026970502
0.025015592
0.022172726
0.01875344
0.015204688
0.011898949
0.0090284559
0.0066795008
0.0048615408
0.0035331897
0.0026231735
0.0020468525
0.0017206147
0.0015748503
0.0015569801
0.0016250339
0.0017277701
0.0018474119
0.0019690067
0.0020850643
0.0021914778
0.0022866265
0.0023702703
0.0024432718
0.0025067783
0.0025630618
0.0026137311
0.0026622982
0.0027109607
0.0027643942
0.017160152
0.016185729
0.015543527
0.015014847
0.014289811
0.013113858
0.011517138
0.0098413931
0.0082204381
0.0067621846
0.0053337261
0.0044105867
0.0034347287