/*--------------------------------*- C++ -*----------------------------------*\
| =========                 |                                                 |
| \\      /  F ield         | OpenFOAM: The Open Source CFD Toolbox           |
|  \\    /   O peration     | Version:  5.0                                   |
|   \\  /    A nd           | Web:      www.OpenFOAM.org                      |
|    \\/     M anipulation  |                                                 |
\*---------------------------------------------------------------------------*/
FoamFile
{
    version     2.0;
    format      ascii;
    class       volVectorField;
    location    "300";
    object      U;
}
// * * * * * * * * * * * * * * * * * * * * * * * * * * * * * * * * * * * * * //

dimensions      [0 1 -1 0 0 0 0];

internalField   nonuniform List<vector> 
9200
(
(1.0389369 0.00074407914 -1.6755156e-24)
(1.0391187 0.0023736119 8.02275e-22)
(1.0366961 0.0007451046 0)
(1.039403 0.0037792604 -4.2422873e-22)
(1.0368521 0.0023981421 7.0072481e-22)
(1.0357085 0.00073337757 0)
(1.0397943 0.0051823375 -4.2582053e-23)
(1.037121 0.0038238729 1.0385273e-23)
(1.0358511 0.0023738633 0)
(1.0342629 0.00070475506 0)
(1.0402444 0.0064682607 8.7741431e-22)
(1.0374803 0.0052554424 6.5408093e-22)
(1.0361027 0.0037900971 3.9737411e-22)
(1.0343819 0.0022927975 2.4242618e-23)
(1.0331543 0.00066928464 2.3239758e-25)
(1.040752 0.0076731494 8.4035305e-22)
(1.0379218 0.0065867949 -3.0337947e-23)
(1.0364367 0.0052171619 1.3262818e-21)
(1.0346057 0.0036637086 5.4436871e-22)
(1.0332574 0.0021807385 1.7331446e-23)
(1.0320595 0.00063199658 -1.0193702e-21)
(1.0412946 0.0087599786 8.7405821e-22)
(1.0384564 0.0078642 9.5395634e-22)
(1.0368437 0.0065624591 -7.9811532e-22)
(1.0348895 0.0050448888 -5.8654921e-23)
(1.0334616 0.0034833917 4.9072026e-22)
(1.0321492 0.0020544124 4.9812723e-22)
(1.0310937 0.00060142145 8.7707721e-23)
(1.0418886 0.0096947471 4.4403282e-22)
(1.0390976 0.0090743034 7.9506743e-22)
(1.0373344 0.0078830345 9.5543992e-22)
(1.0352225 0.0063585569 5.5189956e-23)
(1.0337123 0.0047868314 -1.2627899e-21)
(1.0323376 0.0032778848 -5.6084464e-22)
(1.0311786 0.0019409647 -5.7435608e-22)
(1.0301983 0.00057948284 9.4744879e-22)
(1.0425438 0.010432172 -1.1679821e-21)
(1.0398862 0.010195888 8.3006575e-22)
(1.0379137 0.0091926821 5.2323993e-23)
(1.0355974 0.0076631879 4.5467458e-22)
(1.0339937 0.0060209518 1.2700445e-22)
(1.0325645 0.0044863352 -1.8803813e-21)
(1.0313613 0.0030937838 1.6431671e-22)
(1.0302842 0.0018522929 -9.7648732e-22)
(1.0293696 0.00056398854 -2.0104832e-21)
(1.0432251 0.010951342 9.0856216e-22)
(1.040883 0.011252964 -3.2612417e-22)
(1.0385946 0.010513045 -4.9551016e-23)
(1.0359899 0.0089920063 -2.07504e-22)
(1.0342835 0.0072291055 -1.9322794e-22)
(1.0328137 0.0056170106 2.1211147e-22)
(1.0315853 0.0042162689 6.5819864e-22)
(1.0304647 0.0029530427 1.1023328e-21)
(1.0294597 0.0017905661 6.253141e-22)
(1.0285908 0.00055073569 1.6142466e-22)
(1.0439346 0.01122402 -4.4299119e-22)
(1.0422668 0.012181442 1.9948562e-22)
(1.0394175 0.01192063 6.2894972e-22)
(1.036385 0.010398793 -7.6290017e-22)
(1.0345239 0.0084385135 5.3971429e-22)
(1.0330528 0.006687938 -1.7055459e-21)
(1.0318379 0.0052553108 6.7764549e-23)
(1.0306938 0.0040145103 1.658748e-21)
(1.0296372 0.00286066 -8.2797374e-22)
(1.0286832 0.0017471975 1.8232208e-21)
(1.0278563 0.0005372084 -2.7458676e-22)
(1.0450277 0.010991101 9.4020531e-23)
(1.0437776 0.012991292 -5.1958075e-22)
(1.040209 0.013546751 -8.0651952e-22)
(1.0367306 0.011986891 0)
(1.0346728 0.009687966 3.4902482e-23)
(1.0332192 0.0077101198 -3.1045323e-22)
(1.0320949 0.0062078593 -3.3718271e-22)
(1.0309614 0.0049966426 -8.1941299e-22)
(1.0298697 0.0038915368 -2.1820966e-22)
(1.0288527 0.0028015811 -1.0495878e-21)
(1.027946 0.0017097682 -7.1364724e-22)
(1.0271642 0.0005225963 1.647735e-22)
(1.0465058 0.010187223 4.3820767e-23)
(1.0456793 0.014067918 -3.4088237e-23)
(1.0409827 0.015467686 0)
(1.0369375 0.01382442 0)
(1.0345996 0.01102334 -1.7957349e-22)
(1.0332675 0.0086772249 -2.0959283e-22)
(1.0323042 0.0070663702 -4.4521335e-22)
(1.0312598 0.0058866086 9.6801388e-22)
(1.0301462 0.0048569972 1.0044835e-22)
(1.0290791 0.0038217157 2.6094058e-24)
(1.0281028 0.0027528805 1.1754602e-21)
(1.0272462 0.001666152 -1.2669827e-21)
(1.0265165 0.000505734 2.6222996e-21)
(1.0481749 0.0087787747 -8.3458315e-22)
(1.048391 0.015272227 3.2475785e-23)
(1.0419944 0.017690592 -2.9285217e-22)
(1.0369863 0.015961181 8.6327983e-23)
(1.0342453 0.012470093 -5.1000359e-23)
(1.0331106 0.0095939677 -1.5198434e-22)
(1.0324329 0.0077910755 2.6730707e-22)
(1.031554 0.006669973 1.5881685e-23)
(1.0304785 0.0057438389 1.0846499e-21)
(1.0293509 0.0047941927 1.0117191e-21)
(1.0283138 0.0037663649 3.2470015e-22)
(1.0273873 0.0026923703 9.4017707e-22)
(1.0265885 0.001606782 6.3907117e-22)
(1.0259177 0.00048444813 -7.1827972e-22)
(1.0502557 0.0068269719 2.6341408e-22)
(1.0519381 0.016632965 1.1431818e-21)
(1.0432903 0.020418401 -3.7485768e-22)
(1.036811 0.018527954 6.8117696e-23)
(1.0335218 0.014087957 -6.7112037e-23)
(1.032659 0.010405534 2.8419665e-22)
(1.0324151 0.0083493264 2.556508e-22)
(1.0318348 0.0072927092 -3.4160607e-22)
(1.030851 0.0065416669 -9.7537774e-23)
(1.0296957 0.0057094251 -1.2018607e-22)
(1.0285648 0.004750521 -1.9331319e-23)
(1.0275731 0.0036901879 -1.4784568e-22)
(1.026713 0.0026030558 -1.2016777e-21)
(1.0259804 0.0015260737 6.0830496e-22)
(1.025373 0.00045740232 -5.4876093e-22)
(1.0526225 0.0039164372 2.3207538e-21)
(1.0563144 0.018024744 -1.6801775e-21)
(1.0448962 0.023889033 1.1666219e-22)
(1.0363212 0.021732646 -2.1928023e-23)
(1.032235 0.015961929 -1.1997384e-22)
(1.0317528 0.011098186 -4.8637264e-22)
(1.0322397 0.0086482444 -3.7657974e-23)
(1.032094 0.0076865746 3.2762631e-23)
(1.0312827 0.0071947884 -2.0997756e-22)
(1.0301155 0.006568863 -2.681438e-22)
(1.0288893 0.0057017686 -2.0913705e-21)
(1.0277873 0.004676001 4.3618912e-22)
(1.0268701 0.0035680941 3.744715e-22)
(1.0260898 0.0024757348 1.8980784e-22)
(1.0254292 0.0014238141 4.0860152e-23)
(1.0248864 0.00042570189 6.0950716e-22)
(1.0553991 0.00059984543 0)
(1.0613506 0.019717992 -2.1759056e-21)
(1.0467515 0.028335848 8.942553e-22)
(1.0354257 0.025774394 0)
(1.0302079 0.018173601 0)
(1.0302406 0.011661812 0)
(1.0317378 0.0085474512 1.154268e-22)
(1.0324761 0.0077864399 4.8357901e-22)
(1.0318532 0.0076383234 3.5878565e-22)
(1.0306692 0.0073324756 6.2236202e-22)
(1.0292993 0.0066425796 9.6863623e-23)
(1.0280564 0.0056527329 4.57568e-22)
(1.0270344 0.0045318954 3.8661694e-24)
(1.0262195 0.0033864811 -4.294287e-22)
(1.0255276 0.0023108795 -1.2820961e-22)
(1.0249396 0.0013052849 -2.9701672e-22)
(1.0244584 0.00039215979 0)
(1.0585409 -0.0035328512 4.9478693e-21)
(1.0667459 0.021422967 5.5165045e-21)
(1.0485902 0.03392769 -1.94803e-21)
(1.0339308 0.030871539 1.3221929e-21)
(1.0272528 0.020836767 1.2089277e-21)
(1.027926 0.012045049 0)
(1.0308345 0.0079732345 7.8022337e-22)
(1.0327829 0.0073421089 -2.3023035e-22)
(1.0326737 0.0077930939 4.3035035e-22)
(1.0314742 0.0079506401 4.1636943e-22)
(1.0298738 0.0075684662 -3.7430059e-22)
(1.0283848 0.0066643692 1.2841135e-22)
(1.0272252 0.0055020996 7.5688241e-22)
(1.0263331 0.0042979466 -1.4152734e-21)
(1.0256363 0.0031461869 -3.9705018e-22)
(1.025033 0.0021177919 -1.9981129e-21)
(1.0245126 0.0011794914 -7.9586882e-22)
(1.0240862 0.00035961246 -7.6605543e-22)
(1.063646 -0.007936247 -4.1514613e-22)
(1.0735634 0.023400677 3.6669436e-21)
(1.0502056 0.040936161 1.0829179e-21)
(1.0314561 0.037206519 6.3683581e-22)
(1.0231156 0.024061932 -2.3842898e-22)
(1.0245803 0.012210116 -5.1469751e-22)
(1.0294001 0.0067697685 -1.9103279e-21)
(1.0330054 0.0062777357 -9.3259217e-22)
(1.03381 0.0076148823 -1.0709704e-22)
(1.032498 0.0084142558 -6.5804662e-22)
(1.0306671 0.0085055821 -9.7373431e-23)
(1.0288315 0.0077567043 -8.3826893e-22)
(1.0274175 0.0065357179 1.2970788e-22)
(1.0264396 0.0052133228 1.2051563e-22)
(1.0257117 0.0039768571 1.8161254e-22)
(1.0251314 0.0028624112 3.0184289e-22)
(1.0246078 0.0019116244 -6.5993373e-22)
(1.0241454 0.0010562923 2.8597453e-23)
(1.023764 0.00033042678 -7.2624413e-22)
(1.0690777 -0.015501105 -3.5838037e-21)
(1.0845261 0.025082631 -7.3200559e-21)
(1.0530909 0.049320997 1.1447914e-20)
(1.0279331 0.044853988 -1.0050531e-21)
(1.0175288 0.027950824 4.2528603e-23)
(1.0199402 0.012103392 -2.2438005e-22)
(1.0272761 0.004765408 2.6264452e-22)
(1.0331688 0.0043698554 -1.669838e-23)
(1.0352473 0.006850964 -3.0160063e-23)
(1.0339803 0.0088330761 3.3235042e-22)
(1.0316516 0.0095290656 -1.0812584e-21)
(1.0293736 0.0090187381 2.8902679e-22)
(1.027629 0.0077065088 4.5653843e-22)
(1.0264875 0.0061954915 -4.0908756e-23)
(1.0257492 0.0047897709 1.2661138e-22)
(1.0251873 0.0035902797 9.5533395e-22)
(1.0247088 0.0025590886 -1.9608551e-22)
(1.0242487 0.0017092059 1.0857638e-21)
(1.0238319 0.00094403701 2.8756499e-22)
(1.0234843 0.00030693633 7.6018616e-22)
(1.0752439 -0.021881246 -3.6265e-22)
(1.1003268 0.027101136 -1.6950627e-20)
(1.0605066 0.059063853 1.3844824e-21)
(1.0247944 0.053968542 2.3929378e-22)
(1.0102356 0.03247143 -1.3453388e-21)
(1.0137632 0.011672818 -1.2510502e-21)
(1.0242849 0.0017581619 2.0399231e-21)
(1.0332515 0.001381447 1.5252541e-21)
(1.0371125 0.0053404089 3.9464504e-22)
(1.0361294 0.0090108055 0)
(1.0330986 0.010658546 7.3759271e-22)
(1.030045 0.010525537 3.1371756e-22)
(1.0278069 0.0091060126 -6.2650199e-22)
(1.0264568 0.0073037734 7.3359407e-23)
(1.0256846 0.0056468429 -4.3320994e-22)
(1.0251887 0.0042696811 7.5093457e-22)
(1.0247669 0.0031727183 1.5681589e-22)
(1.0243652 0.0022615984 -3.2761544e-22)
(1.0239488 0.0015252957 6.4894209e-22)
(1.0235634 0.00084871118 4.8557958e-23)
(1.0232387 0.00029134678 7.2958072e-22)
(1.0740374 -0.029313861 3.9467706e-21)
(1.1072699 0.024531658 -1.8826993e-20)
(1.0741303 0.06993951 -1.0325092e-20)
(1.0250588 0.064900334 2.4164427e-21)
(1.0015564 0.037844632 -3.812478e-21)
(1.0057867 0.010873063 3.4593225e-23)
(1.0202433 -0.0024406987 0)
(1.0332336 -0.002937908 3.8803753e-22)
(1.0395416 0.0028539991 1.2275223e-22)
(1.0391063 0.0088394172 9.8148174e-22)
(1.0352211 0.011967182 4.1156526e-22)
(1.031028 0.012351568 6.2873712e-23)
(1.027986 0.010818044 -7.7218328e-23)
(1.0262856 0.0086169042 3.6311889e-22)
(1.025471 0.0065781692 -2.2380727e-22)
(1.0250599 0.0049496921 2.423364e-22)
(1.0247684 0.0037066327 -9.4818256e-23)
(1.024446 0.0027617129 5.8352624e-22)
(1.0240919 0.0019913236 1.2883778e-22)
(1.0236985 0.0013702838 1.7887907e-23)
(1.0233312 0.00077407896 3.870051e-22)
(1.0230187 0.00028472951 0)
(1.0666558 -0.038211996 5.8639713e-22)
(1.1076309 0.022646821 1.1950376e-20)
(1.0903734 0.082823473 -5.4474685e-22)
(1.028818 0.078335823 2.7262635e-21)
(0.99244626 0.044753125 -4.5837331e-21)
(0.99565508 0.0096878298 1.8386443e-21)
(1.0149866 -0.0080235144 -5.8678245e-22)
(1.0330312 -0.0088611664 8.3870857e-22)
(1.0426911 -0.00085711868 -8.4658545e-23)
(1.04315 0.008180835 -7.9850625e-23)
(1.0382396 0.013501992 -3.6348873e-24)
(1.0324416 0.014694478 -2.2340147e-22)
(1.0281826 0.012998378 -1.0394199e-22)
(1.0259318 0.010232128 1.2722475e-21)
(1.0250235 0.0076433159 8.7827859e-22)
(1.0247464 0.0056366981 6.1626703e-22)
(1.0246327 0.0041914725 -1.3928127e-22)
(1.0244805 0.0031559443 -9.070091e-22)
(1.0242116 0.0023902764 -3.0064541e-23)
(1.023876 0.0017629846 3.4794745e-22)
(1.0234874 0.0012495094 0)
(1.0231269 0.00072157991 -8.7321009e-22)
(1.0228161 0.0002856662 -2.8314757e-24)
(1.0520883 -0.046859079 -7.232102e-21)
(1.1044107 0.020138077 3.8365992e-20)
(1.0923037 0.095737779 -2.5364584e-20)
(1.0309824 0.096437864 -4.8359531e-21)
(0.9824964 0.054309395 -6.6138226e-21)
(0.98292178 0.0081321307 0)
(1.008254 -0.015190302 -2.1825784e-22)
(1.0325757 -0.016679523 9.539152e-22)
(1.0466213 -0.0060916209 -1.1237797e-21)
(1.0485512 0.0068991053 -1.6533139e-21)
(1.0424339 0.01531757 8.4939245e-22)
(1.0344493 0.017751826 3.0480731e-22)
(1.0284182 0.015865265 -2.2916386e-22)
(1.0253113 0.012291116 6.3899662e-22)
(1.0242494 0.0089134468 -7.0910915e-22)
(1.0241477 0.0063550292 -1.4091154e-21)
(1.0243109 0.0046104179 -2.5356648e-22)
(1.0243912 0.0034560051 -3.152254e-22)
(1.0243036 0.0026648368 8.9678999e-22)
(1.0240446 0.0020825166 -2.6094522e-22)
(1.0237027 0.0015847253 -7.406968e-22)
(1.0233059 0.0011640264 8.0314621e-22)
(1.0229435 0.00069000143 -6.1386108e-22)
(1.0226247 0.00028992986 -1.5816173e-24)
(1.0320142 -0.054596961 4.1717518e-22)
(1.0933338 0.020642424 3.4794132e-20)
(1.0763664 0.10843948 2.9592157e-22)
(1.0243849 0.11658978 1.8132693e-20)
(0.96983642 0.067074778 3.1173567e-21)
(0.96738502 0.0069002133 -8.5336721e-21)
(0.99961335 -0.024185962 -2.9831927e-22)
(1.031776 -0.02664146 -1.0132778e-21)
(1.0514386 -0.013160419 3.9838411e-22)
(1.0555707 0.0047904747 -1.0602474e-21)
(1.0481307 0.017473979 8.2546183e-22)
(1.037225 0.021781738 -2.936252e-22)
(1.0287083 0.019686753 5.8240497e-22)
(1.0243403 0.014980249 -7.4295396e-23)
(1.0230165 0.010473491 -1.0713276e-21)
(1.0231555 0.0071302304 -2.0877881e-23)
(1.0237048 0.0049511169 -5.4460151e-23)
(1.0241438 0.0036237491 -4.4883294e-22)
(1.0243012 0.0028116606 0)
(1.0242092 0.0022658802 -1.0101353e-22)
(1.0239241 0.0018505375 -2.9412682e-23)
(1.0235589 0.0014595292 6.0506123e-23)
(1.0231451 0.0011119496 -3.933182e-23)
(1.0227738 0.00067595739 8.7658449e-22)
(1.0224409 0.00029278166 4.9616291e-22)
(1.0089357 -0.061419017 8.1745061e-21)
(1.0764215 0.020852085 -2.1665852e-20)
(1.0542149 0.12190763 -8.7175615e-21)
(1.008271 0.13580797 -2.2505641e-21)
(0.95622017 0.081743094 8.8087217e-21)
(0.94966355 0.0059321905 1.2950195e-21)
(0.98882686 -0.035240328 -3.7798604e-22)
(1.0305277 -0.039020643 1.0389654e-22)
(1.0571602 -0.022378953 -2.9053969e-21)
(1.0645059 0.0016236545 -3.6498026e-22)
(1.0556736 0.020050755 -1.374303e-21)
(1.0409442 0.02708335 1.6811086e-23)
(1.0290215 0.024784617 -2.1527711e-22)
(1.0228881 0.018525645 -3.4362207e-22)
(1.0211627 0.012434999 -3.6468611e-22)
(1.0216186 0.0079833297 1.4243138e-21)
(1.0227112 0.0051917937 2.1530912e-21)
(1.0236559 0.0036182669 5.7617352e-22)
(1.0241892 0.002778932 8.0914176e-22)
(1.0243167 0.0023030323 2.1210978e-23)
(1.0241674 0.001974638 -9.4491175e-22)
(1.0238318 0.0016933393 -2.273632e-22)
(1.0234338 0.001385876 6.5702254e-22)
(1.022996 0.0010891386 -7.6818611e-22)
(1.0226119 0.00067535979 6.6241559e-22)
(1.0222633 0.00029283734 -3.6046795e-23)
(0.98436487 -0.067465135 -2.8665665e-22)
(1.0546736 0.021152542 -2.5665341e-20)
(1.0328818 0.13537492 3.2459104e-20)
(0.99065565 0.15214193 -1.8726282e-20)
(0.94372951 0.09757369 -2.5005436e-21)
(0.93126275 0.0047809865 9.5183338e-21)
(0.97627333 -0.048638218 1.6428785e-21)
(1.0285084 -0.054027797 2.1842909e-21)
(1.0636634 -0.033954444 7.0625218e-21)
(1.0754501 -0.0028380572 3.3249033e-21)
(1.0654081 0.02312979 -1.3119522e-22)
(1.045791 0.034028746 2.5525023e-21)
(1.0293228 0.031532883 -1.0953633e-21)
(1.0208009 0.023187322 -5.6631496e-22)
(1.0184829 0.014920683 -2.9213304e-22)
(1.0193504 0.0089387318 3.0065814e-22)
(1.0211883 0.0052936737 -4.9688049e-23)
(1.0228471 0.0033796795 3.5100098e-23)
(1.0239094 0.0025067243 1.8133354e-22)
(1.0243729 0.0021383694 6.5020066e-23)
(1.0243909 0.0019479223 0)
(1.0241521 0.0017905078 -3.4332403e-22)
(1.023752 0.0016012279 -4.3351549e-23)
(1.0233176 0.0013571568 0)
(1.0228526 0.0010898072 9.4269973e-22)
(1.022454 0.00068502788 4.0139847e-24)
(1.0220895 0.00029311789 -4.8526205e-22)
(0.95900665 -0.072753138 -2.5752033e-21)
(1.0303787 0.021716186 -2.0720569e-21)
(1.0075866 0.14838094 2.515866e-20)
(0.96938327 0.16755758 -3.7295374e-21)
(0.9289375 0.11142757 -1.3770703e-21)
(0.91302048 0.0050751666 -1.099738e-20)
(0.96135011 -0.063444357 -2.2053315e-22)
(1.0251899 -0.07158907 5.2636233e-22)
(1.0703443 -0.047773466 -2.5219754e-21)
(1.0878649 -0.0086007832 -7.2487782e-21)
(1.0772657 0.02682686 4.8629366e-21)
(1.0518663 0.04301538 3.618671e-23)
(1.0295449 0.040343114 -6.8830015e-23)
(1.0178704 0.029246191 -4.6549664e-22)
(1.0147436 0.018071806 -9.12628e-22)
(1.0161273 0.010011506 -2.7694205e-22)
(1.0189675 0.0052064578 -1.4746364e-21)
(1.0216067 0.0028206694 -1.0289802e-21)
(1.0234157 0.0019110676 -4.1941063e-22)
(1.0243473 0.0017038078 -7.1849546e-22)
(1.0246206 0.0017211871 -3.329382e-22)
(1.0244838 0.0017412185 1.0331216e-22)
(1.0241416 0.0016984982 3.0822205e-23)
(1.0236733 0.0015635796 0)
(1.0232056 0.0013628807 0)
(1.0227124 0.0011085168 -6.8706221e-23)
(1.022296 0.00070336561 8.5222225e-22)
(1.021918 0.00029738162 9.3018212e-22)
(0.93339806 -0.077422896 0)
(1.004891 0.022481787 -1.4052477e-20)
(0.98085446 0.16054649 -2.1912665e-20)
(0.94453649 0.18198023 -6.5636101e-21)
(0.90816786 0.1245046 -9.8996604e-22)
(0.89432534 0.0054703316 1.1661744e-21)
(0.94436743 -0.079438845 -2.2266074e-21)
(1.0199685 -0.091262719 3.5783622e-21)
(1.0761727 -0.063653216 -1.018538e-20)
(1.1007551 -0.015390029 1.8597331e-21)
(1.0901407 0.031565035 -5.791711e-22)
(1.0585508 0.054595918 -1.5095355e-21)
(1.0294583 0.051683291 8.9662571e-22)
(1.0138105 0.03700469 -1.0506473e-21)
(1.009651 0.022021567 -2.9403524e-22)
(1.011694 0.011213974 -1.0325462e-21)
(1.0158472 0.0048540818 -1.4656694e-22)
(1.0198083 0.0018341406 -3.2801419e-22)
(1.0226426 0.00087384716 -5.7700274e-23)
(1.0242331 0.00090709295 -3.766537e-22)
(1.024853 0.0012295364 -2.1865599e-22)
(1.0248702 0.0015130561 -1.6915209e-22)
(1.0245672 0.0016610529 2.6417138e-23)
(1.0241183 0.0016727293 7.720927e-22)
(1.0235962 0.0015709065 2.3606636e-22)
(1.0230968 0.0013934281 -1.1955256e-23)
(1.0225723 0.0011416368 -9.0064798e-22)
(1.0221362 0.00072895319 5.6129065e-22)
(1.0217471 0.000306333 -1.3910657e-21)
(0.90805437 -0.081393473 3.2136642e-21)
(0.97902987 0.022815829 0)
(0.95367958 0.17184334 0)
(0.91871625 0.19509954 0)
(0.88591622 0.13621711 1.728096e-21)
(0.87493122 0.0069744324 0)
(0.92621872 -0.09638948 -1.3221e-21)
(1.0126583 -0.11304633 -3.5998978e-21)
(1.0808627 -0.081864435 -2.3055907e-20)
(1.1141047 -0.023507496 3.1268537e-20)
(1.1033824 0.037747016 -8.2887328e-21)
(1.0641949 0.069427543 2.0268429e-21)
(1.0281299 0.066064239 1.6395213e-22)
(1.0082145 0.046792122 1.8275238e-21)
(1.0028436 0.026898399 2.1586325e-21)
(1.005761 0.012540753 -1.9631421e-22)
(1.0116019 0.0041474351 -1.1589757e-21)
(1.0173016 0.00027935689 2.3484409e-22)
(1.0215205 -0.00074749948 7.1556059e-22)
(1.0240171 -0.00038039947 4.6464912e-22)
(1.0251202 0.00038879527 1.9843459e-22)
(1.0253308 0.0010539468 -1.5383111e-22)
(1.0250788 0.0014778972 -3.0779628e-22)
(1.0246207 0.0016737377 2.3065607e-22)
(1.0240852 0.0016866943 7.2319595e-24)
(1.0235239 0.0016134894 1.7837754e-22)
(1.0229852 0.0014436412 -6.9177699e-22)
(1.0224297 0.0011849069 1.9703486e-26)
(1.0219746 0.00075911076 -2.1725522e-21)
(1.0215757 0.00031789049 -8.3658002e-22)
(0.88107699 -0.085600384 -4.2736839e-21)
(0.95366535 0.023971076 -8.5826576e-21)
(0.92691098 0.18212342 0)
(0.89286635 0.20708324 0)
(0.86297553 0.14626097 0)
(0.85620317 0.0095062709 0)
(0.90823206 -0.11341459 0)
(1.0030475 -0.13658999 1.0536716e-21)
(1.0846025 -0.10301209 8.3575767e-21)
(1.1292913 -0.034397651 -4.6433313e-20)
(1.1202085 0.044645418 4.3873757e-22)
(1.0702075 0.087819005 -8.6053758e-21)
(1.0241457 0.083679951 5.6928503e-21)
(1.0002957 0.058869218 2.3893729e-21)
(0.99389565 0.03279932 -2.8051482e-22)
(0.99800191 0.013960835 5.6149744e-22)
(1.0059888 0.0029747402 -2.7607375e-22)
(1.0139196 -0.0020038122 5.4041829e-22)
(1.0199658 -0.0031340017 -5.4244524e-22)
(1.0236919 -0.0023139532 -1.957279e-22)
(1.025459 -0.00092148089 -1.9581272e-23)
(1.0259297 0.00030233347 -3.6524715e-22)
(1.0257146 0.0011169581 -2.2110051e-23)
(1.0252217 0.0015658149 1.0849271e-22)
(1.0246297 0.0017369187 -1.0898527e-22)
(1.0240344 0.0017498523 -5.5974862e-22)
(1.0234385 0.0016892605 -1.9427866e-22)
(1.0228634 0.0015079539 3.0240504e-22)
(1.0222846 0.0012325496 8.9494168e-25)
(1.0218123 0.00079077473 1.5662847e-21)
(1.0214038 0.00032969781 5.4357649e-22)
(0.85232266 -0.08965543 5.2082063e-21)
(0.92667759 0.023219476 -1.0793175e-21)
(0.90142754 0.19120427 -1.3985013e-20)
(0.86783433 0.21787728 -2.0774368e-20)
(0.84017051 0.15516969 0)
(0.83726899 0.0086535116 0)
(0.89076282 -0.12999781 -1.2337309e-21)
(0.99097543 -0.16072993 -9.5777217e-21)
(1.0843934 -0.12584796 3.2884948e-20)
(1.1448013 -0.048744762 -5.5933077e-20)
(1.1444647 0.049939805 -1.320482e-21)
(1.0841254 0.10846559 1.4649367e-20)
(1.0205618 0.10475213 4.2004076e-22)
(0.98903218 0.073085449 -2.293918e-22)
(0.98228682 0.039754841 -1.8199763e-21)
(0.98806787 0.015395119 -8.2670531e-23)
(0.99875614 0.0012014771 2.7724494e-21)
(1.009483 -0.0051998456 -7.8746423e-23)
(1.0178865 -0.0064907421 -1.378684e-21)
(1.023249 -0.0050918042 -1.5188485e-22)
(1.0259234 -0.0028462841 -7.1306956e-22)
(1.026744 -0.00083720187 1.3905768e-22)
(1.0265588 0.00055027334 -8.5394332e-23)
(1.0259682 0.0013428635 -2.7729958e-22)
(1.0252843 0.0017202867 -6.1829323e-23)
(1.0246036 0.0018399205 -1.9706095e-22)
(1.0239724 0.0018553607 -1.509707e-22)
(1.0233394 0.0017756558 -1.6277715e-22)
(1.0227396 0.0015735211 4.1281106e-22)
(1.0221399 0.001280196 -3.0606429e-23)
(1.0216499 0.00082186724 7.5698708e-22)
(1.0212319 0.00034051593 5.7510024e-23)
(0.82331455 -0.093584932 -3.6455964e-21)
(0.89828951 0.023128124 7.3964078e-22)
(0.87552177 0.19968711 1.6105405e-20)
(0.84416139 0.22761463 3.682426e-20)
(0.81853504 0.16277631 0)
(0.8179132 0.0076848432 0)
(0.87343137 -0.14618132 0)
(0.97684529 -0.18447659 -9.9669775e-22)
(1.0786274 -0.14893914 -5.6857156e-20)
(1.1506589 -0.064324795 -6.1477312e-20)
(1.1693286 0.052775835 -1.6254463e-21)
(1.1093329 0.12947305 4.1584011e-21)
(1.025941 0.12871641 -1.6870864e-20)
(0.9763399 0.089507197 3.8754638e-21)
(0.96735924 0.047519306 -9.6885482e-22)
(0.97562746 0.016704516 0)
(0.98965802 -0.0013339189 7.975454e-22)
(1.0038132 -0.009505234 -6.6667389e-22)
(1.0151788 -0.011049395 -4.0219742e-22)
(1.0226801 -0.0089383612 1.7932952e-22)
(1.0265817 -0.0055739039 1.7834982e-22)
(1.0278834 -0.0024773201 3.1642685e-22)
(1.0277169 -0.00027886003 2.2088754e-22)
(1.0269537 0.0010149098 1.7120578e-22)
(1.0260792 0.0016517618 3.2936693e-23)
(1.0252727 0.0019054601 -5.0789326e-23)
(1.0245508 0.0019758993 1.7954145e-23)
(1.0238969 0.0019664588 -8.9679663e-24)
(1.0232423 0.0018490622 4.1983844e-22)
(1.0226203 0.0016363586 3.1130108e-22)
(1.021995 0.0013271681 1.4549899e-23)
(1.0214877 0.0008514341 -2.1245436e-21)
(1.0210608 0.00035005157 8.0885077e-22)
(0.7943462 -0.097039586 -6.7094141e-21)
(0.86727071 0.019149905 0)
(0.84856393 0.2071375 1.8140897e-20)
(0.82078936 0.2371057 6.4336894e-20)
(0.79840031 0.16926542 -1.4299705e-20)
(0.79910511 0.0064178754 -1.2437021e-21)
(0.85587597 -0.16184584 -3.9454933e-20)
(0.96100816 -0.20719868 1.6339577e-20)
(1.0680833 -0.17160564 1.3125689e-20)
(1.1483823 -0.080048908 1.4664748e-19)
(1.1735605 0.05166062 -5.7637083e-20)
(1.1382468 0.15159254 -4.8578078e-20)
(1.0419724 0.15556937 1.8583994e-21)
(0.96905577 0.1092229 -7.0573981e-22)
(0.94911089 0.055756895 -1.8773006e-21)
(0.96036185 0.017692959 3.2299913e-22)
(0.9784808 -0.0048243613 3.7853585e-22)
(0.99674348 -0.01511779 3.0747375e-22)
(1.011736 -0.017048428 -1.5498862e-22)
(1.0219692 -0.014109679 2.217427e-23)
(1.0275131 -0.0093213937 3.8697018e-22)
(1.0294839 -0.0047694224 1.3436676e-22)
(1.0293381 -0.0014335679 -1.6648004e-22)
(1.0282972 0.00057173065 3.244262e-22)
(1.0271042 0.0015771239 1.6060029e-22)
(1.0260595 0.0019815352 3.7208127e-23)
(1.0252052 0.0021046328 4.7526299e-23)
(1.0244771 0.0021167956 2.6843342e-23)
(1.0238129 0.0020614816 1.4502832e-22)
(1.0231422 0.0019264616 -4.6477922e-23)
(1.0224943 0.0017017608 2.1035718e-22)
(1.0218488 0.001372301 1.9324236e-23)
(1.0213259 0.00087900601 8.6088796e-22)
(1.020891 0.0003584354 -1.5103895e-21)
(0.76645087 -0.10010881 6.2601651e-21)
(0.83347092 0.017760862 -2.973108e-22)
(0.82047665 0.21343748 -2.3712356e-21)
(0.79791279 0.24679468 -3.7373954e-20)
(0.77872214 0.17692539 6.4142452e-20)
(0.78135868 0.003385435 7.8749094e-20)
(0.83783531 -0.17608037 7.0639835e-21)
(0.94380976 -0.22851847 0)
(1.0534972 -0.19348926 4.3088203e-20)
(1.1407595 -0.095044942 2.0176375e-19)
(1.1723725 0.049693783 5.7848572e-21)
(1.1572594 0.17363665 2.3976705e-20)
(1.058696 0.18747201 0)
(0.97024387 0.13455696 3.2088248e-21)
(0.92972644 0.065947573 2.8766289e-21)
(0.94186644 0.017864703 -4.7823666e-22)
(0.965092 -0.0094172689 -3.034724e-21)
(0.98813115 -0.022223267 0)
(1.0074512 -0.024718957 4.1116746e-22)
(1.021091 -0.020873087 5.3135229e-22)
(1.0287977 -0.014343323 -1.2819158e-22)
(1.0317078 -0.0078930376 3.6441126e-22)
(1.0316086 -0.0030053983 0)
(1.0301652 9.8479707e-06 1.0566778e-22)
(1.0284753 0.0015303595 1.7999183e-22)
(1.0270372 0.0021337237 -1.4979512e-23)
(1.0259408 0.0022876861 5.4875146e-23)
(1.0251034 0.0022857243 -2.8997674e-23)
(1.0243933 0.0022297101 -1.4634075e-24)
(1.0237278 0.0021461028 4.5350934e-22)
(1.0230404 0.0020017115 -9.1038859e-22)
(1.02237 0.0017607318 -5.4438849e-22)
(1.021704 0.0014135212 0)
(1.0211657 0.00090441044 -3.3691572e-23)
(1.0207229 0.00036585924 -4.4834386e-22)
(0.74049751 -0.10293975 9.5227451e-21)
(0.80075139 0.016495321 -7.7612787e-21)
(0.79289984 0.21895134 1.7385965e-20)
(0.7755965 0.25543332 -1.0849212e-20)
(0.75981974 0.18704467 2.3918277e-20)
(0.76282351 0.0043515569 1.2081902e-20)
(0.82140234 -0.191226 6.3950721e-20)
(0.92540364 -0.24826449 4.7308575e-21)
(1.0359114 -0.21383291 0)
(1.1272512 -0.10934167 -7.2963695e-20)
(1.1666489 0.050041868 7.0348815e-20)
(1.1494327 0.19382558 -8.1286912e-21)
(1.0636598 0.2219105 1.5958954e-20)
(0.97271666 0.16630959 -5.5511216e-21)
(0.91301448 0.079829903 2.7826791e-21)
(0.91963599 0.017534238 1.4296151e-21)
(0.94934598 -0.015477629 -5.4179271e-21)
(0.97788597 -0.030997656 -1.3661209e-21)
(1.0022224 -0.034266855 1.2819004e-21)
(1.0200046 -0.029498281 -1.0461718e-21)
(1.0305074 -0.020918416 4.4285177e-22)
(1.0347325 -0.012067672 -3.9966473e-22)
(1.0347561 -0.0051056881 0)
(1.032768 -0.00068647573 3.465525e-23)
(1.0303528 0.0015719473 4.7069628e-23)
(1.0283005 0.0024366616 3.5051839e-23)
(1.0268071 0.0026062998 -1.133038e-22)
(1.0257642 0.0025259918 -3.9611697e-23)
(1.0249882 0.0024159681 1.9596922e-24)
(1.0243089 0.0023160527 0)
(1.0236462 0.0022221766 -3.5241529e-22)
(1.0229424 0.002065657 -9.9281377e-22)
(1.0222488 0.0018136816 1.5043935e-21)
(1.0215611 0.0014513578 -4.9491754e-22)
(1.021007 0.00092803453 6.5577666e-23)
(1.0205573 0.00037247469 1.6002229e-21)
(0.71707779 -0.10549765 -9.9996943e-21)
(0.77065586 0.015460653 -3.167689e-22)
(0.76704442 0.22381872 -1.265388e-20)
(0.75489336 0.26311413 -4.1845398e-22)
(0.7422011 0.19554699 -1.2601123e-19)
(0.74459901 0.010369998 -1.1012043e-19)
(0.80138897 -0.20138091 -1.0359949e-21)
(0.90747444 -0.26677129 3.1431003e-20)
(1.0165886 -0.23335077 5.9459615e-21)
(1.1093919 -0.12197766 5.7223633e-20)
(1.1527881 0.052355583 3.9574481e-22)
(1.1271936 0.21482041 -2.919233e-20)
(1.055543 0.25387783 2.3341106e-21)
(0.97246995 0.19996205 -1.2501973e-20)
(0.90055391 0.10009433 6.840184e-22)
(0.89444803 0.016462226 0)
(0.93115832 -0.023030472 9.8951524e-22)
(0.9659656 -0.041556062 1.3393917e-21)
(0.995969 -0.045871019 -7.0335974e-22)
(1.0186599 -0.040236955 -9.5715419e-23)
(1.032695 -0.029346366 3.6777609e-22)
(1.0387408 -0.017551882 -1.0127439e-22)
(1.0390431 -0.0078797795 1.3122572e-22)
(1.0363683 -0.0015368723 0)
(1.0329399 0.001766606 -4.9754505e-22)
(1.0299809 0.0030070382 -2.7883245e-23)
(1.027862 0.0031705959 -1.7184073e-22)
(1.0264791 0.0029438098 1.9603244e-22)
(1.0255655 0.0026766691 -6.6664991e-24)
(1.0248757 0.0024961076 -2.0206494e-23)
(1.024233 0.0023806622 1.5809687e-22)
(1.0235707 0.002285635 -3.4980904e-22)
(1.0228476 0.0021234558 9.3245336e-24)
(1.0221282 0.0018635145 1.5322571e-21)
(1.0214188 0.0014866595 -8.646508e-24)
(1.0208503 0.00095013627 -4.5210243e-23)
(1.0203938 0.0003784687 5.7705459e-22)
(0.69667814 -0.10778786 -8.4730786e-22)
(0.74337069 0.014118031 1.9066955e-20)
(0.74435118 0.22816855 -2.6089242e-20)
(0.73640893 0.26966537 7.4267951e-21)
(0.72661714 0.20298056 1.0133434e-22)
(0.72831611 0.014634703 1.7708575e-22)
(0.77977464 -0.20827884 4.1013013e-20)
(0.88500662 -0.28349643 -2.8361644e-21)
(0.99543063 -0.24929067 0)
(1.0875266 -0.13499849 -1.1226504e-20)
(1.1336167 0.054821054 0)
(1.1061582 0.23484235 0)
(1.039678 0.28227036 -1.9336771e-20)
(0.96881617 0.23205304 7.2701354e-22)
(0.89381122 0.12461681 8.6674464e-22)
(0.87093004 0.019216682 5.5458327e-22)
(0.90982461 -0.033204548 1.1178672e-22)
(0.95263836 -0.054003212 -1.4075937e-21)
(0.98865145 -0.059613177 -3.7498378e-22)
(1.017004 -0.053296345 -1.8412421e-22)
(1.0353963 -0.039916662 -5.0424658e-22)
(1.0439102 -0.024631702 -5.6972786e-22)
(1.04476 -0.011512869 -3.6822424e-23)
(1.0412808 -0.0025768022 -4.4217633e-22)
(1.0364947 0.0021966364 -1.1806522e-22)
(1.0322462 0.0039811278 4.5733973e-23)
(1.0291933 0.0041339826 1.8140088e-22)
(1.0272665 0.0036606934 -1.5232931e-22)
(1.0261155 0.0031244137 -3.5220537e-24)
(1.0253752 0.00273912 -2.6335285e-22)
(1.0247806 0.0025337849 -1.8185645e-23)
(1.0241715 0.0024249164 -3.8830726e-23)
(1.0235032 0.0023379987 2.6594347e-22)
(1.0227564 0.0021762651 8.9919714e-22)
(1.0220094 0.0019093249 -3.0549198e-21)
(1.0212792 0.0015192172 -6.247435e-22)
(1.0206961 0.00097118262 -5.6083778e-22)
(1.0202335 0.00038401924 0)
(0.68002443 -0.10982316 2.3045084e-20)
(0.71945463 0.012115959 -2.203376e-22)
(0.7249448 0.23222985 -1.0715681e-20)
(0.72090863 0.27498541 7.2213308e-21)
(0.71338711 0.20965527 8.6937451e-20)
(0.71427679 0.018848385 6.8424526e-20)
(0.75909079 -0.21481917 -1.2562379e-21)
(0.86042666 -0.29923209 -6.5383576e-20)
(0.96919145 -0.26776531 -8.6212754e-21)
(1.0622991 -0.14351053 -1.0695743e-19)
(1.1096208 0.056931574 8.6188457e-22)
(1.0824329 0.2539347 0)
(1.0197833 0.3076368 0)
(0.9578365 0.2605328 1.155602e-20)
(0.88887252 0.15099975 -6.8620519e-21)
(0.85182667 0.023276175 -5.3323934e-21)
(0.88613515 -0.043790292 1.1924739e-21)
(0.93750945 -0.06850941 2.5899215e-22)
(0.98025262 -0.075535945 -8.2749124e-23)
(1.0149237 -0.06880188 -1.6163419e-21)
(1.0385559 -0.052902831 -1.1237482e-22)
(1.0503711 -0.033630985 -3.8601893e-22)