/*--------------------------------*- C++ -*----------------------------------*\
| =========                 |                                                 |
| \\      /  F ield         | OpenFOAM: The Open Source CFD Toolbox           |
|  \\    /   O peration     | Version:  5.0                                   |
|   \\  /    A nd           | Web:      www.OpenFOAM.org                      |
|    \\/     M anipulation  |                                                 |
\*---------------------------------------------------------------------------*/
FoamFile
{
    version     2.0;
    format      ascii;
    class       volVectorField;
    location    "300";
    object      U_0;
}
// * * * * * * * * * * * * * * * * * * * * * * * * * * * * * * * * * * * * * //

dimensions      [0 1 -1 0 0 0 0];

internalField   nonuniform List<vector> 
9200
(
(1.0389206 0.00074356997 -1.6259999e-24)
(1.0391019 0.0023717496 7.8896586e-22)
(1.0366813 0.0007448089 0)
(1.0393855 0.0037761297 -4.1695437e-22)
(1.0368373 0.0023966552 6.8866502e-22)
(1.0356942 0.00073356734 0)
(1.0397756 0.0051777926 -4.1873046e-23)
(1.0371058 0.0038211162 1.083288e-23)
(1.035837 0.0023740051 0)
(1.0342476 0.00070546667 0)
(1.0402234 0.0064621441 8.6113105e-22)
(1.0374646 0.0052509306 6.3956765e-22)
(1.0360886 0.0037900402 3.9068424e-22)
(1.0343669 0.0022947841 2.385547e-23)
(1.0331379 0.00067015982 2.2553791e-25)
(1.0407271 0.0076650814 8.2472521e-22)
(1.037905 0.0065796547 -3.0986773e-23)
(1.036423 0.0052165251 1.3034009e-21)
(1.0345909 0.0036668103 5.3441946e-22)
(1.0332413 0.0021835636 1.6651034e-23)
(1.0320415 0.00063260215 -1.0044872e-21)
(1.0412633 0.0087492674 8.5290418e-22)
(1.0384379 0.0078527822 9.3752805e-22)
(1.0368308 0.0065605027 -7.8506206e-22)
(1.0348752 0.0050490637 -5.7459999e-23)
(1.0334456 0.0034880539 4.8344817e-22)
(1.0321311 0.0020568267 4.9048803e-22)
(1.0310749 0.00060148807 8.6319127e-23)
(1.0418474 0.0096804738 4.2506934e-22)
(1.0390764 0.0090558695 7.774093e-22)
(1.0373232 0.0078784013 9.3800147e-22)
(1.0352094 0.0063636626 5.2390369e-23)
(1.0336967 0.0047936816 -1.2427461e-21)
(1.0323193 0.0032819864 -5.5187092e-22)
(1.0311594 0.0019419799 -5.6686749e-22)
(1.0301795 0.00057902987 9.346345e-22)
(1.0424876 0.010411998 -1.1341592e-21)
(1.039862 0.01016615 8.2009493e-22)
(1.0379059 0.0091829764 4.8243889e-23)
(1.0355871 0.0076690677 4.4816061e-22)
(1.033979 0.0060304327 1.2156648e-22)
(1.0325458 0.004492624 -1.8530185e-21)
(1.0313417 0.0030955883 1.6510206e-22)
(1.0302648 0.0018514507 -9.6390854e-22)
(1.0293517 0.00056325212 -1.983998e-21)
(1.0431473 0.010920961 8.7130305e-22)
(1.0408548 0.011204679 -3.3677622e-22)
(1.0385932 0.010494044 -4.7524121e-23)
(1.0359856 0.0089982557 -1.9482945e-22)
(1.0342712 0.00724233 -1.8979609e-22)
(1.0327944 0.0056260523 2.0440736e-22)
(1.0315648 0.0042192026 6.4899987e-22)
(1.0304449 0.0029516519 1.0874946e-21)
(1.0294412 0.0017880919 6.1665281e-22)
(1.0285741 0.0005499339 1.5927017e-22)
(1.0438342 0.011182361 -4.2543607e-22)
(1.0422347 0.012104272 1.7769323e-22)
(1.0394286 0.011885864 6.2654429e-22)
(1.0363919 0.010404656 -7.5082573e-22)
(1.0345164 0.0084573093 5.4237307e-22)
(1.0330327 0.0067011067 -1.6879204e-21)
(1.0318159 0.0052596618 6.5655459e-23)
(1.030673 0.0040124223 1.6389101e-21)
(1.0296185 0.0028563913 -8.178319e-22)
(1.0286663 0.0017437757 1.7997064e-21)
(1.0278411 0.00053643346 -2.711837e-22)
(1.044906 0.010919103 9.6174582e-23)
(1.0437446 0.012870655 -4.7472104e-22)
(1.0402446 0.013487263 -7.8926781e-22)
(1.0367595 0.011992864 0)
(1.0346728 0.0097157968 3.3963694e-23)
(1.0331981 0.0077299747 -3.0079615e-22)
(1.0320702 0.0062142773 -3.3375581e-22)
(1.0309391 0.0049935837 -8.1033575e-22)
(1.0298506 0.0038848691 -2.1297819e-22)
(1.0288361 0.0027956504 -1.0367567e-21)
(1.027931 0.0017062542 -7.0482508e-22)
(1.0271503 0.00052192255 1.6272984e-22)
(1.0463319 0.010073517 5.1893649e-23)
(1.0456568 0.013890427 -5.5442139e-23)
(1.0410518 0.015374317 0)
(1.0369952 0.013832843 0)
(1.0346089 0.011065816 -1.8301997e-22)
(1.033245 0.0087082987 -1.9606075e-22)
(1.0322749 0.0070763638 -4.4574538e-22)
(1.0312347 0.0058821242 9.5721087e-22)
(1.0301265 0.0048473504 9.907493e-23)
(1.0290627 0.0038125432 2.5556477e-24)
(1.0280884 0.0027468466 1.1619163e-21)
(1.0272328 0.0016633782 -1.2521739e-21)
(1.0265034 0.00050533802 2.5904487e-21)
(1.0479195 0.0086205831 -8.6318462e-22)
(1.0483907 0.015014175 3.6273254e-23)
(1.042113 0.01755656 -3.1236338e-22)
(1.0370812 0.015974199 1.0343247e-22)
(1.0342681 0.012537003 -6.0920739e-23)
(1.0330855 0.0096423537 -1.4627379e-22)
(1.0323964 0.0078069627 2.646321e-22)
(1.0315239 0.0066637966 1.5432238e-23)
(1.030457 0.0057301173 1.0713648e-21)
(1.0293347 0.0047811593 9.9874498e-22)
(1.0283004 0.0037572094 3.2097989e-22)
(1.0273747 0.0026877028 9.2887475e-22)
(1.0265761 0.0016054351 6.3132506e-22)
(1.0259048 0.00048453447 -7.096271e-22)
(1.0499227 0.0066055478 3.6660037e-22)
(1.0519671 0.016258748 1.2976677e-21)
(1.0434852 0.020231201 -3.6134856e-22)
(1.0369633 0.018547283 6.41387e-23)
(1.033567 0.014190521 -6.5029805e-23)
(1.0326288 0.010480856 2.7555114e-22)
(1.0323663 0.008376002 2.5358945e-22)
(1.0317962 0.0072848574 -3.3839935e-22)
(1.0308254 0.0065225645 -9.5482246e-23)
(1.0296792 0.0056913062 -1.1863812e-22)
(1.0285525 0.0047375879 -1.9121808e-23)
(1.0275621 0.00368326 -1.4559825e-22)
(1.0267015 0.0026009044 -1.1877617e-21)
(1.0259681 0.001526552 6.0109543e-22)
(1.0253596 0.00045802857 -5.4213806e-22)
(1.0522016 0.0036005656 2.3616497e-21)
(1.056385 0.01749195 -1.7583679e-21)
(1.0451991 0.023635114 1.6535322e-22)
(1.0365574 0.021764767 -5.4918671e-23)
(1.0323111 0.016115135 -1.0155515e-22)
(1.0317157 0.011215851 -4.9696278e-22)
(1.0321664 0.00868944 -2.8742628e-23)
(1.0320406 0.0076790708 3.2095765e-23)
(1.031249 0.007168741 -2.0858477e-22)
(1.0300973 0.0065436531 -2.6323987e-22)
(1.0288789 0.0056836827 -2.0697288e-21)
(1.0277785 0.0046662679 4.3259141e-22)
(1.0268603 0.003565042 3.7033771e-22)
(1.0260784 0.0024767049 1.8752289e-22)
(1.0254163 0.0014261041 4.0396462e-23)
(1.0248718 0.00042673882 6.0215864e-22)
(1.0549017 0.00018648011 0)
(1.0614813 0.018975853 -2.3297187e-21)
(1.0472 0.027997689 8.7612165e-22)
(1.0357763 0.025828719 0)
(1.0303262 0.018399002 0)
(1.0301913 0.011841069 0)
(1.031631 0.0086163662 1.1377527e-22)
(1.0323902 0.007775637 4.8037204e-22)
(1.0318023 0.0076032539 3.5049124e-22)
(1.0306458 0.007297034 6.1677849e-22)
(1.0292908 0.0066168467 9.519236e-23)
(1.0280513 0.0056389701 4.5272547e-22)
(1.0270276 0.0045278788 3.6503823e-24)
(1.0262097 0.0033881861 -4.2464476e-22)
(1.0255153 0.0023148924 -1.2670409e-22)
(1.0249254 0.0013089668 -2.9346928e-22)
(1.0244425 0.00039340534 0)
(1.0579292 -0.0040339974 4.8762683e-21)
(1.0669522 0.020417465 5.7312075e-21)
(1.0492304 0.03348649 -2.2281926e-21)
(1.0344311 0.030960573 1.2188991e-21)
(1.027428 0.021161997 1.1620747e-21)
(1.0278583 0.012311048 0)
(1.0306803 0.0080820347 7.6384211e-22)
(1.0326477 0.0073326486 -2.3047e-22)
(1.0326081 0.0077500214 4.336116e-22)
(1.031443 0.0078986238 4.0957477e-22)
(1.0298675 0.0075300038 -3.7052536e-22)
(1.0283859 0.0066444934 1.2634987e-22)
(1.0272233 0.0054965846 7.4985785e-22)
(1.0263262 0.0043007734 -1.4002078e-21)
(1.0256253 0.0031524709 -3.9259096e-22)
(1.0250191 0.0021241347 -1.9747738e-21)
(1.0244968 0.0011838973 -7.8637265e-22)
(1.0240688 0.00036087527 -7.5671268e-22)
(1.0627564 -0.0086433245 -3.9922402e-22)
(1.0738216 0.022078781 3.9199747e-21)
(1.0510676 0.040377348 1.1159026e-21)
(1.0321402 0.037349112 5.0068478e-22)
(1.0233639 0.024521746 -2.3152932e-22)
(1.0244866 0.012595745 -5.2451038e-22)
(1.029178 0.0069356778 -1.8936836e-21)
(1.0328052 0.0062702741 -9.4033402e-22)
(1.0337095 0.0075377961 -1.076536e-22)
(1.0324611 0.0083349656 -6.5237471e-22)
(1.0306678 0.0084440531 -9.5601369e-23)
(1.0288435 0.0077258592 -8.3026106e-22)
(1.0274242 0.0065278716 1.2986083e-22)
(1.0264376 0.0052181369 1.1909706e-22)
(1.0257026 0.0039862185 1.7963638e-22)
(1.0251182 0.0028720985 2.9842785e-22)
(1.0245919 0.0019191708 -6.5210697e-22)
(1.024128 0.0010607194 2.8172946e-23)
(1.0237453 0.0003315048 -7.1724456e-22)
(1.0678312 -0.016393478 -3.6484887e-21)
(1.0847592 0.023408212 -8.1242371e-21)
(1.0541748 0.048625685 1.190252e-20)
(1.0288269 0.045074435 -9.2286586e-22)
(1.0178607 0.028583463 5.9783868e-24)
(1.0198106 0.012650627 -2.286093e-22)
(1.0269601 0.0050096824 2.552217e-22)
(1.0328769 0.0043677052 -2.1206834e-23)
(1.0350872 0.0067336363 -3.3270082e-23)
(1.033936 0.0087156329 3.3407577e-22)
(1.0316629 0.0094325429 -1.0689756e-21)
(1.0294046 0.0089699157 2.8506349e-22)
(1.0276509 0.007695079 4.5182795e-22)
(1.0264936 0.0062028735 -4.0490472e-23)
(1.0257436 0.0048040949 1.2526452e-22)
(1.0251748 0.0036045193 9.450037e-22)
(1.0246927 0.0025704414 -1.9349995e-22)
(1.0242309 0.0017167193 1.0727938e-21)
(1.023813 0.0009478867 2.8406829e-22)
(1.0234646 0.00030759089 7.5070186e-22)
(1.0739683 -0.022873232 -3.6870993e-22)
(1.1004584 0.024951787 -1.8194679e-20)
(1.0618211 0.058198768 1.3934219e-21)
(1.0259392 0.054280567 6.2123409e-23)
(1.010666 0.033316445 -1.367036e-21)
(1.0135915 0.012429822 -1.2518026e-21)
(1.023842 0.0021184771 2.269153e-21)
(1.0328333 0.0013890181 1.6312633e-21)
(1.0368687 0.0051695793 3.9021896e-22)
(1.0360662 0.0088299985 0)
(1.0331245 0.010516713 7.2882382e-22)
(1.0301015 0.010452266 3.0633759e-22)
(1.0278514 0.009090353 -6.2327846e-22)
(1.0264765 0.0073162662 7.4982811e-23)
(1.0256848 0.0056685415 -4.2923206e-22)
(1.0251773 0.0042906863 7.4340204e-22)
(1.0247502 0.0031893237 1.5551583e-22)
(1.0243464 0.0022728058 -3.235117e-22)
(1.0239292 0.0015316983 6.4085074e-22)
(1.0235435 0.0008515166 4.8024674e-23)
(1.0232184 0.0002913605 7.2037337e-22)
(1.0725306 -0.030590175 3.6811053e-21)
(1.1071847 0.021814629 -1.8865272e-20)
(1.0757228 0.068856968 -1.004055e-20)
(1.0265624 0.065290755 2.7957824e-21)
(1.00215 0.038949727 -3.6745471e-21)
(1.0055519 0.011894863 4.3886447e-24)
(1.019636 -0.0019429674 0)
(1.032646 -0.0029133365 3.3179337e-22)
(1.0391823 0.002613833 9.4700355e-23)
(1.0390086 0.0085643718 9.5756296e-22)
(1.0352689 0.011757712 4.0397023e-22)
(1.0311246 0.012241778 5.9497637e-23)
(1.028064 0.010796311 -7.5679288e-23)
(1.0263258 0.0086378642 3.604701e-22)
(1.0254805 0.0066114032 -2.2260236e-22)
(1.0250508 0.0049809119 2.4006966e-22)
(1.0247505 0.0037304991 -9.3838763e-23)
(1.0244253 0.0027779381 5.7675447e-22)
(1.0240708 0.002000864 1.276781e-22)
(1.0236776 0.0013748246 1.7733593e-23)
(1.0233105 0.00077552368 3.820537e-22)
(1.0229982 0.00028405759 0)
(1.0649772 -0.039671049 6.3043013e-22)
(1.1075879 0.019511342 1.2020178e-20)
(1.0922688 0.081370176 -5.4478748e-22)
(1.0309084 0.078742283 3.3812192e-21)
(0.99337396 0.04617011 -4.4566654e-21)
(0.99535034 0.011035871 1.8260778e-21)
(1.0141718 -0.0073587869 -5.241873e-22)
(1.0322195 -0.0088123543 9.6396445e-22)
(1.0421751 -0.0011858295 -6.2423007e-23)
(1.0429982 0.0077740366 -7.8021548e-23)
(1.0383172 0.013192094 -3.1076094e-24)
(1.032599 0.014532021 -2.105047e-22)
(1.0283139 0.012967005 -1.0322178e-22)
(1.0260041 0.01026558 1.2578941e-21)
(1.0250473 0.0076944119 8.7217886e-22)
(1.0247406 0.0056833556 6.1150782e-22)
(1.0246131 0.0042261314 -1.3822773e-22)
(1.0244565 0.0031786463 -8.9686178e-22)
(1.0241876 0.0024036311 -2.9546493e-23)
(1.0238532 0.001769781 3.4352164e-22)
(1.0234657 0.0012518101 0)
(1.023106 0.0007215768 -8.6185779e-22)
(1.022796 0.00028459236 -2.8059025e-24)
(1.0503175 -0.048543907 -8.5392953e-21)
(1.1044356 0.016368933 4.0451375e-20)
(1.0945488 0.093754899 -2.6707697e-20)
(1.0339303 0.096852481 -5.2142124e-21)
(0.98399092 0.056132426 -6.7501495e-21)
(0.98256625 0.009897348 0)
(1.0071811 -0.014306734 -1.9974814e-22)
(1.0314905 -0.016597753 9.7915307e-22)
(1.0458964 -0.006530412 -1.0373053e-21)
(1.048321 0.0063146405 -1.6346226e-21)
(1.0425506 0.014860975 8.3567867e-22)
(1.034695 0.017512945 3.102075e-22)
(1.0286296 0.015820823 -2.3574118e-22)
(1.0254321 0.012344002 6.3765631e-22)
(1.0242948 0.0089915907 -7.0745816e-22)
(1.0241468 0.0064251321 -1.4003799e-21)
(1.0242881 0.0046613015 -2.5268825e-22)
(1.0243619 0.00348809 -3.1188598e-22)
(1.024275 0.0026828789 8.8503093e-22)
(1.0240187 0.0020911931 -2.5661263e-22)
(1.0236793 0.0015881205 -7.3083027e-22)
(1.023284 0.0011640231 7.9238271e-22)
(1.0229226 0.00068872788 -6.0562871e-22)
(1.0226052 0.00028899177 -1.5609304e-24)
(1.0302683 -0.056431499 6.8544214e-22)
(1.0939784 0.016351576 3.7177036e-20)
(1.0792253 0.1059339 4.1651322e-22)
(1.0278807 0.11704106 2.0570672e-20)
(0.97191269 0.06946196 3.2728518e-21)
(0.96700148 0.0092203465 -8.5416146e-21)
(0.99821665 -0.023037777 -2.7640491e-22)
(1.0303536 -0.026511693 -1.192217e-21)
(1.0504422 -0.013731801 4.294879e-22)
(1.055228 0.0039692882 -1.0255924e-21)
(1.0482992 0.016809913 7.9794186e-22)
(1.0375976 0.02143367 -3.2426843e-22)
(1.0290373 0.019624905 5.8025671e-22)
(1.0245327 0.01506313 -7.2695176e-23)
(1.0230932 0.010592255 -1.0659849e-21)
(1.0231614 0.0072354405 -2.1046192e-23)
(1.0236768 0.00502618 -5.4283273e-23)
(1.0241057 0.0036697141 -4.4445587e-22)
(1.0242648 0.0028361497 0)
(1.024178 0.0022768509 -9.9901049e-23)
(1.0238977 0.001853819 -2.9055803e-23)
(1.0235356 0.0014592457 5.9720732e-23)
(1.0231236 0.0011098225 -3.8706625e-23)
(1.0227534 0.0006737501 8.6481245e-22)
(1.0224221 0.00029236348 4.8973284e-22)
(1.0073395 -0.063383835 9.0013164e-21)
(1.07733 0.015993594 -2.2458457e-20)
(1.0570613 0.11901677 -9.5766811e-21)
(1.0116552 0.13631887 -2.5350516e-21)
(0.95861689 0.084714374 1.0174497e-20)
(0.94924011 0.0089718143 1.3854154e-21)
(0.98702372 -0.033743824 -3.8249264e-22)
(1.0286961 -0.038828898 1.1744215e-22)
(1.0558241 -0.023103324 -2.702804e-21)
(1.0640098 0.00049472666 -4.0816668e-22)
(1.0559091 0.019098387 -1.3727778e-21)
(1.0414985 0.026581756 2.4093754e-23)
(1.0295176 0.024701624 -1.9381559e-22)
(1.0231827 0.018654795 -3.420009e-22)
(1.0212844 0.012614199 -3.6040182e-22)
(1.0216334 0.00813991 1.4200831e-21)
(1.0226745 0.0053024655 2.1450379e-21)
(1.0236038 0.0036845527 5.712025e-22)
(1.0241401 0.002812513 7.9975526e-22)
(1.0242767 0.002316687 2.1102603e-23)
(1.0241357 0.001977426 -9.3218271e-22)
(1.0238062 0.0016916037 -2.2361726e-22)
(1.0234113 0.0013821053 6.4733453e-22)
(1.0229753 0.0010852821 -7.5756126e-22)
(1.0225922 0.00067254911 6.5358901e-22)
(1.022245 0.00029280213 -3.5571893e-23)
(0.98298301 -0.069549598 -3.0883751e-22)
(1.0557996 0.015768106 -2.5891466e-20)
(1.0359374 0.13215992 3.7795633e-20)
(0.99383914 0.15272556 -2.0276046e-20)
(0.9462197 0.10094819 -2.4061898e-21)
(0.93089526 0.0086046112 9.8298933e-21)
(0.97404236 -0.046752772 1.6989323e-21)
(1.0262085 -0.053774451 2.3336127e-21)
(1.0619398 -0.034863954 6.6437605e-21)
(1.0747655 -0.0043533844 3.2623325e-21)
(1.0657358 0.021786061 -1.0821194e-22)
(1.0465956 0.033319418 2.5878364e-21)
(1.030045 0.031427271 -1.1355345e-21)
(1.0212346 0.02338543 -5.4813466e-22)
(1.0186663 0.015187554 -2.9299358e-22)
(1.0193769 0.0091690075 2.9906731e-22)
(1.0211383 0.0054556671 -4.9258438e-23)
(1.0227735 0.0034754088 3.6793391e-23)
(1.0238404 0.0025532461 1.7815418e-22)
(1.0243185 0.002155165 6.5278469e-23)
(1.0243507 0.0019495292 0)
(1.0241219 0.0017853924 -3.3808745e-22)
(1.0237282 0.0015952619 -4.3022952e-23)
(1.0232964 0.0013506299 0)
(1.022833 0.0010847314 9.2981422e-22)
(1.0224353 0.00068182786 3.953477e-24)
(1.0220718 0.00029298103 -4.7898678e-22)
(0.95785372 -0.074948316 -2.8141935e-21)
(1.0316721 0.015846301 -2.1296183e-21)
(1.0107993 0.144931 2.9118947e-20)
(0.97263309 0.16818729 -3.8490127e-21)
(0.93146974 0.11511318 -1.5908644e-21)
(0.91282527 0.0097928464 -1.1286187e-20)
(0.95874625 -0.061146131 -2.2335074e-22)
(1.0224142 -0.071299933 2.6324839e-22)
(1.068218 -0.048923184 -2.4582509e-21)
(1.0869953 -0.010604785 -7.0630659e-21)
(1.077743 0.024957679 5.0035869e-21)
(1.0530165 0.042032122 9.6503137e-23)
(1.0305711 0.040216994 -1.8912265e-23)
(1.0184903 0.029544869 -4.6823605e-22)
(1.0150092 0.018462626 -8.996987e-22)
(1.0161679 0.010345309 -2.7889083e-22)
(1.0188972 0.0054406504 -1.4738654e-21)
(1.021501 0.0029583132 -1.024218e-21)
(1.0233163 0.0019759533 -4.16063e-22)
(1.0242704 0.0017244639 -7.1647309e-22)
(1.0245665 0.0017199572 -3.2754689e-22)
(1.0244463 0.0017313694 1.0273758e-22)
(1.0241147 0.0016873144 3.0400164e-23)
(1.0236517 0.001554071 0)
(1.0231857 0.0013546057 0)
(1.022694 0.0011026718 -6.7756629e-23)
(1.0222785 0.00069990999 8.4075929e-22)
(1.021901 0.00029683691 9.1825824e-22)
(0.93246793 -0.079714333 0)
(1.0063134 0.016179835 -1.4614705e-20)
(0.98416191 0.15694584 -2.4463128e-20)
(0.94775153 0.18269552 -7.2503621e-21)
(0.91055393 0.12851606 -1.5024771e-21)
(0.89427562 0.011061984 1.237137e-21)
(0.9414337 -0.076627958 -2.2632202e-21)
(1.0166956 -0.09093605 3.0753402e-21)
(1.0736189 -0.065078274 -9.522965e-21)
(1.099708 -0.017990563 1.7374997e-21)
(1.0908737 0.029001926 -5.8823916e-22)
(1.0601952 0.053255952 -1.4923852e-21)
(1.0308885 0.051542028 1.0807554e-21)
(1.0146734 0.037445385 -1.0597586e-21)
(1.0100219 0.022582803 -3.0089995e-22)
(1.011751 0.011689579 -1.0278737e-21)
(1.0157468 0.0051873145 -1.4826343e-22)
(1.0196561 0.0020300442 -3.2970177e-22)
(1.0224983 0.00096453291 -5.1046851e-23)
(1.0241221 0.00093260778 -3.785858e-22)
(1.0247773 0.0012231002 -2.1457583e-22)
(1.0248214 0.0014951126 -1.6636546e-22)
(1.0245347 0.0016418748 2.6278114e-23)
(1.0240958 0.001658128 7.5925668e-22)
(1.0235764 0.0015587158 2.3275619e-22)
(1.0230786 0.0013842099 -1.1829868e-23)
(1.0225552 0.0011354638 -8.8781253e-22)
(1.0221197 0.00072546261 5.5369734e-22)
(1.0217308 0.00030548082 -1.3734039e-21)
(0.90730243 -0.08379135 3.3395824e-21)
(0.98053601 0.01610355 0)
(0.95702383 0.1681465 0)
(0.92185416 0.19592309 0)
(0.88810799 0.14052284 2.0108419e-21)
(0.87483619 0.013605887 0)
(0.92301971 -0.093001532 -1.2695654e-21)
(1.008845 -0.11264017 -3.4905971e-21)
(1.0777865 -0.083524103 -2.185163e-20)
(1.1127245 -0.026756538 3.0820936e-20)
(1.1043671 0.034317142 -8.1845036e-21)
(1.0664746 0.067666987 2.0360687e-21)
(1.0300787 0.065929922 5.7800839e-23)
(1.0093853 0.047429893 1.8483408e-21)
(1.003344 0.027688589 2.1199231e-21)
(1.0058348 0.013205284 -2.0392823e-22)
(1.0114586 0.0046131133 -1.1619405e-21)
(1.017084 0.00055421341 2.3637447e-22)
(1.021312 -0.00062133583 7.1954537e-22)
(1.0238557 -0.00034859118 4.6311935e-22)
(1.0250116 0.00037369773 1.9374947e-22)
(1.0252641 0.0010229678 -1.5317444e-22)
(1.0250387 0.0014465461 -3.0106353e-22)
(1.0245955 0.0016488749 2.2487529e-22)
(1.0240663 0.0016696992 7.4387911e-24)
(1.0235064 0.0015994604 1.7526554e-22)
(1.022969 0.0014341156 -6.8073839e-22)
(1.0224138 0.0011790033 2.0903331e-25)
(1.021959 0.00075591414 -2.1431681e-21)
(1.0215601 0.00031702446 -8.260442e-22)
(0.88042229 -0.088081942 -4.4045098e-21)
(0.95514271 0.016795045 -9.1236797e-21)
(0.93022724 0.17836562 0)
(0.89589094 0.20802277 0)
(0.86500801 0.15086872 0)
(0.85607505 0.01687757 0)
(0.90487289 -0.10938376 0)
(0.99876458 -0.13608525 1.0181407e-21)
(1.0809303 -0.1048495 7.6487867e-21)
(1.1272778 -0.038273294 -4.5730046e-20)
(1.1210991 0.040257447 4.0521598e-22)
(1.0729777 0.085611338 -8.6053432e-21)
(1.0266665 0.083609879 5.9777233e-21)
(1.0018274 0.059779393 2.2810523e-21)
(0.99454754 0.033891557 -2.7738213e-22)
(0.99808883 0.014870811 5.4880916e-22)
(1.0057859 0.0036129434 -2.6641768e-22)
(1.0136127 -0.0016246303 5.4503895e-22)
(1.0196681 -0.0029599398 -5.4320188e-22)
(1.0234585 -0.00227391 -1.9369758e-22)
(1.025302 -0.00094986521 -1.8915501e-23)
(1.0258358 0.00025097878 -3.6123435e-22)
(1.0256625 0.0010666919 -2.1977631e-23)
(1.0251927 0.0015260507 1.0572388e-22)
(1.0246121 0.0017103695 -1.0792176e-22)
(1.0240192 0.0017298695 -5.4883339e-22)
(1.0234241 0.0016748251 -1.9070939e-22)
(1.0228488 0.001499211 2.9755099e-22)
(1.0222694 0.0012274777 9.1128959e-25)
(1.0217973 0.00078818018 1.5452586e-21)
(1.0213886 0.00032904789 5.3672997e-22)
(0.8517299 -0.092242127 5.5367892e-21)
(0.92808192 0.015661455 -1.4155272e-21)
(0.90467734 0.18736226 -1.5154481e-20)
(0.8707147 0.21894036 -2.1036015e-20)
(0.84205835 0.16005212 0)
(0.83710776 0.016883934 0)
(0.88731322 -0.1253005 -1.1806524e-21)
(0.98637528 -0.16013275 -9.3127957e-21)
(1.0803141 -0.12792358 3.0876423e-20)
(1.1422513 -0.053221961 -5.5156685e-20)
(1.1448624 0.044531043 -1.2118372e-21)
(1.0870451 0.10581198 1.4831965e-20)
(1.0235718 0.10480412 3.1985366e-22)
(0.99093297 0.074361391 -2.0708707e-22)
(0.98309784 0.041239189 -1.77655e-21)
(0.98815706 0.016615749 -8.6644428e-23)
(0.99847162 0.0020581917 2.7891891e-21)
(1.0090579 -0.0046862094 -7.9452918e-23)
(1.0174684 -0.0062532981 -1.3981278e-21)
(1.0229156 -0.0050407894 -1.3529244e-22)
(1.0256969 -0.0028940574 -7.1509113e-22)
(1.0266102 -0.00091902044 1.3441454e-22)
(1.0264889 0.00047091127 -7.7497583e-23)
(1.0259343 0.001280393 -2.731739e-22)
(1.0252677 0.0016777329 -6.3136432e-23)
(1.0245923 0.0018116416 -1.92842e-22)
(1.0239608 0.001835 -1.4772826e-22)
(1.0233269 0.0017639321 -1.5989857e-22)
(1.0227258 0.001566462 4.0632125e-22)
(1.0221253 0.0012762358 -3.0315404e-23)
(1.0216353 0.00082006274 7.470837e-22)
(1.021217 0.00034017711 5.679364e-23)
(0.82282652 -0.096227441 -3.8665045e-21)
(0.89953135 0.015180206 1.8493929e-21)
(0.87865743 0.19574065 1.740785e-20)
(0.8468802 0.22880809 3.6548252e-20)
(0.82029741 0.167919 0)
(0.81767148 0.016569161 0)
(0.86990589 -0.1408929 0)
(0.97207139 -0.18378421 -9.6655241e-22)
(1.0743557 -0.15130582 -5.4739256e-20)
(1.1482578 -0.069399177 -6.0949854e-20)
(1.1692979 0.046181858 -1.4810697e-21)
(1.1123907 0.12623197 4.1715712e-21)
(1.0294132 0.12886413 -1.7714873e-20)
(0.97866612 0.091238395 4.2184906e-21)
(0.96830914 0.049487558 -1.0077953e-21)
(0.9756978 0.018309928 0)
(0.98926347 -0.00020896485 8.0467341e-22)
(1.0032359 -0.0088228644 -6.796614e-22)
(1.0146028 -0.010729883 -4.124838e-22)
(1.0222116 -0.0088724892 1.8246956e-22)
(1.026258 -0.0056486622 1.6816134e-22)
(1.0276918 -0.0026030745 3.1571442e-22)
(1.0276203 -0.00040153565 2.1382681e-22)
(1.0269129 0.00091830308 1.6479985e-22)
(1.0260649 0.0015851166 3.467922e-23)
(1.0252674 0.0018629866 -5.0421254e-23)
(1.0245452 0.0019477089 1.785509e-23)
(1.0238887 0.0019495268 -8.7510338e-24)
(1.023231 0.0018396882 4.1234936e-22)
(1.0226072 0.0016308648 3.0607144e-22)
(1.0219809 0.0013244674 1.4581912e-23)
(1.0214733 0.00085050324 -2.0972059e-21)
(1.0210461 0.00035002856 7.991971e-22)
(0.79401642 -0.099761408 -7.1310941e-21)
(0.86838773 0.010976199 0)
(0.8515111 0.20303645 1.9337031e-20)
(0.82334975 0.23838532 6.2458297e-20)
(0.80004907 0.17466571 -1.5256515e-20)
(0.79883164 0.015862727 -1.178879e-21)
(0.85228896 -0.15601413 -4.0880456e-20)
(0.95621967 -0.20644229 1.5011594e-20)
(1.0637432 -0.17427469 1.2945853e-20)
(1.1460429 -0.085697037 1.4362662e-19)
(1.1734934 0.043898956 -5.733135e-20)
(1.1416858 0.14749724 -4.8678518e-20)
(1.0460886 0.15558936 1.8348027e-21)
(0.97210575 0.11140933 -3.6015996e-22)
(0.95023183 0.058306149 -1.7928012e-21)
(0.96037381 0.019753041 3.5088435e-22)
(0.97794115 -0.003380493 3.8300852e-22)
(0.99597553 -0.014229804 2.8443938e-22)
(1.0109591 -0.016624935 -1.5940796e-22)
(1.0213229 -0.01402341 2.1955768e-23)
(1.0270569 -0.0094318979 3.9299926e-22)
(1.0292109 -0.0049564395 1.1485063e-22)
(1.029203 -0.0016186685 -1.6503957e-22)
(1.0282461 0.00042461609 3.2375975e-22)
(1.0270941 0.0014748524 1.5407809e-22)
(1.0260636 0.0019165932 3.5436377e-23)
(1.0252094 0.0020644953 4.529753e-23)
(1.0244762 0.0020932265 2.6735288e-23)
(1.0238068 0.002049012 1.41624e-22)
(1.023132 0.0019191713 -4.563194e-23)
(1.0224819 0.00169832 2.069725e-22)
(1.0218349 0.0013710878 1.8969211e-23)
(1.0213115 0.00087897489 8.4999699e-22)
(1.0208761 0.00035870077 -1.49282e-21)
(0.76626124 -0.1028812 6.8679639e-21)
(0.83453447 0.0093682843 -3.1247183e-22)
(0.82318321 0.20907398 2.1697697e-22)
(0.8003076 0.24807711 -3.608515e-20)
(0.78027348 0.18248504 6.7957154e-20)
(0.78097638 0.013451854 7.8786643e-20)
(0.83420984 -0.16972764 7.1424094e-21)
(0.93909357 -0.22772335 0)
(1.0491441 -0.19640883 4.2398806e-20)
(1.1382281 -0.1013385 1.9696719e-19)
(1.1723522 0.040785199 6.16568e-21)
(1.1608853 0.16842947 2.4214872e-20)
(1.0639378 0.18716764 0)
(0.97435055 0.13709342 3.2137172e-21)
(0.93131598 0.06920178 2.6956013e-21)
(0.9417744 0.020442505 -5.3089869e-22)
(0.96436441 -0.0076019221 -3.0722134e-21)
(0.98713052 -0.021092732 0)
(1.0064262 -0.024166521 4.4568391e-22)
(1.0202173 -0.020758555 5.6307837e-22)
(1.0281652 -0.014499044 -1.5292012e-22)
(1.0313223 -0.0081627063 3.6576343e-22)
(1.0314185 -0.0032781069 0)
(1.0300993 -0.00020999366 9.625554e-23)
(1.0284717 0.0013765892 1.7989832e-22)
(1.0270556 0.0020365754 -1.496061e-23)
(1.0259598 0.0022303824 5.297682e-23)
(1.0251144 0.0022535437 -2.6365802e-23)
(1.0243953 0.0022132006 -1.4646774e-24)
(1.0237226 0.0021377176 4.4211218e-22)
(1.0230305 0.0019979639 -8.9270527e-22)
(1.0223574 0.0017598196 -5.3546582e-22)
(1.0216899 0.0014138527 0)
(1.0211512 0.00090523874 -3.3265125e-23)
(1.0207078 0.00036638367 -4.4332399e-22)
(0.74040827 -0.10575779 1.040899e-20)
(0.80171943 0.0079258374 -8.7342051e-21)
(0.79532527 0.21433118 2.5914904e-20)
(0.77775402 0.25673814 -1.0252679e-20)
(0.76125211 0.19276939 2.4658541e-20)
(0.76252649 0.01482194 1.1869853e-20)
(0.81782656 -0.18450339 6.2801451e-20)
(0.92081044 -0.24748575 4.5553288e-21)
(1.0316105 -0.21701375 0)
(1.1246846 -0.11632224 -7.1491993e-20)
(1.1671282 0.039887631 7.0735551e-20)
(1.1539932 0.18760186 -8.0076792e-21)
(1.0699224 0.22131001 1.6631974e-20)
(0.97772459 0.16918052 -6.2367126e-21)
(0.91553289 0.08401073 2.9819649e-21)
(0.91942371 0.020736809 1.3573852e-21)
(0.9483751 -0.013260886 -5.5361845e-21)
(0.97660941 -0.029587541 -1.469041e-21)
(1.0008994 -0.033557234 1.3034043e-21)
(1.0188482 -0.029343526 -1.1294478e-21)
(1.0296458 -0.021127724 4.8439825e-22)
(1.0341949 -0.012445297 -4.1940366e-22)
(1.0344892 -0.0054981714 0)
(1.0326808 -0.001008889 3.136456e-23)
(1.0303592 0.0013442606 4.6771024e-23)
(1.0283407 0.0022929203 3.6128029e-23)
(1.0268488 0.0025233578 -1.1218552e-22)
(1.0257939 0.0024817622 -3.9409115e-23)
(1.0250036 0.0023944465 3.9141648e-24)
(1.0243122 0.0023065544 0)
(1.0236412 0.0022186015 -3.4287747e-22)
(1.0229322 0.0020654355 -9.7317279e-22)
(1.0222359 0.0018149992 1.4817803e-21)
(1.0215468 0.0014531133 -4.8874545e-22)
(1.0209921 0.00092965013 6.4676439e-23)
(1.020542 0.00037322564 1.5824797e-21)
(0.71705497 -0.1083385 -1.0812189e-20)
(0.77152833 0.0064804646 -5.1298179e-22)
(0.76912256 0.21905488 -1.8075921e-20)
(0.75677806 0.26443945 -4.5811848e-22)
(0.74343997 0.20154176 -1.1244651e-19)
(0.74441422 0.021288182 -1.1164109e-19)
(0.79785916 -0.19404839 -9.6104896e-22)
(0.9029616 -0.26604327 3.1685271e-20)
(1.0123524 -0.23669273 5.9453875e-21)
(1.1067091 -0.12994318 5.5932759e-20)
(1.1538437 0.041001501 3.0389796e-22)
(1.1324077 0.20767991 -2.9907458e-20)
(1.0618301 0.25303178 2.1876304e-21)
(0.97767385 0.20318125 -1.3131004e-20)
(0.90409059 0.10530691 7.9127834e-22)
(0.89434984 0.020547521 0)
(0.92984763 -0.020359717 1.0862691e-21)
(0.96436592 -0.039838507 1.4211598e-21)
(0.99429652 -0.044974712 -8.1279767e-22)
(1.0171592 -0.040025947 -1.2616799e-22)
(1.0315419 -0.029615825 3.9002695e-22)
(1.0380005 -0.018065417 -1.4933852e-22)
(1.0386698 -0.0084320636 1.4738825e-22)
(1.0362507 -0.002001008 0)
(1.0329608 0.001434561 -4.8220564e-22)
(1.0300538 0.002796788 -2.5025898e-23)
(1.0279379 0.0030505117 -1.7057643e-22)
(1.0265374 0.0028817861 1.9632508e-22)
(1.0256017 0.0026483767 -6.6620716e-24)
(1.0248927 0.0024855315 -2.2534351e-23)
(1.0242362 0.0023784002 1.5001267e-22)
(1.0235649 0.0022871722 -3.4186101e-22)
(1.0228367 0.0021263733 8.9854237e-24)
(1.0221148 0.0018669849 1.5091017e-21)
(1.021404 0.0014897711 -9.1913642e-24)
(1.0208351 0.00095244118 -4.4741095e-23)
(1.020378 0.00037940734 5.7086554e-22)
(0.69670817 -0.11062778 -8.0108384e-22)
(0.74407758 0.0048916023 3.2387424e-20)
(0.74607689 0.22329494 -3.571415e-20)
(0.73798966 0.27100626 6.6167406e-21)
(0.72768153 0.20920439 1.4959641e-22)
(0.72822772 0.025982171 1.3280413e-22)
(0.77635688 -0.20018508 4.1173499e-20)
(0.88052268 -0.28268686 -3.6179763e-21)
(0.99146817 -0.25294255 0)
(1.084937 -0.14371284 -1.2619745e-20)
(1.1350493 0.042387077 0)
(1.1114902 0.22703528 0)
(1.0456841 0.28135139 -1.9845458e-20)
(0.97396196 0.23557287 7.524032e-22)
(0.89811243 0.13081901 1.0416176e-21)
(0.87116487 0.024394932 2.7632976e-22)
(0.90805136 -0.030087008 6.7783819e-23)
(0.950681 -0.051952615 -1.2303507e-21)
(0.98658004 -0.058499488 -2.4702411e-22)
(1.0150975 -0.053009138 -1.368732e-22)
(1.0338828 -0.040249081 -5.7131846e-22)
(1.0429055 -0.025311718 -5.3939261e-22)
(1.044241 -0.012273299 -2.6237958e-23)
(1.0411198 -0.0032332572 -4.1642145e-22)
(1.036536 0.0017194888 -1.1384188e-22)
(1.0323666 0.003677381 4.4849582e-23)
(1.0293198 0.0039614594 1.7864286e-22)
(1.0273674 0.0035736472 -1.5089401e-22)
(1.0261833 0.0030870454 -3.5187716e-24)
(1.0254135 0.0027276882 -2.6619854e-22)
(1.0247969 0.0025341493 -1.7621718e-23)
(1.0241731 0.0024298768 -3.7948976e-23)
(1.023496 0.0023442776 2.5665064e-22)
(1.0227444 0.0021824024 8.8318035e-22)
(1.0219951 0.0019149149 -3.0087845e-21)
(1.0212637 0.0015235132 -6.161213e-22)
(1.0206802 0.00097403697 -5.5422924e-22)
(1.0202172 0.00038509581 0)
(0.68008571 -0.11265813 2.3144778e-20)
(0.71995326 0.0029458807 -2.3720285e-22)
(0.72634669 0.2274229 -1.4948219e-20)
(0.72217814 0.27633413 6.322324e-21)
(0.71432776 0.21596996 8.454087e-20)
(0.7142418 0.030600758 6.8613013e-20)
(0.75593852 -0.20604418 -1.0614644e-21)
(0.85600501 -0.29832524 -6.5678429e-20)
(0.96549549 -0.27147238 -8.6010099e-21)
(1.0599345 -0.15276663 -1.1937875e-19)
(1.1113219 0.043318571 6.3649955e-22)
(1.0879518 0.24544139 0)
(1.0257491 0.30665856 0)
(0.96289554 0.26427936 1.1690163e-20)
(0.89372488 0.15785618 -8.0760612e-21)
(0.8527459 0.029864873 -5.0401641e-21)
(0.88401887 -0.040012147 1.096623e-21)
(0.9351045 -0.066156079 2.1171981e-22)
(0.97775463 -0.074179848 6.9810935e-23)
(1.0125592 -0.068414083 -1.5973998e-21)
(1.0366123 -0.053293375 -1.0731033e-22)
(1.0490298 -0.034504386 -3.7154817e-22)
(1.0514896 -0.017255326 6.5331325e-22)