/*--------------------------------*- C++ -*----------------------------------*\
| =========                 |                                                 |
| \\      /  F ield         | OpenFOAM: The Open Source CFD Toolbox           |
|  \\    /   O peration     | Version:  5.0                                   |
|   \\  /    A nd           | Web:      www.OpenFOAM.org                      |
|    \\/     M anipulation  |                                                 |
\*---------------------------------------------------------------------------*/
FoamFile
{
    version     2.0;
    format      ascii;
    class       volVectorField;
    location    "300";
    object      UMean;
}
// * * * * * * * * * * * * * * * * * * * * * * * * * * * * * * * * * * * * * //

dimensions      [0 1 -1 0 0 0 0];

internalField   nonuniform List<vector> 
9200
(
(1.0307817 0.00039152706 -2.4218963e-24)
(1.0309844 0.0012529913 3.9634257e-22)
(1.0296716 0.00037258113 0)
(1.0312992 0.0020531474 -2.1491069e-22)
(1.0298292 0.0012019682 3.4277405e-22)
(1.0291691 0.00036051387 0)
(1.0317078 0.0028442769 -2.0640501e-23)
(1.0300953 0.0019697965 -1.1125354e-23)
(1.0293175 0.0011547103 0)
(1.0284957 0.00033183488 0)
(1.0321839 0.0036671606 4.7295989e-22)
(1.030421 0.0027134385 4.0118378e-22)
(1.0295598 0.0018949421 1.9742413e-22)
(1.0286196 0.0010630934 1.1077974e-23)
(1.0279642 0.00030885588 3.1405842e-25)
(1.0326981 0.0044786844 4.4611531e-22)
(1.0307984 0.0034886832 8.6396625e-24)
(1.0298562 0.0026019412 6.8161643e-22)
(1.0288333 0.0017535151 2.943869e-22)
(1.0280796 0.00097730341 2.6519157e-23)
(1.0274952 0.00027916015 -3.9590474e-22)
(1.033211 0.005332318 5.6631454e-22)
(1.0312022 0.0042331983 4.806359e-22)
(1.0301957 0.0033404197 -4.0223493e-22)
(1.0290916 0.0023964373 -3.563211e-23)
(1.0282727 0.0016185621 2.1053545e-22)
(1.0275981 0.00086973108 2.186234e-22)
(1.0270732 0.00025073951 4.6006697e-23)
(1.0336939 0.0061926296 4.2750357e-22)
(1.0316068 0.0050059735 4.6032473e-22)
(1.0305571 0.0040387675 5.2576981e-22)
(1.0293869 0.0030788474 7.3989989e-23)
(1.028503 0.002200563 -6.1218699e-22)
(1.0277719 0.0014526297 -2.7036008e-22)
(1.027169 0.00076211247 -1.7095584e-22)
(1.026744 0.00022015884 2.893105e-22)
(1.0341273 0.0070811937 -7.8611758e-22)
(1.0320006 0.0057620875 3.753769e-22)
(1.0309104 0.0047573782 7.0716516e-23)
(1.0297032 0.0037161313 2.1893579e-22)
(1.0287624 0.0028271981 1.6501232e-22)
(1.0279787 0.0019636815 -8.2668976e-22)
(1.0273272 0.0012856912 -1.2041891e-22)
(1.0268345 0.00064429272 -2.6291861e-22)
(1.026453 0.00019076245 -5.4629061e-22)
(1.0344628 0.0079717891 6.9884911e-22)
(1.0323554 0.0065247697 -6.2591192e-24)
(1.0312367 0.0054487619 -3.9610649e-23)
(1.030014 0.0043774514 -2.4746732e-22)
(1.0290405 0.0034033328 -1.0993689e-22)
(1.0282086 0.0025274044 2.7832364e-22)
(1.0275143 0.0017255313 2.7775605e-22)
(1.0269808 0.001103244 3.8677037e-22)
(1.02654 0.00052857348 2.3103009e-22)
(1.0262443 0.00016124655 5.7068529e-23)
(1.0346358 0.0088500391 -3.1324431e-22)
(1.0326456 0.0072622244 2.4459123e-22)
(1.0315202 0.0061363572 2.8088755e-22)
(1.0303112 0.005014356 -4.1293198e-22)
(1.0293114 0.0040016609 9.7483759e-23)
(1.0284544 0.0030367766 -6.4194782e-22)
(1.0277187 0.0022251554 9.308133e-23)
(1.0271534 0.0014656725 4.6715915e-22)
(1.0266763 0.00092379759 -1.9957315e-22)
(1.0263312 0.00040938496 4.8574947e-22)
(1.0260715 0.00013356491 -3.432252e-23)
(1.034723 0.0097139908 1.4626063e-23)
(1.032786 0.0079667143 -4.4778969e-22)
(1.03174 0.0068011429 -4.5879388e-22)
(1.0305857 0.0056463414 0)
(1.02957 0.0045715831 2.4438972e-23)
(1.0286914 0.0035718745 -3.1292171e-22)
(1.0279375 0.0026678282 -1.1279512e-22)
(1.0273373 0.0018953801 -2.3219368e-22)
(1.0268375 0.0012103395 -3.1552605e-22)
(1.0264618 0.00073839918 -2.3674275e-22)
(1.0261597 0.00029524766 -1.2907247e-22)
(1.0259659 0.00010711787 3.5466548e-23)
(1.0346817 0.010555906 2.2595388e-23)
(1.0328346 0.0086627504 4.1457495e-23)
(1.0318626 0.0074441523 0)
(1.0308247 0.0062539889 0)
(1.0297962 0.0051384508 -5.8911539e-23)
(1.0289168 0.0040840353 -3.2691502e-22)
(1.0281428 0.0031378554 3.178448e-23)
(1.0275331 0.0022663948 3.5084173e-22)
(1.0270042 0.0015705256 5.1270971e-23)
(1.0266175 0.00094556478 3.7641824e-24)
(1.0262868 0.00056045206 1.1075484e-22)
(1.0260591 0.00018293577 1.0722391e-23)
(1.0258909 8.3167591e-05 1.9062571e-22)
(1.0340128 0.011218788 -2.7637317e-22)
(1.0328609 0.0093891664 9.6877729e-24)
(1.0318664 0.008040946 -1.2672262e-22)
(1.0309685 0.0068241721 4.7622157e-23)
(1.0299841 0.0056887329 -9.8931802e-24)
(1.0291169 0.0045998972 -1.3030574e-22)
(1.0283361 0.003586366 1.2888561e-22)
(1.0277119 0.0026682438 2.2064987e-23)
(1.0271805 0.0018694793 5.3133402e-22)
(1.0267728 0.0012317859 5.0276361e-22)
(1.0264401 0.00069095974 5.5066886e-23)
(1.0261873 0.00038450254 1.7016591e-22)
(1.0259906 7.8440915e-05 9.2728716e-23)
(1.025867 6.152667e-05 -2.2987872e-23)
(1.0324189 0.011617243 -4.0866503e-22)
(1.0326444 0.010080692 4.0836362e-22)
(1.0317804 0.0085989835 -1.7463113e-22)
(1.0309809 0.0073603091 2.2867658e-23)
(1.0301012 0.00622197 -2.9934891e-23)
(1.0292817 0.0051020835 1.8033321e-22)
(1.0285021 0.0040421394 1.3469212e-22)
(1.027875 0.003051917 -1.6075379e-22)
(1.0273345 0.0022004961 -1.4855611e-22)
(1.0269353 0.0014547511 -7.7694762e-23)
(1.0265879 0.00090443077 -3.3516923e-24)
(1.0263446 0.00043768559 -1.7432171e-22)
(1.0261225 0.00022016181 -5.0382616e-23)
(1.0259771 -1.9783993e-05 -2.0969064e-23)
(1.0258672 4.2941714e-05 2.1849678e-23)
(1.0299003 0.011762688 7.0202716e-22)
(1.031679 0.010581995 -6.9061178e-22)
(1.0315998 0.0091803475 1.372926e-22)
(1.0308669 0.0078552374 -1.5248479e-22)
(1.0301077 0.0067281103 6.4977297e-23)
(1.029385 0.0055918693 -3.4809421e-22)
(1.0286275 0.0044889139 -1.2904617e-22)
(1.0280074 0.003446826 4.4707931e-23)
(1.0274707 0.0025165622 -6.1892886e-23)
(1.0270698 0.0017112542 -4.42292e-22)
(1.0267405 0.0010514592 -3.7760471e-22)
(1.0264919 0.00057597903 -2.4500872e-22)
(1.0262878 0.00020003972 -3.0029751e-24)
(1.0261179 6.4664201e-05 6.1695243e-23)
(1.0259891 -0.00010779565 6.8023851e-23)
(1.0259022 2.7441301e-05 -4.3539583e-23)
(1.0266346 0.011793036 0)
(1.029926 0.010897358 -7.7127979e-22)
(1.0308418 0.0096758287 3.1409281e-22)
(1.030681 0.0083620504 0)
(1.0299473 0.0071926525 0)
(1.0293953 0.0060611375 0)
(1.028704 0.0049341665 7.4494841e-23)
(1.0280952 0.0038367177 2.6240101e-22)
(1.0275724 0.0028464449 6.1980576e-22)
(1.0271807 0.001954145 1.8811912e-22)
(1.0268593 0.0012309396 1.6283932e-22)
(1.0266417 0.00064377375 8.4700016e-23)
(1.0264394 0.000265335 6.6427386e-23)
(1.0262984 -2.6682929e-05 2.2795808e-24)
(1.0261412 -7.5457775e-05 -5.6447575e-23)
(1.0260396 -0.00018597705 2.9909558e-23)
(1.025954 1.5403605e-05 0)
(1.0231114 0.011739388 5.4013998e-22)
(1.0272625 0.011008944 1.604092e-21)
(1.0292697 0.0099878408 -1.3597237e-21)
(1.0301121 0.0088676053 -2.6267739e-22)
(1.0296889 0.0076625957 -1.5208088e-22)
(1.0292206 0.0064919545 0)
(1.0287079 0.0053680905 3.0985104e-22)
(1.0281366 0.0042317045 -2.3001083e-22)
(1.0276258 0.0031758987 -2.3189248e-22)
(1.0272513 0.0022123801 8.4146706e-22)
(1.0269505 0.0013981015 -1.0235442e-22)
(1.0267517 0.00074232512 2.077448e-22)
(1.0265921 0.00025507555 -1.7379247e-22)
(1.0264624 -3.4415956e-05 -4.4882842e-23)
(1.0263411 -0.00023254829 -1.781099e-22)
(1.0262088 -0.00020100553 2.9907854e-22)
(1.0261085 -0.00025205967 7.9189401e-23)
(1.0260256 6.9558479e-06 1.1242278e-22)
(1.0200012 0.011699996 -7.2064314e-23)
(1.0239042 0.010961728 7.5234277e-22)
(1.026851 0.010196251 3.6847896e-22)
(1.0287778 0.0092070612 -7.0557553e-22)
(1.0291756 0.0081635241 3.7957512e-23)
(1.0288844 0.0069074151 -4.0005296e-22)
(1.0285342 0.0057723379 -8.4722804e-22)
(1.0281218 0.0046233253 -7.6683751e-22)
(1.0276335 0.0035150028 -3.6395475e-22)
(1.0272695 0.0024753336 -3.5818469e-22)
(1.0269959 0.0015815446 -2.0737806e-22)
(1.0268278 0.00082770982 -7.7285011e-23)
(1.0266993 0.00027144901 -3.6954311e-22)
(1.0266266 -0.00012408141 1.1684132e-22)
(1.0265233 -0.00030970797 1.4568877e-22)
(1.0264358 -0.00041916411 -6.2925194e-23)
(1.026297 -0.0003080519 1.385165e-22)
(1.0262003 -0.00030582627 -2.5993049e-23)
(1.0261063 2.240113e-06 1.3312101e-22)
(1.0167526 0.011646289 -6.894713e-22)
(1.0207775 0.010849594 -1.0178883e-21)
(1.0237663 0.010270062 3.9197674e-21)
(1.0266265 0.0094308396 3.128991e-22)
(1.0280236 0.0085591545 -3.6421662e-22)
(1.0283579 0.0073688069 -1.8892278e-22)
(1.0281289 0.0061416988 2.2637431e-23)
(1.02796 0.004998258 -2.7683388e-22)
(1.0275926 0.0038568865 -1.4138196e-22)
(1.0272385 0.0027511336 -6.6937047e-22)
(1.0269845 0.001773133 -2.9674264e-22)
(1.0268505 0.0009286289 2.3222736e-22)
(1.0267674 0.00027257297 1.4714906e-22)
(1.0267399 -0.00019297747 -1.724121e-23)
(1.0267061 -0.00047619737 1.5995303e-22)
(1.0266452 -0.00056312377 -2.966083e-22)
(1.0265548 -0.00058028135 2.133899e-22)
(1.0264133 -0.00039632775 -2.3307941e-22)
(1.0263026 -0.00034619695 -5.413104e-23)
(1.0261945 1.2507374e-06 -1.537848e-22)
(1.0115377 0.011503421 -2.1355705e-23)
(1.0181626 0.010885853 -1.6739793e-21)
(1.0207079 0.010248367 4.1038298e-23)
(1.0237253 0.0095416942 -9.951446e-22)
(1.0260779 0.0088433009 -1.2786663e-22)
(1.027319 0.0077842357 3.7024686e-22)
(1.02754 0.0065490849 -2.2967573e-22)
(1.0275265 0.0053226733 5.6968185e-22)
(1.0274405 0.0041951996 5.9322326e-22)
(1.0271601 0.0030364576 0)
(1.0269188 0.0019807778 2.2983675e-22)
(1.0268098 0.0010409035 6.7497504e-22)
(1.0267743 0.00028733235 2.8546142e-22)
(1.0268081 -0.00028095545 -6.5274804e-22)
(1.0268337 -0.00062974664 -4.6928018e-23)
(1.0268567 -0.00080506049 -2.274786e-22)
(1.0267972 -0.00078571575 1.7900294e-22)
(1.0267098 -0.00071561562 1.8188204e-22)
(1.0265423 -0.00046386245 -2.1961031e-22)
(1.0264145 -0.00037292886 -3.1712878e-24)
(1.0262838 3.993565e-06 -1.5636006e-22)
(1.0033903 0.010884767 1.4342639e-21)
(1.0142216 0.010587919 -1.7033107e-21)
(1.0181201 0.010225414 -2.458652e-21)
(1.0208002 0.0095715631 2.4288861e-21)
(1.0233403 0.0090223683 1.3020667e-21)
(1.0255355 0.0081003748 -2.5664595e-22)
(1.0265616 0.0069630698 0)
(1.0268556 0.0056629304 -5.7256717e-22)
(1.0270249 0.0044861462 -4.7876705e-22)
(1.0270021 0.0033295605 -1.2747476e-22)
(1.0268015 0.002203031 3.6106051e-22)
(1.0267087 0.0011715576 3.1825681e-22)
(1.0267117 0.00031446745 -1.3053529e-22)
(1.0268056 -0.00035994309 4.0943034e-23)
(1.0269112 -0.00080854408 3.132896e-22)
(1.0270094 -0.0010439677 -2.9403499e-22)
(1.0270451 -0.0010985577 3.1927351e-23)
(1.0269946 -0.00097721005 -2.6498548e-22)
(1.0268807 -0.00082189392 4.6589772e-23)
(1.026685 -0.00051016781 5.5792435e-24)
(1.0265288 -0.00038576422 -1.1067467e-22)
(1.0263711 1.041114e-05 0)
(0.99297459 0.010285748 3.9987589e-22)
(1.0065358 0.01007274 1.197789e-21)
(1.0149468 0.010154687 -3.1810013e-23)
(1.0183624 0.0095700891 3.0184967e-21)
(1.0204176 0.009125761 1.0906234e-21)
(1.0229405 0.0083157572 -6.9091591e-22)
(1.0249002 0.0072966511 5.7473584e-22)
(1.025871 0.0060341872 -7.2668562e-22)
(1.0262822 0.0047509544 -1.8730424e-22)
(1.0266281 0.003596409 6.9417844e-23)
(1.0266223 0.0024405197 -3.2380535e-23)
(1.0265482 0.0013226449 -7.9689802e-22)
(1.0265806 0.00036093153 -8.7456327e-24)
(1.0267261 -0.00042734985 1.1033597e-21)
(1.0269096 -0.00098495424 1.1022504e-22)
(1.0271074 -0.0013163673 -2.0879523e-22)
(1.0272325 -0.0014199744 -1.0388047e-22)
(1.0272895 -0.0013565104 5.2572553e-22)
(1.0272127 -0.0011326139 5.5057694e-23)
(1.0270716 -0.00089829851 -1.7201379e-22)
(1.026832 -0.00053464112 0)
(1.0266423 -0.0003847835 2.5765582e-22)
(1.0264524 2.0466441e-05 5.6518214e-24)
(0.98033382 0.0096405446 -1.7528952e-21)
(0.9960887 0.0092853195 4.1193755e-21)
(1.0084235 0.0097622695 -4.5992321e-21)
(1.015674 0.0095807503 -1.8552129e-21)
(1.0180159 0.0092095441 3.3204694e-21)
(1.0200159 0.0084705235 0)
(1.0224377 0.0075281298 1.2929043e-22)
(1.024314 0.006355374 -6.6355325e-22)
(1.0252548 0.0050515358 -2.8181029e-22)
(1.0258753 0.003796884 6.2159095e-22)
(1.0262874 0.0026783397 1.0256553e-22)
(1.0263298 0.0014954681 -3.3919154e-22)
(1.0263806 0.00043224463 4.6866646e-22)
(1.0265678 -0.00047581837 -1.0309897e-22)
(1.0268235 -0.0011531752 4.1213552e-22)
(1.0271176 -0.0015951462 1.2930793e-22)
(1.0273622 -0.0017850457 -7.4593526e-22)
(1.0275237 -0.0017577394 2.2500435e-22)
(1.0275619 -0.0015716626 -9.069879e-22)
(1.0274598 -0.001250477 3.7471938e-22)
(1.0272696 -0.00094365543 4.3541989e-22)
(1.0269808 -0.00053725917 -3.3496204e-22)
(1.0267505 -0.00037031431 1.6726536e-22)
(1.0265247 3.3803986e-05 5.6519056e-24)
(0.96585669 0.0089319354 -8.0135765e-23)
(0.98426816 0.0087745271 4.2209458e-21)
(0.99891642 0.0089267698 7.8262384e-22)
(1.010088 0.0094138513 1.2669272e-20)
(1.015743 0.0093659262 -2.8450033e-21)
(1.017552 0.0085932187 3.906597e-21)
(1.0195058 0.0077055022 1.1643501e-22)
(1.0219811 0.0065833481 2.0736781e-21)
(1.02378 0.0053424516 -4.432952e-22)
(1.0247773 0.0040141422 -1.5376167e-22)
(1.0255906 0.0028437195 3.4763995e-22)
(1.0260058 0.0016894895 7.5776425e-22)
(1.0261157 0.00053015277 1.6350744e-23)
(1.02633 -0.00049699917 -9.5900965e-23)
(1.0266476 -0.0013058536 -3.5637553e-22)
(1.0270353 -0.0018726612 1.3010241e-22)
(1.0273977 -0.0021675505 -1.4436993e-22)
(1.0276983 -0.0022146497 3.8210973e-22)
(1.0278525 -0.0020471163 0)
(1.0278736 -0.0017417628 4.8122231e-23)
(1.0277176 -0.0013289047 1.7085071e-23)
(1.0274738 -0.00095765488 -3.4241595e-23)
(1.0271257 -0.00051838312 9.4806795e-24)
(1.0268503 -0.0003428351 -2.4214942e-22)
(1.0265855 5.0368078e-05 -7.3851937e-23)
(0.95020577 0.0082007148 1.2465066e-21)
(0.9705484 0.0081671073 -2.9094454e-21)
(0.98711325 0.0083070272 -2.104105e-21)
(1.0009732 0.0087394164 -1.8866103e-21)
(1.011244 0.00934041 -1.197652e-20)
(1.0154851 0.0088034337 -5.4799358e-22)
(1.016951 0.0078481862 1.1217805e-22)
(1.0190503 0.0067517932 -1.8893116e-22)
(1.0215656 0.0055508644 -1.4582361e-21)
(1.0233291 0.0042559393 3.1075234e-22)
(1.0244464 0.0029793335 -1.902827e-22)
(1.0253891 0.0018439506 -8.7969108e-23)
(1.0257719 0.00066103514 -4.7206963e-22)
(1.0260145 -0.00048724727 -9.2757567e-23)
(1.0263805 -0.0014316892 -3.9274248e-22)
(1.0268516 -0.0021404082 4.6751736e-22)
(1.0273331 -0.0025586082 1.219512e-21)
(1.0277731 -0.0027023079 -5.6952653e-22)
(1.028084 -0.002591674 -9.3761932e-22)
(1.0282326 -0.0022851031 1.3931241e-23)
(1.0282016 -0.0018638391 9.4841527e-22)
(1.0279884 -0.0013667922 2.6381168e-22)
(1.0276759 -0.00094058498 -4.260754e-22)
(1.0272633 -0.00047867404 3.0410019e-22)
(1.0269387 -0.00030302791 -1.6194133e-22)
(1.0266327 6.9559215e-05 8.46866e-24)
(0.93402774 0.0074664842 -5.626649e-23)
(0.95540415 0.0075705849 -3.6838989e-21)
(0.97359243 0.0075462836 9.1432686e-21)
(0.98966087 0.0081194014 -1.1537249e-20)
(1.0029735 0.0088938792 1.2181913e-20)
(1.0119016 0.0089360055 -6.7835887e-21)
(1.0149428 0.0080624925 -3.1257629e-21)
(1.0163879 0.0068926633 -2.7787169e-21)
(1.018662 0.0056962634 2.9607324e-21)
(1.0212229 0.0044374381 8.0318843e-22)
(1.0229515 0.0031471302 -1.0187344e-22)
(1.0242548 0.0019140201 1.9392968e-22)
(1.0252202 0.00079720966 3.2643015e-22)
(1.025624 -0.00043826982 -5.5652019e-22)
(1.0260214 -0.0015252836 -2.6336659e-23)
(1.026564 -0.0023846478 3.0285226e-22)
(1.0271565 -0.0029484834 -5.9418525e-22)
(1.0277413 -0.0032108871 7.1252786e-22)
(1.028213 -0.0031818158 -5.4452939e-22)
(1.0285342 -0.0029122072 1.6646298e-22)
(1.0286375 -0.002466885 0)
(1.0285516 -0.0019354713 4.3785343e-22)
(1.0282598 -0.0013643338 1.8448221e-23)
(1.027873 -0.00089310755 0)
(1.0273901 -0.00041918368 -3.7250372e-22)
(1.0270133 -0.00025174685 -2.3255735e-23)
(1.0266646 9.1220393e-05 2.4632762e-23)
(0.91770756 0.0067981387 -4.9480724e-22)
(0.93962774 0.0070016478 -3.5845225e-22)
(0.95875796 0.0068989296 8.9748282e-21)
(0.97676682 0.0073786143 -1.1012275e-21)
(0.99203952 0.0082008521 3.2753995e-21)
(1.0044704 0.0087271311 9.7617942e-21)
(1.0120943 0.008285928 3.8734314e-22)
(1.0143551 0.0070765493 3.6900645e-21)
(1.0158817 0.0058094078 -3.905062e-22)
(1.0183757 0.0045553796 -1.9894526e-21)
(1.0209396 0.0033110101 1.0785538e-21)
(1.0226739 0.0019938262 -2.052875e-23)
(1.0241855 0.00083885983 -2.0138183e-22)
(1.0250918 -0.00035413103 -5.7740415e-23)
(1.0255762 -0.0015772767 -7.2666467e-22)
(1.0261698 -0.0025983243 2.4232703e-23)
(1.0268638 -0.0033221205 -1.4818134e-21)
(1.0275875 -0.0037298903 1.1843024e-21)
(1.0282307 -0.0038076282 3.4598115e-22)
(1.0287328 -0.0036014105 -5.5283366e-22)
(1.0290205 -0.0031684519 6.5561686e-22)
(1.0290748 -0.0025887686 2.4708166e-23)
(1.0289059 -0.0019569271 -3.5420621e-23)
(1.0285301 -0.001321726 0)
(1.0280599 -0.00081656935 0)
(1.027503 -0.00034119907 3.1566793e-23)
(1.0270724 -0.00018984053 -1.2678448e-22)
(1.0266801 0.00011486551 5.6670046e-25)
(0.90159229 0.0061582437 0)
(0.92364008 0.0064386774 -2.3812241e-21)
(0.94333317 0.0062479021 -9.2629398e-21)
(0.9623856 0.006873297 -7.4491035e-21)
(0.97946266 0.0075677098 -1.4155505e-20)
(0.9941221 0.0080224667 -1.5813011e-21)
(1.0056763 0.0082191372 5.9128487e-21)
(1.0120383 0.0073408476 8.40265e-21)
(1.013802 0.0059686837 -5.9645965e-21)
(1.0154538 0.0046352271 8.3292184e-22)
(1.0181623 0.0034072467 -1.5862617e-22)
(1.0206886 0.0021323079 -3.3583224e-22)
(1.0225458 0.00083125837 4.1838895e-22)
(1.0241778 -0.00031843746 -1.5450048e-22)
(1.025022 -0.0015816499 2.9420204e-23)
(1.0256724 -0.0027712119 -8.0223996e-22)
(1.0264503 -0.0036706406 1.1095407e-22)
(1.0273056 -0.0042429963 -7.2319892e-22)
(1.0281185 -0.0044582136 1.4487236e-21)
(1.028817 -0.0043428369 -7.9186367e-22)
(1.0293032 -0.0039501193 5.6717465e-22)
(1.0295514 -0.0033556163 3.7492635e-22)
(1.0295223 -0.0026504776 -1.6343594e-24)
(1.0292656 -0.0019269569 -1.2579709e-21)
(1.0287917 -0.0012405063 -2.8980269e-22)
(1.0282332 -0.00071249588 5.0772286e-23)
(1.0275999 -0.00024615163 2.7662864e-22)
(1.0271143 -0.00011866168 -4.28784e-23)
(1.0266784 0.00013995276 -1.0516336e-22)
(0.88597363 0.0055131532 1.4809636e-21)
(0.90772598 0.0056883608 0)
(0.9275919 0.0054652754 0)
(0.94719189 0.0061265948 0)
(0.96542683 0.007086021 4.2168476e-21)
(0.98193944 0.0075153446 -1.2981532e-20)
(0.99603177 0.0075217226 3.425609e-22)
(1.0068043 0.0073380802 8.616292e-23)
(1.0118621 0.0062212959 -1.1848059e-20)
(1.0132739 0.0047860448 8.2603014e-21)
(1.0150945 0.0034733964 -2.3310754e-21)
(1.01797 0.002217355 5.5331372e-22)
(1.0204661 0.00089324801 -4.413905e-22)
(1.0225715 -0.00039383978 2.9806359e-22)
(1.0241976 -0.0015765419 8.431176e-22)
(1.0250706 -0.0028954137 9.7006005e-23)
(1.0259164 -0.0039823347 -9.6638515e-22)
(1.0268897 -0.0047400174 -4.1499772e-22)
(1.0278679 -0.0051162928 8.1018883e-22)
(1.0287654 -0.005125889 3.6227573e-23)
(1.029471 -0.0048015194 -6.7795007e-22)
(1.0299322 -0.0042215775 -7.9808257e-23)
(1.0301019 -0.0034717776 1.0104859e-21)
(1.029983 -0.0026485714 -6.7776647e-22)
(1.029618 -0.0018481708 3.6027808e-24)
(1.0290415 -0.0011223041 -2.0156856e-22)
(1.02839 -0.00058295246 3.9131549e-22)
(1.0276787 -0.00013569929 1.1851516e-22)
(1.0271382 -3.9104638e-05 6.1885232e-23)
(1.0266599 0.00016620063 -1.2054836e-22)
(0.86980034 0.0047913969 -1.5962238e-22)
(0.89216384 0.0049798601 -3.0432235e-21)
(0.91175621 0.0046692632 0)
(0.93154702 0.0054475404 0)
(0.95046827 0.0063420903 0)
(0.96832256 0.0070207692 0)
(0.9842984 0.0070154792 0)
(0.99796198 0.0067363768 -1.1419387e-24)
(1.007783 0.0063114011 6.4386837e-21)
(1.0115514 0.0050084215 -1.2904318e-20)
(1.0127329 0.0036440454 9.2149056e-23)
(1.014757 0.0022965042 -2.3088244e-21)
(1.0177684 0.00096881717 2.8056909e-21)
(1.0203537 -0.00046049806 -4.8284814e-22)
(1.0227597 -0.0016886044 -3.9613183e-23)
(1.0242805 -0.0029755738 3.729043e-22)
(1.0252645 -0.0042495737 -6.1955279e-22)
(1.0263375 -0.005207867 5.1425412e-22)
(1.0274713 -0.0057709566 2.2332007e-22)
(1.028567 -0.0059325007 2.2200929e-22)
(1.0294997 -0.0057132015 9.0382248e-23)
(1.0302001 -0.0051756954 2.9331917e-22)
(1.0305932 -0.0044112399 -6.0557124e-24)
(1.0306753 -0.0035126929 -4.1097781e-22)
(1.0304398 -0.0025864703 1.4481773e-22)
(1.0299612 -0.001720507 1.1270304e-21)
(1.0292741 -0.00096961806 2.5820277e-22)
(1.0285276 -0.00043007101 -1.7471573e-22)
(1.0277382 -1.1564068e-05 1.4105182e-23)
(1.0271435 4.7726576e-05 4.9179608e-23)
(1.0266244 0.00019347216 9.5183764e-23)
(0.85286518 0.0038826872 -1.7153087e-21)
(0.8759541 0.0041831131 -7.5691158e-22)
(0.89614817 0.0039197447 -1.0227888e-20)
(0.91573982 0.0047343226 -1.6845019e-20)
(0.93503096 0.0057008694 0)
(0.95359619 0.0062904354 0)
(0.97114802 0.0064453008 -7.145813e-23)
(0.98676223 0.0061505106 -1.4474869e-20)
(0.99992173 0.0058636317 1.8258847e-20)
(1.0083911 0.0051968285 -1.6565956e-20)
(1.0110728 0.0038424568 -2.1512073e-22)
(1.0121158 0.0025036827 5.201633e-21)
(1.014421 0.0010529952 -6.7394181e-22)
(1.0176003 -0.0004410372 1.9866533e-22)
(1.0204822 -0.0018872789 3.1502041e-22)
(1.023026 -0.0031100574 -8.4383739e-24)
(1.0244657 -0.0044640713 1.5118658e-21)
(1.0256493 -0.0056378055 -8.9597837e-23)
(1.0269246 -0.0064073805 -1.560697e-21)
(1.0282122 -0.0067508974 2.0059564e-21)
(1.0293761 -0.0066666412 -7.9698807e-22)
(1.0303285 -0.0062100938 -6.0573728e-22)
(1.0309765 -0.0054576184 1.6518755e-21)
(1.0312885 -0.00451353 5.4076534e-22)
(1.031251 -0.0034809502 -3.2217978e-22)
(1.0308929 -0.0024629475 7.1445531e-22)
(1.0302871 -0.0015477764 3.3674254e-22)
(1.0294861 -0.00078426839 1.1168053e-22)
(1.0286436 -0.0002561102 -1.8243705e-22)
(1.0277775 0.00012443249 -5.6686532e-23)
(1.02713 0.00014064957 1.2465391e-22)
(1.0265717 0.0002207399 1.435723e-23)
(0.83594413 0.002821111 5.9995825e-22)
(0.85900809 0.0034321089 3.2826867e-21)
(0.87973254 0.0031152253 1.4936104e-20)
(0.90014305 0.0040831536 2.0960016e-20)
(0.91937351 0.005010095 0)
(0.93831317 0.0056290813 0)
(0.95669582 0.0056983387 0)
(0.97407662 0.005491899 2.0909332e-21)
(0.98935189 0.0051981084 -2.2183658e-20)
(1.0016817 0.0049529333 -1.7830011e-20)
(1.008646 0.0041556619 -1.6523418e-22)
(1.0103782 0.0027115752 1.3636425e-21)
(1.0113976 0.0012751089 -9.7946594e-21)
(1.0141183 -0.0003859716 3.327618e-21)
(1.0175609 -0.0020206035 -2.1350828e-22)
(1.020878 -0.0034091283 0)
(1.0233417 -0.0046650002 2.8691395e-22)
(1.0248194 -0.0060200073 -4.584295e-22)
(1.0262258 -0.0070158118 1.8928888e-23)
(1.0276954 -0.007565742 2.4643384e-22)
(1.0290883 -0.0076498103 -9.0491579e-22)
(1.0303014 -0.0073061342 3.2071837e-22)
(1.0312228 -0.0066049119 -9.6413e-22)
(1.0318013 -0.0056402101 -1.3111397e-21)
(1.0319953 -0.0045295013 5.5430684e-22)
(1.031829 -0.0033739406 6.7229413e-23)
(1.0313291 -0.0022832152 -5.6320137e-23)
(1.0305932 -0.0013322312 1.2527309e-23)
(1.0296753 -0.00056983002 -3.0213243e-22)
(1.028737 -6.3917888e-05 -2.059079e-22)
(1.027796 0.00027058613 8.0495736e-23)
(1.0270977 0.00023846781 -5.2067636e-22)
(1.0265006 0.00024565863 3.0218305e-22)
(0.81917955 0.0018960738 4.2103412e-22)
(0.84197722 0.0023323204 3.2055706e-22)
(0.86251735 0.0023624913 2.527967e-20)
(0.88367063 0.0033312766 4.1690088e-20)
(0.90387215 0.0043845002 -9.0456148e-21)
(0.92275997 0.0049333834 -9.7771061e-22)
(0.94155915 0.0049705988 -3.655347e-20)
(0.95994902 0.0046900614 1.7457505e-20)
(0.97713173 0.0044277685 2.5403515e-21)
(0.9919427 0.0042715961 4.4771288e-20)
(1.0032156 0.0041422765 -1.5130075e-20)
(1.0084493 0.0031856814 -1.6331662e-20)
(1.0094249 0.0015097198 1.3796604e-22)
(1.0106519 -0.0002016985 3.8981034e-21)
(1.0139361 -0.0020533901 2.3303238e-21)
(1.0178143 -0.0037525034 1.2790044e-22)
(1.0214927 -0.0050150523 3.6016385e-23)
(1.0237617 -0.0063555753 3.4656704e-22)
(1.0253713 -0.007586031 -1.7871591e-22)
(1.027013 -0.0083651052 -7.6220575e-23)
(1.0286286 -0.008646726 6.3261939e-22)
(1.030105 -0.008451977 -1.7937007e-21)
(1.0313137 -0.0078348377 -1.3310402e-22)
(1.0321824 -0.006888885 8.0265392e-22)
(1.0326497 -0.0057223978 -1.8105178e-21)
(1.0327124 -0.0044557478 -6.3079136e-22)
(1.0323931 -0.0031974616 -5.6958822e-22)
(1.0317473 -0.0020476897 -1.610489e-22)
(1.030874 -0.0010780957 -3.1102702e-22)
(1.0298392 -0.00032958763 4.3625987e-24)
(1.0288065 0.0001443912 -3.7579866e-23)
(1.0277936 0.00042508397 -2.3005633e-23)
(1.0270468 0.000340229 2.7228872e-22)
(1.0264145 0.00027000103 -6.7488563e-22)
(0.80294758 0.0010092808 -7.1399558e-22)
(0.82502311 0.0014502894 -4.9087891e-22)
(0.8452368 0.0013366391 -2.9210015e-20)
(0.86639454 0.0026156837 -2.0792046e-20)
(0.88733882 0.0036242667 3.5166359e-20)
(0.9073208 0.0043352223 4.4026327e-20)
(0.926096 0.0042140616 5.1575251e-21)
(0.94496009 0.0038726351 0)
(0.96336487 0.0035640596 1.9736619e-20)
(0.98019329 0.0034075732 6.2431485e-20)
(0.99436206 0.0035021132 2.3540749e-21)
(1.0043106 0.0034246356 7.9546403e-21)
(1.0077997 0.0021810979 0)
(1.0082417 6.738466e-05 -4.9164414e-22)
(1.0100088 -0.0019606646 -6.6291077e-21)
(1.013997 -0.0039771133 -2.5544931e-22)
(1.0184723 -0.0055445417 9.0858115e-22)
(1.0221834 -0.0067529607 0)
(1.0243341 -0.0081080351 3.8836693e-22)
(1.0261589 -0.0091390326 8.7363239e-22)
(1.0279929 -0.0096436512 -1.4205864e-21)
(1.0297296 -0.0096306298 6.3978392e-22)
(1.0312331 -0.0091359039 0)
(1.0324112 -0.0082418969 -1.7130547e-21)
(1.0331805 -0.0070581706 8.0935546e-22)
(1.0335184 -0.0056998182 -5.5064905e-23)
(1.0334207 -0.0042973872 -7.596416e-22)
(1.0329416 -0.0029509232 6.5797807e-22)
(1.0321383 -0.0017629068 2.4871477e-23)
(1.0311273 -0.00078871021 -7.527827e-22)
(1.0299762 -6.6801145e-05 5.9685868e-22)
(1.0288519 0.00036594924 1.6449549e-22)
(1.0277703 0.00058620424 0)
(1.0269777 0.00044515002 -1.1288114e-23)
(1.0263141 0.00029337651 -2.3399565e-22)
(0.78724047 0.00012049897 -4.8766002e-22)
(0.80858525 0.00081306922 1.7332378e-21)
(0.8281251 0.00030178336 -2.7317038e-20)
(0.84900609 0.0018825151 -7.2367257e-21)
(0.86995458 0.0029181461 9.399777e-21)
(0.8907333 0.0035713955 5.9663897e-21)
(0.9107238 0.0035839445 3.8837342e-20)
(0.92957217 0.0030280975 1.975443e-22)
(0.94856699 0.0026819898 0)
(0.9668249 0.0025253283 -2.3723347e-20)
(0.98311663 0.0026295313 1.9950157e-20)
(0.9963883 0.0029729292 -1.3224252e-21)
(1.0046643 0.0026321108 8.279197e-21)
(1.0066319 0.00085494369 -8.4120147e-21)
(1.0070082 -0.0017040948 -3.8779407e-21)
(1.00963 -0.0040348288 -4.241488e-21)
(1.0144368 -0.0060558267 5.4252846e-21)
(1.0195127 -0.0073926996 4.6279018e-22)
(1.0229405 -0.0086211338 7.9077097e-22)
(1.0251261 -0.0098765575 -2.1287116e-21)
(1.0271725 -0.010630398 1.8062071e-21)
(1.0291701 -0.010828013 -1.8154853e-21)
(1.0309696 -0.010490526 0)
(1.0324692 -0.0096881953 -4.6142777e-22)
(1.033565 -0.0085197591 1.9210505e-22)
(1.0342117 -0.0071066761 9.4686025e-22)
(1.0343862 -0.0055760425 1.8998996e-22)
(1.0341174 -0.0040535351 1.0625447e-22)
(1.0334625 -0.0026422302 4.8679817e-22)
(1.0325006 -0.0014308182 0)
(1.0313501 -0.00046860345 6.6509516e-22)
(1.0300853 0.00021517542 6.696221e-22)
(1.028873 0.00059831736 2.8512472e-22)
(1.0277268 0.00075235522 -2.6711938e-22)
(1.0268909 0.00055235763 8.6966964e-24)
(1.0262021 0.00031768004 8.9269346e-22)
(0.77227587 -0.0006520327 6.2317147e-22)
(0.79290398 0.00012163431 -1.7579544e-22)
(0.81149148 -0.00033439488 8.2271068e-21)
(0.83183864 0.00085579387 3.0506877e-22)
(0.85227818 0.0023014854 -4.1371804e-20)
(0.87323366 0.0029054664 -4.4182259e-20)
(0.89408306 0.0028026435 -1.5504709e-22)
(0.91426638 0.0023231553 3.0055363e-20)
(0.93327345 0.0017667887 1.7854226e-22)
(0.95226624 0.001596356 2.3182458e-20)
(0.97017614 0.0017819645 -3.600277e-23)
(0.98566585 0.0022211544 -1.0777797e-20)
(0.99769108 0.002507939 -1.2571727e-21)
(1.0041748 0.0015036195 -8.7005309e-21)
(1.0051387 -0.00091364869 2.9342074e-20)
(1.0059044 -0.0039015561 4.2799634e-22)
(1.0096576 -0.0063678987 -3.4645612e-21)
(1.0154299 -0.0081857102 -1.764112e-21)
(1.0207382 -0.0093094772 1.5006526e-24)
(1.023838 -0.01057802 -3.6275499e-22)
(1.0261616 -0.011596486 8.1277751e-22)
(1.0284171 -0.012031847 -2.3002052e-21)
(1.0305163 -0.011884759 2.0003656e-21)
(1.0323433 -0.011209855 0)
(1.0337825 -0.010097093 1.0765445e-21)
(1.0347676 -0.0086607522 1.9694313e-21)
(1.0352526 -0.0070365233 -8.8641499e-22)
(1.0352481 -0.005349841 1.7098775e-21)
(1.0347877 -0.0037321739 3.1197499e-23)
(1.0339536 -0.0022725871 -5.6039931e-22)
(1.032828 -0.0010585075 -7.0881756e-22)
(1.0315406 -0.00012155897 -1.2203891e-23)
(1.0301659 0.00051298237 -4.6397148e-23)
(1.0288702 0.00083892553 3.9729914e-22)
(1.0276639 0.0009220785 -1.4529375e-22)
(1.0267875 0.00066117497 -3.7229692e-23)
(1.0260774 0.00034584505 3.5868492e-22)
(0.75897278 -0.0014273507 -1.9000359e-22)
(0.77822652 -0.00058605993 -1.4488924e-21)
(0.79562361 -0.00091590438 1.0612113e-20)
(0.8150119 0.00031762223 5.8321036e-21)
(0.8348399 0.0014400458 -3.3304741e-22)
(0.85522564 0.0023337962 2.8412542e-22)
(0.87647109 0.0021370522 2.4326839e-20)
(0.89757091 0.001515597 -1.1439852e-20)
(0.91804712 0.00098483983 0)
(0.93710139 0.00064674145 -5.2678185e-21)
(0.95593492 0.00086129376 0)
(0.97317469 0.0014571354 0)
(0.98762853 0.0019479572 -1.1421469e-20)
(0.99820924 0.0017407014 1.3786467e-21)
(1.002999 -0.00012248849 6.1808325e-21)
(1.0035441 -0.0032135848 8.2651126e-21)
(1.005157 -0.0064542167 -9.8965345e-21)
(1.0102457 -0.0088747497 -3.3715351e-21)
(1.0169725 -0.010289281 -1.2272334e-21)
(1.0220028 -0.011338946 1.220697e-22)
(1.0249381 -0.012530379 -1.4155372e-21)
(1.0274618 -0.013231873 1.1742279e-21)
(1.0298643 -0.013303294 2.7771986e-22)
(1.0320243 -0.01279242 -7.5074769e-22)
(1.033818 -0.01177213 -6.0606306e-23)
(1.0351633 -0.010352929 4.4566473e-22)
(1.0359932 -0.0086648559 -1.4810375e-22)
(1.0362956 -0.0068458071 -1.0712979e-21)
(1.0360871 -0.0050287053 -9.0427283e-23)
(1.0354282 -0.0033343557 -1.7079922e-21)
(1.0344066 -0.0018508052 -3.74446e-22)
(1.0331196 -0.00064885801 -1.4489673e-22)
(1.0316977 0.00024793097 -7.8639469e-22)
(1.0302181 0.00082342427 1.494921e-22)
(1.028844 0.0010856362 -8.4304221e-22)
(1.0275827 0.0010941215 -1.7605879e-22)
(1.0266692 0.0007704024 -3.1347137e-22)
(1.0259418 0.00037428578 0)
(0.74901595 -0.0021882374 -1.0672337e-21)
(0.76524674 -0.0013583173 -1.6698518e-22)
(0.78072569 -0.0014049882 2.6841177e-21)
(0.7988698 -0.00014438587 4.7560947e-21)
(0.81773608 0.00078828846 2.1045037e-20)