/*--------------------------------*- C++ -*----------------------------------*\
| =========                 |                                                 |
| \\      /  F ield         | OpenFOAM: The Open Source CFD Toolbox           |
|  \\    /   O peration     | Version:  5.0                                   |
|   \\  /    A nd           | Web:      www.OpenFOAM.org                      |
|    \\/     M anipulation  |                                                 |
\*---------------------------------------------------------------------------*/
FoamFile
{
    version     2.0;
    format      ascii;
    class       volSymmTensorField;
    location    "300";
    object      UPrime2Mean;
}
// * * * * * * * * * * * * * * * * * * * * * * * * * * * * * * * * * * * * * //

dimensions      [0 2 -2 0 0 0 0];

internalField   nonuniform List<symmTensor> 
9200
(
(0.00049141945 1.8651394e-05 -5.6915324e-26 1.5553867e-06 -4.3070294e-27 3.6474701e-47)
(0.00050319753 6.1010213e-05 1.7195607e-23 1.7588822e-05 2.1454104e-24 7.12517e-43)
(0.00039202307 1.5928612e-05 0 1.5041038e-06 0 0)
(0.00052138458 9.801511e-05 -9.3867752e-24 4.550209e-05 -1.8608502e-24 2.0501195e-43)
(0.00040074249 5.2272596e-05 1.3332665e-23 1.7307138e-05 1.9818494e-24 5.3087312e-43)
(0.00034630652 1.4699695e-05 0 1.433538e-06 0 0)
(0.00055133762 0.00013808029 -9.3724556e-25 9.1554112e-05 -2.4525934e-25 1.897958e-45)
(0.00041515371 8.3144393e-05 7.903876e-26 4.4491493e-05 -9.3629033e-26 1.8996853e-45)
(0.00035454339 4.7772804e-05 0 1.6491077e-05 0 0)
(0.00029401823 1.2632408e-05 0 1.3402815e-06 0 0)
(0.0005904594 0.0001767008 2.1323812e-23 0.00015325698 7.4466912e-24 9.4083102e-43)
(0.00043893525 0.00011520519 1.364886e-23 8.9150086e-05 5.2539739e-24 5.8630796e-43)
(0.00036691469 7.5591409e-05 7.0655228e-24 4.2191167e-05 2.053851e-24 1.6999992e-43)
(0.00030086301 4.1136034e-05 3.7400406e-25 1.5605664e-05 7.7028202e-26 6.0358621e-46)
(0.00025423283 1.1149167e-05 2.337345e-27 1.2615011e-06 4.1818704e-28 3.1422885e-49)
(0.00064227301 0.00021718514 2.072419e-23 0.00023899725 8.1830212e-24 7.966885e-43)
(0.00047071831 0.00014428345 -3.8737526e-25 0.0001480267 3.1864933e-25 5.8445783e-45)
(0.00038742864 0.0001040055 2.4089749e-23 8.4113285e-05 9.9081455e-24 1.9231361e-42)
(0.00031221073 6.4745291e-05 8.3772625e-24 3.9705774e-05 3.0632966e-24 3.2964059e-43)
(0.00026104981 3.6069748e-05 1.5370349e-25 1.4680286e-05 1.1384229e-25 2.3399679e-45)
(0.00021947306 9.643284e-06 -1.2312082e-23 1.1789831e-06 -9.4889157e-25 1.0453791e-42)
(0.00070696066 0.00025692108 2.7006342e-23 0.00035193493 1.5131171e-23 1.439148e-42)
(0.00051382746 0.00017250403 2.0172966e-23 0.00022864672 8.9790679e-24 9.2722297e-43)
(0.00041492198 0.00012889318 -1.4764252e-23 0.00013860405 -7.3606455e-24 6.69698e-43)
(0.00033153739 8.8326059e-05 -8.9335401e-25 7.8811423e-05 -5.0955249e-25 4.323111e-45)
(0.00027184111 5.6487734e-05 6.7349181e-24 3.7099657e-05 2.4388727e-24 2.3656069e-43)
(0.0002258284 3.1135566e-05 5.8890113e-24 1.3808226e-05 1.6043176e-24 2.4404825e-43)
(0.00019107079 8.3683945e-06 8.4634398e-25 1.1050688e-06 8.7331276e-26 7.7427258e-45)
(0.00078795842 0.00029493778 2.0534535e-23 0.00050184454 1.8839637e-23 1.3320006e-42)
(0.00057089943 0.00019730352 1.7909533e-23 0.00033319165 1.166668e-23 7.6805325e-43)
(0.00045250093 0.00015188168 1.8041575e-23 0.00021209872 1.1996966e-23 1.0337685e-42)
(0.00035809071 0.00010827395 5.5987867e-25 0.00012901559 1.3474769e-24 2.7832039e-44)
(0.00029015588 7.6590309e-05 -1.7006505e-23 7.3292245e-05 -9.2320859e-24 1.5561448e-42)
(0.00023617625 4.8667106e-05 -6.466863e-24 3.4752128e-05 -2.9257739e-24 3.0578734e-43)
(0.00019734784 2.6931169e-05 -6.3991048e-24 1.2983156e-05 -1.7273403e-24 3.575375e-43)
(0.00016697333 7.1961241e-06 8.9670925e-24 1.0395351e-06 8.6224951e-25 9.5614146e-43)
(0.00088871456 0.00032863236 -3.9114621e-23 0.00069823911 -2.9141974e-23 2.5458078e-42)
(0.00064766188 0.0002179096 1.9091681e-23 0.0004704809 6.7193219e-24 6.4943472e-43)
(0.00050266499 0.00017035635 5.43088e-25 0.00030544069 2.8390962e-24 4.5341836e-44)
(0.00039538477 0.00012601566 7.4217791e-24 0.0001961329 4.8074155e-24 1.9415791e-43)
(0.00031543617 9.3197122e-05 4.5134189e-25 0.00011918935 2.536674e-24 1.1762653e-43)
(0.00025395646 6.5805329e-05 -2.2502048e-23 6.8496678e-05 -1.3048851e-23 3.3386171e-42)
(0.00020745798 4.2093768e-05 3.2513109e-24 3.2525433e-05 3.3924381e-25 2.0479192e-43)
(0.00017302982 2.3090357e-05 -9.5579631e-24 1.2290968e-05 -2.9784049e-24 1.067691e-42)
(0.00014746425 6.166359e-06 -1.6544246e-23 9.8082457e-07 -1.8294353e-24 4.4696177e-42)
(0.0010121432 0.00035210019 3.3199411e-23 0.00095163155 3.5467839e-23 2.2239641e-42)
(0.00075121188 0.00023149651 -1.037228e-23 0.00064864991 1.0825014e-23 6.714278e-43)
(0.00057058937 0.00018356962 -6.3599032e-25 0.00042524073 -1.7254699e-24 8.9769218e-45)
(0.00044628474 0.00013952344 2.9181165e-25 0.00028064149 -8.2688899e-24 4.54481e-43)
(0.00035115667 0.0001075776 -2.3258421e-24 0.00018002014 -2.3989964e-24 3.7607619e-44)
(0.00027880648 7.9919551e-05 -1.0953201e-25 0.00011086167 3.4794249e-24 2.7419687e-43)
(0.00022474235 5.6883414e-05 6.8899857e-24 6.3977155e-05 4.4929212e-24 4.0592517e-43)
(0.00018283254 3.6147144e-05 1.0289941e-23 3.0693888e-05 5.3239695e-24 1.2173394e-42)
(0.00015336014 1.9708379e-05 4.8039269e-24 1.1673848e-05 1.9388816e-24 3.8426327e-43)
(0.00013114643 5.2112826e-06 1.0313359e-24 9.3037479e-07 1.4756194e-25 2.6483145e-44)
(0.001160983 0.00035979697 -1.6802541e-23 0.0012744896 -1.6512709e-23 4.2522227e-43)
(0.00089007982 0.00023308509 -3.2705193e-24 0.00087891571 2.2780215e-23 8.5351341e-43)
(0.00066332062 0.00018935614 1.6418939e-23 0.00057734085 6.178679e-24 4.6937683e-43)
(0.00051654208 0.00014846665 -1.1815294e-23 0.0003886409 -1.2661756e-23 5.4637366e-43)
(0.00040023289 0.00011805187 1.3731887e-23 0.0002557456 1.8786736e-24 7.8771022e-43)
(0.00031412186 9.2170131e-05 -2.4433114e-23 0.00016670873 -1.5777734e-23 2.9631381e-42)
(0.00024886558 6.9148112e-05 -2.1784903e-25 0.00010315492 9.2686645e-25 2.5030926e-44)
(0.00019956189 4.8893223e-05 1.7126184e-23 6.0366161e-05 1.0827223e-23 3.0594297e-42)
(0.00016284159 3.0954781e-05 -7.219974e-24 2.9071483e-05 -3.9815686e-24 7.9851024e-43)
(0.00013684342 1.6545978e-05 1.2618212e-23 1.1175349e-05 5.7020347e-24 3.7011181e-42)
(0.00011824112 4.3553786e-06 -1.7011687e-24 8.839627e-07 -2.5445093e-25 1.0262549e-43)
(0.0013431113 0.000373828 5.713356e-24 0.0016961368 -3.0259016e-24 7.8698995e-44)
(0.0010700124 0.00021599665 1.7644296e-23 0.0011763952 -4.8894858e-23 3.279762e-42)
(0.00079011632 0.00018507536 -1.3172236e-23 0.00077237388 -2.270994e-23 8.0427961e-43)
(0.00061391077 0.00015134403 0 0.00052565132 0 0)
(0.0004681401 0.0001245423 1.6381514e-26 0.00035185367 8.0185299e-25 2.498106e-45)
(0.00036276064 0.00010137941 2.1616305e-24 0.00023577493 -6.7149433e-24 4.2069208e-43)
(0.00028300299 7.9954617e-05 -4.5318865e-24 0.00015467038 -3.1427052e-24 1.2650884e-43)
(0.00022291667 5.9679531e-05 -9.0657669e-24 9.7132605e-05 -6.5925507e-24 7.6496254e-43)
(0.0001789339 4.1956711e-05 4.9025998e-25 5.7193526e-05 -1.558047e-24 1.7948198e-43)
(0.00014594601 2.6095153e-05 -7.7108877e-24 2.7775689e-05 -5.1503266e-24 1.311654e-42)
(0.00012375325 1.3677163e-05 -4.2974386e-24 1.0724878e-05 -2.2871978e-24 6.4480886e-43)
(0.00010785282 3.5502515e-06 7.3745618e-25 8.4228539e-07 1.5214242e-25 3.2900485e-44)
(0.0015300494 0.00039695692 3.4721386e-24 0.0022288556 1.1809843e-24 1.162259e-44)
(0.0012993101 0.00018455781 -2.9632516e-23 0.0015674434 1.9052846e-23 1.3156844e-42)
(0.0009580543 0.00016397951 0 0.0010226675 0 0)
(0.00074921659 0.00014667908 0 0.00070142669 0 0)
(0.00056195293 0.00012606138 -8.6259293e-24 0.00047335636 -4.8839626e-25 1.8239752e-43)
(0.00042994592 0.00010781454 1.2473225e-23 0.00032317928 -8.6534945e-24 1.3080179e-42)
(0.00032976422 8.8441089e-05 -1.3143165e-23 0.00021808936 -2.822628e-24 9.5580989e-43)
(0.00025594506 6.9470779e-05 1.0621721e-23 0.00014539111 9.5562461e-24 9.5509627e-43)
(0.00020127263 5.1502773e-05 6.6562436e-25 9.1914365e-05 8.4859666e-25 8.4831506e-45)
(0.00016133684 3.5412814e-05 -6.1638328e-27 5.4720672e-05 1.5418016e-26 2.1395175e-47)
(0.00013246013 2.168557e-05 7.8864087e-24 2.6616725e-05 6.0099865e-24 2.0444992e-42)
(0.00011319002 1.0928429e-05 -6.8567515e-24 1.0342698e-05 -4.3227096e-24 2.7392159e-42)
(0.00010002376 2.8239624e-06 9.668532e-24 8.0193939e-07 2.4754517e-24 1.0130433e-41)
(0.001586545 0.00031818468 -5.6970489e-23 0.0027955684 -8.640689e-24 3.40708e-42)
(0.0015817856 0.00016375865 7.4683918e-24 0.0020898196 -2.175961e-24 5.1292175e-44)
(0.0011694731 0.00012223956 -4.1668938e-23 0.0013470212 7.0720506e-24 1.9850452e-42)
(0.00093191342 0.00012960302 2.7943566e-23 0.00092877583 -6.0667946e-24 1.188644e-42)
(0.00069205733 0.00012215981 -1.6447064e-23 0.00062973107 3.1496647e-24 5.8117147e-43)
(0.00052231056 0.00011089447 5.548255e-24 0.0004337243 -4.5063038e-24 1.8840405e-43)
(0.00039408725 9.4930618e-05 3.7147063e-24 0.00029823166 3.739317e-24 7.0839786e-44)
(0.00030096826 7.7737743e-05 -2.4273051e-25 0.00020461845 2.6689187e-25 1.4882771e-45)
(0.00023264177 6.0390343e-05 7.7968601e-24 0.00013750054 1.1098811e-23 9.9224966e-43)
(0.00018258104 4.372507e-05 5.6376229e-24 8.7939746e-05 8.4307396e-24 8.6432011e-43)
(0.00014710996 2.9434032e-05 2.1685831e-24 5.2529628e-05 2.2995979e-24 1.409393e-43)
(0.000121506 1.7426481e-05 4.5243367e-24 2.5645604e-05 4.7927667e-24 1.1366425e-42)
(0.00010522231 8.4011311e-06 2.2467039e-24 9.9710026e-06 2.1108141e-24 5.5108171e-43)
(9.4214981e-05 2.1455207e-06 -1.785716e-24 7.6297775e-07 -6.8279913e-25 8.0771087e-43)
(0.0014633253 6.2111908e-05 5.064078e-23 0.0033204388 -1.6572679e-22 1.3421645e-41)
(0.0018379908 0.00012816294 3.1669611e-22 0.0027566412 -8.2730819e-23 7.5321861e-41)
(0.0014341265 7.6908314e-05 6.6267331e-24 0.0017726048 -2.348812e-23 3.9478148e-43)
(0.0011639855 9.2305292e-05 -5.3319907e-24 0.0012252932 3.3767465e-24 4.339525e-44)
(0.00087036785 0.00011037285 2.5713189e-24 0.00083389551 -2.1739096e-24 1.809072e-44)
(0.00064972867 0.00011051644 -1.1204811e-23 0.00057646359 7.9255875e-24 4.5864396e-43)
(0.00048196389 9.9148658e-05 4.1901015e-24 0.00039958732 4.3942368e-24 7.5054552e-44)
(0.00036235435 8.4862363e-05 -4.2014075e-24 0.00027938618 -4.83892e-24 1.1692724e-43)
(0.00027507526 6.831031e-05 1.4958223e-24 0.00019334446 -1.3492976e-24 5.3430606e-44)
(0.00021229933 5.168785e-05 -4.5800266e-25 0.00013158078 -1.2103565e-24 1.1834383e-44)
(0.00016716781 3.6544064e-05 -1.4143933e-25 8.4472289e-05 -1.7303676e-25 5.1459885e-46)
(0.00013544366 2.3561161e-05 9.4292841e-26 5.0733947e-05 -7.4333841e-25 3.4005275e-44)
(0.00011318241 1.3491173e-05 -4.8119513e-24 2.4710701e-05 -6.4705605e-24 2.3181891e-42)
(9.9324287e-05 5.982366e-06 1.6088022e-24 9.6178728e-06 2.1362318e-24 6.4976525e-43)
(9.0314522e-05 1.5404488e-06 -7.5091096e-25 7.2352268e-07 -5.2293664e-25 5.1713322e-43)
(0.0013047669 -0.00030562412 6.7357112e-23 0.0037713051 5.6030878e-23 1.2328427e-41)
(0.0018840668 -2.2529015e-05 -2.1184467e-22 0.0034739154 -1.8976143e-23 3.2133668e-41)
(0.0017403468 5.8234205e-05 1.052086e-22 0.002350938 -2.3022827e-23 8.14246e-42)
(0.0014434005 4.0289913e-05 -7.444224e-23 0.0016158676 3.7224929e-24 4.6748966e-42)
(0.0011012848 8.2048615e-05 4.3186672e-23 0.0011032394 -2.6640573e-24 2.0701249e-42)
(0.00082463421 0.00010548306 -3.6590386e-23 0.00076436459 -1.5085202e-23 2.085989e-42)
(0.00060235957 0.00010106126 3.4037499e-23 0.00053074824 -2.2480832e-24 2.6484052e-42)
(0.00044558261 9.0708967e-05 -1.3127768e-24 0.00037384585 8.1577374e-25 1.0439595e-44)
(0.00033269502 7.5686821e-05 -3.4017249e-24 0.00026371023 -2.9499752e-24 7.0744436e-44)
(0.00025222885 5.9225316e-05 3.8968198e-24 0.00018496413 -3.044861e-24 3.8147211e-43)
(0.00019503084 4.3479647e-05 -1.7397784e-23 0.00012650451 -2.2917283e-23 6.27697e-42)
(0.00015436673 2.9338925e-05 4.7952079e-24 8.1705907e-05 4.9709734e-24 8.5401241e-43)
(0.00012646949 1.8067601e-05 1.7076446e-24 4.9008715e-05 2.9315382e-24 2.5244215e-43)
(0.00010699869 9.6825603e-06 3.4595558e-25 2.383276e-05 9.4410783e-25 4.0339785e-44)
(9.5389596e-05 3.7770552e-06 -5.1215807e-26 9.2468826e-06 8.3189502e-26 5.6001872e-45)
(8.7965181e-05 9.9262516e-07 1.0090509e-25 6.8353069e-07 5.7727024e-25 6.65483e-43)
(0.0012589501 -0.000699254 0 0.0041398579 0 0)
(0.0018173685 -0.0002930176 -3.0137383e-22 0.0041882768 4.9866435e-23 7.2517825e-41)
(0.0018931184 -7.0771957e-06 -3.3815962e-24 0.0030476395 7.4119112e-23 2.1183347e-42)
(0.001764082 1.1875296e-05 0 0.0021516009 0 0)
(0.0013768577 3.0889133e-05 0 0.0014621869 0 0)
(0.0010553668 8.8374608e-05 0 0.0010156007 0 0)
(0.00076788854 0.00010053514 -4.57626e-24 0.00070429268 3.1884305e-24 5.5558544e-44)
(0.00055877899 9.5230799e-05 1.2809421e-23 0.00049601662 1.1301313e-23 5.3112932e-43)
(0.00041043535 8.2490187e-05 -1.536236e-23 0.000352421 8.2064444e-24 1.5109375e-42)
(0.00030597402 6.6696746e-05 8.1134705e-24 0.00025212053 9.2503131e-24 5.6944489e-43)
(0.00023216403 5.0303371e-05 -1.2092555e-24 0.00017790411 8.8145588e-25 4.2373002e-44)
(0.00018048677 3.5025823e-05 2.9286476e-24 0.00012255444 5.1698505e-24 2.9515181e-43)
(0.00014432963 2.2481197e-05 -3.6342194e-25 7.9077963e-05 -2.0111851e-25 9.3381308e-45)
(0.00011976628 1.2649984e-05 -1.2625085e-24 4.7405404e-05 -3.432148e-24 3.3285463e-43)
(0.00010285461 6.1929784e-06 -6.1498164e-26 2.2914247e-05 -6.2554954e-25 1.8097449e-44)
(9.3079889e-05 1.7252846e-06 -2.6481778e-26 8.8613157e-06 -1.0633542e-24 1.6950089e-43)
(8.6986674e-05 5.1884399e-07 0 6.4243291e-07 0 0)
(0.0014737093 -0.0010351749 4.8174479e-23 0.0044542818 -9.3533272e-23 2.0753302e-41)
(0.001725601 -0.00064193769 3.8852796e-22 0.0048666185 3.3697414e-23 1.6198216e-40)
(0.0018797535 -0.00019214044 -5.664144e-22 0.003779809 5.2108871e-23 2.3000781e-40)
(0.0019894562 -1.4675424e-05 -2.6012677e-22 0.0028530996 5.8126697e-23 4.241986e-41)
(0.0016975623 -1.1374902e-05 -1.7053048e-22 0.0019570021 1.7073487e-23 2.0158988e-41)
(0.0013323383 4.3608917e-05 0 0.0013526314 0 0)
(0.0009909122 9.2731578e-05 -6.9518187e-23 0.00093876481 1.6757783e-23 6.2141248e-42)
(0.00071395776 9.8482837e-05 1.3684281e-23 0.00065762259 -7.4346144e-24 4.7096107e-43)
(0.00051559124 8.8631493e-05 3.9393968e-23 0.00046690642 7.1919865e-24 4.1556022e-42)
(0.0003780064 7.4142972e-05 -1.7292218e-23 0.00033648012 8.1015489e-24 2.1483652e-42)
(0.00028190323 5.7403628e-05 -4.0448343e-24 0.00024243523 -5.7253216e-24 2.0307412e-43)
(0.00021504195 4.08752e-05 -1.2698451e-24 0.00017251423 9.4618128e-25 5.8014658e-44)
(0.00016879391 2.6788978e-05 5.8951485e-24 0.00011885095 1.0240682e-23 1.630531e-42)
(0.00013674296 1.5562169e-05 -4.5285301e-24 7.6681731e-05 -1.4428377e-23 3.5669068e-42)
(0.00011523804 7.6261527e-06 -1.1772609e-25 4.5711017e-05 -2.7349308e-24 1.7336311e-43)
(0.00010045291 2.9079057e-06 -2.2325736e-25 2.1964392e-05 -1.1679904e-23 8.4965992e-42)
(9.2204138e-05 -9.4223839e-08 9.4147255e-25 8.4456943e-06 -2.8475015e-24 1.2299562e-42)
(8.7093408e-05 1.1330625e-07 1.5847742e-24 6.0040337e-07 -6.9717968e-25 1.140446e-42)
(0.0020851903 -0.001225093 -2.2467221e-25 0.0047211525 1.332369e-24 1.4099441e-43)
(0.0017444624 -0.001031438 1.8905026e-22 0.0054812695 -6.7302592e-23 5.095068e-41)
(0.0018037255 -0.00045820021 6.1003098e-23 0.0045360176 6.4816365e-23 5.0242848e-42)
(0.002034466 -0.00014698331 -3.0560685e-22 0.0036254061 -2.2965713e-24 5.8917446e-41)
(0.0019665332 -2.8909063e-05 3.1457147e-23 0.0026383171 -3.5303707e-24 6.0181045e-43)
(0.0016484304 -1.5972243e-05 -1.8991715e-23 0.0018147887 -5.6462954e-23 2.3994117e-42)
(0.0012664432 5.9155662e-05 1.3729925e-22 0.0012558309 -7.716746e-23 2.2861361e-41)
(0.00092642053 9.8073467e-05 1.2572005e-22 0.00087694642 -2.7088137e-23 2.1588754e-41)
(0.0006592657 9.4240368e-05 2.6519133e-23 0.00061798857 -6.4866077e-24 1.554737e-42)
(0.00047500271 8.154861e-05 -9.2434328e-24 0.00044485414 -1.5349213e-23 6.7983266e-43)
(0.00034825035 6.4885937e-05 3.4777115e-24 0.00032318976 -1.487737e-24 1.0305568e-43)
(0.00026094792 4.7212235e-05 -9.287439e-24 0.00023515301 -1.3720697e-23 1.3562082e-42)
(0.00020085872 3.1355604e-05 4.6412195e-24 0.00016756017 4.0540195e-24 5.7493598e-43)
(0.00015981487 1.8255925e-05 -1.9682426e-25 0.00011554494 9.2204246e-25 1.5055428e-44)
(0.00013151558 9.0375848e-06 -1.6068477e-25 7.4138674e-05 1.3092875e-24 3.2863342e-44)
(0.00011265502 2.8081261e-06 5.6527083e-26 4.3951483e-05 2.6582752e-24 2.2240695e-43)
(9.9578571e-05 -1.4722846e-08 8.1853015e-25 2.0939037e-05 -3.9007465e-24 9.9962687e-43)
(9.2483141e-05 -1.7015331e-06 -3.727237e-26 8.0031796e-06 9.257984e-26 3.8297272e-45)
(8.8095507e-05 -2.1702562e-07 2.1831257e-24 5.5769392e-07 -6.2840125e-25 1.0414421e-42)
(0.0031245211 -0.0012885915 -1.3715593e-23 0.0049971815 1.9227698e-23 5.5955034e-42)
(0.0021018448 -0.0013355624 -1.7025795e-22 0.0060621362 4.5572654e-23 5.7436518e-41)
(0.001776983 -0.00078477974 8.9377609e-22 0.0052716023 5.0288526e-23 9.7050507e-40)
(0.0019950577 -0.00036194147 1.6067764e-22 0.0044478401 -6.3165293e-23 1.8488468e-41)
(0.0020739417 -0.00011739515 -8.7306928e-23 0.0034412221 -6.3392853e-23 6.2311561e-42)
(0.001944497 -4.9109941e-05 -8.7717502e-24 0.0024704825 -4.0985338e-23 8.7472813e-43)
(0.0015782577 -1.0818752e-05 -3.3920463e-23 0.0016879119 5.6702566e-24 8.4327399e-43)
(0.0011992948 7.7899438e-05 -5.0684743e-23 0.0011765711 -2.929558e-23 3.0979155e-42)
(0.00085758469 9.8561552e-05 1.7089654e-23 0.00082282523 -3.4070149e-24 4.3788163e-43)
(0.0006070646 8.8909998e-05 6.1986333e-23 0.00058702164 3.2197681e-24 8.4930826e-42)
(0.000437283 7.278194e-05 -2.0605956e-23 0.00042639748 -2.3930313e-23 2.4335235e-42)
(0.0003217846 5.4206248e-05 -4.2629927e-25 0.00031323192 4.5444545e-24 8.6891441e-44)
(0.00024318544 3.6475095e-05 2.3371631e-24 0.00022859318 7.008518e-24 2.5039992e-43)
(0.0001897537 2.1213831e-05 -7.2582679e-26 0.00016325075 -5.1610613e-25 1.7362925e-45)
(0.00015345565 1.0040123e-05 -4.1976841e-25 0.00011202602 7.4680951e-25 2.5978537e-44)
(0.00012851082 2.6464536e-06 4.9808046e-25 7.1499409e-05 1.1606476e-23 2.7222377e-42)
(0.00011175453 -1.5169918e-06 9.2219854e-26 4.202316e-05 -2.0938699e-24 2.4361668e-43)
(9.9984293e-05 -2.6236542e-06 -2.8747198e-24 1.9847326e-05 6.4147202e-24 2.7550437e-42)
(9.3716844e-05 -3.0554695e-06 -1.0267244e-24 7.5327018e-06 1.0223032e-24 1.79796e-43)
(8.9757636e-05 -4.7482019e-07 -2.9783217e-24 5.1457739e-07 6.2734189e-25 1.1501666e-42)
(0.0043292514 -0.0013030165 1.3185644e-24 0.0052649539 4.946636e-23 8.7409474e-43)
(0.0029694925 -0.0015051782 -3.0190765e-22 0.0066728706 1.6051792e-22 1.3164072e-40)
(0.0020179588 -0.0010927139 -1.1431682e-22 0.0059827958 2.9773162e-22 2.5086317e-41)
(0.0019438065 -0.00065140428 -2.5515736e-22 0.0052953778 -9.3700363e-24 5.966201e-41)
(0.0020822542 -0.00029409872 5.4800553e-23 0.00431964 -1.3077076e-22 6.2124221e-42)
(0.0021050196 -0.00011974782 1.7515075e-22 0.0032935457 1.3150825e-23 1.8057907e-41)
(0.0018979458 -7.274049e-05 -3.7043735e-22 0.0023071904 3.8306442e-23 8.3782042e-41)
(0.0015130634 8.648612e-06 -4.493899e-22 0.0015813248 6.8949634e-23 1.529728e-40)
(0.0011221719 9.0678784e-05 2.2950639e-23 0.0011054037 5.3200664e-23 3.3763647e-42)
(0.00078981994 9.616442e-05 0 0.00077869138 0 0)
(0.00055806917 8.1043015e-05 1.7965454e-23 0.00056091282 2.0276024e-23 1.3537224e-42)
(0.00040310778 6.1957771e-05 -1.3743523e-23 0.00041242537 4.374654e-24 1.1817925e-42)
(0.00029893887 4.2394176e-05 -1.2871921e-23 0.00030443797 -1.4851616e-23 1.9877417e-42)
(0.00022893078 2.4701612e-05 7.4804698e-24 0.00022304016 7.0245182e-24 1.409088e-42)
(0.00018160671 1.1193796e-05 -9.3441483e-25 0.00015868395 -6.6456318e-24 3.353508e-43)
(0.00014969939 1.8057674e-06 6.7141431e-25 0.00010838063 1.1735036e-23 1.7995194e-42)
(0.00012741961 -3.1700778e-06 -5.1089071e-25 6.8566345e-05 1.0740843e-24 4.6744676e-44)
(0.00011236496 -5.4497882e-06 9.2135927e-25 3.9947406e-05 -3.0992336e-24 3.8472418e-43)
(0.00010144069 -4.8255953e-06 -2.4745749e-24 1.8683639e-05 3.7675102e-24 1.0959259e-42)
(9.5660701e-05 -4.1596626e-06 -2.9148486e-25 7.0399457e-06 2.0212111e-25 6.532526e-45)
(9.189845e-05 -6.5959703e-07 -3.3666316e-24 4.7166267e-07 5.58754e-25 1.0409699e-42)
(0.0055461494 -0.0013287021 1.8539528e-22 0.0055144664 1.2600934e-22 2.5621037e-41)
(0.0041762235 -0.0016409358 -3.8124605e-22 0.0073404758 1.3184426e-22 9.2867687e-41)
(0.0027646868 -0.0013225204 -3.3414012e-22 0.0067189172 -4.8117304e-23 1.698439e-40)
(0.0020773668 -0.00093676177 3.7472082e-22 0.0061498689 1.860199e-22 1.9900352e-40)
(0.0020601908 -0.00055113439 3.5725367e-22 0.0052637164 -1.4497007e-23 1.0133237e-40)
(0.0021644852 -0.00027461667 -2.6109842e-23 0.0042203347 -9.0804222e-23 2.9400512e-42)
(0.0021116451 -0.00014262978 0 0.0031313099 0 0)
(0.0018536064 -8.4630336e-05 -8.502399e-24 0.0021574928 -1.2081159e-22 8.2686723e-42)
(0.0014387251 3.5123235e-05 1.0288458e-22 0.0014872517 -4.8505491e-23 1.0375169e-41)
(0.0010409547 9.7696522e-05 1.3012409e-22 0.0010440309 3.3569826e-23 1.8702087e-41)
(0.00072495236 8.9690039e-05 -2.1916319e-24 0.00074091062 1.6998319e-23 5.1006351e-43)
(0.00051312615 7.0442745e-05 -1.1643221e-23 0.00054068977 9.8378167e-25 4.7233674e-43)
(0.00037311397 4.9277437e-05 2.1086849e-24 0.00040029423 -6.9775754e-25 3.5750712e-44)
(0.00028009319 2.898818e-05 2.5677879e-24 0.00029718053 7.3287374e-24 2.4300678e-43)
(0.00021810087 1.269736e-05 -3.4218498e-24 0.0002172389 -7.5031143e-24 6.4525697e-43)
(0.0001765598 9.0641931e-07 1.2521546e-24 0.00015398926 6.559547e-24 5.6397579e-43)
(0.00014818774 -5.8196868e-06 1.3853143e-25 0.00010426939 -1.5431665e-24 3.0705868e-44)
(0.00012816442 -8.5690757e-06 -2.0231949e-24 6.5376879e-05 7.6040545e-24 1.227394e-42)
(0.00011417185 -8.7923648e-06 -7.6318928e-25 3.7705687e-05 1.1944427e-24 4.4981015e-44)
(0.00010370247 -6.6337097e-06 -1.542204e-25 1.7462461e-05 1.4391642e-25 1.5289284e-45)
(9.8124203e-05 -5.0021328e-06 -2.0297433e-24 6.5313084e-06 1.232468e-24 3.3545419e-43)
(9.4334761e-05 -7.7487333e-07 0 4.2954575e-07 0 0)
(0.006718346 -0.001369746 1.1573814e-22 0.0057990527 1.3826898e-22 1.1073285e-41)
(0.0053175812 -0.0018784243 2.9419722e-22 0.0080351623 -5.846165e-23 3.6324417e-41)
(0.0039923116 -0.0014818601 1.2531712e-23 0.007558177 -6.447507e-23 6.7775324e-43)
(0.0026755282 -0.0011478565 4.0736751e-22 0.0070465755 -3.2224846e-23 1.9995482e-40)
(0.0021697807 -0.00083559156 2.5934169e-22 0.006251673 -1.6839001e-22 6.3781423e-41)
(0.0021868333 -0.00051390781 -1.8154702e-22 0.0052433766 -2.9264091e-23 2.4294843e-41)
(0.0022217014 -0.00028481189 6.6561888e-24 0.0040981886 2.6179283e-22 2.0127424e-41)
(0.0021171334 -0.00017593965 -4.4174479e-22 0.0029623544 -3.6342601e-23 1.1206976e-40)
(0.0017891728 -8.0383722e-05 -7.8962864e-23 0.0020175705 -3.4714483e-23 4.7620489e-42)
(0.0013586365 6.33956e-05 -1.9142994e-23 0.001407344 3.6451515e-24 3.204767e-43)
(0.00095832465 9.6732469e-05 2.762098e-24 0.00098902824 -1.0243876e-24 1.193083e-44)
(0.00066471998 7.9607212e-05 3.9796368e-23 0.00071083157 -8.0310065e-24 3.833124e-42)
(0.00047316749 5.7161956e-05 -1.8712918e-24 0.00052334003 -2.6917093e-24 2.4275322e-44)
(0.00034776989 3.4321602e-05 -8.5221955e-24 0.00039044424 1.7424722e-23 1.9408168e-42)
(0.00026533795 1.4868284e-05 3.6233862e-24 0.00028978282 1.8511759e-23 1.4607174e-42)
(0.00021098625 8.3123806e-08 1.8982834e-24 0.00021136194 1.4830825e-23 1.5039283e-42)
(0.00017421333 -8.8240823e-06 4.9701398e-25 0.00014862651 -1.5617347e-24 2.4038982e-44)
(0.0001489526 -1.3049376e-05 3.4867083e-24 9.9752291e-05 -1.6371394e-23 3.7640243e-42)
(0.00013031248 -1.3206093e-05 1.408771e-25 6.1883884e-05 -4.8878456e-25 1.0499608e-44)
(0.00011696944 -1.1585106e-05 -2.1557795e-24 3.5327135e-05 3.2041716e-24 4.092977e-43)
(0.0001065595 -8.0128021e-06 0 1.6199116e-05 0 0)
(0.00010090949 -5.5893323e-06 5.1453813e-24 6.0149046e-06 -2.5951863e-24 1.6721743e-42)
(9.6913992e-05 -8.2449457e-07 9.9070578e-26 3.8891562e-07 -9.4302734e-27 3.2223786e-46)
(0.0076897525 -0.0014130104 -6.2674322e-22 0.0061055015 -2.0533439e-22 1.4333569e-40)
(0.0063878799 -0.0022349081 1.0128894e-21 0.008778365 1.9312161e-22 3.7972649e-40)
(0.0051361071 -0.0017097826 -6.889698e-22 0.0084864939 -1.7519193e-22 2.1926091e-40)
(0.0038496378 -0.0012836106 -1.7523815e-22 0.0080697946 -2.3237109e-22 3.7451798e-41)
(0.0026902584 -0.0010591828 3.8369861e-22 0.0073093783 1.925752e-22 1.8701415e-40)
(0.0022972975 -0.00080341426 0 0.0063481433 0 0)
(0.002307246 -0.00050903593 -4.9514743e-24 0.0051864035 8.1867839e-23 1.5243797e-42)
(0.0022818583 -0.00031662144 -1.5314584e-22 0.0039577223 -1.5272673e-22 2.2336253e-41)
(0.0021110151 -0.0002083303 -3.07484e-22 0.0027822085 1.2738663e-23 5.3153931e-41)
(0.0017210718 -5.2000764e-05 -3.0767349e-22 0.0018962947 9.1030374e-23 6.7021547e-41)
(0.0012697963 8.2441991e-05 7.0098273e-23 0.0013344041 3.8880245e-23 5.2353367e-42)
(0.0008782704 8.919126e-05 4.6821685e-23 0.00094323869 8.0639983e-24 3.0945653e-42)
(0.00061065699 6.5992208e-05 -3.1776075e-23 0.00068518396 -1.1309674e-23 2.6252511e-42)
(0.00043869142 4.084907e-05 1.3277761e-23 0.00050932365 1.9795328e-23 1.5071594e-42)
(0.00032737657 1.801202e-05 -1.2563669e-23 0.00038075285 -2.5473047e-23 3.3889396e-42)
(0.00025503863 -3.1906785e-07 -4.3579012e-24 0.00028247341 -3.5803807e-23 5.9130553e-42)
(0.00020718796 -1.2139404e-05 2.8923067e-24 0.00020460612 3.2860924e-24 8.2325192e-43)
(0.00017471654 -1.8250727e-05 1.2555686e-24 0.00014268486 -7.6680847e-24 5.844818e-43)
(0.0001514387 -1.9353339e-05 -5.9017252e-24 9.4727813e-05 1.8329223e-23 5.5136983e-42)
(0.00013375913 -1.7167018e-05 1.7325499e-24 5.8130212e-05 -3.7333447e-24 5.6030225e-43)
(0.00012048183 -1.3733256e-05 5.4737224e-24 3.2841097e-05 -6.552131e-24 1.9602693e-42)
(0.00010979303 -8.9735497e-06 -5.2091488e-24 1.4914049e-05 3.9266687e-24 1.6681938e-42)
(0.00010385317 -5.9283368e-06 3.5493489e-24 5.4995062e-06 -1.5554449e-24 7.4034915e-43)
(9.9502974e-05 -8.1268934e-07 8.8568564e-26 3.5022542e-07 -6.9552107e-27 2.1030849e-46)
(0.008506765 -0.0014736441 -1.79744e-22 0.0064168906 -2.8074786e-22 2.9563329e-41)
(0.0074680919 -0.002528965 1.0505739e-21 0.0095564054 6.8682373e-23 3.2865108e-40)
(0.0061149889 -0.002010116 1.817914e-22 0.0094845791 -3.8563911e-22 2.5307141e-41)
(0.0050713183 -0.0014571156 1.5683885e-21 0.0092419349 3.2533068e-22 1.0633863e-39)
(0.0038233412 -0.0012049504 -2.5526357e-22 0.0085279663 -2.9095309e-22 7.0474846e-41)
(0.0027605694 -0.0010442098 4.7270679e-22 0.0075488776 2.3699709e-22 2.4555664e-40)
(0.0024547811 -0.00080010371 -1.2881367e-23 0.0063965425 1.0061766e-22 1.8463308e-42)
(0.0024351557 -0.00053293764 6.1405591e-22 0.0051033808 1.1279358e-22 2.3982662e-40)
(0.0023436676 -0.0003585572 -6.5289065e-23 0.0037876105 -1.4088201e-22 9.4728598e-42)
(0.002101195 -0.00022062088 -1.5425182e-22 0.0026041942 -1.6417624e-23 1.3714301e-41)
(0.0016432065 -1.0413462e-05 3.7787277e-23 0.0017943274 7.1731012e-23 4.3433873e-42)
(0.0011750908 8.9369237e-05 -1.3748364e-22 0.001269236 2.7502634e-24 1.9125691e-41)
(0.00080428082 7.5774318e-05 2.0461499e-23 0.00090400685 2.0686007e-23 1.0837997e-42)
(0.0005633162 4.8496211e-05 2.9408823e-24 0.00066432864 -5.7155286e-25 3.2178108e-44)
(0.00041025395 2.2343783e-05 -2.9774108e-24 0.00049604984 -2.5631014e-23 1.5382581e-42)
(0.00031232191 4.5839074e-08 -1.6964608e-24 0.00037147206 -3.0414392e-24 7.765536e-44)
(0.0002488673 -1.5423098e-05 7.9643675e-25 0.00027411745 8.3954208e-25 3.3912767e-44)
(0.00020696598 -2.4229112e-05 1.6292524e-24 0.00019709027 -1.4524695e-23 1.5393357e-42)
(0.00017740832 -2.6632149e-05 0 0.00013596523 0 0)
(0.0001556574 -2.4860848e-05 9.7495592e-25 8.925387e-05 -1.8595557e-24 4.7168502e-44)
(0.00013807487 -2.0246471e-05 3.0709838e-25 5.4164937e-05 -4.1078507e-25 3.9425939e-45)
(0.00012447716 -1.5258191e-05 -6.0500621e-25 3.0288168e-05 5.7094048e-25 1.4275806e-44)
(0.00011322017 -9.5205763e-06 -4.7501397e-26 1.3629787e-05 -1.5744859e-26 4.4926267e-45)
(0.00010680917 -6.0346211e-06 -5.7467559e-24 4.9936457e-06 2.1483331e-24 1.5212303e-42)
(0.00010199377 -7.4442879e-07 -2.7660391e-24 3.143764e-07 2.3616584e-25 3.7669706e-43)
(0.0092356543 -0.0015528479 5.559776e-22 0.0067194189 2.5298159e-22 1.1100711e-40)
(0.0084592273 -0.0028051527 -6.6244354e-22 0.010357239 1.960902e-23 1.1792287e-40)
(0.0070440216 -0.0023322288 -3.345727e-22 0.010563116 2.4095283e-23 3.3561221e-41)
(0.0060684928 -0.0017513589 -2.2358172e-22 0.010513943 -4.3254138e-23 1.7595569e-41)
(0.005162165 -0.0013800248 -1.2734298e-21 0.0099549842 -3.4881118e-22 7.1629111e-40)
(0.0038459359 -0.0011990144 -1.1586282e-22 0.0089417234 2.2594916e-22 1.1871827e-41)
(0.0028998592 -0.0010574795 -2.2320961e-23 0.0077343312 1.3232271e-22 2.6266587e-42)
(0.0026396246 -0.00082597722 -3.6591015e-23 0.0064092006 -1.6680157e-23 1.0563509e-42)
(0.0025613253 -0.00057706892 -4.7126192e-22 0.0049814255 -8.0566533e-23 1.331858e-40)
(0.0024112131 -0.00039941322 -3.0501986e-23 0.0035925866 1.5193752e-22 7.6935915e-42)
(0.0020703741 -0.00020195303 -1.6577905e-22 0.0024390588 -4.8531831e-23 1.7256854e-41)
(0.0015531357 3.1486084e-05 2.7642869e-23 0.0017113017 -3.7424797e-24 5.8398895e-43)
(0.0010800236 8.3328718e-05 5.945094e-23 0.0012097518 -1.4361793e-24 4.1509767e-42)
(0.00073833075 5.7169548e-05 -2.9183897e-24 0.00087180679 -1.0801044e-23 1.6777064e-43)
(0.00052342827 2.7902863e-05 9.4924956e-24 0.00064525735 -2.2962733e-24 4.3155165e-43)
(0.00038824807 1.445828e-06 4.6614987e-25 0.00048376963 3.6388108e-23 3.1737316e-42)
(0.00030242506 -1.8314417e-05 -9.7545263e-24 0.00036108023 4.1053595e-23 6.1456852e-42)
(0.00024716608 -3.0676965e-05 -1.3874851e-24 0.00026485536 2.4614206e-23 3.3406809e-42)
(0.00020959222 -3.522704e-05 -6.942493e-24 0.00018846023 2.9751762e-23 6.6952031e-42)
(0.00018240327 -3.4122727e-05 -2.1198723e-25 0.00012854584 3.3356882e-25 1.2941295e-45)
(0.00016097659 -2.92095e-05 1.2100561e-23 8.3399478e-05 -1.9381402e-23 6.2035467e-42)
(0.00014308253 -2.2493917e-05 2.1606661e-24 5.004692e-05 -2.763526e-24 3.1484178e-43)