/*--------------------------------*- C++ -*----------------------------------*\
| =========                 |                                                 |
| \\      /  F ield         | OpenFOAM: The Open Source CFD Toolbox           |
|  \\    /   O peration     | Version:  5.0                                   |
|   \\  /    A nd           | Web:      www.OpenFOAM.org                      |
|    \\/     M anipulation  |                                                 |
\*---------------------------------------------------------------------------*/
FoamFile
{
    version     2.0;
    format      ascii;
    class       volScalarField;
    location    "400";
    object      ddt0(nuTilda);
}
// * * * * * * * * * * * * * * * * * * * * * * * * * * * * * * * * * * * * * //

dimensions      [0 2 -2 0 0 0 0];

internalField   nonuniform List<scalar> 
9520
(
7.9509366e-37
2.2524773e-35
-1.0548804e-35
-2.8974763e-33
-1.2292152e-33
-1.7205593e-35
-2.611655e-31
-6.8656489e-32
-1.9027364e-33
-1.139344e-35
-1.1124713e-29
-2.43263e-30
-9.9995769e-32
-1.0964789e-33
6.8203945e-36
-3.1690529e-28
-6.196189e-29
-3.3070237e-30
-4.8049902e-32
1.1129587e-33
2.9534593e-35
-6.797741e-27
-1.2275359e-27
-7.7692621e-29
-1.2374818e-30
7.8290096e-32
3.6496073e-33
4.4125751e-35
-1.1531154e-25
-1.9821779e-26
-1.4004802e-27
-1.9449534e-29
3.2922321e-30
2.1147425e-31
4.9199274e-33
3.8311838e-35
-1.5865868e-24
-2.6656555e-25
-2.0308656e-26
-1.4294184e-28
9.5844792e-29
7.6665266e-30
2.5837037e-31
3.5801783e-33
6.1189844e-36
-1.7978523e-23
-2.9993513e-24
-2.4308246e-25
1.5738842e-27
2.1076838e-27
1.9696549e-28
8.5026254e-30
1.5082844e-31
-6.8981177e-34
-4.6483256e-35
-1.6934058e-22
-2.7873352e-23
-2.4434104e-24
7.1439981e-26
3.7003548e-26
3.8670812e-27
1.9736798e-28
3.6661362e-30
-1.0890832e-31
-6.6994919e-33
-1.0002253e-34
-1.4044408e-21
-2.0263479e-22
-2.0653875e-23
1.3007025e-24
5.3648497e-25
6.0992201e-26
3.4536332e-27
5.1077668e-29
-6.1079056e-30
-4.302796e-31
-1.1893115e-32
-1.267014e-34
-6.957356e-21
-7.298948e-22
-1.45513e-22
1.5884922e-23
6.5011051e-24
8.0054595e-25
4.7409045e-26
1.604258e-28
-2.0718217e-28
-1.6870225e-29
-6.6013719e-31
-1.321085e-32
-1.01755e-34
1.1798668e-18
3.8100297e-20
-8.781585e-22
1.3130273e-22
6.6316778e-23
8.9401315e-24
5.2545993e-25
-1.1371414e-26
-5.0084673e-27
-4.6111448e-28
-2.2916674e-29
-6.42564e-31
-8.4612949e-33
-1.7046949e-35
1.2422399e-16
3.391136e-18
2.610135e-22
2.4496724e-22
5.651989e-22
8.6703335e-23
4.8396652e-24
-3.3972735e-25
-9.3949822e-26
-9.5007066e-27
-5.6171301e-28
-1.9319909e-29
-2.9365642e-31
2.3269242e-33
1.0966931e-34
7.1596717e-15
1.948248e-16
-3.7991678e-20
-4.1290345e-20
3.7504767e-21
7.4922082e-22
3.8728707e-23
-5.887359e-24
-1.4344335e-24
-1.557604e-25
-1.0394918e-26
-4.0039116e-28
-4.4506575e-30
3.3750137e-31
1.6270118e-32
2.3623147e-34
2.7863255e-13
8.1029539e-15
-4.7993003e-17
-3.7111728e-18
-1.123167e-20
5.9440637e-21
2.9943965e-22
-7.5884686e-23
-1.8255567e-23
-2.1119057e-24
-1.5159444e-25
-5.9505242e-27
3.062582e-29
1.8426737e-29
1.0551849e-30
2.8251036e-32
3.0983163e-34
7.4948058e-12
2.4485728e-13
-4.4584082e-15
-2.5757967e-16
-2.8859411e-18
3.8272959e-20
2.6775127e-21
-7.8042936e-22
-1.9837705e-22
-2.4217761e-23
-1.7984795e-24
-6.1326051e-26
3.3214328e-27
6.1289924e-28
4.1403543e-29
1.5712636e-30
3.2739448e-32
2.8763105e-34
1.42809e-10
5.3621836e-12
-2.2999402e-13
-1.3332873e-14
-1.8175234e-16
-2.4623615e-20
3.8540244e-20
-6.5100518e-21
-1.880596e-21
-2.4016087e-22
-1.7661848e-23
-3.4378233e-25
9.591959e-26
1.4473753e-26
1.1262154e-27
5.4424796e-29
1.6146305e-30
2.6046742e-32
1.5475972e-34
1.8300581e-09
8.2697944e-11
-7.5510077e-12
-5.0555321e-13
-8.0492646e-15
1.2704912e-17
1.8932747e-18
-2.923346e-20
-1.5849892e-20
-2.1096335e-21
-1.4518861e-22
1.5888953e-24
1.8450123e-24
2.642639e-25
2.2937831e-26
1.3247477e-27
4.9290823e-29
1.0484901e-30
7.9668258e-33
-6.7974028e-35
1.5666077e-08
8.910645e-10
-1.6567268e-10
-1.3813626e-11
-2.550213e-13
2.4890995e-15
1.521535e-16
1.7215556e-18
-1.1407286e-19
-1.6871188e-20
-1.0121497e-21
7.0621401e-23
2.7116309e-23
3.9151333e-24
3.690908e-25
2.4212121e-26
1.0390603e-27
2.3427719e-29
-6.1685137e-32
-1.7880867e-32
-3.2884709e-34
8.494227e-08
5.8534795e-09
-2.3615295e-09
-2.6596973e-10
-5.7041476e-12
1.6893804e-13
9.7872881e-15
1.611455e-16
-1.1113164e-19
-1.2730407e-19
-6.1643406e-21
1.0897472e-21
3.2515779e-22
4.8166201e-23
4.8700808e-24
3.4617357e-25
1.581443e-26
2.5926336e-28
-1.8437714e-29
-1.4598364e-30
-4.5022822e-32
-5.5965658e-34
3.1641815e-07
2.3370796e-08
-2.277338e-08
-3.4265602e-09
-8.6882172e-11
6.7089699e-12
4.5290659e-13
9.5351076e-15
3.8310312e-17
-1.2043126e-18
-3.7763111e-20
1.2019105e-20
3.3031603e-21
5.0349182e-22
5.3667963e-23
3.9781015e-24
1.7099617e-25
-1.376822e-27
-8.4179271e-28
-6.5642243e-29
-2.7739923e-30
-6.5960323e-32
-6.9440493e-34
8.3807357e-07
5.0407233e-08
-1.4407867e-07
-3.0141253e-08
-7.1511278e-10
1.6738516e-10
1.4762433e-11
4.0031766e-13
1.3041755e-15
-4.9897818e-17
-5.7061956e-19
1.0604767e-19
2.9184909e-20
4.5644903e-21
5.016898e-22
3.6978835e-23
1.1284708e-24
-1.2535525e-25
-2.3076771e-26
-1.9623115e-27
-1.0490757e-28
-3.6207433e-30
-7.4209794e-32
-6.8629809e-34
1.6336837e-06
-4.6071256e-11
-6.2412245e-07
-1.7909441e-07
-2.7175133e-09
2.5661954e-09
3.311898e-10
1.1788528e-11
-5.5924351e-15
-3.9334812e-15
-3.8657305e-17
6.7491026e-19
2.2913111e-19
3.6627173e-20
4.0353383e-21
2.7355921e-22
-5.8563812e-25
-3.0390015e-24
-4.6226205e-25
-4.2971793e-26
-2.7695675e-27
-1.2401147e-28
-3.706538e-30
-6.5939153e-32
-5.1842418e-34
2.6634576e-06
-1.8091634e-07
-1.8476938e-06
-7.2106266e-07
5.1632536e-09
2.7885622e-08
5.0008353e-09
2.375218e-10
-2.2823064e-12
-2.27599e-13
-2.7248771e-15
-7.8586763e-18
1.6027909e-18
2.6601885e-19
2.8386391e-20
1.507924e-21
-1.4092572e-22
-4.9313764e-23
-7.3073326e-24
-7.3615246e-25
-5.4813249e-26
-2.9897619e-27
-1.1490382e-28
-2.8990195e-30
-4.0795785e-32
-2.0629481e-34
4.2828187e-06
-3.0851565e-07
-3.8651944e-06
-1.8972887e-06
1.2052562e-07
2.0505818e-07
5.0534431e-08
3.1961597e-09
-9.624372e-11
-8.8858903e-12
-1.3896927e-13
-8.418473e-16
8.0601107e-18
1.7843566e-18
1.78483e-19
4.5501105e-21
-2.4146125e-21
-6.230105e-22
-9.4104764e-23
-1.0292423e-23
-8.5506249e-25
-5.4054936e-26
-2.4751105e-27
-7.557315e-29
-1.254515e-30
-1.863704e-33
2.064704e-34
4.9156987e-06
-6.9002473e-08
-6.2233627e-06
-3.8090688e-06
6.2952397e-07
1.0054603e-06
3.387142e-07
2.7973861e-08
-2.1263753e-09
-2.3095042e-10
-4.9716267e-12
-4.0018727e-14
-6.0889772e-17
1.1923879e-17
1.0380391e-18
-1.9136045e-20
-2.7960767e-20
-6.5067146e-21
-1.0152083e-21
-1.1964602e-22
-1.0901996e-23
-7.6178037e-25
-3.8909485e-26
-1.2372299e-27
-1.0420686e-29
9.9649026e-31
4.5005015e-32
6.5635839e-34
5.0212318e-06
-1.1517736e-06
-8.7566151e-06
-6.3524372e-06
1.801672e-06
3.3329823e-06
1.502785e-06
1.5532589e-07
-2.8424138e-08
-3.9839622e-09
-1.1842844e-10
-1.2856558e-12
-1.539629e-15
1.9739815e-16
7.2381307e-18
-4.3503894e-19
-2.5957464e-19
-5.8124549e-20
-9.3664888e-21
-1.1759666e-21
-1.1537525e-22
-8.5934376e-24
-4.4625871e-25
-1.075364e-26
5.5571319e-28
7.0603263e-29
3.4926242e-30
9.2171987e-32
1.069548e-33
5.1847353e-06
-1.7281244e-06
-1.0769371e-05
-9.0190032e-06
3.2014515e-06
7.7367745e-06
4.4750799e-06
5.1955375e-07
-2.4009515e-07
-4.5855241e-08
-1.9290037e-09
-3.0397195e-11
1.5041963e-13
1.3596532e-14
2.4127734e-16
-3.2363573e-18
-2.0538934e-18
-4.5437521e-19
-7.5181227e-20
-9.9020987e-21
-1.0231157e-21
-7.7727423e-23
-3.4792519e-24
5.1599655e-26
2.6120333e-26
2.6090788e-27
1.5366384e-28
5.7993492e-30
1.3131983e-31
1.372023e-33
4.6791265e-06
-2.1085648e-06
-1.1750688e-05
-1.0236176e-05
4.3354118e-06
1.3405325e-05
9.3001553e-06
9.6168041e-07
-1.3140298e-06
-3.5164248e-07
-2.1863145e-08
-4.7814327e-10
9.8067893e-12
8.3999177e-13
1.8784531e-14
1.0492564e-16
-1.413142e-17
-3.1686385e-18
-5.3236103e-19
-7.2217621e-20
-7.6259744e-21
-5.4817514e-22
-1.0701401e-23
3.6809668e-24
6.4858585e-25
6.5222281e-26
4.5484641e-27
2.2318556e-28
7.4733637e-30
1.5465257e-31
1.5005929e-33
4.0797855e-06
-2.5420658e-06
-1.2230715e-05
-1.0556176e-05
5.9886028e-06
1.8748191e-05
1.4576223e-05
7.2492089e-07
-4.7553349e-06
-1.7981993e-06
-1.6759465e-07
-4.730094e-09
3.0977437e-10
3.4108283e-11
1.0994708e-12
1.0981851e-14
-7.3694702e-17
-2.0095948e-17
-3.3727448e-18
-4.6012932e-19
-4.7491922e-20
-2.7016701e-21
1.8364003e-22
7.4667028e-23
1.1600475e-23
1.2318672e-24
9.8886927e-26
5.9786064e-27
2.6434996e-28
8.1339285e-30
1.5624674e-31
1.4146732e-33
3.2245358e-06
-3.1903113e-06
-1.1844995e-05
-1.0416159e-05
7.4324997e-06
2.2883845e-05
1.8986734e-05
-5.2306847e-07
-1.1715233e-05
-6.2121626e-06
-8.5521244e-07
-2.5541443e-08
5.8959078e-09
9.0241916e-10
4.2654488e-11
5.9815346e-13
-3.0417171e-16
-1.3259439e-16
-1.9411198e-17
-2.5794325e-18
-2.4143536e-19
-4.1246197e-21
4.0969812e-21
1.0420032e-21
1.6198461e-22
1.8675774e-23
1.6778948e-24
1.1956978e-25
6.5537095e-27
2.6586774e-28
7.540203e-30
1.3340566e-31
1.106676e-33
2.3402574e-06
-3.8509675e-06
-1.1537983e-05
-9.5854277e-06
8.2126924e-06
2.4782723e-05
2.1693225e-05
-2.2219224e-06
-2.090481e-05
-1.4757396e-05
-2.9042351e-06
-3.612798e-08
7.5083627e-08
1.5438052e-08
1.0750311e-09
2.071181e-11
-7.2847273e-14
-2.6949313e-15
-1.0831757e-16
-1.2827119e-17
-9.2678133e-19
8.9804923e-20
5.0456435e-20
1.147816e-20
1.8509413e-21
2.3223195e-22
2.3271576e-23
1.8758923e-24
1.2135155e-25
6.0523033e-27
2.2266661e-28
5.659036e-30
8.7595505e-32
6.0731e-34
1.3412582e-06
-4.5121683e-06
-1.1042319e-05
-8.4146465e-06
8.6808996e-06
2.5167137e-05
2.1194779e-05
-5.1852535e-06
-2.9808252e-05
-2.6275335e-05
-6.6974954e-06
3.9816048e-07
6.0863415e-07
1.6996166e-07
1.736877e-08
4.5177393e-10
-6.1835362e-12
-1.6824052e-13
-1.1798908e-15
-5.7678009e-17
-1.8819441e-18
1.3002068e-18
4.7340562e-19
1.0527521e-19
1.782255e-20
2.4204884e-21
2.6742134e-22
2.4061752e-23
1.7527517e-24
1.0143368e-25
4.4407766e-27
1.3778795e-28
2.6963508e-30
2.455985e-32
-1.7388391e-35
3.6465265e-07
-5.1483998e-06
-1.04432e-05
-7.0983184e-06
9.1366249e-06
2.4607941e-05
1.9911877e-05
-7.7021708e-06
-3.6203603e-05
-3.6975135e-05
-1.1125802e-05
2.7612872e-06
3.1656257e-06
1.2034966e-06
1.7843082e-07
6.0378802e-09
-2.4898879e-10
-8.3115193e-12
-5.1582529e-14
-3.1361513e-16
6.9314774e-18
1.1495282e-17
3.6847104e-18
8.2794224e-19
1.4745031e-19
2.1505865e-20
2.5874489e-21
2.5515108e-22
2.0354315e-23
1.2905149e-24
6.127138e-26
1.903416e-27
2.2571056e-29
-9.2776048e-31
-4.6610575e-32
-6.7821159e-34
-3.2861749e-07
-5.559138e-06
-9.7193638e-06
-5.6389183e-06
9.5016603e-06
2.3568317e-05
1.7931285e-05
-8.7821201e-06
-3.8342353e-05
-4.3323057e-05
-1.4174455e-05
8.7747189e-06
1.0805337e-05
5.5083149e-06
1.159167e-06
4.7249776e-08
-5.685045e-09
-2.6496393e-10
-2.3317066e-12
-8.3841088e-15
1.0894e-16
8.0308293e-17
2.4808035e-17
5.6963858e-18
1.0635616e-18
1.6503939e-19
2.1295591e-20
2.2552487e-21
1.9087387e-22
1.2314903e-23
5.3996842e-25
6.4104124e-27
-1.1805735e-27
-1.0535927e-28
-4.6626269e-30
-1.1538354e-31
-1.2815885e-33
-9.5542378e-07
-5.5189103e-06
-8.8611411e-06
-4.1313246e-06
9.7249329e-06
2.2291245e-05
1.5855773e-05
-9.1129992e-06
-3.8038817e-05
-4.4951501e-05
-1.4979312e-05
1.8002026e-05
2.5173178e-05
1.6519236e-05
4.7606593e-06
1.9196865e-07
-7.8108419e-08
-5.3903453e-09
-7.4969087e-11
-4.2536485e-13
-1.2380539e-16
4.7914477e-16
1.4844708e-16
3.4871179e-17
6.7724913e-18
1.1040833e-18
1.502176e-19
1.6652794e-20
1.4244613e-21
8.1666348e-23
1.0887361e-24
-3.8276427e-25
-5.4630154e-26
-4.3163968e-27
-2.2599412e-28
-7.9499192e-30
-1.721102e-31
-1.7495024e-33
-1.5975069e-06
-5.1067533e-06
-7.7889894e-06
-2.8003941e-06
9.8691619e-06
2.0766439e-05
1.3646934e-05
-9.291508e-06
-3.5165113e-05
-4.4594597e-05
-1.4163e-05
2.7595108e-05
4.281007e-05
3.3768412e-05
1.2485181e-05
1.9613329e-07
-6.6433064e-07
-7.0134427e-08
-1.6101141e-09
-1.5725283e-11
-6.1919386e-14
2.4928977e-15
8.071591e-16
1.9310116e-16
3.8542155e-17
6.4970031e-18
9.1100445e-19
1.0186971e-19
7.9796431e-21
2.11947e-22
-5.4967665e-23
-1.1438454e-23
-1.3223333e-24
-1.1170604e-25
-7.0099831e-27
-3.21578e-28
-1.034818e-29
-2.100491e-31
-2.0344894e-33
-1.6685956e-06
-3.9801363e-06
-5.2147615e-06
-2.2228252e-06
9.6676897e-06
1.9087649e-05
1.1290335e-05
-9.2768653e-06
-3.2010457e-05
-4.2799777e-05
-1.2314154e-05
3.4817062e-05
5.8047235e-05
5.0223649e-05
2.1831082e-05
-1.4893582e-06
-3.576066e-06
-5.8093688e-07
-2.2755169e-08
-3.8348912e-10
-2.8175624e-12
4.7027673e-15
4.0902135e-15
9.8539813e-16
1.9853601e-16
3.3871474e-17
4.7522716e-18
5.0031109e-19
2.595721e-20
-3.3279231e-21
-1.1725515e-21
-1.9492532e-22
-2.3092695e-23
-2.1229026e-24
-1.5590629e-25
-8.8838548e-27
-3.8049395e-28
-1.1620182e-29
-2.2648777e-31
-2.1254962e-33
-1.8568476e-06
4.4049954e-07
-1.6864643e-06
-2.39087e-06
8.8102277e-06
1.711413e-05
8.6290815e-06
-9.3650884e-06
-2.8570271e-05
-3.9439227e-05
-1.3299816e-05
3.9183485e-05
6.6774275e-05
6.0027581e-05
2.6874062e-05
-7.1345993e-06
-1.2526939e-05
-3.1052348e-06
-2.1098744e-07
-6.0831751e-09
-7.696438e-11
-2.9695662e-13
2.157369e-14
4.7822458e-15
9.4101559e-16
1.5741118e-16
2.0994549e-17
1.7727216e-18
-6.9315386e-20
-6.4205084e-20
-1.5210652e-20
-2.4776552e-21
-3.1366882e-22
-3.196843e-23
-2.6660018e-24
-1.815999e-25
-9.7541802e-27
-3.9917976e-28
-1.1757434e-29
-2.2269643e-31
-2.0440305e-33
8.5559899e-07
2.3097429e-06
1.1374457e-06
-1.8884408e-06
7.4912659e-06
1.489146e-05
5.8179457e-06
-9.6003113e-06
-2.4949944e-05
-3.5451458e-05
-1.3806777e-05
4.0019501e-05
6.8966584e-05
6.1240476e-05
2.5877429e-05
-1.6662867e-05
-2.9804591e-05
-1.1247889e-05
-1.2926503e-06
-6.2576137e-08
-1.3159044e-09
-7.4653603e-12
3.4298124e-13
2.9253248e-14
4.2629085e-15
6.5604499e-16
7.5294875e-17
2.220131e-18
-1.9493818e-18
-6.9195973e-19
-1.5164025e-19
-2.5483732e-20
-3.4770519e-21
-3.925908e-22
-3.6890058e-23
-2.8960312e-24
-1.8738446e-25
-9.6461354e-27
-3.8165995e-28
-1.094156e-29
-2.0291056e-31
-1.833196e-33
-1.4589831e-06
3.0197715e-06
4.5540831e-06
7.6947806e-07
5.6027516e-06
1.2376969e-05
3.0116924e-06
-9.7139708e-06
-2.0584127e-05
-3.0905301e-05
-1.4238435e-05
3.8043374e-05
6.8678982e-05
5.8187877e-05
1.9608611e-05
-2.6694814e-05
-5.12164e-05
-2.8588525e-05
-5.315735e-06
-4.1869547e-07
-1.3821938e-08
-2.3336359e-11
1.7787401e-11
8.6198045e-13
2.9575944e-14
2.5204361e-15
1.893653e-16
-3.0894965e-17
-1.9211803e-17
-5.710345e-18
-1.2482416e-18
-2.2033636e-19
-3.2426792e-20
-4.0274322e-21
-4.2325695e-22
-3.7617511e-23
-2.825043e-24
-1.7569101e-25
-8.7501731e-27
-3.3714421e-28
-9.4648333e-30
-1.7277391e-31
-1.543878e-33
2.9208814e-06
-2.9802495e-06
4.9509864e-06
5.4003756e-06
1.6393903e-07
9.7156391e-06
1.6765579e-07
-9.6723016e-06
-1.5217697e-05
-2.5939738e-05
-1.480969e-05
3.5250674e-05
6.5188643e-05
5.1280372e-05
1.1439566e-05
-3.5711198e-05
-6.847695e-05
-5.3518473e-05
-1.5154213e-05
-1.8311756e-06
-8.4531314e-08
2.5865799e-09
6.7393315e-10
4.6531907e-11
1.2474048e-12
1.750257e-14
2.7720789e-17
-3.4570292e-16
-1.3861631e-16
-3.9231798e-17
-8.7864498e-18
-1.6386294e-18
-2.5955555e-19
-3.5203806e-20
-4.0964472e-21
-4.0811522e-22
-3.4747129e-23
-2.5174149e-24
-1.5147343e-25
-7.3420728e-27
-2.7676001e-28
-7.6397721e-30
-1.3780069e-31
-1.2225405e-33
6.8094446e-06
-1.7032662e-06
-2.5960089e-06
6.6830612e-06
5.605812e-06
-5.5769934e-07
-2.3759771e-06
-9.1126627e-06
-9.6986053e-06
-2.0848721e-05
-1.5520504e-05
3.2047346e-05
6.1035816e-05
4.6626246e-05
4.5207056e-06
-3.905832e-05
-7.7379966e-05
-7.7724542e-05
-3.1220958e-05
-5.3173895e-06
-2.4686164e-07
6.058776e-08
1.5183786e-08
1.6167171e-09
6.7847805e-11
9.2873249e-13
-1.4186611e-15
-2.4810119e-15
-8.3278182e-16
-2.3307008e-16
-5.403672e-17
-1.0653757e-17
-1.8094389e-18
-2.66177e-19
-3.39635e-20
-3.7528195e-21
-3.5779552e-22
-2.9383878e-23
-2.0623406e-24
-1.2047089e-25
-5.6974909e-27
-2.1054616e-28
-5.7256916e-30
-1.022648e-31
-9.0317636e-34
-4.4035815e-06
3.0510616e-06
-4.8284547e-06
-1.2838411e-06
8.0635582e-06
5.4533556e-06
-1.5073893e-06
-7.8189738e-06
-3.983997e-06
-1.5859464e-05
-1.6198175e-05
2.8700128e-05
5.6394957e-05
4.1583706e-05
9.6295262e-07
-3.6564178e-05
-7.7802333e-05
-9.3959415e-05
-4.9169975e-05
-1.0400098e-05
1.353317e-07
6.5711774e-07
2.0560694e-07
3.3363097e-08
2.237239e-09
5.0049092e-11
1.8962991e-13
-1.5046507e-14
-4.4328678e-15
-1.2246061e-15
-2.9478283e-16
-6.1318809e-17
-1.1114677e-17
-1.7615926e-18
-2.4431324e-19
-2.9614003e-20
-3.1268149e-21
-2.8644118e-22
-2.2734129e-23
-1.5452476e-24
-8.7482716e-26
-4.026965e-27
-1.4546629e-28
-3.8871681e-30
-6.8658267e-32
-6.0416098e-34
-4.9496789e-06
-5.1901466e-06
-3.9787365e-07
-6.861684e-06
2.9298637e-07
9.1095161e-06
4.9261361e-06
-2.466297e-06
1.1495213e-06
-1.0711244e-05
-1.6649639e-05
2.5169225e-05
5.1685368e-05
3.580107e-05
-2.9967082e-06
-3.3629015e-05
-6.7430614e-05
-0.0001017808
-6.3455044e-05
-1.4088968e-05
3.7647705e-06
4.1092351e-06
1.7099319e-06
4.1360906e-07
4.3233221e-08
1.5626883e-09
1.0589586e-11
-1.3635345e-13
-2.1809848e-14
-5.7978995e-15
-1.4436751e-15
-3.1563269e-16
-6.0738465e-17
-1.0302783e-17
-1.5402603e-18
-2.0265197e-19
-2.3398215e-20
-2.3596062e-21
-2.0699249e-22
-1.5763791e-23
-1.0254387e-24
-5.5494084e-26
-2.4436158e-27
-8.4678927e-29
-2.1848004e-30
-3.7684574e-32
-3.2914901e-34
7.3163519e-06
-8.9110963e-07
-5.9738042e-06
-4.429564e-06
-8.1484634e-06
1.7946501e-06
9.9654972e-06
4.2347049e-06
-3.3198898e-06
-6.4955493e-06
-1.6443435e-05
2.1220608e-05
4.669242e-05
3.011238e-05
-6.7715667e-06
-3.093068e-05
-5.717065e-05
-9.8629728e-05
-7.1659177e-05
-1.3797888e-05
1.4506034e-05
1.5981878e-05
8.9237572e-06
3.1252749e-06
4.9598486e-07
2.8017018e-08
2.6256536e-10
-5.4788944e-12
-1.2605576e-13
-2.526831e-14
-6.4136159e-15
-1.4659326e-15
-2.9769623e-16
-5.3668767e-17
-8.575906e-18
-1.2117118e-18
-1.5083267e-19
-1.6452322e-20
-1.5604808e-21
-1.2791776e-22
-9.0067249e-24
-5.307731e-25
-2.5413945e-26
-9.6230911e-28
-2.7846252e-29
-5.9042404e-31
-8.6038093e-33
-7.0423949e-35
-2.0503364e-06
1.2034914e-05
2.3186321e-06
-7.7488818e-06
-8.6509217e-06
-8.9313614e-06
3.4768107e-06
1.0586371e-05
3.5470717e-06
-4.1172812e-06
-1.6536504e-05
1.6950153e-05
4.1575117e-05
2.4223007e-05
-1.1188671e-05
-2.829533e-05
-4.6239065e-05
-8.9950878e-05
-8.3088049e-05
-9.4990205e-06
3.2198236e-05
4.0912099e-05
2.9929883e-05
1.4627811e-05
3.4177786e-06
2.9151644e-07
2.8120795e-09
-2.4339549e-10
-3.0043675e-12
-1.0555372e-13
-2.6150548e-14
-6.1924235e-15
-1.3178671e-15
-2.5056633e-16
-4.2394033e-17
-6.3531928e-18
-8.3786173e-19
-9.6293045e-20
-9.4959381e-21
-7.8334623e-22
-5.1982359e-23
-2.5250884e-24
-5.5574741e-26
3.6349215e-27
4.7941313e-28
2.791967e-29
9.8475486e-31
2.0256873e-32
1.8674642e-34
-1.6919228e-05
2.4895964e-06
1.608267e-05
4.3245342e-06
-9.5927616e-06
-1.2936184e-05
-9.2172523e-06
5.1415424e-06
1.1077677e-05
2.8491828e-06
-4.7004802e-06
1.2106204e-05
3.6256352e-05
1.8438339e-05
-1.5416524e-05
-2.5806319e-05
-3.4977855e-05
-7.7112038e-05
-8.771633e-05
-1.4782801e-05
5.2255768e-05
7.3848528e-05
6.6730713e-05
4.3070211e-05
1.4298051e-05
1.7643547e-06
1.4814514e-10
-6.4622589e-09
-1.2784224e-10
-6.8890578e-13
-9.9481729e-14
-2.3979375e-14
-5.3019952e-15
-1.0533604e-15
-1.8651337e-16
-2.9152017e-17
-3.9654113e-18
-4.5774011e-19
-4.2507256e-20
-2.7167335e-21
-2.423513e-23
2.3185538e-23
4.0052089e-24
4.2956412e-25
3.3705351e-26
1.9897367e-27
8.6857046e-29
2.6582169e-30
5.096371e-32
4.5976723e-34
6.7312371e-06
-1.6423869e-05
6.8372708e-06
1.9642764e-05
5.6878051e-06
-1.1645136e-05
-1.7121017e-05
-9.1393698e-06
6.6093223e-06
1.1416978e-05
2.1839016e-06
-5.0829657e-06
3.066078e-05
1.2426799e-05
-1.9712679e-05
-2.3092445e-05
-2.3811791e-05
-6.3040921e-05
-8.841923e-05
-2.0800448e-05
6.4008832e-05
0.00010363322
0.00010603061
8.2467059e-05
3.6754092e-05
6.1445763e-06
-2.7310462e-07
-1.0059177e-07
-3.4985302e-09
-2.0213893e-11
-3.8409273e-13
-8.5959769e-14
-1.9490866e-14
-3.9985628e-15
-7.2893268e-16
-1.1567279e-16
-1.5392918e-17
-1.566751e-18
-8.0266584e-20
1.1196885e-20
4.1690763e-21
7.6530501e-22
1.0338105e-22
1.1117472e-23
9.6565423e-25
6.7296559e-26
3.6884905e-27
1.5335053e-28
4.5456177e-30
8.5482354e-32
7.6484544e-34
2.4492475e-05
1.6280869e-06
-1.5182445e-05
1.1127991e-05
2.2977806e-05
6.9325873e-06
-1.3762518e-05
-1.9711867e-05
-8.9792402e-06
8.0156657e-06
1.156361e-05
1.7468913e-06
-5.0096971e-06
6.3103843e-06
-2.3765539e-05
-1.9995977e-05
-1.2873106e-05
-4.8885463e-05
-8.5989501e-05
-2.7138599e-05
6.7582869e-05
0.00012662036
0.00013137209
0.00011050849
6.0243953e-05
1.2030824e-05
-2.6175405e-06
-9.3973106e-07
-5.685683e-08
-6.6157575e-10
-3.5278222e-12
-2.9080575e-13
-6.5824744e-14
-1.3708733e-14
-2.5071294e-15
-3.8314331e-16
-4.2995573e-17
-1.4601513e-18
8.7793965e-19
3.1227747e-19
6.8589441e-20
1.1740408e-20
1.6559934e-21
1.9562083e-22
1.9387552e-23
1.5923387e-24
1.0662762e-25
5.674924e-27
2.3083505e-28
6.7338798e-30
1.2525217e-31
4.8500474e-36
-9.1718588e-08
1.7441309e-05
-3.8632251e-06
-1.3247736e-05
1.5379825e-05
2.6158505e-05
8.0444971e-06
-1.5558251e-05
-2.1509191e-05
-8.6618681e-06
9.2892318e-06
1.1757091e-05
1.3670539e-06
-5.0061764e-06
-2.7274857e-05
-1.5986556e-05
-1.9060665e-06
-3.497345e-05
-8.0659559e-05
-3.3380346e-05
6.6810545e-05
0.00013343771
0.00014653311
0.00011397606
6.7911727e-05
1.2853582e-05
-1.1773894e-05
-5.4084724e-06
-5.6190888e-07
-1.311167e-08
-1.0497415e-10
-1.1600467e-12
-2.0569561e-13
-4.2292827e-14
-7.3971974e-15
-9.4636837e-16
-2.6679397e-17
3.239074e-17
1.3299594e-17
3.543882e-18
7.5341839e-19
1.3477579e-19
2.0638955e-20
2.7152548e-21
3.0595235e-22
2.9242946e-23
2.3355152e-24
1.5297359e-25
7.9992459e-27
3.2085571e-28
9.2587433e-30
9.7735521e-34
9.3750944e-39
-2.9719891e-05
-6.7502357e-06
9.2786182e-06
-9.5686974e-06
-1.0635097e-05
1.9418719e-05
2.9133011e-05
8.9367642e-06
-1.6725688e-05
-2.2912635e-05
-8.1591023e-06
1.0381905e-05
1.1154214e-05
7.8962179e-07
-4.4687276e-06
-9.3480702e-06
9.3920516e-06
-2.1850146e-05
-7.2947236e-05
-3.9564107e-05
6.3008844e-05
0.00013530821
0.00014525303
0.00010281685
5.5995819e-05
4.9946131e-06
-3.040081e-05
-1.9780717e-05
-3.4753455e-06
-1.5636177e-07
-2.4733035e-09
-1.5943492e-11
-6.1941669e-13
-1.1624284e-13
-1.74156e-14
-8.1343687e-16
6.921881e-16
3.5576114e-16
1.1570703e-16
3.0113659e-17
6.6590067e-18
1.2778868e-18
2.1414326e-19
3.1321809e-20
3.9813547e-21
4.3667691e-22
4.0789868e-23
3.1965376e-24
2.0611042e-25
1.0639779e-26
4.2234605e-28
8.3940821e-32
3.109566e-36
-1.0502923e-41
-2.460534e-06
-3.0863983e-05
-1.3488515e-05
6.9442396e-07
-1.37545e-05
-7.8136564e-06
2.3429846e-05
3.1942079e-05
9.6976164e-06
-1.8310802e-05
-2.4105697e-05
-7.6396938e-06
1.0674721e-05
1.012602e-05
-8.2567759e-08
-2.9999396e-06
2.091968e-05
-9.1242853e-06
-6.3928688e-05
-4.5106386e-05
5.738042e-05
0.0001339142
0.00014267191
9.5254509e-05
3.5716605e-05
-7.2875413e-06
-5.0403098e-05
-4.7890787e-05
-1.3888196e-05
-1.1630081e-06
-3.5374663e-08
-3.9646002e-10
-3.0754356e-12
-2.7949448e-13
-2.3985661e-14
8.7398154e-15
6.2820813e-15
2.5142689e-15
7.9439594e-16
2.1366136e-16
5.0189667e-17
1.0399936e-17
1.9059267e-18
3.0830915e-19
4.3828518e-20
5.4408048e-21
5.849101e-22
5.3677512e-23
4.144318e-24
2.6394184e-25
1.348907e-26
4.3712619e-30
3.3723132e-34
2.4599135e-39
-3.3302608e-44
3.2336736e-05
4.0740186e-06
-3.0995693e-05
-2.0463763e-05
-7.2684012e-06
-1.6873823e-05
-5.0126125e-06
2.718837e-05
3.471135e-05
1.0171886e-05
-1.9898825e-05
-2.508602e-05
-6.8484785e-06
1.0662599e-05
7.9058402e-06
1.476128e-07
-1.8599029e-06
4.1256949e-06
-5.5713219e-05
-4.9148075e-05
5.0523348e-05
0.00013062783
0.00013878515
8.7741478e-05
2.3920059e-05
-1.9546972e-05
-5.9255792e-05
-8.1158478e-05
-3.7305347e-05
-5.5987056e-06
-3.1357056e-07
-6.6604029e-09
-5.552889e-11
-6.7504628e-13
4.6372719e-14
7.4355963e-14
3.7731803e-14
1.4419166e-14
4.6579064e-15
1.3179432e-15
3.3094338e-16
7.4069788e-17
1.4788132e-17
2.6287457e-18
4.1435507e-19
5.7599083e-20
7.0167206e-21
7.4125791e-22
6.7028597e-23
5.1123206e-24
3.2241271e-25
1.5857341e-28
2.0869685e-32
4.8218505e-37
-1.8022553e-42
-2.0757982e-47
1.6860703e-05
4.3185122e-05
1.1046086e-05
-3.122357e-05
-2.7413401e-05
-1.559907e-05
-1.9728439e-05
-2.2294153e-06
3.089196e-05
3.7116105e-05
1.035808e-05
-2.0953054e-05
-2.4808267e-05
-5.4613716e-06
9.4068013e-06
5.5651152e-06
1.2969972e-07
-9.5038191e-07
-4.8325887e-05
-5.2029596e-05
4.2551941e-05
0.00012559797
0.00013469643
7.8617384e-05
1.0709167e-05
-2.9064485e-05
-5.3369636e-05
-0.0001008898
-7.3003189e-05
-1.8264207e-05
-1.7878513e-06
-6.9238535e-08
-1.0472293e-09
-6.3247211e-12
5.3387314e-13
3.9734966e-13
1.8605961e-13
7.1678737e-14
2.409539e-14
7.2114672e-15
1.9355086e-15
4.6673065e-16
1.0104329e-16
1.9604299e-17
3.3979274e-18
5.237454e-19
7.1387483e-20
8.5514842e-21
8.8983057e-22
7.9472014e-23
6.0024405e-24
4.3038919e-27
8.8260472e-31
3.8855055e-35
1.3506629e-40
-2.1276149e-45
-5.9441342e-51
-4.1614074e-05
2.8397325e-05
5.3021185e-05
1.776143e-05
-3.2090747e-05
-3.5493917e-05
-2.4130552e-05
-2.243965e-05
4.6391922e-08
3.437694e-05
3.9093064e-05
9.9690002e-06
-2.1497734e-05
-2.3378744e-05
-3.3450512e-06
6.459373e-06
3.3678281e-06
-5.7410601e-09
-3.6574293e-07
-5.4788802e-05
3.3579588e-05
0.00011879174
0.00012994339
6.9130671e-05
-4.0299479e-06
-4.0699313e-05
-4.9600575e-05
-8.7821619e-05
-0.00011056772
-4.2846846e-05
-6.8716432e-06
-4.5952429e-07
-1.260912e-08
-1.3398074e-10
2.2855408e-12
1.732825e-12
8.0268217e-13
3.1795957e-13
1.1186741e-13
3.5416751e-14
1.013203e-14
2.620414e-15
6.1193771e-16
1.2875629e-16
2.4345582e-17
4.1225754e-18
6.2240868e-19
8.3327974e-20
9.8315554e-21
1.0098812e-21
8.9298728e-23
9.1163283e-26
2.7762638e-29
1.9933908e-33
2.2357929e-38
-6.8214496e-44
-7.332604e-49
-1.0249649e-54
-5.7628735e-05
-3.3720589e-05
3.8787633e-05
6.1999864e-05
2.4054115e-05
-3.228677e-05
-4.3396622e-05
-3.2815803e-05
-2.5325835e-05
2.3504918e-06
3.749506e-05
3.974748e-05
8.3149213e-06
-2.0871568e-05
-1.9596446e-05
-2.3978105e-06
4.1090717e-06
1.5430385e-06
-5.402103e-08
-9.7376543e-08
2.336149e-05
0.00010984078
0.00012364041
5.91504e-05
-2.1392279e-05
-5.4205442e-05
-4.9477143e-05
-7.0463856e-05
-0.00012295865
-7.7066394e-05
-1.8808022e-05
-2.0430294e-06
-9.6313757e-08
-1.8869206e-09
-3.2368227e-12
6.5944185e-12
3.1178804e-12
1.2792436e-12
4.7121359e-13
1.5737688e-13
4.7782424e-14
1.3183705e-14
3.3004479e-15
7.4814539e-16
1.5319144e-16
2.8253307e-17
4.6778307e-18
6.9236687e-19
9.1243769e-20
1.0616324e-20
1.0790573e-21
1.5480356e-24
6.80909e-28
7.4433147e-32
1.5246983e-36
2.3162156e-42
-3.9157083e-47
-1.3828324e-52
-1.2213745e-58
1.239481e-05
-5.9731688e-05
-2.4653833e-05
4.8207489e-05
7.0165031e-05
3.0070058e-05
-3.2038713e-05
-5.1037331e-05
-4.1489821e-05
-2.8340091e-05
4.6104724e-06
4.0997122e-05
3.8810995e-05
6.2778994e-06
-1.8251229e-05
-1.4139924e-05
-1.3104363e-06
2.0873891e-06
5.0978381e-07
-3.0108355e-08
-1.7640548e-08
9.8125258e-05
0.000114711
4.8679914e-05
-4.1685801e-05
-7.0457053e-05
-5.2500802e-05
-5.107003e-05
-0.00010866896
-0.00011355843
-3.925928e-05
-6.4150727e-06
-4.8909982e-07
-1.656424e-08
-1.9720576e-10
2.1717352e-11
1.108636e-11
4.7197276e-12
1.8155713e-12
6.3679119e-13
2.0407843e-13
5.9710056e-14
1.5919782e-14
3.8597449e-15
8.4918047e-16
1.6916768e-16
3.0428854e-17
4.9262088e-18
7.1486271e-19
9.2920881e-20
1.0685246e-20
2.1449661e-23
1.3405199e-26
2.1532865e-30
6.9659375e-35
3.6445899e-40
-9.2718782e-46
-8.6383793e-51
-1.7382745e-56
-1.0921633e-62
8.3669754e-05
9.5354507e-07
-5.9431735e-05
-1.4989117e-05
5.6983978e-05
7.7377924e-05
3.5684943e-05
-3.0973294e-05
-5.7812389e-05
-4.9751915e-05
-3.1091676e-05
8.0076985e-06
4.3268549e-05
3.468898e-05
3.8922092e-06
-1.3339914e-05
-8.565163e-06
-3.3952893e-07
7.698863e-07
1.1538741e-07
-8.4587506e-09
-2.0799228e-09
0.00010251702
3.6132184e-05
-6.3864394e-05
-9.0219925e-05
-5.4951503e-05
-3.3648503e-05
-8.1936631e-05
-0.00013525691
-7.2703423e-05
-1.5204781e-05
-1.7403536e-06
-9.5485425e-08
-2.2452316e-09
4.9619876e-11
3.654483e-11
1.6114745e-11
6.4441032e-12
2.3599251e-12
7.9317361e-13
2.444256e-13
6.8907768e-14
1.7731601e-14
4.1562622e-15
8.8583751e-16
1.7138477e-16
3.0028173e-17
4.7493639e-18
6.7725894e-19
8.6787924e-20
2.4520572e-22
2.1588575e-25
4.9965449e-29
2.4086311e-33
2.1940317e-38
1.6487097e-44
-3.1467503e-49
-1.1716399e-54
-1.6122454e-60
-8.669993e-67
8.6502208e-05
6.6610162e-05
-9.894138e-06
-5.6428737e-05
-4.9194418e-06
6.5012883e-05
8.3744369e-05
4.0798433e-05
-2.8808696e-05
-6.3264068e-05
-5.7544377e-05
-3.4124996e-05
1.1899307e-05
4.1288413e-05
2.7378168e-05
1.7826456e-06
-8.0117163e-06
-3.8829178e-06
5.4373069e-09
1.9456837e-07
1.7612188e-08
-1.1973293e-09
-1.6297902e-10
2.1453334e-05
-8.5256055e-05
-0.00011068616
-5.7053512e-05
-1.6667212e-05
-4.9089517e-05
-0.00013558942
-0.00010766762
-3.5484086e-05
-4.6091474e-06
-3.8156828e-07
-1.5015071e-08
-5.2608233e-11
1.1274202e-10
5.1751788e-11
2.1247734e-11
8.0570795e-12
2.8187374e-12
9.0774866e-13
2.6840435e-13
7.2665063e-14
1.7972788e-14
4.0544413e-15
8.3316669e-16
1.5582353e-16
2.6489965e-17
4.0810787e-18
5.7162171e-19
2.324369e-21
2.8793306e-24
9.4990693e-28
6.6433609e-32
9.1196703e-37
2.6065995e-42
-5.9761836e-48
-4.8942599e-53
-1.1373327e-58
-1.3190352e-64
-6.6038263e-71
4.4049076e-06
6.7299142e-05
4.841526e-05
-2.0722506e-05
-5.1170818e-05
5.0942151e-06
7.2454094e-05
8.9241581e-05
4.5163458e-05
-2.6062062e-05
-6.678662e-05
-6.4802707e-05
-3.3703765e-05
1.63875e-05
3.5641873e-05
1.8064267e-05
2.4089305e-07
-3.7497332e-06
-1.2323076e-06
2.971887e-08
3.319977e-08
1.929923e-09
-1.0872806e-10
-8.5555986e-12
-0.00010320189
-0.0001253541
-5.6727239e-05
1.4534433e-06
-1.560005e-05
-0.00010981631
-0.0001390661
-6.3739953e-05
-1.3585081e-05
-1.1101194e-06
-6.6102265e-08
-1.1897475e-09
3.3381744e-10
1.6085935e-10
6.7004754e-11
2.5675922e-11
9.2066721e-12
3.0700521e-12
9.4290192e-13
2.6576042e-13
6.8538589e-14
1.6139577e-14
3.4658794e-15
6.7842412e-16
1.2109955e-16
1.9730119e-17
2.9355711e-18
1.8228938e-20
3.2031254e-23
1.4997674e-26
1.502529e-30
2.956027e-35
1.397073e-40
5.7468137e-47
-1.3525576e-51
-5.0767981e-57
-9.6263252e-63
-1.032979e-68
-4.8246206e-75
-0.00011530947
-1.4767978e-05
4.5607156e-05
2.9778444e-05
-2.8087123e-05
-4.4402423e-05
1.502785e-05
7.9260303e-05