/*--------------------------------*- C++ -*----------------------------------*\
| =========                 |                                                 |
| \\      /  F ield         | OpenFOAM: The Open Source CFD Toolbox           |
|  \\    /   O peration     | Version:  5.0                                   |
|   \\  /    A nd           | Web:      www.OpenFOAM.org                      |
|    \\/     M anipulation  |                                                 |
\*---------------------------------------------------------------------------*/
FoamFile
{
    version     2.0;
    format      ascii;
    class       surfaceScalarField;
    location    "400";
    object      ddtCorrDdt0(phi);
}
// * * * * * * * * * * * * * * * * * * * * * * * * * * * * * * * * * * * * * //

dimensions      [0 3 -2 0 0 0 0];

internalField   nonuniform List<scalar> 
18820
(
5.245197e-07
0.00039742998
3.3391187e-07
0.00036889795
4.7182286e-06
0.00039270949
-2.8255695e-07
0.00033957156
8.5439338e-06
0.00036505359
2.4040365e-07
0.00039245956
-1.0656493e-06
0.0003097745
1.1542218e-05
0.00033656297
1.1013366e-06
0.00036416588
-1.1254441e-05
0.00040369818
-1.6654662e-06
0.00028012801
1.3200895e-05
0.00030811938
2.277843e-06
0.00033537761
-2.0485448e-05
0.00037336493
-2.0176255e-05
0.00042385303
-1.8248988e-06
0.00025153767
1.3432459e-05
0.00027991266
2.9171756e-06
0.00030749134
-2.8135883e-05
0.00034301949
-3.8513548e-05
0.00039166755
-2.1483499e-05
0.0004453112
-1.6585326e-06
0.00022413409
1.2771053e-05
0.00025221865
2.3863443e-06
0.00028046668
-3.460125e-05
0.00031396893
-5.5188083e-05
0.00035968427
-4.2598961e-05
0.00041275021
-1.4701358e-05
0.0004599872
-1.7749526e-06
0.00019768167
1.1176297e-05
0.00022574004
9.1115972e-07
0.00025371294
-4.0600201e-05
0.00028648525
-6.9736013e-05
0.00032852484
-6.3293912e-05
0.00038036934
-3.0430224e-05
0.00042845456
-6.1287661e-06
0.00046609587
-3.949746e-06
0.00017178417
7.5987543e-06
0.0002012547
-1.2866056e-06
0.00022793949
-4.6737513e-05
0.00025986051
-8.2267777e-05
0.00029902818
-8.2569421e-05
0.0003478034
-4.7178063e-05
0.00039711053
-1.3345257e-05
0.00043566046
-2.4442742e-06
0.00046852975
-1.2043746e-05
0.00014596912
-1.0155904e-06
0.00018037864
-4.3705298e-06
0.00020431907
-5.3111426e-05
0.00023430533
-9.3746339e-05
0.00027134028
-0.00010002324
0.00031648576
-6.4338404e-05
0.00036496386
-2.1610012e-05
0.00040537488
-5.0167698e-06
0.00043823836
-5.8091032e-06
0.00047433994
-3.3880017e-05
0.00011999082
-2.0638992e-05
0.00016556367
-9.1230445e-06
0.00018509534
-5.8847384e-05
0.00021003187
-0.00010464887
0.00024519536
-0.00011638577
0.00028770155
-8.1324613e-05
0.00033347019
-3.1987502e-05
0.00037534109
-7.5720951e-06
0.00040793594
-1.0582869e-05
0.00044303125
-1.3861194e-05
0.00048821224
-7.6853859e-05
0.00010070427
-6.328083e-05
0.00016260358
-1.7205793e-05
0.00017360237
-6.0871823e-05
0.00018709284
-0.00011456977
0.0002199305
-0.0001322943
0.00026110157
-9.7904546e-05
0.00030427651
-4.3745047e-05
0.00034522449
-1.1485981e-05
0.00037925241
-1.4898259e-05
0.0004122611
-2.5731059e-05
0.00045492838
-2.1807361e-05
0.00051003728
-0.00015459391
0.00010603122
-0.00014377387
0.00018117565
-2.9788584e-05
0.00017514025
-5.3287148e-05
0.00016599925
-0.00012128268
0.00019377897
-0.00014819134
0.00023583229
-0.00011447405
0.00027766658
-5.5588049e-05
0.00031611866
-1.723257e-05
0.00035096043
-1.8818333e-05
0.00038316758
-3.7020641e-05
0.00042355992
-4.1542365e-05
0.00047469329
-2.5564581e-05
0.00053562238
-0.00026872276
0.00011664954
-0.00024726986
0.00020951763
-3.1213728e-05
0.00018255643
-2.2082103e-05
0.00014393331
-0.00011886069
0.00016354914
-0.00016388476
0.00020948889
-0.0001323857
0.0002537417
-6.688579e-05
0.0002889723
-2.3319038e-05
0.00032219341
-2.312616e-05
0.00035525379
-4.7768876e-05
0.00039390484
-6.0439137e-05
0.00044246396
-4.9995876e-05
0.00049915294
-2.3623558e-05
0.00055926677
-0.00043492248
0.00014611397
-0.00034994513
0.00021932841
1.0715399e-05
0.0001675494
5.5011228e-05
0.00010547988
-9.5521979e-05
0.00012056831
-0.0001795507
0.00017924218
-0.00015595905
0.00023306036
-7.8235537e-05
0.00026510827
-2.7850915e-05
0.00029349667
-2.7511588e-05
0.00032656517
-5.7807314e-05
0.00036526947
-7.8956071e-05
0.00041240818
-7.3405991e-05
0.00046587899
-4.7529579e-05
0.00052308398
-1.7037571e-05
0.00057632409
-0.00066751327
0.00018102612
-0.000450393
0.00024657609
9.3867615e-05
0.00013614618
0.00018045537
4.2137382e-05
-4.8908803e-05
5.8847736e-05
-0.00020287543
0.00014392624
-0.00019360017
0.00021688019
-9.2592103e-05
0.00024743613
-2.8753039e-05
0.00026600626
-3.069847e-05
0.00029667698
-6.7819152e-05
0.00033655518
-9.7064041e-05
0.00038335467
-9.6240169e-05
0.00043522912
-7.1138219e-05
0.00048949229
-3.5434237e-05
0.00054150163
-8.4843616e-06
0.00058482607
-0.0010016274
0.00026054969
-0.00056351119
0.00029416436
0.00022909177
0.00011133309
0.00032460977
-7.9678263e-06
-6.2380812e-06
-5.3946296e-07
-0.00025298805
0.00010899477
-0.00026040125
0.00021072454
-0.00011461119
0.00023891396
-2.2776713e-05
0.00024145474
-3.0235606e-05
0.00026554332
-7.8368398e-05
0.00030721366
-0.00011580928
0.00035528289
-0.0001192813
0.00040637826
-9.4083902e-05
0.00045816664
-5.5419547e-05
0.00050948369
-1.862342e-05
0.00055165576
-1.0936712e-06
0.00058593367
-0.0013744713
0.00029839862
-0.0006743442
0.00037140265
0.00041481406
0.00010843267
0.00051891283
-8.2929845e-05
2.531083e-05
-3.9509194e-05
-0.0003397118
8.6215887e-05
-0.00037471908
0.00022331226
-0.0001490669
0.00024518738
-5.4961798e-06
0.00022162314
-2.1358013e-05
0.00023257982
-8.9043901e-05
0.00027621666
-0.00013655055
0.00032795226
-0.00014347302
0.00037946735
-0.00011748439
0.00042977122
-7.5679007e-05
0.00047842595
-3.1995738e-05
0.000522862
-3.5995999e-06
0.0005541679
2.778838e-06
0.00058316223
-0.0019157663
0.00045764394
-0.00085146628
0.00047553539
0.00069697615
8.9235583e-05
0.00079979401
-0.00017241641
5.8373491e-05
-0.00011597653
-0.00045341762
7.4222396e-05
-0.00054524207
0.00025674007
-0.00019929648
0.00027354196
3.1539897e-05
0.00020813193
3.7365808e-06
0.00019653002
-9.8115045e-05
0.00024165433
-0.0001605855
0.00030026608
-0.00017005517
0.00035454588
-0.00014226413
0.00040425186
-9.6458776e-05
0.00045055558
-4.8156104e-05
0.00049459117
-8.668471e-06
0.0005279336
4.4475794e-06
0.00055249194
2.5789421e-06
0.00058058087
-0.0023700468
0.00046278647
-0.00099950413
0.00060568751
0.0010785582
9.394786e-05
0.0012021854
-0.00031313673
0.00012885214
-0.00024287776
-0.00065202446
8.2648579e-05
-0.00077959876
0.00030857933
-0.00026798092
0.00032541968
0.00010146763
0.00020358341
5.6050144e-05
0.00015581458
-0.00010290769
0.00020132241
-0.00018937369
0.00027046835
-0.0002009948
0.00033123507
-0.00016947212
0.00038177553
-0.00011873321
0.00042654191
-6.5277348e-05
0.00046768677
-1.8456485e-05
0.00050438481
5.6526124e-06
0.00052672299
4.3369038e-06
0.00055071023
-4.5866266e-07
0.00058102502
-0.0030384154
0.00069232222
-0.0012398805
0.00070315852
0.0016213862
6.2851614e-05
0.001777522
-0.00048138425
0.00022100095
-0.00040527052
-0.00098180939
8.6918614e-05
-0.001086161
0.00038921103
-0.00036938691
0.00040997898
0.00021371473
0.00021313388
0.00015198041
0.00010764094
-9.8403506e-05
0.0001512985
-0.00022437006
0.0002363435
-0.0002395708
0.00030908247
-0.00020094552
0.000362742
-0.00014261327
0.00040568139
-8.3321859e-05
0.00044460048
-3.1194867e-05
0.00048043469
4.3450591e-06
0.00050569307
6.2483337e-06
0.00052479452
-1.1723861e-06
0.00055138375
-4.3255404e-06
0.00058532422
-0.0036732687
0.00060464061
-0.0014010475
0.00085347686
0.0022056424
0.00011889322
0.0025521692
-0.00071180256
0.00034967114
-0.00061004099
-0.0014837878
9.6716105e-05
-0.0015335606
0.00053432357
-0.00048269348
0.00050251566
0.00041266736
0.00021099132
0.00031044335
5.4652539e-05
-7.7132949e-05
8.6347077e-05
-0.00026557509
0.00019251478
-0.00029018131
0.00028698871
-0.00024021549
0.00034838587
-0.0001687013
0.00038885934
-0.0001013328
0.00042370376
-4.3911091e-05
0.00045732265
-1.0028834e-06
0.00048578643
7.5496082e-06
0.00050438506
-2.5799187e-06
0.00052617488
-8.0706159e-06
0.00055507719
-7.3129414e-06
0.00059260259
-0.0046061389
0.0008897688
-0.0017870525
0.00099062992
0.0029924558
6.6654904e-05
0.0036307623
-0.00095971198
0.00050955517
-0.00087167327
-0.0021762349
8.2416789e-05
-0.0021815973
0.00074476728
-0.00061735407
0.00066899386
0.00069419561
0.00022096871
0.00057655493
-5.5135298e-05
-6.8399017e-06
-1.5665925e-05
-0.00030917486
0.00012994204
-0.00035976807
0.00026212555
-0.00029364717
0.00034044268
-0.00019867845
0.00037838871
-0.00011827144
0.00040579976
-5.5296993e-05
0.00043508256
-7.7436396e-06
0.00046405781
6.6788589e-06
0.00048665425
-4.3032115e-06
0.00050609696
-1.3691091e-05
0.000531764
-1.3423739e-05
0.00056113406
-8.5413588e-06
0.00060110752
-0.0055223274
0.001119031
-0.0021390927
0.0012417958
0.0037642452
0.00021883223
0.0050373151
-0.0013399082
0.00073207131
-0.001182216
-0.003135299
8.7407197e-05
-0.0031341707
0.0010350107
-0.00077777767
0.0009052162
0.0011270331
0.00023615687
0.00098954617
-0.00019202227
0.00010597035
-0.00016796409
-0.00035257723
2.7725411e-05
-0.00046012843
0.00023031502
-0.00037342473
0.00034191312
-0.00023634013
0.00037812427
-0.00013269583
0.00039280623
-6.2999357e-05
0.00041347966
-1.3495417e-05
0.0004408103
4.2998387e-06
0.00046642267
-7.5599102e-06
0.00048990717
-2.017812e-05
0.00051257441
-2.1705452e-05
0.00054001929
-1.6177131e-05
0.0005687248
-7.8917913e-06
0.00060896852
-0.0066400554
0.0013003596
-0.0023122815
0.0012922133
0.0048868608
0.0001191704
0.0068982922
-0.0016421504
0.00096946825
-0.001577297
-0.0043668708
4.937542e-05
-0.0044659079
0.0014191627
-0.00097359385
0.001230863
0.0017658479
0.00026641212
0.0016061702
-0.00038044785
0.00029255264
-0.00037861679
-0.00044939536
-7.1150831e-05
-0.00062344179
0.0001910397
-0.00050046843
0.00035736303
-0.00028933587
0.00039492446
-0.00014270849
0.00038813218
-6.3017657e-05
0.00039279702
-1.5111749e-05
0.00041505869
1.4744547e-06
0.000443603
-1.3336571e-05
0.00047218725
-2.7430821e-05
0.00049716229
-3.2118034e-05
0.00052298649
-2.4925303e-05
0.00054875516
-1.6265864e-05
0.0005770721
-5.6062878e-06
0.00061455588
-0.0074636712
0.0010804777
-0.0025437306
0.0015318093
0.0063035145
-0.00012445327
0.0092489881
-0.0022315286
0.0013158383
-0.0019885172
-0.0060443751
0.0001002208
-0.0063320231
0.0019155006
-0.0011844783
0.0016300805
0.002680192
0.00031652824
0.0024965108
-0.00062389958
0.00057763394
-0.00066554135
-0.00064924531
-0.0001787636
-0.000862001
0.00016739488
-0.00071005673
0.00040062884
-0.00037067053
0.00043870741
-0.00014539166
0.00039761405
-4.8823946e-05
0.00037392185
-7.6381148e-06
0.00038529295
-2.1873177e-07
0.00041671114
-2.1346031e-05
0.00045158785
-3.781021e-05
0.00048256467
-4.3223549e-05
0.00050828152
-3.6935747e-05
0.00053501057
-2.4582322e-05
0.0005570786
-1.3299458e-05
0.00058476135
-1.8716394e-06
0.00061642388
-0.0089440757
0.0019936525
-0.0031708139
0.0017075656
0.0078738327
-3.8523775e-05
0.011633375
-0.0025088469
0.0014459482
-0.0023616379
-0.0080669916
3.4096279e-05
-0.0087855633
0.0025537627
-0.0014090637
0.0021401021
0.0039248456
0.00038543057
0.0037500995
-0.00093703758
0.0010032382
-0.0010495163
-0.0009381783
-0.00037660578
-0.0012223996
0.00018160988
-0.0010212328
0.00047855959
-0.00049789529
0.00052785213
-0.00013642002
0.00042974606
-9.097783e-06
0.00035788841
1.6560746e-05
0.00034971664
1.9454451e-06
0.00038310226
-3.1253429e-05
0.00042659459
-5.191878e-05
0.00046568803
-5.7128918e-05
0.00049648132
-5.1093892e-05
0.00052246504
-3.5481924e-05
0.00054593661
-2.1319876e-05
0.00056512438
-6.441119e-06
0.00058934843
3.1129906e-06
0.00061332196
-0.010284849
0.0024298775
-0.0032563936
0.0020792364
0.009254932
0.00032645215
0.014822977
-0.0032281397
0.0017675606
-0.0028304573
-0.010728278
0.00029962619
-0.012083484
0.0033320135
-0.0015683918
0.0027130854
0.0055712788
0.00049366868
0.0054623504
-0.0013268114
0.0016235024
-0.0015573068
-0.0013305142
-0.00065718475
-0.0018056428
0.000206616
-0.0014451076
0.00060545339
-0.00068260417
0.00066325742
-0.00010547246
0.00049689765
7.3854811e-05
0.00034680207
6.8807615e-05
0.00030565389
1.2897908e-05
0.00033876467
-4.23969e-05
0.0003942397
-7.0524911e-05
0.00044519837
-7.5278945e-05
0.00048384604
-6.727167e-05
0.00051268079
-4.9994753e-05
0.00053700842
-2.9612949e-05
0.00055426202
-1.268507e-05
0.00057140512
4.2156524e-06
0.0005882779
8.6721403e-06
0.00060467197
-0.011614038
0.0024799876
-0.0025427321
0.0017162157
0.011888344
-0.00055418679
0.018854251
-0.0037048425
0.0019796726
-0.0034402468
-0.013948043
0.00038927213
-0.015902132
0.0041182685
-0.0016355118
0.0033991161
0.00766073
0.00062363103
0.007778224
-0.001822203
0.0024924296
-0.0021957314
-0.0018569683
-0.001030857
-0.0026947835
0.00023195541
-0.0020549806
0.00081644787
-0.00093124688
0.00085408907
-4.4544818e-05
0.00060229632
0.00022756477
0.0003431916
0.00016538616
0.00025023158
4.0278645e-05
0.00027828981
-5.3711001e-05
0.0003500908
-9.4845574e-05
0.00041857436
-9.9266959e-05
0.00046919964
-8.7390841e-05
0.00050398453
-6.6483822e-05
0.00052919241
-4.0839788e-05
0.00054826108
-1.8301223e-05
0.00055990551
2.5258376e-06
0.00057313291
1.5986825e-05
0.00058100005
1.3596524e-05
0.00059110295
-0.012738248
0.0025652875
-0.0015538734
0.0014911222
0.015351557
-0.0017470049
0.022908964
-0.0046089223
0.0018945317
-0.003619696
-0.017840365
0.00045204019
-0.020686233
0.0051733633
-0.0016708962
0.004153639
0.010249747
0.00081009186
0.010840278
-0.0024384146
0.0036665752
-0.002996334
-0.0025437141
-0.0015089769
-0.0039777812
0.00025216309
-0.0029496311
0.0011265799
-0.0012722802
0.0011574911
6.289235e-05
0.00074661173
0.00047611396
0.00035374398
0.00033336769
0.00017520268
9.6793548e-05
0.00019372725
-6.3160772e-05
0.00028775181
-0.00012731296
0.00038257972
-0.00013168164
0.00045100911
-0.00011334427
0.00049517583
-8.6536517e-05
0.00052405709
-5.5514702e-05
0.00054388123
-2.5916092e-05
0.0005558871
-1.0842314e-06
0.00056352826
1.9597566e-05
0.00056955154
2.5441924e-05
0.00056918589
1.7135753e-05
0.00057399448
-0.013943727
0.0029956961
-0.00015772308
0.0011691247
0.019077549
-0.0022348769
0.026688108
-0.0055261666
0.0010415502
-0.0037559385
-0.021390251
-6.9834732e-05
-0.026362659
0.0061284529
-0.0014588761
0.0049613406
0.013516764
0.00088661012
0.014857462
-0.0032070722
0.0051891757
-0.0039610003
-0.0034244136
-0.0021156109
-0.005755251
0.00026852363
-0.0042530752
0.0015556108
-0.0017457176
0.00160004
0.00025170726
0.00096866021
0.00085244933
0.00037027076
0.00061414703
7.2958461e-05
0.00019839393
7.3595902e-05
-6.749342e-05
0.0001980611
-0.00017149509
0.00033194317
-0.00017692961
0.00042784217
-0.00014830063
0.00048598727
-0.00011183918
0.00052050046
-7.4268572e-05
0.00054282426
-3.8037009e-05
0.0005560012
-6.2885262e-06
0.0005610833
1.9316187e-05
0.00056380265
3.4332079e-05
0.00056067592
3.2124291e-05
0.00055421588
1.9301272e-05
0.00055471534
-0.015095491
0.00314848
0.001396433
0.001441522
0.022947774
-0.0027011068
0.029947725
-0.0054945043
-0.00083839239
-0.0036462268
-0.025386686
0.00024048239
-0.032913728
0.0064812214
-0.0013152175
0.0059847995
0.017644208
0.00083388806
0.019926996
-0.0041828979
0.0071004237
-0.0051183062
-0.0045457089
-0.0028396787
-0.0081451508
0.00027431354
-0.0061043699
0.00211984
-0.002405949
0.0022158613
0.0005578996
0.001293862
0.0014329828
0.00038811839
0.0010472874
-6.2854046e-05
0.00037139481
-0.00010005841
-6.1745819e-05
6.78483e-05
-0.00023296849
0.00025952532
-0.00024227291
0.00039728513
-0.00019725991
0.00047680911
-0.00014550489
0.00051967116
-9.7968629e-05
0.00054421795
-5.379174e-05
0.00055858343
-1.4049618e-05
0.00056374753
1.7338395e-05
0.00056303674
3.9158469e-05
0.0005589513
4.4888262e-05
0.00054791105
3.6568062e-05
0.00053695135
2.0245728e-05
0.0005344839
-0.016157124
0.003153918
0.0030360091
0.0015088822
0.027123744
-0.0027344573
0.032627384
-0.0053807677
-0.0034660406
-0.0028668607
-0.03159156
0.0025586384
-0.040173651
0.0075003993
-0.0027725389
0.0079385476
0.022507634
0.0011213734
0.026091637
-0.005330731
0.0093340362
-0.0064164946
-0.0059281227
-0.0037358759
-0.011262872
0.000278057
-0.0086815034
0.0028514651
-0.0033126158
0.0030265126
0.0010271591
0.0017466236
0.0023097927
0.00041703728
0.0016903629
-0.00025492783
0.00065058293
-0.00034205619
-5.2724503e-05
-0.00010906925
-0.00032136992
0.00015623838
-0.00034100787
0.00035824948
-0.00027084402
0.00047086022
-0.00019351855
0.00052482753
-0.00012833716
0.00055005506
-7.2841719e-05
0.00056328138
-2.467558e-05
0.00056920909
1.3551216e-05
0.00056751372
4.0747478e-05
0.00056141656
5.4445903e-05
0.00054935799
5.1983528e-05
0.00053248338
3.861983e-05
0.0005185641
2.0131732e-05
0.00051435802
-0.017116649
0.0030456681
0.0046435252
0.0015463803
0.031590413
-0.0029577996
0.035625902
-0.0057329734
-0.0066544966
-0.0021923146
-0.0381482
0.0036897727
-0.047004773
0.0093897676
-0.0048346514
0.0095625142
0.028242036
0.0022041569
0.033780252
-0.0065672223
0.011856464
-0.0078531451
-0.007652849
-0.0046917629
-0.015280966
0.00028221874
-0.01217985
0.0037764101
-0.0045418039
0.0040806484
0.0017092266
0.0023444553
0.0035954223
0.00046097694
0.0026300221
-0.00052260516
0.0010700912
-0.00067444285
-2.6918386e-05
-0.00036785071
-0.00046421103
3.3777437e-05
-0.00050309872
0.00031832184
-0.00038703304
0.00047442875
-0.00026429284
0.00054162778
-0.00016845949
0.00056495643
-9.5104986e-05
0.0005723326
-3.6946627e-05
0.00057556592
7.4814435e-06
0.0005752809
3.987228e-05
0.0005683721
6.0122135e-05
0.00055571446
6.4621415e-05
0.00053668337
5.5664431e-05
0.00051542206
3.8602273e-05
0.00050006848
1.9297214e-05
0.00049506046
-0.017921511
0.0027875481
0.0061785664
0.0015106094
0.036242415
-0.0031056381
0.038574998
-0.0059068888
-0.0090938952
-0.0032935764
-0.044620379
0.0042798614
-0.052799603
0.0094846177
-0.0041893667
0.0087444873
0.035291786
0.002512778
0.043829092
-0.0078446626
0.014587357
-0.0092981125
-0.0097901918
-0.0057158044
-0.020296327
0.00032358258
-0.016831618
0.0049339848
-0.0061524092
0.0053870047
0.0026731694
0.0031167074
0.0054148772
0.00052499429
0.0039764482
-0.00088545138
0.0016756335
-0.0011281433
2.7451078e-05
-0.00072881562
-0.00067781621
-0.0001542207
-0.00073556169
0.00026623843
-0.0005600259
0.00049132088
-0.00036720172
0.0005773307
-0.00022161031
0.0005947814
-0.00012175761
0.00059161586
-5.2234129e-05
0.00058763594
7.4813046e-08
0.00058298835
3.8561819e-05
0.00057660073
6.1610964e-05
0.00056688019
7.3616794e-05
0.00054670753
7.0024747e-05
0.00052229357
5.6325984e-05
0.00049768359
3.7629218e-05
0.00048170535
1.8059849e-05
0.00047699761
-0.018561288
0.0024012529
0.0075895191
0.0013765851
0.040845345
-0.0030923393
0.041306658
-0.005837291
-0.011568859
-0.0034319197
-0.050929123
0.0030151656
-0.057994029
0.0094743063
-0.0020442666
0.0073395258
0.042904915
0.0011313638
0.055823858
-0.0094819659
0.017677692
-0.010935011
-0.012394369
-0.0066939495
-0.026451998
0.00043983468
-0.022918011
0.0064099595
-0.0082195398
0.0070011015
0.0040000234
0.0040601471
0.0079350462
0.00059655225
0.0058558525
-0.0013544144
0.0025230343
-0.0017328305
0.00011834173
-0.0012190451
-0.00097821963
-0.00042837853
-0.0010887924
0.00019901085
-0.00079542553
0.00050165851
-0.00051398374
0.00063810507
-0.0002921194
0.0006478457
-0.00015177384
0.00062479886
-6.5103976e-05
0.00060449415
-6.0270915e-06
0.00059375122
3.5040914e-05
0.00058652475
6.3754689e-05
0.00057447662
8.1158097e-05
0.00055935121
8.0776733e-05
0.00053596152
7.1549637e-05
0.00050705177
5.4706772e-05
0.00048059819
3.5607442e-05
0.00046412655
1.6611991e-05
0.0004603839
-0.019018195
0.0019171862
0.0088057264
0.0011850442
0.045160185
-0.0029382743
0.043762356
-0.0055480328
-0.014012992
-0.0033931433
-0.057580181
0.0032191363
-0.064020069
0.0090412293
0.00086672526
0.0065633234
0.050268055
-2.3617047e-05
0.068115822
-0.011160587
0.021104235
-0.012908533
-0.01518106
-0.0081483546
-0.033732277
0.0005862939
-0.030792891
0.0083146718
-0.010715507
0.008905915
0.0057920448
0.0052090585
0.01132379
0.00067143388
0.008414962
-0.0019625596
0.0036792661
-0.0025106065
0.00025080049
-0.0018652886
-0.0014080243
-0.00078920618
-0.0016145317
9.7370332e-05
-0.0011531334
0.0005567386
-0.00073832252
0.00072601228
-0.00038941751
0.00073541087
-0.00018524969
0.00068132216
-7.2958082e-05
0.0006326533
-7.4720606e-06
0.00060594028
3.4083022e-05
0.00059471278
6.3946166e-05
0.00058634659
8.2687142e-05
0.00057297218
8.854494e-05
0.00055160523
8.3619482e-05
0.00052391239
6.9928368e-05
0.00049182236
5.1791066e-05
0.00046441642
3.2910352e-05
0.00044780196
1.5166779e-05
0.00044521934
-0.01927544
0.0014181784
0.0098235273
0.00089939239
0.048957819
-0.0026126088
0.045864537
-0.0050404578
-0.016171109
-0.0033898945
-0.064330922
0.0033576
-0.070017103
0.0092161923
0.0013654826
0.0085424832
0.057959697
-0.0011283271
0.080526683
-0.012434478
0.024628941
-0.014685319
-0.017901417
-0.010188225
-0.041837223
-4.3439159e-05
-0.040501229
0.010294575
-0.013496556
0.011095717
0.0082213515
0.0064765698
0.015793435
0.00073944828
0.011808672
-0.0027222877
0.0052003708
-0.0034836228
0.00043301923
-0.002692813
-0.0019683475
-0.0013049377
-0.0023511068
-5.2610453e-05
-0.0017195173
0.00066376279
-0.0010512315
0.00086967429
-0.00053754313
0.00087414131
-0.00021984332
0.00077000968
-6.8988364e-05
0.00067734526
2.8293615e-06
0.00062234503
3.9985222e-05
0.0006000235
6.6113341e-05
0.00059253942
8.4701079e-05
0.00058433688
9.3776223e-05
0.00056776105
9.2845593e-05
0.0005424029
8.3060361e-05
0.00051080812
6.6757439e-05
0.00047685441
4.8202784e-05
0.00044913612
3.012008e-05
0.00043282935
1.3865504e-05
0.00043136148
-0.019367783
0.00082092985
0.010650509
0.00059120973
0.052220705
-0.0023635081
0.047563435
-0.0043115153
-0.018016226
-0.0031953132
-0.07099078
0.0032699714
-0.075732169
0.0090726808
0.0019197063
0.0086619789
0.062843964
0.0036582031
0.092763676
-0.013365325
0.02715725
-0.014962803
-0.022392711
-0.010194066
-0.050592529
-0.0014329386
-0.052294942
0.011750235
-0.01639505
0.01319307
0.011505651
0.0078113961
0.021529538
0.00074049138
0.016221202
-0.0036730926
0.0071501317
-0.0046720294
0.00067219177
-0.0037227828
-0.0027296148
-0.0019315382
-0.0034387673
-0.00021726041
-0.0025742194
0.00080208333
-0.0015031005
0.0011156559
-0.0007411332
0.0010732607
-0.00026074661
0.00091505474
-4.5291474e-05
0.00074630284
3.5433135e-05
0.0006447344
6.0824435e-05
0.00060148278
7.4745531e-05
0.00059137168
8.7650311e-05
0.0005895698
9.6745121e-05
0.00058135867
9.8798939e-05
0.00056181623
9.2911657e-05
0.00053256941
8.0255496e-05
0.00049733567
6.2596766e-05
0.0004624607
4.448536e-05
0.00043479099
2.757148e-05
0.00041911046
1.287978e-05
0.00041849495
0.00022761799
-0.019429259
0.011110068
0.00036138508
0.054817178
-0.0020052733
0.048563304
-0.0033633891
-0.019425067
-0.0029026445
-0.077293223
0.0031071403
-0.081353506
0.0088913162
0.0025245829
0.008467813
0.067766344
0.0037395832
0.10674477
-0.010322897
0.028415835
-0.014623919
-0.02810639
-0.0092491408
-0.059203811
-0.0015827927
-0.067051048
0.013323163
-0.019984564
0.01533975
0.015542788
0.0091559505
0.02875214
0.00058880397
0.021806219
-0.0048445088
0.0095667377
-0.0060897085
0.00097667206
-0.0049764875
-0.0037190893
-0.0027333298
-0.0048963095
-0.00047399218
-0.0037783349
0.00098682672
-0.0021771597
0.0014761399
-0.0010068679
0.0013813763
-0.00031103712
0.0011235531
1.4347034e-05
0.00085540976
0.00010322561
0.00067850875
0.00010801066
0.0005975302
9.7299544e-05
0.00057891425
9.4820348e-05
0.0005841759
9.8461643e-05
0.00058782353
0.00010154934
0.00057858583
9.9353139e-05
0.00055537159
9.0669639e-05
0.00052216182
7.5959041e-05
0.00048399123
5.833128e-05
0.00044861306
4.1065421e-05
0.00042132095
2.5755035e-05
0.00040622622
1.2304661e-05
0.00040620863
0.00011690993
0.011220788
-0.00033106297
-0.019398165
0.056384343
-0.0012057861
0.049006273
-0.0024482541
-0.020548464
-0.0022399657
-0.082980259
0.0027844061
-0.086616454
0.0083700879
0.0032233575
0.0081925492
0.072535757
0.0036983895
0.12073063
-0.010246272
0.033213657
-0.015120722
-0.034344406
-0.0083859047
-0.068146602
-0.00030635317
-0.084448992
0.015815157
-0.024998897
0.018337502
0.019553305
0.011329258
0.037616029
0.00029206692
0.028625447
-0.0062303913
0.012453551
-0.0077313409
0.0013442752
-0.006457272
-0.0049661866
-0.0037294214
-0.006820182
-0.00080944866
-0.005472112
0.001219748
-0.0031617422
0.0019713807
-0.001380252
0.0018494962
-0.00034687738
0.0014171917
0.00011194259
0.00102595
0.00023107106
0.00072756192
0.00019928165
0.0005872344
0.00014469937
0.00055013147
0.00011197764
0.00056175288
0.00010104768
0.0005815654
0.0001008817
0.00058846275
0.00010136008
0.00057654883
9.7055752e-05
0.00054897759
8.6602986e-05
0.00051151163
7.124216e-05
0.00047109091
5.4470516e-05
0.00043520051
3.8532575e-05
0.00040856683
2.4530445e-05
0.00039399272
1.2045696e-05
0.00039418507
-0.00031602767
0.056817277
-0.00010850729
0.010998238
-0.00091634415
-0.019296663
0.049263159
-0.0014626829
-0.021421559
-0.0015751408
-0.087611176
0.0023909669
-0.09137187
0.0075398168
0.0041739196
0.0074195346
0.077094969
0.0036333315
0.13443369
-0.010004657
0.038581919
-0.015614525
-0.03561477
-0.013850353
-0.080076625
0.0035441231
-0.10328536
0.018530005
-0.032000506
0.022816778
0.023505339
0.014385468
0.048359779
0.0005855201
0.036871877
-0.0079543608
0.015817864
-0.0095947135
0.0017605428
-0.0081475841
-0.0064794554
-0.0049440126
-0.0093186447
-0.0012309363
-0.00778888
0.0015073069
-0.0045693325
0.0026273203
-0.0019110581
0.002502161
-0.00035878337
0.0018613597
0.00027928416
0.0012498319
0.00044344248
0.00081356085
0.00035618455
0.00057066118
0.00023368122
0.0004982638
0.00014804988
0.00051408455
0.00010811562
0.00055468682
9.7442989e-05
0.00058499986
9.8120509e-05
0.00059167583
9.8380947e-05
0.0005752029
9.3253544e-05
0.00054231845
8.2743858e-05
0.00049999683
6.6957165e-05
0.00045861082
5.1404354e-05
0.00042231259
3.6832716e-05
0.00039628578
2.3907212e-05
0.00038212199
1.216218e-05
0.00038204721
-0.00044449112
0.049391618
0.00050443211
0.056204335
-0.00029288045
0.010374773
-0.0015028556
-0.019037294
-0.021811034
-0.0010731992
-0.091061962
0.0018756589
-0.095386979
0.0064060701
0.0053105841
0.006403164
0.081094526
0.0034199796
0.14771637
-0.0096493301
0.044471051
-0.015893772
-0.037407981
-0.013821315
-0.087594376
-0.0063325922
-0.12025579
0.020514531
-0.037610399
0.024139909
0.029984149
0.016337962
0.061300311
0.0014449513
0.047304566
-0.0098471916
0.019484161
-0.011620665
0.0022112457
-0.010045435
-0.0082743344
-0.0063526969
-0.012471374
-0.0017912738
-0.010884627
0.0018648379
-0.0065434431
0.0034814332
-0.0026584591
0.0033747281
-0.00034393253
0.0024872941
0.00057829997
0.0015623247
0.00075869444
0.00093455383
0.00062003288
0.00054970085
0.00038418182
0.0004201637
0.00021430541
0.00043204226
0.00012481372
0.00049741089
9.2293302e-05
0.00055986521
8.8711553e-05
0.00059441191
9.3081362e-05
0.00059696638
9.4304899e-05
0.00057414618
8.9013386e-05
0.00053604363
7.7265194e-05
0.00048967953
6.3713882e-05
0.0004463054
4.9401948e-05
0.00040971916
3.6008663e-05
0.00038420412
2.4102997e-05
0.00037016812
1.2550188e-05
0.00036952181
-0.00041944305
-0.021836083
0.00068499274
0.049211057
0.0014143704
0.054497079
-0.00054414608
0.0094160575
-0.0020070882
-0.018565119
-0.093231439
0.0010962868
-0.09845835
0.0049470294
0.0065372682
0.0051793983
0.084524438
0.0029732625
0.16011965
-0.0089832822
0.050341372
-0.015519634
-0.038773849
-0.014527915
-0.094925749
-0.0064899356
-0.13918589
0.012597485
-0.03724938
0.020153525
0.038433148
0.015690929
0.075890719
0.0017475661
0.060497019
-0.011747495
0.023552996
-0.013916046
0.0026339666
-0.012043408
-0.01031455
-0.0080052315
-0.016374267
-0.0024498211
-0.014949011
0.00227314
-0.0092463849
0.0045678064
-0.0037038393
0.0045268535
-0.00029287131
0.0033237003
0.0010598368
0.0020057641
0.0012476306
0.0010733892
0.0010262435
0.00052832292
0.00063234746
0.00030152401
0.00033144491
0.00030303496
0.00015897213
0.00039790552
8.7042827e-05
0.00050269794
7.1768139e-05
0.00057684315
7.8781765e-05
0.00060872122
8.7823811e-05
0.00060346471
9.0371788e-05
0.00057278714
8.521301e-05
0.00052810498
7.4428465e-05
0.00047896306
6.1813498e-05
0.00043389692
4.848969e-05
0.00039721056
3.6242584e-05
0.00037208463
2.4693655e-05
0.00035800591
1.3116288e-05
0.00035642954
0.00041680597
-0.094067684
0.000405403
-0.0215565
0.0014286594
0.049196771
0.0021057115
0.051847213
-0.00085959716
0.0082685573
-0.0025031039
-0.017890144
-0.10052973
0.003167676
0.0075855561
0.0038987529
0.087279101
0.0024247487
0.17126209
-0.0081691686
0.055819728
-0.014461622
-0.039974018
-0.014319478
-0.10424737
-0.0052062895
-0.15689748
0.011221636
-0.045335604
0.020683722
0.044687967
0.013898723
0.089938838
0.0016428254
0.075535767
-0.013291164
0.028098718
-0.016293233
0.0029301193
-0.014212192
-0.012558125
-0.0097998661
-0.021069571
-0.0033099408
-0.020155351
0.0027565145
-0.012917947
0.0059447132
-0.0051291661
0.005993167
-0.00018336164
0.0044173888
0.0017833832
0.0026001869
0.0019992989
0.0012541353
0.0016098074
0.00048982726
0.0010268279
0.0001338405
0.00052221839
0.0001107368
0.00022354966
0.0002384529
8.4910553e-05
0.00040004816
4.5518097e-05
0.00052898241
5.2109332e-05
0.00060353579
7.0320529e-05
0.0006262558
8.3728311e-05
0.00061012537
8.7503786e-05
0.00057050235
8.2972109e-05
0.00051958758
7.3094995e-05
0.00046768251
6.1244961e-05
0.00042114821
4.8829039e-05
0.0003845987
3.7113282e-05
0.00035968658
2.5745747e-05
0.00034535136
1.3838918e-05
0.00034261319
0.0011367805
-0.10124969
-0.00056033247
-0.09310195
0.00089833208
-0.021026181
0.002436055
0.048866431
0.0025123768
0.048475228
-0.0011217985
0.0068872425
-0.0028898773
-0.017038072
0.0080440866
0.0027091585
0.089259216
0.0019186461
0.18091284
-0.0072259895
0.060299271
-0.012648698
-0.040926681
-0.013508981
-0.11317754
-0.0053893027
-0.17373485
0.011631063
-0.055839278
0.021725314
0.041778631
0.023593072
0.1012143
0.0026232598
0.091165696
-0.013987103
0.033460196
-0.018652649
0.0029926825
-0.016355803
-0.01494178
-0.011828552
-0.02661806
-0.0042513821
-0.026719874
0.0032545632
-0.017812857
0.0076514233
-0.007064069
0.0078796245