/*--------------------------------*- C++ -*----------------------------------*\
| =========                 |                                                 |
| \\      /  F ield         | OpenFOAM: The Open Source CFD Toolbox           |
|  \\    /   O peration     | Version:  5.0                                   |
|   \\  /    A nd           | Web:      www.OpenFOAM.org                      |
|    \\/     M anipulation  |                                                 |
\*---------------------------------------------------------------------------*/
FoamFile
{
    version     2.0;
    format      ascii;
    class       volVectorField;
    location    "400";
    object      ddtCorrDdt0(U);
}
// * * * * * * * * * * * * * * * * * * * * * * * * * * * * * * * * * * * * * //

dimensions      [0 1 -2 0 0 0 0];

internalField   nonuniform List<vector> 
9520
(
(-0.00029715041 -4.085752e-07 0)
(-0.00029442722 -4.8621565e-07 0)
(-0.00029575703 -2.1182088e-06 0)
(-0.00028945513 -8.2081354e-08 0)
(-0.00029391971 -5.8798317e-06 0)
(-0.00029138763 1.4132839e-07 0)
(-0.00028217876 5.7797584e-07 0)
(-0.00028960665 -8.7921913e-06 0)
(-0.00028981735 -4.6942664e-07 0)
(-0.00029590617 5.656341e-06 0)
(-0.0002729857 1.2804674e-06 0)
(-0.00028287257 -1.1091099e-05 0)
(-0.00028597289 -1.409068e-06 0)
(-0.00029306609 1.5146058e-05 0)
(-0.00030684664 9.9281335e-06 0)
(-0.00026253639 1.6433495e-06 0)
(-0.00027384394 -1.1717302e-05 0)
(-0.00028059267 -2.547642e-06 0)
(-0.00028824092 2.2969349e-05 0)
(-0.00030300184 2.863879e-05 0)
(-0.00032525288 1.0500484e-05 0)
(-0.00025053958 1.624049e-06 0)
(-0.00026306798 -1.1419656e-05 0)
(-0.00027341646 -2.5653249e-06 0)
(-0.0002825527 2.9545719e-05 0)
(-0.00029722942 4.5578624e-05 0)
(-0.00032175211 3.2026011e-05 0)
(-0.00033998825 7.1201647e-06 0)
(-0.00023605838 1.5660068e-06 0)
(-0.00025086745 -1.0481529e-05 0)
(-0.00026405053 -1.5725201e-06 0)
(-0.0002759795 3.516308e-05 0)
(-0.00029033721 6.1076032e-05 0)
(-0.00031641987 5.3050989e-05 0)
(-0.00033759729 2.3088406e-05 0)
(-0.00034712207 2.9198355e-06 0)
(-0.00021685978 2.3260675e-06 0)
(-0.00023737879 -8.4845463e-06 0)
(-0.00025330705 1.9595689e-07 0)
(-0.00026755692 4.074869e-05 0)
(-0.00028284648 7.3926933e-05 0)
(-0.00030903974 7.368062e-05 0)
(-0.00033342762 3.9986192e-05 0)
(-0.00034667133 1.0184655e-05 0)
(-0.00034902191 1.3828069e-06 0)
(-0.00018878091 5.7148011e-06 0)
(-0.00022321731 -4.1659317e-06 0)
(-0.00024282971 2.5447205e-06 0)
(-0.00025760096 4.668393e-05 0)
(-0.00027421725 8.5382162e-05 0)
(-0.00030040538 9.1975948e-05 0)
(-0.00032671155 5.7910309e-05 0)
(-0.00034455458 1.8556039e-05 0)
(-0.00034926511 4.0948906e-06 0)
(-0.00035073961 3.7926444e-06 0)
(-0.00014414746 1.6556258e-05 0)
(-0.00020942376 6.7112635e-06 0)
(-0.00023654199 5.8111365e-06 0)
(-0.00024705431 5.2645841e-05 0)
(-0.0002643421 9.6171252e-05 0)
(-0.00029140836 0.00010879031 0)
(-0.00031842528 7.5883374e-05 0)
(-0.00033927703 2.8215678e-05 0)
(-0.00034803677 7.2073369e-06 0)
(-0.00035072331 9.6642909e-06 0)
(-0.00035759031 8.9441802e-06 0)
(-9.1393479e-05 4.3472778e-05 0)
(-0.00020018015 3.3310977e-05 0)
(-0.00024143858 1.1358152e-05 0)
(-0.00023785861 5.7554816e-05 0)
(-0.00025265657 0.00010652581 0)
(-0.00028172549 0.00012475991 0)
(-0.00031035071 9.3336395e-05 0)
(-0.0003325696 4.0638499e-05 0)
(-0.00034652511 9.9881831e-06 0)
(-0.00034893261 1.4999761e-05 0)
(-0.00035677471 2.4178993e-05 0)
(-0.00037132158 1.4043106e-05 0)
(-4.9165929e-05 8.8146109e-05 0)
(-0.00021062197 7.7953407e-05 0)
(-0.00027282269 2.057259e-05 0)
(-0.00023396345 5.7195583e-05 0)
(-0.00023773621 0.00011527681 0)
(-0.00027026233 0.00014052804 0)
(-0.00030247687 0.00011037594 0)
(-0.000325356 5.3718513e-05 0)
(-0.00034188125 1.5746774e-05 0)
(-0.00034672093 1.9654215e-05 0)
(-0.00035506012 3.7763149e-05 0)
(-0.00036961354 3.9907173e-05 0)
(-0.00039003805 1.6543349e-05 0)
(-7.4720971e-06 0.0001739132 0)
(-0.00028010645 0.00016810324 0)
(-0.00034824561 3.4619381e-05 0)
(-0.00024152732 4.1620251e-05 0)
(-0.00021726139 0.00011822045 0)
(-0.0002531628 0.00015623189 0)
(-0.00029422491 0.0001277112 0)
(-0.00031850892 6.6338578e-05 0)
(-0.00033502736 2.2914954e-05 0)
(-0.00034397182 2.4358448e-05 0)
(-0.0003528533 5.1484699e-05 0)
(-0.00036820518 6.3684336e-05 0)
(-0.00038817003 4.9001174e-05 0)
(-0.00040948136 1.5395427e-05 0)
(3.4380579e-05 0.00027747062 0)
(-0.00035685147 0.00025760298 0)
(-0.00040988481 2.4572045e-05 0)
(-0.00022994181 -4.5167005e-06 0)
(-0.00017434008 0.00010842869 0)
(-0.00022195637 0.00017124969 0)
(-0.00028340485 0.00014754275 0)
(-0.0003135306 7.8251883e-05 0)
(-0.00032714517 2.950285e-05 0)
(-0.00033805065 2.9640102e-05 0)
(-0.00034987493 6.3867522e-05 0)
(-0.00036653658 8.7343939e-05 0)
(-0.00038715835 8.0213175e-05 0)
(-0.00040861196 4.7402713e-05 0)
(-0.00042538406 1.1137367e-05 0)
(0.00010101406 0.00046319138 0)
(-0.00048435169 0.00035787721 0)
(-0.0004222896 -3.53763e-05 0)
(-0.00015223218 -9.3763018e-05 0)
(-8.5787093e-05 8.1554823e-05 0)
(-0.00016585944 0.00018934285 0)
(-0.00026985247 0.00017649418 0)
(-0.00031493036 9.1222916e-05 0)
(-0.00032017028 3.340784e-05 0)
(-0.00032831337 3.461677e-05 0)
(-0.00034425133 7.5766515e-05 0)
(-0.0003636318 0.00011019344 0)
(-0.0003863876 0.000109991 0)
(-0.00040811254 7.994846e-05 0)
(-0.00042642101 3.5851613e-05 0)
(-0.00043505045 5.4132657e-06 0)
(0.00015680884 0.00059444425 0)
(-0.00065913843 0.00041613225 0)
(-0.00047112092 -0.00012915412 0)
(-5.1238929e-05 -0.00022490103 0)
(2.3377262e-05 1.2428865e-05 0)
(-8.6515852e-05 0.00021697119 0)
(-0.00025767434 0.00022672367 0)
(-0.00032801426 0.00011020583 0)
(-0.00031826609 3.2066083e-05 0)
(-0.00031483667 3.7228943e-05 0)
(-0.00033461237 8.81635e-05 0)
(-0.00035895758 0.00013282303 0)
(-0.00038469841 0.00013969336 0)
(-0.00040795421 0.00011126175 0)
(-0.00042748983 6.2700653e-05 0)
(-0.00043811288 1.8933146e-05 0)
(-0.00043817775 3.2774981e-07 0)
(0.00017341502 0.0011699059 0)
(-0.00098746 0.00063225571 0)
(-0.00057621486 -0.00027386014 0)
(5.7193432e-05 -0.00038151082 0)
(8.7707039e-05 -1.8911737e-05 0)
(-4.5695404e-06 0.00028908675 0)
(-0.00025653957 0.00031152405 0)
(-0.00036853884 0.00013778906 0)
(-0.00032705222 2.1195113e-05 0)
(-0.00029748936 3.3769865e-05 0)
(-0.00031983939 0.00010120306 0)
(-0.00035222892 0.00015707842 0)
(-0.00038248315 0.00016992504 0)
(-0.00040834129 0.00014193317 0)
(-0.00042860905 9.171321e-05 0)
(-0.00044242299 3.490306e-05 0)
(-0.00044272214 3.0600479e-06 0)
(-0.00043677419 -2.3459963e-06 0)
(0.0002147218 0.0010439122 0)
(-0.0012617181 0.0004065634 0)
(-0.00071476737 -0.00044428865 0)
(0.00013326294 -0.00058388524 0)
(0.00030225786 -3.0898262e-05 0)
(7.2741247e-05 0.00038134203 0)
(-0.00028312946 0.00046243776 0)
(-0.00045768838 0.00018397855 0)
(-0.00035201563 -6.2999815e-06 0)
(-0.00027580222 1.6915607e-05 0)
(-0.00029741432 0.00011380026 0)
(-0.00034110509 0.00018459061 0)
(-0.00037944999 0.0002023051 0)
(-0.00040948687 0.00017417495 0)
(-0.00043096529 0.00011946292 0)
(-0.00044520091 5.7502396e-05 0)
(-0.00045035378 7.8505144e-06 0)
(-0.00044220051 -6.0477092e-06 0)
(-0.00043407796 -1.9394005e-06 0)
(-1.7080637e-05 0.002135246 0)
(-0.001977804 0.0012075849 0)
(-0.0010236741 -0.00081353452 0)
(0.00031250606 -0.00090716836 0)
(0.00066607341 -8.3414615e-05 0)
(0.00014429246 0.00051375577 0)
(-0.00032562858 0.00067120337 0)
(-0.00060086614 0.00024694049 0)
(-0.00040594098 -5.9810596e-05 0)
(-0.00024947374 -2.3818102e-05 0)
(-0.00026273349 0.00012291284 0)
(-0.00032158423 0.00021690141 0)
(-0.00037466326 0.0002387906 0)
(-0.00041164263 0.00020870588 0)
(-0.00043489277 0.00014971518 0)
(-0.00044947937 8.1631246e-05 0)
(-0.00045771727 1.8152418e-05 0)
(-0.00045104275 -7.6185871e-06 0)
(-0.00044009893 -6.1221666e-06 0)
(-0.00043291811 8.4116171e-07 0)
(-6.0382803e-05 0.0018401013 0)
(-0.0019401672 0.00037674412 0)
(-0.0012350187 -0.0010646745 0)
(0.00055672431 -0.0013190646 0)
(0.0012090439 -0.00017653156 0)
(0.00031652283 0.00077083553 0)
(-0.00043270504 0.00094478455 0)
(-0.00081788854 0.00033878126 0)
(-0.0005032667 -0.00015684462 0)
(-0.00021583845 -0.00010039907 0)
(-0.00020950865 0.00012587553 0)
(-0.00028932652 0.00025589141 0)
(-0.00036647533 0.00028234872 0)
(-0.00041540033 0.00024739815 0)
(-0.00044122254 0.00018185613 0)
(-0.00045634623 0.00010744089 0)
(-0.00046310145 3.7167583e-05 0)
(-0.00046284884 -9.6564779e-06 0)
(-0.00044852541 -7.6938036e-06 0)
(-0.00043936684 8.4186523e-07 0)
(-0.00043466369 4.3924854e-06 0)
(9.9329333e-05 0.0032466042 0)
(-0.0031068797 0.001886147 0)
(-0.0020211252 -0.0018216675 0)
(0.00089926221 -0.0019839081 0)
(0.0019006546 -0.00025888142 0)
(0.00056426414 0.00117127 0)
(-0.00063680987 0.0013067417 0)
(-0.0011220898 0.00045901912 0)
(-0.00068500675 -0.00032057627 0)
(-0.00018876491 -0.00024935262 0)
(-0.00012934685 0.00010932486 0)
(-0.00023424224 0.00030343684 0)
(-0.00035120489 0.00033823904 0)
(-0.0004217443 0.00029333798 0)
(-0.00045142757 0.00021648618 0)
(-0.00046526361 0.00013396587 0)
(-0.00047141326 5.6489068e-05 0)
(-0.00047430693 -3.6722736e-06 0)
(-0.00046095402 -1.2102867e-05 0)
(-0.00044775023 3.1863157e-06 0)
(-0.00044113075 1.0601425e-05 0)
(-0.00043924837 7.1299848e-06 0)
(0.00015914936 0.0029134417 0)
(-0.0030135363 0.00052447541 0)
(-0.0022686975 -0.0020380212 0)
(0.0013421191 -0.0027950143 0)
(0.0029315439 -0.00046834283 0)
(0.00099952377 0.0017786836 0)
(-0.00096324614 0.0018800896 0)
(-0.0016399299 0.00059259644 0)
(-0.00085062893 -0.00058022875 0)
(-4.5896314e-05 -0.00046479301 0)
(-1.3022484e-06 5.9443186e-05 0)
(-0.00013833651 0.00035642182 0)
(-0.00031991408 0.00041291798 0)
(-0.00043159536 0.00035292157 0)
(-0.00046903398 0.00025486195 0)
(-0.00047793642 0.00015982571 0)
(-0.00048047199 7.5440873e-05 0)
(-0.00048287046 6.6781146e-06 0)
(-0.00047490698 -1.2116879e-05 0)
(-0.00046026332 5.6847346e-06 0)
(-0.00045080245 1.7456554e-05 0)
(-0.00044513605 1.9035166e-05 0)
(-0.00044559713 8.1689158e-06 0)
(-0.00069819822 0.0047974543 0)
(-0.0049911617 0.0026247795 0)
(-0.0037623427 -0.0034943381 0)
(0.001939216 -0.0039609789 0)
(0.0041650956 -0.00051606455 0)
(0.0015603828 0.0025173646 0)
(-0.0014089874 0.0026437393 0)
(-0.0024149696 0.00074637119 0)
(-0.0011724083 -0.00095217881 0)
(3.1799884e-05 -0.00085258202 0)
(0.00028159706 -2.3299856e-05 0)
(6.0657813e-05 0.00042507166 0)
(-0.00025654411 0.00051814353 0)
(-0.00044560329 0.00043681948 0)
(-0.00050009616 0.0003004286 0)
(-0.00049841065 0.00018339825 0)
(-0.00049081797 9.0991732e-05 0)
(-0.00049003184 1.7513037e-05 0)
(-0.00048630567 -9.2000056e-06 0)
(-0.00047570767 8.9146959e-06 0)
(-0.00046398114 3.006522e-05 0)
(-0.00045711369 2.9307214e-05 0)
(-0.00045079988 2.3477246e-05 0)
(-0.00045203208 7.3152568e-06 0)
(-0.00066545692 0.0042517286 0)
(-0.0061811106 0.00088706028 0)
(-0.0042447841 -0.0030985022 0)
(0.002562121 -0.0054517456 0)
(0.0061939116 -0.00094726498 0)
(0.0024306229 0.0037798511 0)
(-0.0021009896 0.0038872481 0)
(-0.0035684193 0.00094507721 0)
(-0.0016555873 -0.0015388044 0)
(0.00023676558 -0.0014258243 0)
(0.00077908982 -0.00022227672 0)
(0.00028350235 0.00044083265 0)
(-0.00014187162 0.00067984944 0)
(-0.00046496491 0.00056781302 0)
(-0.00055605779 0.00036020942 0)
(-0.00053426273 0.00020222939 0)
(-0.0005043477 9.9038988e-05 0)
(-0.00049493467 2.4772975e-05 0)
(-0.00049435435 -4.5068696e-06 0)
(-0.00048853537 1.6565129e-05 0)
(-0.00048089842 4.0180821e-05 0)
(-0.00047194955 4.872067e-05 0)
(-0.00046493443 3.6868301e-05 0)
(-0.0004574586 2.2925435e-05 0)
(-0.00045710022 4.7114909e-06 0)
(-0.0010085716 0.0069171996 0)
(-0.0078515456 0.0034051317 0)
(-0.0041986576 -0.0056674211 0)
(0.0037633273 -0.0068491122 0)
(0.0081389794 -0.00088121717 0)
(0.0032617707 0.0048223531 0)
(-0.0029899253 0.0053710199 0)
(-0.0051388013 0.0011725147 0)
(-0.0023611472 -0.002361749 0)
(0.00052070368 -0.0022776506 0)
(0.0014204091 -0.00048947418 0)
(0.00061383696 0.00065421883 0)
(-5.9959065e-06 0.00092648506 0)
(-0.00050247732 0.00077373563 0)
(-0.00065553641 0.00044857993 0)
(-0.00059983655 0.00021311423 0)
(-0.00052503329 9.1790412e-05 0)
(-0.00049634405 2.2962768e-05 0)
(-0.00049658646 -7.8339251e-08 0)
(-0.00049756376 2.8150717e-05 0)
(-0.00049728411 5.5213547e-05 0)
(-0.00048999242 6.6982868e-05 0)
(-0.00048294006 5.6175264e-05 0)
(-0.00047235049 3.9909729e-05 0)
(-0.00046405033 1.7434389e-05 0)
(-0.00046044645 6.4360899e-07 0)
(-0.0021972755 0.00601575 0)
(-0.0066197834 0.00096912495 0)
(-0.0055815818 -0.005591218 0)
(0.0051459333 -0.0088465676 0)
(0.011666445 -0.0016827651 0)
(0.0047077254 0.007423469 0)
(-0.0043506384 0.0078251696 0)
(-0.0073258764 0.0013662706 0)
(-0.0032987142 -0.0035675748 0)
(0.0009099346 -0.0034915081 0)
(0.0023441966 -0.00090478071 0)
(0.0012763057 0.00095669366 0)
(8.6843838e-05 0.0012883043 0)
(-0.00058932943 0.0011316108 0)
(-0.0008388828 0.00058615942 0)
(-0.00071785471 0.00021177871 0)
(-0.00055998177 5.7591003e-05 0)
(-0.00049305857 2.1599678e-06 0)
(-0.00048882717 9.4277063e-07 0)
(-0.00050006951 4.327556e-05 0)
(-0.0005104954 7.6115261e-05 0)
(-0.00051037788 8.8853386e-05 0)
(-0.00050260828 8.1697287e-05 0)
(-0.00049416946 5.5361009e-05 0)
(-0.0004788345 3.5838837e-05 0)
(-0.00046936016 6.9755498e-06 0)
(-0.00046015614 -4.5064187e-06 0)
(-0.0050096932 0.008681795 0)
(-0.014035482 0.0042668501 0)
(-0.0094727698 -0.008856805 0)
(0.0062009117 -0.012073083 0)
(0.013861014 -0.0012029064 0)
(0.0045539366 0.0084271007 0)
(-0.0059326856 0.010224384 0)
(-0.010175378 0.0016795205 0)
(-0.0046133392 -0.0051208694 0)
(0.0014271125 -0.0051911453 0)
(0.0036660801 -0.0015085448 0)
(0.0022698485 0.0013677271 0)
(0.0002464756 0.0018592933 0)
(-0.00076171909 0.0016098522 0)
(-0.0011304571 0.00080443292 0)
(-0.00092862525 0.00018886401 0)
(-0.00062158272 -2.4427386e-05 0)
(-0.0004821317 -5.0978545e-05 0)
(-0.00046450855 -7.0171725e-06 0)
(-0.00049089388 6.1052783e-05 0)
(-0.00051807305 0.00010406505 0)
(-0.000529329 0.00011699835 0)
(-0.00052653761 0.00010923868 0)
(-0.00051737512 8.2126577e-05 0)
(-0.00050247956 4.9888911e-05 0)
(-0.00048556574 1.9838937e-05 0)
(-0.0004716799 -8.7522049e-06 0)
(-0.00045582571 -1.033321e-05 0)
(-0.0057080902 0.0088407732 0)
(-0.016356673 0.001518054 0)
(-0.0067732524 -0.0081100949 0)
(0.0075280467 -0.015584806 0)
(0.019541575 -0.0022259667 0)
(0.0068866932 0.013041145 0)
(-0.0076467244 0.015034103 0)
(-0.013942958 0.0018645329 0)
(-0.0062281226 -0.0072120362 0)
(0.0021276774 -0.0074551317 0)
(0.0054643691 -0.0023924097 0)
(0.0036936941 0.0019266302 0)
(0.00054569272 0.0027863848 0)
(-0.0010610926 0.0022647079 0)
(-0.0015720301 0.0011011076 0)
(-0.0012458513 0.0001259915 0)
(-0.00072939721 -0.00018960522 0)
(-0.00046088144 -0.00016009433 0)
(-0.00041410899 -3.4199008e-05 0)
(-0.00046128944 8.03796e-05 0)
(-0.00051513991 0.00014040896 0)
(-0.00054495577 0.00015406965 0)
(-0.00055139223 0.000142233 0)
(-0.00054391548 0.00011149915 0)
(-0.00053084984 6.9189582e-05 0)
(-0.00050921694 3.2979906e-05 0)
(-0.00049034004 -9.3468354e-06 0)
(-0.00046807492 -2.8014971e-05 0)
(-0.00044733321 -1.6162119e-05 0)
(-0.0076380231 0.010249477 0)
(-0.017675758 0.0026519052 0)
(-0.0028295879 -0.013108184 0)
(0.01264355 -0.019635619 0)
(0.023889525 -0.0011440417 0)
(0.0078115951 0.015171593 0)
(-0.01118534 0.018353497 0)
(-0.018711071 0.0019014937 0)
(-0.0084221298 -0.010009793 0)
(0.0030530614 -0.010582083 0)
(0.0079040517 -0.0035810119 0)
(0.0056608061 0.0026701385 0)
(0.0010414418 0.0041505224 0)
(-0.0015280333 0.0032463815 0)
(-0.0022967268 0.0015015625 0)
(-0.0017053074 1.6666192e-05 0)
(-0.0009065496 -0.00048247916 0)
(-0.00041734761 -0.00035029631 0)
(-0.0003232776 -9.5443183e-05 0)
(-0.00039808791 9.8476028e-05 0)
(-0.00049395906 0.00018814661 0)
(-0.00055364625 0.00020318587 0)
(-0.00057583914 0.000184287 0)
(-0.00057388633 0.00014632017 0)
(-0.00056050706 9.4953033e-05 0)
(-0.00054013779 4.3322619e-05 0)
(-0.00051397763 -1.8485653e-06 0)
(-0.00048908415 -4.3492401e-05 0)
(-0.00046000125 -4.630405e-05 0)
(-0.00043561179 -2.1073008e-05 0)
(-0.0085399798 0.011245668 2.0121249e-23)
(-0.018045451 0.00038847734 0)
(-0.00057310421 -0.014488916 0)
(0.020301454 -0.022775124 0)
(0.028490851 -0.0028710042 0)
(0.0071826584 0.020772184 0)
(-0.013851623 0.024125493 0)
(-0.02441994 0.0013683281 0)
(-0.010633871 -0.013015573 0)
(0.0043290073 -0.01457653 0)
(0.011148448 -0.0052295808 0)
(0.008368198 0.0036336697 0)
(0.001787961 0.006091255 0)
(-0.0022082635 0.0046566185 0)
(-0.0034160578 0.002053803 0)
(-0.0024627966 -0.00017884954 0)
(-0.0011479673 -0.00092770801 0)
(-0.00035519937 -0.0006789776 0)
(-0.00016921792 -0.00021577749 0)
(-0.00028012665 0.00011100425 0)
(-0.00044151082 0.0002521807 0)
(-0.00055060122 0.00027037529 0)
(-0.000598259 0.00023922635 0)
(-0.00060625143 0.00018930313 0)
(-0.00059566185 0.0001283902 0)
(-0.00057560238 6.4688603e-05 0)
(-0.0005458885 6.5697722e-06 0)
(-0.00051512827 -4.4555314e-05 0)
(-0.0004834642 -7.1645949e-05 0)
(-0.00044912136 -6.0598341e-05 0)
(-0.00042177646 -2.4542945e-05 0)
(-0.0095067881 0.012319019 -4.4953438e-23)
(-0.01894096 -0.00014880431 -2.0988854e-23)
(0.0019667603 -0.019485653 0)
(0.024040775 -0.027149505 0)
(0.031840831 0.00093545597 0)
(0.0060691446 0.021910609 0)
(-0.010280996 0.029989178 0)
(-0.03085426 0.0017590693 0)
(-0.012775838 -0.017105975 0)
(0.006242528 -0.019927875 0)
(0.01538955 -0.0072098381 0)
(0.011909122 0.0048551339 0)
(0.0028668616 0.0087335862 0)
(-0.0031606209 0.0067555972 0)
(-0.0050807041 0.002818244 0)
(-0.0036274998 -0.0005216614 0)
(-0.0014951565 -0.0016055532 0)
(-0.00026126938 -0.0012178323 0)
(9.2079374e-05 -0.00042200785 0)
(-7.3507213e-05 0.00011237391 0)
(-0.0003369074 0.00034002931 0)
(-0.00052672617 0.0003657134 0)
(-0.00061742813 0.00031498035 0)
(-0.00064228577 0.00024468188 0)
(-0.0006359349 0.00017048869 0)
(-0.00061662484 9.4115512e-05 0)
(-0.00058588152 2.0410556e-05 0)
(-0.00054921849 -4.2033873e-05 0)
(-0.00051419994 -8.7968489e-05 0)
(-0.00047405554 -9.3773415e-05 0)
(-0.00043603979 -7.0833451e-05 0)
(-0.00040679413 -2.654501e-05 0)
(-0.0099469374 0.01334553 4.5132911e-23)
(-0.019215358 -0.0021254308 4.5652234e-23)
(0.002604954 -0.022553048 0)
(0.027800303 -0.028663475 0)
(0.031228762 0.0002679596 0)
(0.0045646838 0.0289542 0)
(-0.011399724 0.039628727 0)
(-0.039726532 0.0020552086 0)
(-0.016994916 -0.021795802 0)
(0.0088346591 -0.026469846 0)
(0.020891374 -0.0098591745 0)
(0.016575393 0.0064054823 0)
(0.0043085563 0.012309029 0)
(-0.0044654429 0.0096064005 0)
(-0.0074500232 0.0038972981 0)
(-0.0053527553 -0.0010516939 0)
(-0.002025134 -0.0026587698 0)
(-8.145137e-05 -0.0020230796 0)
(0.00049801032 -0.00077233876 0)
(0.00027333914 9.3880156e-05 0)
(-0.00014543212 0.00046593697 0)
(-0.00047113184 0.00050756378 0)
(-0.00063353527 0.00042216433 0)
(-0.00068499406 0.00031988749 0)
(-0.00068413958 0.00022413625 0)
(-0.00066357033 0.00013055559 0)
(-0.00063111074 4.0473391e-05 0)
(-0.00059120173 -3.6224001e-05 0)
(-0.0005504774 -9.4426169e-05 0)
(-0.00050689988 -0.0001227116 0)
(-0.00046176538 -0.00011140053 0)
(-0.0004216428 -7.7202959e-05 0)
(-0.00039171597 -2.7220998e-05 0)
(-0.0099004596 0.014296233 0)
(-0.018864731 -0.0033412068 -4.5721752e-23)
(0.0027901793 -0.026692764 0)
(0.030458948 -0.032512631 0)
(0.030415156 0.0061109513 0)
(0.00076337165 0.035657682 0)
(-0.03089677 0.044455988 0)
(-0.051970935 0.0036314337 0)
(-0.02778566 -0.029151756 0)
(0.011350949 -0.034290623 0)
(0.02767547 -0.012490065 0)
(0.022166271 0.0082805944 0)
(0.006285495 0.016928171 0)
(-0.0062103175 0.013701135 0)
(-0.010762056 0.0053290326 0)
(-0.0077951654 -0.0018692903 0)
(-0.002809127 -0.0042221708 0)
(0.00021679038 -0.0032138695 0)
(0.0011197587 -0.0013205231 0)
(0.00081649305 7.6115214e-05 0)
(0.00013127567 0.00064111371 0)
(-0.00038451101 0.00071672534 0)
(-0.00065172219 0.00058763296 0)
(-0.00074311282 0.00042974228 0)
(-0.0007472593 0.00029359134 0)
(-0.00071995224 0.00017453103 0)
(-0.0006819491 6.6788639e-05 0)
(-0.00063981413 -2.4869456e-05 0)
(-0.00059397185 -9.5483162e-05 0)
(-0.00054629109 -0.00014026727 0)
(-0.00049680247 -0.00014870919 0)
(-0.0004479092 -0.000122537 0)
(-0.00040701253 -7.9812368e-05 0)
(-0.00037676667 -2.6821539e-05 0)
(-0.0093942682 0.015091333 -1.0707625e-23)
(-0.018022977 -0.0047992104 0)
(0.0028279385 -0.030845804 2.1048404e-23)
(0.031624304 -0.034993133 0)
(0.031229114 0.0077027809 0)
(-0.003516378 0.04078222 0)
(-0.040579655 0.052557375 0)
(-0.055891107 0.0048583218 0)
(-0.033993235 -0.034462691 0)
(0.014054946 -0.044204336 0)
(0.035817341 -0.016081939 0)
(0.028996119 0.010741008 0)
(0.0086274497 0.022642783 0)
(-0.0085670749 0.018968871 0)
(-0.015278678 0.0073325669 0)
(-0.011230416 -0.0030077152 0)
(-0.003917757 -0.0064989237 0)
(0.00067839025 -0.0049361421 0)
(0.0020627388 -0.0021257052 0)
(0.0016413838 8.321707e-06 0)
(0.00061043641 0.00095783221 0)
(-0.00028156598 0.0010731136 0)
(-0.00068045647 0.00085120184 0)
(-0.00082952425 0.00059179719 0)
(-0.00083670729 0.00038542002 0)
(-0.00079508849 0.00022692864 0)
(-0.00074358552 9.6260073e-05 0)
(-0.00069287914 -8.9437365e-06 0)
(-0.0006445593 -9.1628507e-05 0)
(-0.00059362248 -0.00014963018 0)
(-0.00053894218 -0.00017512024 0)
(-0.00048377482 -0.00016604732 0)
(-0.00043302025 -0.00012747531 0)
(-0.00039191978 -7.961218e-05 0)
(-0.00036276137 -2.5669939e-05 0)
(-0.0083403005 0.015766088 4.5723549e-23)
(-0.016253566 -0.0061295102 1.1195293e-22)
(0.0030927704 -0.035526365 -2.1021909e-23)
(0.031928642 -0.038292626 -3.0122048e-23)
(0.031780754 0.0098817527 -1.3302998e-22)
(-0.0045509474 0.048652761 0)
(-0.044980221 0.057751 0)
(-0.053229996 0.0055475382 0)
(-0.027834279 -0.043930999 0)
(0.017969651 -0.057381932 0)
(0.045284693 -0.018739328 0)
(0.036609307 0.013563341 0)
(0.011322022 0.02986879 0)
(-0.011763694 0.026266799 0)
(-0.021321165 0.0097531619 0)
(-0.015813397 -0.0046465739 0)
(-0.0054216015 -0.0096581362 0)
(0.0013335036 -0.0073964711 0)
(0.0034522862 -0.0032716295 0)
(0.002874594 -0.00010727392 0)
(0.0013642106 0.0013866006 0)
(-4.6567248e-05 0.001564491 0)
(-0.00065836034 0.0012378914 0)
(-0.00095476046 0.00082682906 0)
(-0.00097011107 0.00050614548 0)
(-0.0008991709 0.00028765834 0)
(-0.00082140238 0.00012729946 0)
(-0.00075609754 7.6603625e-06 0)
(-0.00069964563 -8.4490438e-05 0)
(-0.00064379039 -0.00015307226 0)
(-0.00058887805 -0.0001918353 0)
(-0.00052926493 -0.00019793744 0)
(-0.00046961086 -0.00017482728 0)
(-0.00041709676 -0.00012982985 0)
(-0.00037750597 -7.7630231e-05 0)
(-0.00034980725 -2.4157449e-05 0)
(-0.0068971874 0.016287172 -4.8153456e-23)
(-0.013795387 -0.0073302117 -1.5812966e-22)
(0.0031562963 -0.039806287 0)
(0.030297199 -0.040687559 2.1361525e-22)
(0.030926202 0.012794022 1.3237336e-22)
(-0.0050956372 0.05490646 2.3597582e-23)
(-0.049824362 0.063763112 7.0416693e-24)
(-0.055524073 -0.0011999634 0)
(-0.022701018 -0.05232048 0)
(0.024316121 -0.071495405 0)
(0.057279844 -0.024112146 0)
(0.046405143 0.01752539 0)
(0.014058498 0.03849825 0)
(-0.01631303 0.035280799 0)
(-0.02944822 0.013112611 0)
(-0.021960756 -0.0068183329 0)
(-0.0073817874 -0.01402772 0)
(0.0023065892 -0.010773201 0)
(0.0054135982 -0.0048508344 0)
(0.0046560154 -0.00029475871 0)
(0.0024707386 0.0020049257 0)
(0.00038330149 0.0023322836 0)
(-0.0007142125 0.001725608 0)
(-0.0011186346 0.0011708587 0)
(-0.0011727192 0.00067039141 0)
(-0.0010527342 0.00035323078 0)
(-0.00092624935 0.00015330704 0)
(-0.00082949274 1.9366683e-05 0)
(-0.00076042694 -7.8364704e-05 0)
(-0.00070123867 -0.00015345972 0)
(-0.00064104062 -0.00020215352 0)
(-0.00058084744 -0.00022080096 0)
(-0.00051778821 -0.00021120299 0)
(-0.00045673195 -0.00017493452 0)
(-0.00040363785 -0.00012772049 0)
(-0.00036398887 -7.4355934e-05 0)
(-0.00033793686 -2.2645231e-05 0)
(-0.0054375002 0.016608729 1.2087429e-23)
(-0.010748248 -0.008325503 3.6965924e-23)
(0.0028806922 -0.043729496 1.2802798e-23)
(0.027601911 -0.043070004 -9.4899596e-23)
(0.029851232 0.014877932 -1.8997244e-22)
(-0.0059033393 0.062397653 2.6833411e-23)
(-0.050510448 0.071413305 -4.2473672e-22)
(-0.055729525 -0.00097151798 9.6113052e-23)
(-0.017973332 -0.061012056 0)
(0.030793617 -0.088181363 0)
(0.069204619 -0.027211165 0)
(0.05914082 0.019793038 0)
(0.019868113 0.048512752 0)
(-0.021743723 0.047518668 0)
(-0.040244642 0.016558075 0)
(-0.029630988 -0.0097710444 0)
(-0.0098926775 -0.019803526 0)
(0.0036832157 -0.015356527 0)
(0.0081217685 -0.0069766653 0)
(0.0071476703 -0.00055614017 0)
(0.0041111373 0.002838359 0)
(0.0010301959 0.0035133171 0)
(-0.00081070441 0.0025585305 0)
(-0.0013916054 0.0016829126 0)
(-0.0014765075 0.00089803292 0)
(-0.0012829873 0.00042661261 0)
(-0.0010747467 0.0001629287 0)
(-0.00092173517 1.4597518e-05 0)
(-0.00082541848 -8.0345019e-05 0)
(-0.00075890325 -0.0001551749 0)
(-0.00069943507 -0.00020963394 0)
(-0.00063725518 -0.00023718009 0)
(-0.00057140812 -0.00023886241 0)
(-0.00050527786 -0.00021606306 0)
(-0.00044221076 -0.00017195635 0)
(-0.000389918 -0.00012248248 0)
(-0.00035134429 -7.0597335e-05 0)
(-0.00032712719 -2.1431488e-05 0)
(-0.0033887144 0.016732455 -2.4065423e-24)
(-0.007501042 -0.0092169962 -6.594418e-24)
(0.0026969271 -0.047104226 0)
(0.023639345 -0.045112412 5.6757801e-26)
(0.027567219 0.017008772 -8.1672324e-23)
(-0.0054466146 0.06950802 0)
(-0.049762019 0.077085154 -6.2070506e-23)
(-0.055507126 -0.0016545043 6.4305411e-23)
(-0.017389813 -0.068908147 0)
(0.039272193 -0.09774406 0)
(0.080376614 -0.032292969 0)
(0.073630179 0.026031596 0)
(0.030017581 0.060597416 0)
(-0.025209026 0.061064458 0)
(-0.052113554 0.020997174 0)
(-0.038893599 -0.013912608 0)
(-0.012746971 -0.027432347 0)
(0.0056551576 -0.021318237 0)
(0.011745874 -0.0097814335 0)
(0.010520266 -0.00090113309 0)
(0.0063710555 0.0039588394 0)
(0.0019790011 0.0051241358 0)
(-0.00087771708 0.0038446047 0)
(-0.0018734275 0.0023818468 0)
(-0.0019294767 0.0012624446 0)
(-0.0016484104 0.00049339502 0)
(-0.0012895933 0.00013918151 0)
(-0.001041693 -2.4801933e-05 0)
(-0.00089620437 -0.00010498454 0)
(-0.00081401195 -0.000164354 0)
(-0.00075474947 -0.00021505213 0)
(-0.00069614188 -0.00024880972 0)
(-0.00063093323 -0.00025924125 0)
(-0.00056139316 -0.0002476748 0)
(-0.00049263939 -0.00021484564 0)
(-0.00042891402 -0.00016689648 0)
(-0.00037728263 -0.00011628034 0)
(-0.00034007845 -6.6950328e-05 0)
(-0.00031725973 -2.074292e-05 0)
(-0.0007865736 0.016801051 0)
(-0.0038237966 -0.0097584189 0)
(0.0023704221 -0.049947643 6.8219675e-24)
(0.020325234 -0.04657276 0)
(0.024344077 0.018781662 -7.5889354e-24)
(-0.0050553305 0.076534564 7.8795352e-24)
(-0.04812261 0.083839452 -1.8290948e-22)
(-0.052937668 -0.0024569936 -5.4076246e-22)
(-0.017488541 -0.073956767 0)
(0.042586662 -0.11842925 0)
(0.087932339 -0.033192256 0)
(0.07666012 0.029061717 0)
(0.022078602 0.070939833 0)
(-0.026822692 0.078436369 0)
(-0.063053872 0.024450996 0)
(-0.049303895 -0.019373977 0)
(-0.015670465 -0.037024426 0)
(0.0084578049 -0.028988934 0)
(0.016529801 -0.013239369 0)
(0.014984163 -0.0013711602 0)
(0.009470275 0.0054666966 0)
(0.0033262065 0.0072839068 0)
(-0.00097161027 0.0057091481 0)
(-0.0025945668 0.0034303644 0)
(-0.0026746177 0.0017156326 0)
(-0.0021705591 0.00060153169 0)
(-0.0016188844 6.0091432e-05 0)
(-0.0012057358 -0.0001307155 0)
(-0.000973506 -0.00017600949 0)
(-0.00086167538 -0.00019610828 0)
(-0.00080165244 -0.00022462598 0)
(-0.00075119611 -0.0002544633 0)
(-0.00069241716 -0.0002725843 0)
(-0.0006238931 -0.00027078885 0)
(-0.00055092706 -0.00024956848 0)
(-0.00047916519 -0.00020922089 0)
(-0.00041597134 -0.00016073979 0)
(-0.00036562429 -0.00011056956 0)
(-0.00032953509 -6.4429014e-05 0)
(-0.00030789636 -2.0748313e-05 0)
(-0.00066935032 -0.010013568 1.5071804e-25)
(0.0013532406 0.016804899 0)
(0.00078346463 -0.05199602 5.6882579e-24)
(0.016250543 -0.047170939 4.7911794e-24)
(0.018284983 0.020064577 1.0131069e-22)
(-0.0041216394 0.083041312 -6.984738e-24)
(-0.045338138 0.089709859 -3.0178866e-23)
(-0.050588959 -0.0028423018 -1.5928131e-22)
(-0.016858457 -0.080072752 8.1376816e-22)
(0.040998613 -0.13410747 0)
(0.093629584 -0.036053558 -5.1366723e-22)
(0.078190001 0.041835007 0)
(0.016103889 0.082867425 0)
(-0.020002024 0.10111759 0)
(-0.077693476 0.031155531 0)
(-0.063835818 -0.025454025 0)
(-0.018923664 -0.048807234 0)
(0.012352655 -0.038506317 0)
(0.022684042 -0.017630645 0)
(0.020724332 -0.0018971144 0)
(0.013620942 0.0073798972 0)
(0.0052293143 0.010279902 0)
(-0.0010008811 0.0083470356 0)
(-0.003639018 0.0049761801 0)
(-0.003829365 0.0023343604 0)
(-0.002974026 0.0007036509 0)
(-0.0021221109 -0.00011268649 0)
(-0.0014368635 -0.00032294064 0)
(-0.0010616469 -0.00032197658 0)
(-0.0008944251 -0.00027213753 0)
(-0.00083007931 -0.00025050052 0)
(-0.00079408681 -0.00025815514 0)
(-0.00075019423 -0.00027558648 0)
(-0.0006894879 -0.00028423677 0)
(-0.00061679905 -0.00027457397 0)
(-0.00053992083 -0.00024636662 0)
(-0.00046633383 -0.00020270486 0)
(-0.00040354125 -0.00015455767 0)
(-0.00035419455 -0.00010756873 0)
(-0.00031937653 -6.3671312e-05 0)
(-0.00029890054 -2.1429715e-05 0)
(-0.00022155156 -0.052858949 -5.2267363e-24)
(0.0026153048 -0.0099465215 0)
(0.0037817527 0.016792734 -3.651212e-24)
(0.0095474971 -0.047482262 -4.787429e-24)
(0.012848356 0.02108536 -2.8869044e-23)
(-0.0033240826 0.088600191 8.4816578e-23)
(-0.041117512 0.095670531 -1.6118673e-24)
(-0.045661364 -0.0037180973 2.9414812e-22)
(-0.015999157 -0.085832961 5.5564299e-22)
(0.038970908 -0.15091107 -2.2024942e-22)
(0.094260439 -0.044158117 -4.7167595e-22)
(0.07432938 0.044767549 5.3638988e-22)
(0.0112887 0.093372948 0)
(-0.027022512 0.12822866 0)
(-0.11053315 0.039351545 0)
(-0.085236252 -0.029940568 0)
(-0.026651813 -0.063724316 0)
(0.018042174 -0.050418236 0)
(0.030427061 -0.022500388 0)
(0.027906337 -0.0026437051 0)
(0.019007415 0.0097993716 0)
(0.0078268022 0.014194822 0)
(-0.00097441743 0.012000519 0)
(-0.0051010279 0.0072482908 0)
(-0.0055329277 0.0032139296 0)
(-0.004261624 0.00075480374 0)
(-0.0028076859 -0.00035334156 0)
(-0.0018018784 -0.00070500652 0)
(-0.0011678248 -0.00059918155 0)
(-0.00090243744 -0.00042257868 0)
(-0.00082521429 -0.00030956854 0)
(-0.00081099086 -0.00026773987 0)