/*--------------------------------*- C++ -*----------------------------------*\
| =========                 |                                                 |
| \\      /  F ield         | OpenFOAM: The Open Source CFD Toolbox           |
|  \\    /   O peration     | Version:  5.0                                   |
|   \\  /    A nd           | Web:      www.OpenFOAM.org                      |
|    \\/     M anipulation  |                                                 |
\*---------------------------------------------------------------------------*/
FoamFile
{
    version     2.0;
    format      ascii;
    class       volScalarField;
    location    "400";
    object      nut;
}
// * * * * * * * * * * * * * * * * * * * * * * * * * * * * * * * * * * * * * //

dimensions      [0 2 -1 0 0 0 0];

internalField   nonuniform List<scalar> 
9520
(
1.5252175e-117
1.9368819e-109
1.3409298e-117
1.4098489e-102
1.7052472e-109
1.1723163e-117
1.8303478e-96
1.2420667e-102
1.4918221e-109
1.0248027e-117
6.8059311e-91
1.6132119e-96
1.0868514e-102
1.3052461e-109
9.0512366e-118
9.4584748e-86
5.9998869e-91
1.4121317e-96
9.5159612e-103
1.1558813e-109
8.1490771e-118
5.8636742e-81
8.3374491e-86
5.2547798e-91
1.2377076e-96
8.4474529e-103
1.0460691e-109
7.498165e-118
1.8269959e-76
5.1680054e-81
7.3049483e-86
4.6122525e-91
1.101484e-96
7.6783799e-103
9.6825834e-110
7.0024346e-118
3.0825223e-72
1.6109941e-76
4.5301322e-81
6.4211112e-86
4.1151757e-91
1.0049373e-96
7.1372251e-103
9.0683035e-110
6.5279289e-118
2.983786e-68
2.7213987e-72
1.4137887e-76
3.9885226e-81
5.7430969e-86
3.7659393e-91
9.3663376e-97
6.6868368e-103
8.4210642e-110
5.9467691e-118
1.7483082e-64
2.6394444e-68
2.3929408e-72
1.2475807e-76
3.5761987e-81
5.2680617e-86
3.5141733e-91
8.7613373e-97
6.1697788e-103
7.5860704e-110
5.2045655e-118
6.9423987e-61
1.5478461e-64
2.3275547e-68
2.1171951e-72
1.1218288e-76
3.286731e-81
4.9146605e-86
3.2760842e-91
8.0192843e-97
5.4875022e-103
6.5423728e-110
4.3679301e-118
3.528549e-57
6.0301687e-61
1.3687999e-64
2.0647164e-68
1.9090564e-72
1.0331301e-76
3.0622952e-81
4.5581361e-86
2.9710879e-91
7.0387334e-97
4.6648795e-103
5.4324572e-110
3.5928196e-118
2.3531608e-52
2.6252188e-57
5.2755701e-61
1.2152173e-64
1.8653316e-68
1.7614451e-72
9.6117249e-77
2.821566e-81
4.090527e-86
2.5740246e-91
5.9054068e-97
3.8420496e-103
4.4791609e-110
3.0336121e-118
2.9810731e-46
1.2537004e-52
2.0435229e-57
4.6155723e-61
1.0968152e-64
1.723623e-68
1.636646e-72
8.7949033e-77
2.5027055e-81
3.4982718e-86
2.135475e-91
4.8391574e-97
3.1878315e-103
3.8631855e-110
2.7812532e-118
4.8717759e-40
1.6710885e-46
6.9463376e-53
1.5573655e-57
4.1028016e-61
1.013797e-64
1.6005885e-68
1.4877308e-72
7.7084351e-77
2.1127704e-81
2.8753349e-86
1.7468854e-91
4.0560969e-97
2.8166276e-103
3.6738872e-110
2.8694871e-118
3.7226527e-34
3.4641123e-40
8.5300469e-47
2.9558908e-53
1.206557e-57
3.7644615e-61
9.4217082e-65
1.4470369e-68
1.2889643e-72
6.4267793e-77
1.7234509e-81
2.3555983e-86
1.4840189e-91
3.6789451e-97
2.7751248e-103
3.9352535e-110
3.2929408e-118
1.0606787e-28
3.3140211e-34
1.9597239e-40
2.3273707e-47
1.0746344e-53
1.0133198e-57
3.4984639e-61
8.4885417e-65
1.2400352e-68
1.0620946e-72
5.2127446e-77
1.4184895e-81
2.0336019e-86
1.3825745e-91
3.7458817e-97
3.0656403e-103
4.6098859e-110
3.9672009e-118
1.0163324e-23
1.1247727e-28
2.0603678e-34
4.9676048e-41
3.5592697e-48
4.9359716e-54
9.0811882e-58
3.1461437e-61
7.1994415e-65
1.0100419e-68
8.5800279e-73
4.3230301e-77
1.2477874e-81
1.9448322e-86
1.4486198e-91
4.2361944e-97
3.6291997e-103
5.517302e-110
4.6471483e-118
2.9791772e-19
1.2228178e-23
7.5119071e-29
5.1439042e-35
6.2203255e-42
6.5933734e-49
3.3257258e-54
8.046541e-58
2.6392671e-61
5.7914354e-65
8.1337086e-69
7.1859324e-73
3.8833434e-77
1.2243572e-81
2.0857573e-86
1.6632709e-91
5.0206121e-97
4.2722208e-103
6.2503484e-110
4.9435976e-118
2.4581647e-15
3.83205e-19
8.551375e-24
1.8719527e-29
6.433862e-36
1.1067757e-42
3.1104064e-49
2.6870944e-54
6.5927143e-58
2.0894946e-61
4.6458691e-65
6.8900425e-69
6.5978362e-73
3.9063249e-77
1.3374844e-81
2.4107493e-86
1.955729e-91
5.7659699e-97
4.6455342e-103
6.3014756e-110
4.5568393e-118
5.1957046e-12
3.2041579e-15
2.7985765e-19
2.1826332e-24
2.4923541e-30
1.5621439e-36
7.7261681e-43
2.6725218e-49
1.9383436e-54
5.0364122e-58
1.664121e-61
3.9824997e-65
6.4694189e-69
6.7883143e-73
4.327529e-77
1.5441838e-81
2.7884384e-86
2.1764734e-91
5.9861361e-97
4.4202036e-103
5.4405922e-110
3.5561347e-118
2.7334025e-09
6.5430637e-12
2.3869343e-15
7.8236023e-20
3.3575908e-25
8.9108741e-31
1.914454e-36
1.0133471e-42
1.470588e-49
1.1634186e-54
3.9103244e-58
1.4419397e-61
3.8253084e-65
6.7930641e-69
7.5865165e-73
4.9595349e-77
1.7431664e-81
2.9889224e-86
2.1502966e-91
5.3639253e-97
3.5732128e-103
3.9678548e-110
2.3544372e-118
3.5683201e-07
3.3035535e-09
5.0144118e-12
7.5115009e-16
1.6114213e-20
1.7811909e-25
1.7521246e-30
3.5254329e-36
5.6743916e-43
3.1264217e-50
7.2071085e-55
3.393093e-58
1.417185e-61
4.0932444e-65
7.6231638e-69
8.5781359e-73
5.4311441e-77
1.7887034e-81
2.803272e-86
1.8152082e-91
4.0656288e-97
2.4459327e-103
2.4804356e-110
1.3692792e-118
1.0813133e-05
4.1311262e-07
2.5790083e-09
1.8363289e-12
2.1102742e-16
1.1526142e-20
4.7344414e-25
3.9817102e-30
2.1163462e-36
6.4185352e-44
4.43724e-51
5.6214639e-55
3.4065158e-58
1.5451313e-61
4.5967045e-65
8.4588482e-69
9.0688514e-73
5.3112981e-77
1.5872643e-81
2.2328891e-86
1.2957363e-91
2.6290701e-97
1.4601481e-103
1.4033892e-110
7.6014051e-119
6.220362e-05
1.1931735e-05
3.30514e-07
1.0921081e-09
6.8158504e-13
1.9189463e-16
3.3206932e-20
1.1835229e-24
2.4623118e-30
2.0699082e-37
1.8287129e-45
1.1700546e-51
5.5640688e-55
3.7900714e-58
1.7337544e-61
4.9836552e-65
8.5956815e-69
8.4313979e-73
4.4498268e-77
1.1934407e-81
1.5108598e-86
7.9952347e-92
1.5207939e-97
8.2143332e-104
8.0345467e-111
4.6563221e-119
0.00012990144
6.5229488e-05
1.0131801e-05
1.6350415e-07
5.1755069e-10
7.3251252e-13
5.4379524e-16
8.3445569e-20
7.328704e-25
2.2493505e-31
3.832443e-39
3.9429962e-47
7.5329887e-52
6.2805167e-55
4.2530398e-58
1.8309098e-61
4.8476808e-65
7.5803833e-69
6.6731893e-73
3.1620214e-77
7.6997374e-82
9.015689e-87
4.5649742e-92
8.7299937e-98
5.0132635e-104
5.5174998e-111
3.7680299e-119
0.00018841318
0.00013374391
6.035521e-05
6.1381528e-06
9.4753709e-08
6.2747916e-10
1.9654064e-12
1.2980141e-15
5.1057073e-20
6.565444e-26
3.5928924e-33
3.0858748e-41
3.1452187e-48
7.7339473e-52
7.0552459e-55
4.3669831e-58
1.6979694e-61
4.0448644e-65
5.673436e-69
4.5028046e-73
1.9578779e-77
4.5070885e-82
5.1965984e-87
2.7499277e-92
5.8731664e-98
3.9844411e-104
5.3671786e-111
4.5142103e-119
0.00023422632
0.00019149347
0.00012726953
4.6703011e-05
4.2435042e-06
1.2375895e-07
1.5655668e-09
4.3158849e-12
7.8177825e-16
4.72992e-21
1.0887392e-27
2.4788394e-35
5.3155369e-43
1.5300848e-48
8.5566539e-52
7.036063e-55
3.844596e-58
1.3361222e-61
2.864925e-65
3.6563305e-69
2.7045943e-73
1.1407879e-77
2.6879747e-82
3.3812477e-87
2.0971106e-92
5.5174347e-98
4.6773253e-104
7.7277489e-111
7.647687e-119
0.00027178189
0.0002365901
0.00018295753
0.00010962924
3.8442092e-05
5.5758118e-06
2.8203885e-07
3.0779705e-09
2.5677233e-12
7.8639836e-17
9.6883967e-23
1.1134689e-29
6.0449669e-37
1.6118904e-43
1.6351491e-48
8.2331493e-52
5.8502407e-55
2.8404263e-58
8.9561339e-62
1.7745205e-65
2.1575187e-69
1.5975928e-73
7.2028326e-78
1.9442011e-82
2.9792247e-87
2.3393669e-92
7.7106082e-98
7.8350194e-104
1.4668939e-110
1.5582521e-118
0.00030354886
0.00027317637
0.00022660059
0.00016383391
9.8508007e-05
4.5796223e-05
1.0576771e-05
4.8887983e-07
1.814689e-09
2.9178176e-13
2.1449227e-18
1.6091564e-24
5.6497568e-31
5.6121967e-37
3.1432543e-43
1.4869613e-48
6.3416715e-52
4.031334e-55
1.80034e-58
5.3648575e-62
1.0429683e-65
1.3179141e-69
1.0918379e-73
5.9132684e-78
2.0043844e-82
3.9012334e-87
3.7815377e-92
1.4442004e-97
1.5937512e-103
3.0767927e-110
3.2454568e-118
0.00033018209
0.00030345972
0.00026194067
0.00020652562
0.00015291077
0.00010932076
6.4533154e-05
1.5172631e-05
2.9089083e-07
2.4070622e-10
1.1034027e-14
6.0882406e-20
1.8401573e-25
1.2879237e-30
2.158353e-36
3.1670227e-43
8.1871706e-49
3.9877476e-52
2.4087436e-55
1.0496514e-58
3.1861631e-62
6.7207383e-66
9.9423297e-70
1.0284438e-73
7.1305509e-78
3.0257335e-82
7.026532e-87
7.5980313e-92
3.0277051e-97
3.324721e-103
6.1993778e-110
6.206337e-118
0.00035098034
0.00032834049
0.00029131232
0.00024124526
0.00019627136
0.00016590594
0.00013343358
7.5834718e-05
1.0039227e-05
4.7013207e-08
1.3021464e-11
5.6276901e-16
1.5724664e-20
7.1918111e-25
6.5491851e-30
2.5330703e-36
5.8310986e-44
3.4232725e-49
2.221338e-52
1.3744221e-55
6.3930058e-59
2.2070922e-62
5.6813646e-66
1.0769189e-69
1.4285306e-73
1.2114624e-77
5.8618237e-82
1.45709e-86
1.5892801e-91
6.1222661e-97
6.3492962e-103
1.1056147e-109
1.0295453e-117
0.00036627623
0.00034758413
0.00031512298
0.00027083095
0.000231386
0.00021058215
0.00019258558
0.0001462572
6.0856258e-05
2.3350327e-06
3.7484541e-09
1.2407589e-12
3.048711e-16
8.153314e-20
4.0585947e-24
8.2104898e-30
3.4678464e-37
2.6299783e-45
1.5177283e-49
1.2441176e-52
8.7100334e-56
4.8401414e-59
2.1107829e-62
7.0366129e-66
1.68495e-69
2.6447436e-73
2.4538936e-77
1.2158996e-81
2.962062e-86
3.0562465e-91
1.0927181e-96
1.0446082e-102
1.6762476e-109
1.4432314e-117
0.00037683259
0.00036155231
0.00033370726
0.00029518793
0.00026153093
0.00024590214
0.00023770176
0.000204787
0.00012683578
2.6512448e-05
2.9250121e-07
6.7084764e-10
1.2444944e-12
1.7749346e-15
4.6191939e-19
5.2070708e-24
1.1511442e-30
4.4974679e-39
1.6006209e-46
8.0781623e-50
8.3097816e-53
7.305464e-56
5.2535511e-59
2.953749e-62
1.2093157e-65
3.2939743e-69
5.4405986e-73
4.9944758e-77
2.354337e-81
5.3392745e-86
5.048689e-91
1.6468118e-96
1.439284e-102
2.1228519e-109
1.6919542e-117
0.00038280557
0.00037102295
0.00034738478
0.00031472804
0.00028675446
0.00027535297
0.00027172674
0.00024786372
0.00018182863
7.9984498e-05
6.52635e-06
9.3944251e-08
1.0750181e-09
7.3671442e-12
9.4263138e-15
5.9006889e-19
7.7640572e-25
1.4364555e-32
1.1280061e-41
4.372864e-47
5.7296746e-50
7.790369e-53
8.9762028e-56
8.1695883e-59
5.4354313e-62
2.4291467e-65
6.7169736e-69
1.0661425e-72
9.1039796e-77
3.9335967e-81
8.1058565e-86
6.9369244e-91
2.0547057e-96
1.6415699e-102
2.2315708e-109
1.6542654e-117
0.00038480128
0.00037638913
0.00035697088
0.00032982334
0.00030737737
0.00029966602
0.00029888633
0.00027961667
0.0002232378
0.00013156593
3.8197902e-05
3.4983917e-06
2.0428147e-07
6.0061179e-09
3.4770212e-11
1.174769e-14
9.5232045e-20
1.1145372e-26
2.5506977e-35
9.3596966e-44
2.9822229e-47
6.0077576e-50
1.0756496e-52
1.5225676e-55
1.5715462e-58
1.0962732e-61
4.8177851e-65
1.2495885e-68
1.8121365e-72
1.3973185e-76
5.4480764e-81
1.0124735e-85
7.8193864e-91
2.1063315e-96
1.5442985e-102
1.9454156e-109
1.3502164e-117
0.00038422411
0.00037852652
0.0003630402
0.00034124043
0.00032381753
0.00031937445
0.00032052147
0.00030429448
0.00025448145
0.00017299469
8.6233129e-05
3.0402102e-05
8.1356255e-06
9.9166348e-07
2.4115623e-08
4.1512439e-11
2.0853295e-15
1.6757397e-21
2.8350041e-29
3.0589867e-38
1.5741395e-44
3.4325464e-47
9.2290389e-50
1.9554101e-52
2.9986599e-55
3.122396e-58
2.0839883e-61
8.4252063e-65
1.9681886e-68
2.548564e-72
1.754504e-76
6.1475841e-81
1.0297517e-85
7.1954899e-91
1.7708496e-96
1.1985213e-102
1.4089037e-109
9.2269698e-118
0.00038172179
0.00037839484
0.00036665455
0.00034951952
0.0003368377
0.00033489827
0.00033747359
0.00032357821
0.0002802303
0.00020554772
0.00012961711
8.1225939e-05
5.4819202e-05
2.5573068e-05
3.1201554e-06
2.7215556e-08
8.2247987e-12
4.7126164e-17
6.6488358e-24
4.1925103e-32
9.800919e-41
1.5444912e-44
5.8082447e-47
1.7732275e-49
3.8776179e-52
5.7798327e-55
5.6207273e-58
3.4010164e-61
1.2238807e-64
2.5302005e-68
2.901453e-72
1.7796816e-76
5.6129095e-81
8.4984034e-86
5.4015026e-91
1.2221396e-96
7.6905876e-103
8.5044739e-110
5.3015649e-118
0.00037716109
0.00037665669
0.00036877045
0.00035575555
0.00034678871
0.00034712633
0.00035028016
0.00033824846
0.00030066921
0.0002351155
0.00016469733
0.00012886904
0.00011829331
9.7882281e-05
4.7993564e-05
3.3030531e-06
6.1234495e-09
2.4851564e-13
2.9296035e-19
1.5278273e-26
4.5348383e-35
9.2726226e-42
2.7875716e-44
1.170024e-46
3.4980964e-49
7.1677648e-52
9.758817e-55
8.5144269e-58
4.5406058e-61
1.435146e-64
2.610638e-68
2.6488855e-72
1.4514552e-76
4.1383837e-81
5.6910105e-86
3.3124096e-91
6.9410701e-97
4.0945069e-103
4.2977222e-110
2.5747935e-118
0.00037412081
0.00037395614
0.0003702898
0.00036108739
0.00035422358
0.00035616357
0.00035975901
0.00034879991
0.00031675999
0.00025993568
0.00019554464
0.00016740134
0.00017144538
0.00016920038
0.00013043837
4.8090442e-05
9.1298626e-07
2.560246e-10
2.3813921e-15
1.0306428e-21
2.2075678e-29
1.1621407e-37
1.1865174e-41
5.88499e-44
2.2814951e-46
6.144945e-49
1.126065e-51
1.3643817e-54
1.0420846e-57
4.8487873e-61
1.3408971e-64
2.1464633e-68
1.9325685e-72
9.5089344e-77
2.465037e-81
3.0980507e-86
1.6639419e-91
3.2562168e-97
1.8172771e-103
1.8285993e-110
1.0640139e-118
0.00037155964
0.00037436118
0.00037505383
0.00036556625
0.00035996655
0.00036243378
0.0003659829
0.00035589706
0.0003288315
0.00028073177
0.00022255957
0.00019798181
0.00021217874
0.00022563076
0.00020269168
0.00012819735
2.2508964e-05
5.5438501e-08
3.688378e-12
1.2493719e-17
2.3384181e-24
4.0769954e-32
2.1644849e-38
2.7195202e-41
1.1365517e-43
3.7818424e-46
8.9143378e-49
1.4407021e-51
1.5277815e-54
1.0122092e-57
4.0992629e-61
9.9268287e-65
1.4026713e-68
1.126215e-72
5.0097756e-77
1.1885638e-81
1.3754662e-86
6.8748577e-92
1.2683696e-97
6.7668112e-104
6.6002639e-111
3.7735603e-119
0.0003691453
0.00037553622
0.00037463754
0.00037565768
0.00036391342
0.00036659952
0.00036951566
0.00035988215
0.00033756242
0.00029800987
0.00024588247
0.00022386455
0.00024268522
0.00026596264
0.00025824318
0.00019734653
8.7555889e-05
2.738163e-06
1.1729421e-09
2.8419845e-14
4.7197162e-20
1.104492e-26
7.624658e-33
1.1381733e-37
5.6636357e-41
1.7691525e-43
5.0196948e-46
1.0362931e-48
1.4733802e-51
1.348458e-54
7.7389149e-58
2.7315088e-61
5.8115111e-65
7.2840067e-69
5.2496707e-73
2.1283868e-77
4.6557424e-82
5.0060958e-87
2.3508694e-92
4.134433e-98
2.1339341e-104
2.0432099e-111
1.1627558e-119
0.00036594471
0.00037350854
0.00037745711
0.00037372253
0.00037512028
0.00036855527
0.0003707727
0.00036140737
0.0003435456
0.0003122162
0.00026595347
0.00024595836
0.000265634
0.00029372463
0.00029445799
0.00024853631
0.00015093586
2.7687115e-05
8.9828263e-08
1.3358429e-11
1.9992998e-16
8.7840565e-22
1.0332138e-26
1.5822245e-31
6.247151e-37
8.3375457e-41
2.1183717e-43
5.2512763e-46
9.605906e-49
1.1804483e-51
9.3188878e-55
4.6406261e-58
1.4324995e-61
2.6910378e-65
3.0110516e-69
1.9640749e-73
7.3280808e-78
1.4912204e-82
1.5057796e-87
6.7259238e-93
1.1430695e-98
5.7912423e-105
5.525134e-112
3.1764098e-120
0.00036822337
0.00036675184
0.00037655387
0.00037710164
0.00037149479
0.00037258361
0.00036991123
0.00036096619
0.00034750948
0.00032374227
0.00028320323
0.00026478597
0.00028444031
0.00031272612
0.00031671335
0.00028180008
0.00019933807
7.6813354e-05
1.95293e-06
1.5907578e-09
2.1354952e-13
1.849036e-17
3.0876202e-21
2.9102763e-25
1.7819649e-30
1.0280885e-36
8.1161552e-41
1.956242e-43
4.3574226e-46
6.9769588e-49
7.3690483e-52
5.0280188e-55
2.1804839e-58
5.9170714e-62
9.8806157e-66
9.9537397e-70
5.9408322e-74
2.0651141e-78
3.9581855e-83
3.8083623e-88
1.6461203e-93
2.7541981e-99
1.3962048e-105
1.3524013e-112
7.991456e-121
0.00036695587
0.00036524503
0.00036811655
0.00037776118
0.00037475114
0.000367324
0.00036657655
0.0003590594
0.00035018039
0.00033320092
0.00029796931
0.00028079188
0.00029970507
0.00032751059
0.00033229322
0.00030331843
0.00023392819
0.00012192181
1.3936427e-05
6.1595161e-08
7.2704047e-11
9.6742888e-14
1.4736516e-16
8.3331039e-20
3.1717328e-24
3.2750391e-30
3.5472922e-37
5.8837889e-41
1.4266739e-43
2.8579873e-46
3.9304399e-49
3.5765813e-52
2.1174492e-55
8.0414235e-59
1.9327455e-62
2.8969208e-66
2.6610036e-70
1.4773546e-74
4.8740109e-79
8.9828104e-84
8.4342608e-89
3.6261534e-94
6.1460001e-100
3.2047752e-106
3.2299867e-113
2.0007702e-121
0.00035607721
0.00036188924
0.00036217912
0.00036901546
0.0003768212
0.00037025996
0.00035968868
0.00035626467
0.00035223891
0.00034132954
0.00031065796
0.00029431355
0.00031207834
0.00033824364
0.00034308855
0.00031862
0.00026145873
0.00015748713
4.1258875e-05
9.9403498e-07
8.9710895e-09
1.1870726e-10
1.1385621e-12
3.3454573e-15
7.8661314e-19
5.7503784e-24
6.7196041e-31
4.6046271e-38
3.5487521e-41
8.3447381e-44
1.4506391e-46
1.7152578e-49
1.3506938e-52
6.9832402e-56
2.343609e-59
5.0518165e-63
6.9129655e-67
5.9243403e-71
3.1525526e-75
1.0216211e-79
1.8843631e-84
1.8066032e-89
8.1075779e-95
1.4578422e-100
8.136487e-107
8.7902457e-114
5.8084796e-122
0.00035389524
0.00035220839
0.00035561837
0.00035913167
0.0003684754
0.00037353687
0.00036229881
0.00034805614
0.00034131787
0.00034834996
0.00032185563
0.00030569108
0.00032178887
0.0003461076
0.00034946968
0.00032860735
0.00028248611
0.00019474012
7.3352475e-05
7.3549753e-06
4.0516055e-07
3.3061997e-08
1.5274454e-09
2.0159632e-11
2.6394194e-14
1.3575122e-18
1.2768659e-24
1.3346735e-32
8.6783777e-39
1.8011683e-41
3.7997876e-44
5.6870585e-47
5.8134914e-50
3.9941263e-53
1.8254763e-56
5.5116582e-60
1.0933115e-63
1.4161931e-67
1.1896416e-71
6.4603421e-76
2.2086901e-80
4.4126636e-85
4.6940964e-90
2.3744923e-95
4.8226515e-101
3.0077737e-107
3.5578488e-114
2.5078388e-122
0.00035523208
0.00035365323
0.0003470022
0.00034904761
0.00035524676
0.00036587118
0.00036707263
0.00035040719
0.00033218859
0.0003209484
0.00033189578
0.00031521399
0.00032919638
0.00035106937
0.00035262032
0.00033390415
0.00029790045
0.00022506037
0.00011239559
2.649517e-05
6.0835042e-06
2.0926696e-06
3.8177128e-07
1.9989344e-08
1.2896023e-10
4.2546633e-14
3.3526408e-19
2.8565216e-26
4.7493787e-35
3.074359e-39
7.2662775e-42
1.3360283e-44
1.7317869e-47
1.5481284e-50
9.4495993e-54
3.9264521e-57
1.1126052e-60
2.159615e-64
2.8824205e-68
2.6477138e-72
1.6639316e-76
6.8281898e-81
1.6694345e-85
2.1827166e-90
1.3363205e-95
3.1829665e-101
2.2347689e-107
2.8469834e-114
2.0688815e-122
0.00034073144
0.00035942695
0.00035163566
0.00034057291
0.00034140697
0.00034992858
0.00036053737
0.00035677118
0.00033449596
0.00031131602
0.00029497235
0.00032304331
0.00033465667
0.00035372064
0.00035277775
0.00033549476
0.0003084432
0.00025037529
0.00014792778
5.7033965e-05
3.0566193e-05
2.571498e-05
1.5500381e-05
3.3064558e-06
1.0021964e-07
1.9147678e-10
1.1592608e-14
1.0325642e-20
5.7016969e-29
8.6948691e-37
1.053979e-39
2.2804626e-42
3.6612875e-45
4.1823222e-48
3.3652352e-51
1.9117025e-54
7.7596377e-58
2.2921538e-61
5.0197768e-65
8.2175967e-69
9.9463673e-73
8.5395627e-77
4.7603081e-81
1.5300849e-85
2.5106998e-90
1.824948e-95
4.8816444e-101
3.6579696e-107
4.7546893e-114
3.387001e-122
0.00032945448
0.00034785843
0.00036138074
0.00034768292
0.00033238275
0.00033220957
0.00034249819
0.00035173303
0.00034249869
0.0003137354
0.00028524418
0.00026337529
0.00033817276
0.00035423692
0.00035058921
0.00033417627
0.0003150536
0.00027113661
0.00017989929
9.0966786e-05
6.322705e-05
7.9119564e-05
8.0404552e-05
5.4019398e-05
1.0944155e-05
1.3535103e-07
5.7580308e-11
4.8882362e-16
3.5997314e-23
3.5797236e-32
1.3314554e-37
2.9126417e-40
5.6358039e-43
8.1088897e-46
8.5612183e-49
6.704484e-52
3.9993553e-55
1.8814118e-58
7.1858833e-62
2.2390667e-65
5.5038499e-69
9.9702211e-73
1.2109901e-76
8.8252067e-81
3.4353692e-85
6.3975723e-90
5.0052001e-95
1.3826776e-100
1.0360486e-106
1.3117407e-113
8.8919761e-122
0.00033991338
0.00033444419
0.00035316524
0.0003611852
0.00034165032
0.00032242773
0.00032087158
0.00033228704
0.00033908377
0.00032347282
0.00028788593
0.00025392759
0.00022656003
0.00035266728
0.00034617625
0.0003305918
0.00031874818
0.00028774113
0.00020869727
0.0001230619
9.5888259e-05
0.00012455379
0.00015079421
0.0001419655
8.8904157e-05
1.2964292e-05
4.5505295e-08
3.322998e-12
3.0427439e-18
2.8818005e-26
9.3927797e-35
2.9173653e-38
6.4953725e-41
1.1648459e-43
1.6249394e-46
1.8034708e-49
1.6643797e-52
1.3370987e-55
9.5379669e-59
5.8876909e-62
2.9304055e-65
1.0688057e-68
2.5928431e-72
3.8160678e-76
3.1108246e-80
1.2822479e-84
2.4367552e-89
1.8972814e-94
5.1276544e-100
3.7130019e-106
4.4977872e-113
3.2955419e-130
0.00034894099
0.00033981974
0.00033816899
0.00035665527
0.00035882196
0.00033365686
0.00031029338
0.00030704526
0.00031868273
0.00032194484
0.00029932917
0.00025704713
0.00021772014
0.00018201644
0.00033973751
0.0003252067
0.00032047644
0.00030092536
0.00023446228
0.00015246597
0.00012534604
0.00015816837
0.00020496592
0.00021544598
0.00018128414
9.3173088e-05
5.6722329e-06
3.6483305e-09
3.600833e-14
4.9483629e-21
1.5371787e-29
3.3995296e-36
5.800022e-39
1.2853042e-41
2.4215033e-44
4.0020567e-47
6.1305448e-50
9.005379e-53
1.241786e-55
1.4884644e-58
1.4019718e-61
9.4003868e-65
4.1228998e-68
1.1028602e-71
1.6884759e-75
1.3763271e-79
5.5607089e-84
1.0239906e-88
7.6770896e-94
1.9911192e-99
1.3809155e-105
1.8663985e-121
9.2448171e-140
0.00033131807
0.00034276117
0.00033793637
0.00034091399
0.000358216
0.00035436137
0.00032334755
0.00029554093
0.00029048703
0.00030109487
0.00029991658
0.00026998451
0.00022085037
0.00017357815
0.00012625531
0.00031853133
0.00032093279
0.00031174398
0.00025723275
0.00017950357
0.00015146676
0.0001860949
0.00023928961
0.00026921414
0.00025229762
0.0001843568
6.5093923e-05
7.2356669e-07
6.8265567e-11
1.1726799e-16
4.2984802e-24
1.1781127e-32
4.3778549e-37
1.136004e-39
3.0021319e-42
7.8927634e-45
2.145631e-47
5.9378881e-50
1.5400686e-52
3.3347302e-55
5.4148737e-58
6.0770378e-61
4.426354e-64
1.9875105e-67
5.2540069e-71
7.7832782e-75
6.0690149e-79
2.3388523e-83
4.1079663e-88
2.9419041e-93
7.3041337e-99
7.7176368e-114
4.5253062e-131
2.1135819e-150
0.00031094443
0.00032090558
0.00033412249
0.00033481725
0.00034261632
0.00035764854
0.0003475635
0.00031034937
0.00027785812
0.00027066608
0.00027905253
0.00027260067
0.00023430425
0.00017616906
0.00011802666
5.9890475e-05
0.00032058646
0.00032128119
0.00027741326
0.00020455329
0.00017499049
0.00020961701
0.00026698272
0.00030340214
0.00029904812
0.00025279058
0.00015174928
2.1896491e-05
2.3907902e-08
4.3013889e-13
1.935343e-19
2.1598639e-27
7.4813248e-35
8.4718674e-38
3.2847414e-40
1.4666153e-42
7.3104366e-45
3.7085667e-47
1.6789484e-49
6.0029328e-52
1.5467035e-54
2.7007124e-57
3.0642969e-60
2.1788305e-63
9.3774328e-67
2.3568037e-70
3.2982596e-74
2.4316025e-78
8.8902055e-83
1.4874571e-87
1.0191112e-92
6.0296796e-107
2.2064973e-123
6.6995315e-142
2.6943231e-162
0.00031942895
0.00030213551
0.00030869122
0.00032392765
0.0003310404
0.00034268811
0.00035479622
0.00033797278
0.00029442892
0.00025668017
0.00024667961
0.00025180131
0.00023848928
0.00018936636
0.00011940144
5.3813697e-05
1.0162592e-05
0.00033033778
0.00029551274
0.0002279122
0.00019649289
0.00023003893
0.00028945579
0.00032991828
0.00033031697
0.00029421075
0.00022104729
9.1823938e-05
1.7864428e-06
2.8244526e-10
1.3113356e-15
1.6466582e-22
9.4597284e-31
6.422319e-36
3.3309608e-38
2.6288956e-40
2.3599944e-42
2.0465063e-44
1.4824348e-46
8.0829676e-49
3.1008492e-51
8.0082058e-54
1.3517701e-56
1.4562929e-59
9.754984e-63
3.9474811e-66
9.3370316e-70
1.2290993e-73
8.5693395e-78
2.9795218e-82
4.7672412e-87
1.294385e-100
2.494567e-116
2.6798088e-134
6.2794431e-154
1.7385882e-175
0.00033839861
0.00031692348
0.00029175425
0.00029502481
0.00031359145
0.0003259112
0.00034065592
0.00034907494
0.0003255782
0.00027483935
0.000231417
0.00021801011
0.00021869181
0.00019501957
0.00013110178
5.4960166e-05
8.1943049e-06
3.4131719e-07
0.00031288911
0.00024966329
0.00021629752
0.00024793446
0.00030851972
0.00035053616
0.00035300406
0.00032180633
0.00026579787
0.00016208987
2.5703495e-05
4.0258923e-08
1.5327179e-12
1.9740786e-18
7.622831e-26
2.1911708e-33
3.2483706e-36
4.4731774e-38
6.8222459e-40
9.3138515e-42
1.0006144e-43
7.8338399e-46
4.268338e-48
1.5709009e-50
3.818181e-53
6.021449e-56
6.0513528e-59
3.7875084e-62
1.4373645e-65
3.1960337e-69
3.9699242e-73
2.6290456e-77
8.7384352e-82
9.4854952e-95
8.5549812e-110
3.5409123e-127
1.5400728e-146
3.95221e-167
1.0749488e-189
0.0003290371
0.00034421739
0.00031258841
0.00028005837
0.00027997154
0.0003011186
0.00031891352
0.00033587197
0.00034036118
0.00030942689
0.00025102525
0.00020165155
0.00018447015
0.00017665417
0.00013779055
6.3952405e-05
8.50172e-06
2.4504649e-07
2.7993194e-09
0.00026994946
0.00023458822
0.00026340417
0.00032455648
0.00036760727
0.00036896587
0.00033928247
0.00029492547
0.00021922833
8.3232184e-05
1.5045361e-06
3.7747165e-10
3.9603823e-15
1.5021413e-21
2.8505084e-29
3.5970122e-34
6.9315352e-36
1.6671263e-37
3.3296219e-39
5.0046276e-41
5.3831301e-43
4.0231693e-45
2.0472453e-47
6.9783262e-50
1.5688667e-52
2.2937806e-55
2.1453123e-58
1.2557749e-61
4.4836387e-65
9.3935072e-69
1.107078e-72
7.0058451e-77
2.7470396e-89
1.0446947e-103
1.8088462e-120
1.5248784e-139
6.8271645e-160
2.6875895e-181
1.138107e-204
0.00028873233
0.00034288522
0.00034714257
0.00030647986
0.00026686529
0.00026314602
0.0002865561
0.00030922532
0.0003277495
0.00032778047
0.00028882991
0.00022179261
0.00016651569
0.00014255571
0.00012203686
6.9345772e-05
1.1352056e-05
2.4885865e-07
1.7711624e-09
5.8799299e-12
0.00025142548
0.0002764625
0.00033715702
0.00038140512
0.00038041293
0.000348976
0.00031112446
0.00025840221
0.00015084272
1.5751444e-05
2.4478415e-08
1.6202413e-12
5.0145336e-18
6.3065532e-25
1.2242798e-31
9.4178197e-34
3.300309e-35
9.1058233e-37
1.8336847e-38
2.62088e-40
2.6137196e-42
1.7938909e-44
8.3682177e-47
2.6207946e-49
5.4377467e-52
7.3766585e-55
6.4382663e-58
3.5389309e-61
1.1928428e-64
2.368373e-68
2.6658482e-72
3.4931564e-84
5.1286979e-98
3.7106183e-114
8.5001566e-133
3.8439277e-153
4.1864163e-174
3.2067364e-196
3.0755656e-220
0.00026699216
0.00030591507
0.00035341636
0.00034739542
0.00029838173
0.00025204706
0.00024433615
0.00026909683
0.00029607037
0.00031553056
0.00031051747
0.00026193629
0.00018552236
0.00012291827
8.9685728e-05
5.6799787e-05
1.3433868e-05
3.6470354e-07
1.6984773e-09
3.2042066e-12
3.1627232e-15
0.00028684448
0.00034573716
0.00039105892
0.00038764566
0.00035243783
0.00031801538
0.00028252552
0.00020437007
6.7691657e-05
5.3631964e-07
1.6845288e-10
3.3124544e-15
3.25088e-21
3.5424435e-28
1.172167e-31
5.1680906e-33
1.8871732e-34
4.927548e-36
9.109763e-38
1.1839552e-39
1.0721381e-41
6.6974462e-44
2.8560607e-46
8.2230831e-49
1.5786979e-51
1.9945914e-54
1.6321423e-57
8.4712608e-61
2.7069529e-64
5.1293482e-68
2.1111199e-79
1.1128788e-92
3.2253612e-108
2.5246488e-126
1.4114722e-146
1.5512617e-167
5.1779161e-189
9.6505798e-212
2.8012832e-236
0.00029479422
0.00028096349
0.00032105688
0.00036063915
0.00034494231
0.00028831807
0.00023532971
0.00022305583
0.00024823265
0.00027876565
0.00029863104
0.0002877013
0.0002266628
0.00013931688
6.9642598e-05
3.2257377e-05
9.0654505e-06
4.7493576e-07
2.6106909e-09
2.8044657e-12
1.4455089e-15
4.4733553e-19
0.00034958025
0.00039500072
0.00038995082
0.000350111
0.00031742049
0.00029480688
0.00024489065
0.0001273538
9.7255011e-06
5.7281969e-09
5.3605587e-13
3.3687202e-18
1.4604703e-24
1.847841e-29
6.3771256e-31
2.9704328e-32
9.7972692e-34
2.2888937e-35
3.7935316e-37
4.4395988e-39
3.6387832e-41
2.0691494e-43
8.0832333e-46
2.1468567e-48
3.8305201e-51
4.5307073e-54
3.4956242e-57
1.7234295e-60
5.2506861e-64
6.4481973e-75
1.1495764e-87
1.267443e-102
3.6931519e-120
3.9837267e-140
2.9506078e-161
1.6462537e-182
1.686415e-204
9.5882793e-228
1.6824944e-252
0.00034872722
0.00030028841
0.00029379217
0.00033385475
0.00036463668
0.00033985802
0.00027595714
0.00021636361
0.00019904459
0.00022361313
0.00025670727
0.00027628103
0.00025583259
0.00017813318
8.1767237e-05
1.9124487e-05
3.1808466e-06
2.8192735e-07
3.6681844e-09
4.4902738e-12
1.1025478e-15
1.7354674e-19
1.7943422e-23
0.00039198926
0.00038567429
0.00034207005
0.00031040513
0.00029859833
0.00027228713
0.0001827525
4.6392286e-05
2.8203392e-07
2.6761062e-11
8.3044151e-16
1.9941056e-21
5.8544838e-27
6.4269507e-29
3.6047394e-30
1.4618705e-31
4.2221936e-33
8.7390061e-35
1.2951191e-36
1.3652968e-38
1.0147056e-40
5.2677824e-43
1.8924657e-45
4.658185e-48
7.7659574e-51
8.6515897e-54
6.3350372e-57
2.9825596e-60
1.0455456e-70
5.9946448e-83
2.3939276e-97
2.6242125e-114
7.5273151e-134
4.7580857e-155
1.9746462e-176
5.3548408e-198
1.8150504e-220
6.2121349e-244
9.0013106e-269
0.00038154192
0.00034331563
0.00030453369
0.00030565228
0.00034391727
0.000365361
0.0003319106
0.00026097648
0.0001946808
0.00017194499
0.00019485752
0.00022908987
0.00024613092
0.00020839522
0.00011599077
2.4059076e-05
1.2607328e-06
7.0389624e-08
2.0883994e-09
6.7890719e-12
1.8321587e-15
1.0871414e-19
6.1120432e-24
2.2355506e-28
0.00037387752
0.00032838194
0.0002980878
0.00029599656
0.00029012412
0.00022985692
0.00010086331
4.2842044e-06
3.0646972e-09
5.9830807e-14
7.2859903e-19
2.9338125e-24
5.9281293e-27
3.5051049e-28
1.6898721e-29
5.8351797e-31
1.4734708e-32
2.7088684e-34
3.6001638e-36
3.4289367e-38
2.3187687e-40
1.1034617e-42
3.6629747e-45
8.4018128e-48
1.3167939e-50
1.39121e-53
9.7435661e-57
9.3703914e-67
1.654271e-78
2.2905682e-92
9.2862654e-109
8.2618583e-128
7.2337769e-149
1.5477208e-170
5.3563165e-192
6.0715497e-214
1.2700984e-236
3.5525849e-260
4.3107274e-285
0.00035435412
0.00036428874
0.00033524818
0.00030814683
0.00031600925
0.00035081462
0.00036279965
0.00032087712
0.0002428845
0.00016975199
0.00014157774
0.00016140615
0.00019744693
0.00020206543
0.00014444238
4.5504991e-05
1.5439864e-06
1.9494677e-08
4.1181181e-10
3.7875072e-12
2.9194796e-15
1.7677983e-19
3.1509202e-24
7.0024586e-29
9.1440688e-34
0.0003093153
0.00028152704
0.00028889449
0.00030145063
0.00026821001
0.00015650874
2.6159023e-05
9.5377983e-08
1.6273735e-11
9.0656421e-17
1.7295885e-21
9.2347978e-25
3.0805539e-26
1.6087297e-27
6.3888145e-29
1.8717378e-30
4.139216e-32
6.7936279e-34
8.1291263e-36
7.0214898e-38
4.3381395e-40
1.9014504e-42
5.8644499e-45
1.2612289e-47
1.8709575e-50
1.8887238e-53
4.8027302e-63
2.510592e-74
1.1595433e-87
1.6969199e-103
4.9739231e-122
8.7044705e-143
1.2077841e-164
2.5905346e-186
5.9272905e-208
4.5555446e-230
7.7922858e-253
1.8045199e-276
1.8578263e-301