/*--------------------------------*- C++ -*----------------------------------*\
| =========                 |                                                 |
| \\      /  F ield         | OpenFOAM: The Open Source CFD Toolbox           |
|  \\    /   O peration     | Version:  5.0                                   |
|   \\  /    A nd           | Web:      www.OpenFOAM.org                      |
|    \\/     M anipulation  |                                                 |
\*---------------------------------------------------------------------------*/
FoamFile
{
    version     2.0;
    format      ascii;
    class       volScalarField;
    location    "400";
    object      nuTilda;
}
// * * * * * * * * * * * * * * * * * * * * * * * * * * * * * * * * * * * * * //

dimensions      [0 2 -1 0 0 0 0];

internalField   nonuniform List<scalar> 
9520
(
4.8336817e-33
5.1312065e-31
4.6802494e-33
2.6652325e-29
4.9700623e-31
4.5254491e-33
8.996494e-28
2.5819578e-29
4.8064899e-31
4.3759793e-33
2.2215669e-26
8.716343e-28
2.4971284e-29
4.6488041e-31
4.2426872e-33
4.2893362e-25
2.1525155e-26
8.4307882e-28
2.4156592e-29
4.5102673e-31
4.1333698e-33
6.7682169e-24
4.1559283e-25
2.0822856e-26
8.1579773e-28
2.3451218e-29
4.3997729e-31
4.048624e-33
8.9921402e-23
6.5575225e-24
4.0207667e-25
2.0156384e-26
7.9247909e-28
2.2901721e-29
4.3159042e-31
3.9798269e-33
1.024831e-21
8.713291e-23
6.3450586e-24
3.8935321e-25
1.95929e-26
7.746273e-28
2.2488314e-29
4.2454055e-31
3.9097724e-33
1.0165183e-20
9.933615e-22
8.4334986e-23
6.1468324e-24
3.7870038e-25
1.9165955e-26
7.6113716e-28
2.2121972e-29
4.1664113e-31
3.8183006e-33
8.893576e-20
9.8580201e-21
9.6194139e-22
8.1747144e-23
5.9823464e-24
3.7066051e-25
1.8837268e-26
7.4840878e-28
2.1674498e-29
4.0574645e-31
3.6917075e-33
7.0599035e-19
8.6267873e-20
9.5531134e-21
9.3304281e-22
7.9616658e-23
5.8580636e-24
3.6427027e-25
1.8505902e-26
7.317749e-28
2.1040189e-29
3.9086615e-31
3.5326828e-33
5.9611799e-18
6.8157591e-19
8.3658427e-20
9.2721413e-21
9.0935094e-22
7.8000928e-23
5.7550292e-24
3.5738942e-25
1.8052477e-26
7.0801368e-28
2.0196675e-29
3.7307138e-31
3.3648496e-33
9.5831438e-17
5.5375084e-18
6.5916835e-19
8.1213308e-20
9.0410283e-21
8.9130293e-22
7.6598455e-23
5.636884e-24
3.477119e-25
1.7409713e-26
6.7743962e-28
1.9240153e-29
3.5561631e-31
3.2276643e-33
3.2173165e-15
8.1934113e-17
5.200405e-18
6.3753751e-19
7.9169857e-20
8.8647308e-21
8.7496945e-22
7.4893729e-23
5.4682184e-24
3.3425708e-25
1.6612439e-26
6.446161e-28
1.8371612e-29
3.4298382e-31
3.1616785e-33
1.1510461e-13
2.7860367e-15
7.0609217e-17
4.8578469e-18
6.1913358e-19
7.763207e-20
8.7008476e-21
8.5406675e-22
7.2436175e-23
5.2398213e-24
3.1823389e-25
1.5802629e-26
6.1716607e-28
1.7828255e-29
3.3907047e-31
3.1897347e-33
3.4049231e-12
1.0573159e-13
2.3491915e-15
5.6932861e-17
4.558318e-18
6.0601191e-19
7.6211048e-20
8.4811967e-21
8.2365953e-22
6.9198046e-23
4.9796737e-24
3.0286907e-25
1.5182424e-26
6.0289273e-28
1.7781045e-29
3.4524867e-31
3.3030435e-33
7.8693864e-11
3.3064277e-12
9.1390066e-14
1.6920408e-15
4.4210281e-17
4.3649778e-18
5.9492386e-19
7.422112e-20
8.1568389e-21
7.845732e-22
6.5675614e-23
4.7453047e-24
2.9218302e-25
1.4931395e-26
6.0621297e-28
1.8241667e-29
3.59257e-31
3.4594174e-33
1.384813e-09
7.9790745e-11
2.9241023e-12
6.4583137e-14
1.0576896e-15
3.6458454e-17
4.2469911e-18
5.7910234e-19
7.1197469e-20
7.7477781e-21
7.4396532e-22
6.2710548e-23
4.5997262e-24
2.892346e-25
1.5119704e-26
6.254379e-28
1.9026494e-29
3.7553549e-31
3.5950653e-33
1.8118763e-08
1.4484613e-09
7.1802717e-11
2.05811e-12
3.842084e-14
6.9743263e-16
3.3081519e-17
4.1187015e-18
5.5396935e-19
6.7419669e-20
7.3417442e-21
7.1220194e-22
6.1108916e-23
4.5823906e-24
2.9454813e-25
1.565487e-26
6.5235536e-28
1.9801169e-29
3.869246e-31
3.6450884e-33
1.7263813e-07
1.9266333e-08
1.3181957e-09
5.0514084e-11
1.2253736e-12
2.5159609e-14
5.8173145e-16
3.1361124e-17
3.9162867e-18
5.2250444e-19
6.383221e-20
7.0489974e-21
6.9783347e-22
6.1252858e-23
4.6872599e-24
3.0540888e-25
1.6292341e-26
6.7458045e-28
2.019003e-29
3.8702859e-31
3.5647029e-33
1.1700002e-06
1.8416426e-07
1.7726536e-08
9.3317128e-10
3.0589131e-11
8.6943042e-13
2.3194576e-14
5.6037496e-16
2.8856609e-17
3.6608514e-18
4.9386612e-19
6.147511e-20
6.9455665e-21
7.0335479e-22
6.286208e-23
4.857613e-24
3.1647207e-25
1.6712134e-26
6.7981208e-28
1.9903728e-29
3.7234508e-31
3.3439197e-33
5.6016733e-06
1.2375956e-06
1.703531e-07
1.2846388e-08
5.8664003e-10
2.3948704e-11
9.2194329e-13
2.4790826e-14
4.7991699e-16
2.5370828e-17
3.4386238e-18
4.7696115e-19
6.0917422e-20
7.035307e-21
7.2326663e-22
6.5011408e-23
5.0020333e-24
3.215471e-25
1.663255e-26
6.6016027e-28
1.8836645e-29
3.4346072e-31
3.0115119e-33
1.9015964e-05
5.8657741e-06
1.1535887e-06
1.2726331e-07
8.6977093e-09
5.0705465e-10
2.8534663e-11
1.0703091e-12
2.1257932e-14
3.2389799e-16
2.2522089e-17
3.322559e-18
4.7534887e-19
6.1987558e-20
7.2403916e-21
7.4531864e-22
6.6425665e-23
5.0264806e-24
3.1586078e-25
1.5912616e-26
6.148385e-28
1.7105478e-29
3.0500897e-31
2.6279713e-33
4.7365303e-05
1.9712481e-05
5.4959732e-06
8.9573262e-07
9.3171045e-08
8.0842944e-09
6.5040866e-10
3.485697e-11
9.325067e-13
1.220606e-14
1.9861956e-16
2.1197617e-17
3.3290299e-18
4.8589936e-19
6.3792204e-20
7.4245947e-21
7.5473869e-22
6.5945998e-23
4.869616e-24
2.9784662e-25
1.4601547e-26
5.5059337e-28
1.5022925e-29
2.6451081e-31
2.2705737e-33
9.142563e-05
4.8756688e-05
1.8579883e-05
4.428158e-06
7.0304497e-07
9.1786609e-08
1.0573977e-08
8.1286855e-10
3.0570424e-11
5.1566692e-13
4.9870178e-15
1.4285596e-16
2.1167383e-17
3.4197315e-18
4.9983391e-19
6.5023954e-20
7.443382e-21
7.3982581e-22
6.2976861e-23
4.5266092e-24
2.6973052e-25
1.2927993e-26
4.8003278e-28
1.3020008e-29
2.305444e-31
2.0155794e-33
0.0001451513
9.3645276e-05
4.6313609e-05
1.5545793e-05
3.6930441e-06
7.2107312e-07
1.1945256e-07
1.3227697e-08
7.1291288e-10
1.6609616e-11
1.888419e-13
1.9165777e-15
1.2835752e-16
2.1820905e-17
3.5170732e-18
5.0604433e-19
6.4472115e-20
7.2003335e-21
6.9657145e-22
5.7728823e-23
4.0519468e-24
2.3693015e-25
1.1242054e-26
4.1852014e-28
1.1543506e-29
2.1081671e-31
1.9224046e-33
0.0001972261
0.00014839114
8.9884101e-05
4.0037045e-05
1.3612371e-05
3.8982657e-06
9.2475933e-07
1.4751961e-07
1.1567654e-08
3.8544395e-10
5.8597837e-12
5.6625615e-14
1.0287025e-15
1.2930012e-16
2.244296e-17
3.535089e-18
4.9574078e-19
6.1509028e-20
6.6858755e-21
6.3044806e-22
5.1165633e-23
3.54411e-24
2.0667711e-25
9.9298985e-27
3.8059712e-28
1.0957471e-29
2.1060686e-31
2.0228166e-33
0.00024028234
0.00020004845
0.00014280809
7.9588494e-05
3.6265924e-05
1.4627177e-05
4.90527e-06
1.1187002e-06
1.2855511e-07
6.3097751e-09
1.3744958e-10
1.6932657e-12
2.0860712e-14
8.6565595e-16
1.3247252e-16
2.2388492e-17
3.4179226e-18
4.6608175e-19
5.6340029e-20
5.9837249e-21
5.5478722e-22
4.4730808e-23
3.1206622e-24
1.8627615e-25
9.3251249e-27
3.7684218e-28
1.147024e-29
2.3182027e-31
2.3160449e-33
0.0002763976
0.0002425215
0.00019213495
0.00012814207
7.3403122e-05
3.9258801e-05
1.8012477e-05
5.7744843e-06
9.7258093e-07
7.1634791e-08
2.3769651e-09
4.3911366e-11
6.8677013e-13
1.5874398e-14
8.8112146e-16
1.3092472e-16
2.1335934e-17
3.1632591e-18
4.2114936e-19
4.9942446e-20
5.245021e-21
4.8702823e-22
3.9986716e-23
2.8903069e-24
1.8144432e-25
9.6372347e-27
4.117401e-28
1.3096304e-29
2.7268755e-31
2.7692518e-33
0.00030729864
0.0002777361
0.00023297964
0.00017475505
0.00011933847
7.9283884e-05
4.7238087e-05
2.0597256e-05
5.0132226e-06
5.5925801e-07
2.9037622e-08
8.5918527e-10
2.1492507e-11
6.9259706e-13
1.8822088e-14
8.5682376e-16
1.2236279e-16
1.9405821e-17
2.8192584e-18
3.7037027e-19
4.3759645e-20
4.6466959e-21
4.4443308e-22
3.8248681e-23
2.9281856e-24
1.9507381e-25
1.0908227e-26
4.8277606e-28
1.5652883e-29
3.280346e-31
3.3224767e-33
0.00033337564
0.00030720249
0.00026685044
0.00021402699
0.00016511771
0.00012818786
9.33722e-05
5.2573883e-05
1.7908623e-05
2.9995848e-06
2.4637745e-07
1.2033656e-08
5.1545039e-10
2.6991317e-11
9.6711724e-13
1.8635413e-14
7.3371265e-16
1.0877075e-16
1.7047072e-17
2.4638351e-18
3.2557932e-19
3.931855e-20
4.3491286e-21
4.4009457e-22
4.0284684e-23
3.2590576e-24
2.2658159e-25
1.3000502e-26
5.8074108e-28
1.878715e-29
3.9004353e-31
3.8974604e-33
0.00035381904
0.00033156113
0.00029534235
0.00024695357
0.0002045167
0.00017679961
0.0001482788
0.00010164945
4.5988738e-05
1.1239791e-05
1.4473803e-06
1.1853932e-07
8.8280301e-09
7.3690221e-10
4.0270989e-11
9.9125812e-13
1.2005621e-14
5.8813462e-16
9.3921428e-17
1.482642e-17
2.1811059e-18
2.9807947e-19
3.7879164e-20
4.4594034e-21
4.7988826e-22
4.6132005e-23
3.8504874e-24
2.7189335e-25
1.5615946e-26
6.9114323e-28
2.2029856e-29
4.4945925e-31
4.4097015e-33
0.00036888943
0.00035047052
0.00031859724
0.00027545248
0.00023758502
0.0002179505
0.00020114997
0.00015920483
9.0001187e-05
3.046001e-05
5.9789696e-06
8.1590493e-07
1.0427355e-07
1.3489252e-08
1.1264807e-09
4.1932317e-11
5.9127063e-13
5.4675692e-15
4.7996036e-16
8.136135e-17
1.3265701e-17
2.0429485e-18
2.9621701e-19
4.0148014e-20
5.0051938e-21
5.6086285e-22
5.5055031e-23
4.6168047e-24
3.2405768e-25
1.8343613e-26
7.9655509e-28
2.4872194e-29
4.9711777e-31
4.7822854e-33
0.00037930493
0.00036422682
0.00033682207
0.00029912409
0.00026649455
0.00025149413
0.00024363752
0.00021241223
0.00014225608
6.2946326e-05
1.7892324e-05
3.9493756e-06
8.3359201e-07
1.633526e-07
2.0624599e-08
1.179755e-09
2.5157576e-11
1.9587288e-13
2.7207304e-15
4.1090214e-16
7.3813801e-17
1.2753283e-17
2.0953033e-18
3.234897e-19
4.6087887e-20
5.9238944e-21
6.7133861e-22
6.565358e-23
5.4334306e-24
3.744224e-25
2.0730868e-26
8.7965141e-28
2.6855462e-29
5.2553958e-31
4.9590051e-33
0.00038520283
0.00037356641
0.0003502689
0.00031821593
0.00029093654
0.00027988981
0.00027636833
0.00025330292
0.00019098393
0.00010430157
4.0567365e-05
1.3644402e-05
4.5151749e-06
1.3066549e-06
2.4570649e-07
2.1585632e-08
7.1910586e-10
8.2502294e-12
4.3512033e-14
1.9811698e-15
3.7868812e-16
7.2985807e-17
1.348789e-17
2.3475662e-18
3.7738854e-19
5.4869214e-20
7.0701752e-21
7.9260608e-22
7.607891e-23
6.1584399e-24
4.142401e-25
2.2367292e-26
9.264204e-28
2.7654813e-29
5.302584e-31
4.9137837e-33
0.00038717398
0.00037886246
0.00035970816
0.00033301436
0.00031104538
0.00030353297
0.00030276434
0.00028397157
0.00022971312
0.0001461825
7.2864575e-05
3.4600287e-05
1.6785882e-05
6.9579399e-06
1.9085584e-06
2.5576049e-07
1.3431474e-08
2.4440746e-10
1.678871e-12
1.3316445e-14
1.810784e-15
3.8513669e-16
7.9438586e-17
1.5430783e-17
2.7667601e-18
4.4940858e-19
6.4996424e-20
8.2361884e-21
9.0229249e-22
8.440263e-23
6.6579494e-24
4.3637436e-25
2.2963997e-26
9.2881399e-28
2.7137353e-29
5.1053523e-31
4.6539112e-33
0.00038660336
0.00038097285
0.00036569042
0.00034423111
0.00032713869
0.00032279781
0.00032391397
0.00030800916
0.00025960655
0.0001828644
0.00010945674
6.7252594e-05
4.4142942e-05
2.5094754e-05
9.7683175e-06
1.9674384e-06
1.6316445e-07
4.8085671e-09
5.4528526e-11
3.1267436e-13
8.6632956e-15
1.8852524e-15
4.3030131e-16
9.2392099e-17
1.8278666e-17
3.2802981e-18
5.2650075e-19
7.4531132e-20
9.1972089e-21
9.7922555e-22
8.902799e-23
6.83726e-24
4.3661735e-25
2.2408733e-26
8.8612343e-28
2.5377989e-29
4.6926549e-31
4.2162579e-33
0.00038413107
0.00038084313
0.00036925523
0.00035237642
0.00033991699
0.00033802196
0.00034054451
0.00032688333
0.00028452754
0.00021299671
0.00014476566
0.00010620081
8.663794e-05
6.3465805e-05
3.3630394e-05
9.9422119e-06
1.2919518e-06
6.2263812e-08
1.2009331e-09
1.0668319e-11
7.5400915e-14
8.6903306e-15
2.1568848e-15
5.0704081e-16
1.0955263e-16
2.1496102e-17
3.789606e-18
5.932544e-19
8.1548053e-20
9.7586145e-21
1.0078103e-21
8.9016e-23
6.65864e-24
4.1459588e-25
2.0780609e-26
8.0466616e-28
2.2630096e-29
4.1212587e-31
3.6576909e-33
0.00037962727
0.00037912777
0.00037134425
0.00035851704
0.0003496998
0.00035003975
0.00035313625
0.00034128474
0.00030444041
0.00024101567
0.0001755258
0.00014454866
0.00013593703
0.00011939989
8.109838e-05
3.3781331e-05
6.7478187e-06
5.3118345e-07
1.7413273e-08
2.6218406e-10
1.9359244e-12
4.2825533e-14
1.0103616e-14
2.5699178e-15
6.0004492e-16
1.2743656e-16
2.4431906e-17
4.1905427e-18
6.3547815e-19
8.4552194e-20
9.7987733e-21
9.8142386e-22
8.4273919e-23
6.1468307e-24
3.7362909e-25
1.8320198e-26
6.9593741e-28
1.9259434e-29
3.4621662e-31
3.042573e-33
0.00037662599
0.00037646501
0.00037284563
0.00036377048
0.00035701702
0.00035893405
0.00036246927
0.00035166206
0.00032018115
0.00026486509
0.00020376584
0.00017823903
0.00018202558
0.00017996184
0.00014578808
8.060764e-05
2.3809023e-05
3.0138554e-06
1.654659e-07
4.2277795e-09
5.107392e-11
4.4452844e-13
4.5981049e-14
1.2173372e-14
3.03063e-15
6.8886901e-16
1.4221723e-16
2.6476457e-17
4.3918651e-18
6.4360887e-19
8.2815334e-20
9.2952081e-21
9.0356674e-22
7.5528906e-23
5.3794256e-24
3.1970982e-25
1.5365168e-26
5.7381148e-28
1.5662109e-29
2.786123e-31
2.430865e-33
0.00037410031
0.00037686608
0.00037754898
0.00036818625
0.00036267335
0.0003651104
0.0003686025
0.00035865009
0.00033202126
0.00028501519
0.00022914223
0.00020623293
0.00021959378
0.00023225647
0.00021055857
0.00014351558
5.9242725e-05
1.1591452e-05
1.038783e-06
4.4393841e-08
9.2336897e-10
1.0824209e-11
3.0671782e-13
5.6645618e-14
1.4312682e-14
3.4276417e-15
7.5340584e-16
1.5071945e-16
2.7136224e-17
4.3436755e-18
6.1479533e-19
7.6522474e-20
8.3249863e-21
7.8640909e-22
6.4100269e-23
4.4654239e-24
2.599773e-25
1.2272527e-26
4.5164286e-28
1.2190411e-29
2.1519377e-31
1.86951e-33
0.00037171656
0.00037802636
0.0003771404
0.0003781448
0.0003665622
0.00036921558
0.00037208491
0.00036257666
0.00034060078
0.00030184662
0.00025139151
0.00023052381
0.00024851293
0.00027086111
0.0002633408
0.00020538204
0.00010997874
3.1445677e-05
4.3905045e-06
3.0694269e-07
1.1055988e-08
2.5097599e-10
7.7532079e-12
4.7386138e-13
6.7890722e-14
1.5926487e-14
3.6653645e-15
7.7942183e-16
1.5100252e-16
2.6202266e-17
4.0460627e-18
5.5330342e-19
6.6674498e-20
7.0394289e-21
6.4726976e-22
5.1551686e-23
3.5191635e-24
2.0116865e-25
9.350343e-27
3.4004405e-28
9.1037233e-30
1.5998537e-31
1.3884835e-33
0.00036856309
0.00037602077
0.00037992397
0.00037623791
0.00037761391
0.00037114253
0.0003733231
0.00036408013
0.000346488
0.00031573573
0.00027072563
0.00025157256
0.00027055839
0.00029777757
0.00029843683
0.00025388834
0.00016288986
6.3373814e-05
1.3024926e-05
1.4323439e-06
8.9917774e-08
4.2948588e-09
2.6624481e-10
1.6758033e-11
7.2242418e-13
7.4362756e-14
1.6590894e-14
3.6927785e-15
7.6194233e-16
1.4231283e-16
2.3797335e-17
3.5465191e-18
4.6900347e-19
5.4784562e-20
5.6224429e-21
5.0427333e-22
3.9339905e-23
2.6376381e-24
1.4844809e-25
6.8151773e-27
2.4578326e-28
6.5511044e-30
1.1504977e-31
1.0012658e-33
0.00037081307
0.0003693557
0.00037902705
0.00037957419
0.00037403971
0.00037510981
0.00037247139
0.00036364578
0.00035039238
0.0003270327
0.00028744873
0.00026968105
0.00028876387
0.00031631677
0.00032017088
0.00028604573
0.00020706179
0.00010126558
2.8628936e-05
4.7514225e-06
5.2034613e-07
5.2509493e-08
6.2025435e-09
6.139054e-10
3.0145484e-11
8.037504e-13
7.3357811e-14
1.6198189e-14
3.5113494e-15
7.0066959e-16
1.2600279e-16
2.0315261e-17
2.9246894e-18
3.7451444e-19
4.2479674e-20
4.2470084e-21
3.72595e-22
2.8562262e-23
1.8869657e-24
1.0495718e-25
4.7808013e-27
1.7181156e-28
4.582057e-30
8.0807888e-32
7.08356e-34
0.00036955473
0.0003678731
0.00037069946
0.00038021991
0.00037725488
0.0003699252
0.00036918295
0.00036176763
0.00035302582
0.00033631997
0.00030182769
0.00028517336
0.00030361369
0.00033079113
0.00033544401
0.00030702151
0.00023979429
0.00013754299
5.0018783e-05
1.1942742e-05
2.2667993e-06
4.5016199e-07
9.1065709e-08
1.4076524e-08
1.0937606e-09
3.4238373e-11
6.0146941e-13
6.7332202e-14
1.4913435e-14
3.1476403e-15
6.0463217e-16
1.0475502e-16
1.6300876e-17
2.2702596e-18
2.8204645e-19
3.1143315e-20
3.0432789e-21
2.6229321e-22
1.9854266e-23
1.2995875e-24
7.1897295e-26
3.2731476e-27
1.1810972e-28
3.1747368e-30
5.6586551e-32
5.0216588e-34
0.00035883188
0.00036455845
0.00036484788
0.0003715847
0.0003792929
0.00037282379
0.00036239754
0.00035901823
0.00035505646
0.00034431229
0.00031422303
0.00029831811
0.00031569039
0.00034132093
0.0003460479
0.0003219975
0.00026628303
0.00016854216
7.4289593e-05
2.4338211e-05
7.6435621e-06
2.6684829e-06
8.4703319e-07
1.9748709e-07
2.4211837e-08
1.238957e-09
2.2397553e-11
3.545288e-13
5.9118398e-14
1.2992448e-14
2.6462755e-15
4.8949079e-16
8.1798338e-17
1.2305662e-17
1.661932e-18
2.0097966e-19
2.170157e-20
2.0854968e-21
1.7800574e-22
1.3428805e-23
8.8039639e-25
4.9038594e-26
2.2603164e-27
8.2907384e-29
2.2697294e-30
4.1203327e-32
3.7178565e-34
0.00035669245
0.00035502504
0.00035837873
0.0003618413
0.00037105097
0.00037605196
0.00036497372
0.00035094211
0.00034430782
0.00035122166
0.00032518807
0.00030941249
0.00032518909
0.00034904617
0.00035232281
0.00033179519
0.0002866867
0.000202693
9.8712144e-05
4.1953126e-05
2.0028763e-05
1.0880474e-05
5.0837306e-06
1.7246761e-06
3.2512253e-07
2.7131349e-08
8.2810872e-10
8.1607907e-12
2.327826e-13
4.9721719e-14
1.0630534e-14
2.0857299e-15
3.7204916e-16
6.0098085e-17
8.7692246e-18
1.1539896e-18
1.3679042e-19
1.4586451e-20
1.3971064e-21
1.2011653e-22
9.2071547e-24
6.1755989e-25
3.5404553e-26
1.6857281e-27
6.3870069e-29
1.8001305e-30
3.3448004e-32
3.0670606e-34
0.00035800091
0.00035645798
0.00034990367
0.00035190764
0.00035801059
0.00036848171
0.00036967556
0.00035326109
0.00033534499
0.00032431161
0.00033503815
0.00031871911
0.00033244563
0.00035392316
0.00035542105
0.0003369989
0.00030171931
0.00023130731
0.00012967583
6.3353318e-05
4.0892822e-05
3.10567e-05
2.0140139e-05
9.5985675e-06
2.6976142e-06
3.5877599e-07
1.8664245e-08
3.1128559e-10
1.9547857e-12
1.7935928e-13
3.9473148e-14
8.1542491e-15
1.5436534e-15
2.6635849e-16
4.1794216e-17
5.9602859e-18
7.7311043e-19
9.1343094e-20
9.8428607e-21
9.6770467e-22
8.6650156e-23
6.9800324e-24
4.9414437e-25
2.9903574e-26
1.4955813e-27
5.9000577e-29
1.712656e-30
3.2400944e-32
2.9914635e-34
0.00034371909
0.00036213716
0.00035447496
0.00034358262
0.00034438985
0.00035277044
0.00036322278
0.00035952291
0.00033761772
0.00031488833
0.00029891864
0.00032638262
0.00033779932
0.00035652845
0.00035557277
0.00033856405
0.00031203369
0.00025557264
0.00016011958
8.7291081e-05
6.8177263e-05
6.4545602e-05
5.4569997e-05
3.4966948e-05
1.4163121e-05
2.9218535e-06
2.535341e-07
7.6212811e-09
6.3945832e-11
7.2920713e-13
1.3676767e-13
2.9433959e-14
5.8794443e-15
1.0789966e-15
1.8152158e-16
2.8020637e-17
3.9827759e-18
5.2391868e-19
6.4100329e-20
7.3079306e-21
7.7361653e-22
7.5159887e-23
6.5485617e-24
4.9653916e-25
3.177447e-26
1.6562998e-27
6.7155399e-29
1.9785889e-30
3.758182e-32
3.4503669e-34
0.00033266497
0.0003507299
0.00036406596
0.00035058801
0.00033553804
0.00033535098
0.00034545615
0.0003545497
0.00034547731
0.00031726504
0.0002894574
0.00026824922
0.00034124742
0.00035703195
0.00035341451
0.00033727153
0.00031851543
0.00027565753
0.00018898824
0.00011310525
9.3305158e-05
0.00010576105
0.00010674897
8.6781573e-05
4.8389092e-05
1.5021059e-05
2.121519e-06
1.1230127e-07
1.804739e-09
1.0133027e-11
4.5726304e-13
9.8817703e-14
2.0690032e-14
4.0250202e-15
7.2548429e-16
1.215588e-16
1.9073572e-17
2.8283734e-18
3.9918939e-19
5.3630363e-20
6.7901377e-21
7.9535303e-22
8.4116794e-23
7.8139521e-24
6.1955021e-25
4.0802093e-26
2.1613405e-27
8.8193112e-29
2.5956601e-30
4.8955629e-32
4.4392644e-34
0.00034295208
0.00033755844
0.00035595512
0.00036387651
0.00034465831
0.00032577371
0.00032422629
0.00033541909
0.00034210617
0.00032679833
0.00029204019
0.00025915345
0.00023295964
0.00035548143
0.00034906793
0.00033375478
0.00032214608
0.00029181141
0.00021582571
0.0001391263
0.00011809844
0.00014178792
0.00016409686
0.00015630555
0.00011251631
5.0289142e-05
1.1230872e-05
1.0191926e-06
3.0844454e-08
3.0214092e-10
2.3188584e-12
3.1215538e-13
6.7747598e-14
1.3940174e-14
2.6985082e-15
4.9464795e-16
8.687038e-17
1.4782632e-17
2.4461557e-18
3.9027385e-19
5.8884236e-20
8.1981778e-21
1.028224e-21
1.1360069e-22
1.0815201e-23
8.6757923e-25
5.7319745e-26
3.0288941e-27
1.228269e-28
3.5829798e-30
6.6834768e-32
3.4350848e-36
0.0003518081
0.00034285362
0.00034121257
0.00035939414
0.00036155103
0.00033680838
0.00031389474
0.00031069081
0.00032207277
0.00032528295
0.00030318539
0.00026217664
0.00022460265
0.00019129707
0.00034273231
0.00032847507
0.00032385132
0.00030468579
0.00024030104
0.00016449297
0.00014189692
0.00017058109
0.00021311934
0.00022280117
0.0001909478
0.00011519931
3.8929185e-05
5.8684735e-06
3.2252192e-07
6.1585923e-09
4.5815596e-11
1.0206476e-12
2.0819874e-13
4.5244547e-14
9.4661736e-15
1.923644e-15
3.8493516e-16
7.6378174e-17
1.4908733e-17
2.8027997e-18
4.9455539e-19
7.9940205e-20
1.1597999e-20
1.4851395e-21
1.6529099e-22
1.5709167e-23
1.2524746e-24
8.2042641e-26
4.2927848e-27
1.7226598e-28
4.9712862e-30
5.3594312e-34
1.378018e-38
0.000334458
0.00034572288
0.00034099536
0.00034390549
0.00036093381
0.00035716063
0.00032669822
0.00029949197
0.00029453253
0.0003048679
0.00030373599
0.00027466603
0.0002275906
0.00018361873
0.00014198907
0.00032193907
0.00032431069
0.0003152769
0.0002621929
0.00018885175
0.00016424082
0.00019567388
0.00024545512
0.00027407911
0.00025769078
0.00019347798
9.3016105e-05
2.2222099e-05
2.1344751e-06
7.6558583e-08
1.0520664e-09
7.6608488e-12
6.1345577e-13
1.3910721e-13
3.1785823e-14
7.282631e-15
1.6866586e-15
3.9216338e-16
8.9450735e-17
1.9433086e-17
3.917094e-18
7.1845693e-19
1.1812838e-19
1.7197797e-20
2.1923399e-21
2.4177782e-22
2.2711838e-23
1.7889166e-24
1.1578421e-25
5.9889306e-27
2.3773043e-28
4.3110411e-32
2.0957832e-36
2.9297766e-41
0.00031452005
0.00032424149
0.00033722674
0.00033792315
0.00034557542
0.00036037679
0.00035047308
0.00031397715
0.00028229602
0.00027527849
0.00028340106
0.00027716877
0.00024037024
0.00018602122
0.00013514255
8.9593247e-05
0.00032398398
0.00032463084
0.00028174688
0.00021207047
0.00018520054
0.00021741777
0.00027200099
0.00030726645
0.00030294282
0.00025803553
0.00016371632
5.825868e-05
9.269424e-06
5.9705501e-07
1.5339784e-08
1.5691325e-10
2.19805e-12
4.1051619e-13
1.0367891e-13
2.7204033e-14
7.3349373e-15
1.9799875e-15
5.1737e-16
1.2701821e-16
2.8668404e-17
5.8632938e-18
1.0758914e-18
1.755886e-19
2.5272542e-20
3.1796848e-21
3.4563178e-22
3.2011292e-23
2.4883043e-24
1.5910951e-25
8.1398675e-27
2.2764559e-30
1.7716583e-34
4.0138748e-39
3.0526658e-44
0.00032286259
0.00030591988
0.00031228185
0.00032721433
0.00033420687
0.00034564316
0.00035756912
0.00034104737
0.00029844274
0.0002618214
0.00025214282
0.00025705272
0.0002443235
0.0001981293
0.00013636054
8.5088224e-05
4.6406281e-05
0.00033352708
0.00029937688
0.00023413587
0.00020490022
0.00023663298
0.00029375096
0.00033319739
0.00033352437
0.00029815353
0.00022757245
0.00011296327
2.7790462e-05
3.0291736e-06
1.3934156e-07
2.605495e-09
2.2751402e-11
1.2156812e-12
3.3231541e-13
1.0067555e-13
3.1386073e-14
9.6546876e-15
2.8283328e-15
7.6984342e-16
1.9164237e-16
4.3181496e-17
8.7454379e-18
1.5828678e-18
2.5439072e-19
3.6045989e-20
4.4664836e-21
4.781176e-22
4.366859e-23
3.3522572e-24
2.119886e-25
8.6865465e-29
1.030429e-32
3.2692963e-37
3.8351634e-42
1.527298e-47
0.00034145528
0.0003204215
0.00029580716
0.00029893513
0.00031707953
0.00032916523
0.00034364221
0.00035193841
0.00032888585
0.00027941303
0.00023762098
0.00022481203
0.00022544375
0.00020330107
0.00014621387
8.6048087e-05
4.3598931e-05
1.8756527e-05
0.00031636777
0.00025494587
0.00022339517
0.00025366855
0.00031231225
0.0003534424
0.00035581506
0.00032512458
0.00027050293
0.00017268004
6.1212944e-05
1.05023e-05
8.1577609e-07
2.7272884e-08
3.8059572e-10
5.1408446e-12
1.0547568e-12
3.6704205e-13
1.3021462e-13
4.4719331e-14
1.4421935e-14
4.2903545e-15
1.1648106e-15
2.8658735e-16
6.3555291e-17
1.2649451e-17
2.2494908e-18
3.5540249e-19
4.9555028e-20
6.0464805e-21
6.379556e-22
5.7526799e-23
4.3670474e-24
2.5315219e-27
4.4281058e-31
1.9969522e-35
2.7700204e-40
1.8873341e-45
4.2778655e-51
0.00033220548
0.00034718533
0.0003161915
0.00028444573
0.00028428288
0.00030487477
0.00032229579
0.00033893764
0.00034336948
0.0003130772
0.00025644023
0.00020953909
0.00019348196
0.00018630276
0.00015184144
9.2800693e-05
4.4149567e-05
1.7271214e-05
5.6172126e-06
0.00027452552
0.0002407077
0.00026851156
0.00032798803
0.00037024835
0.0003715355
0.00034227223
0.00029881237
0.00022576869
0.00010581074
2.6394892e-05
3.236594e-06
1.8260841e-07
4.5042904e-09
5.3244436e-11
3.4369924e-12
1.3037425e-12
5.165397e-13
1.9457392e-13
6.8128664e-14
2.1919988e-14
6.4363864e-15
1.716511e-15
4.1413108e-16
9.0046096e-17
1.7583723e-17
3.0711065e-18
4.7715253e-19
6.5525899e-20
7.8778428e-21
8.2040052e-22
7.3150214e-23
5.8472096e-26
1.4671096e-29
9.5291106e-34
1.5937458e-38
1.2356739e-43
5.3848089e-49
7.7268209e-55
0.00029276827
0.00034582049
0.00035007128
0.00031023284
0.00027167712
0.0002679805
0.00029066682
0.00031280124
0.00033095899
0.0003310166
0.00029299496
0.0002285652
0.00017727213
0.00015584955
0.00013830184
9.6707925e-05
4.8126766e-05
1.7379107e-05
5.0170485e-06
1.2018886e-06
0.00025679855
0.00028110837
0.00034033647
0.00038385541
0.00038282328
0.00035179794
0.00031464101
0.00026332436
0.00016246433
5.1415068e-05
9.2067991e-06
8.2177793e-07
3.4225575e-08
6.4306755e-10
1.4429003e-11
4.4688254e-12
1.9400299e-12
7.907014e-13
2.975078e-13
1.0269895e-13
3.2396312e-14
9.3079501e-15
2.4283546e-15
5.7352275e-16
1.2221848e-16
2.3422872e-17
4.0208624e-18
6.1498695e-19
8.3255725e-20
9.8767556e-21
1.0169197e-21
1.0991565e-24
3.8673017e-28
3.6018565e-32
7.8604952e-37
6.1724218e-42
3.4026301e-47
9.9990071e-53
9.9290041e-59
0.00027178138
0.00030953425
0.00035619324
0.00035032814
0.00030234248
0.00025740661
0.00024986992
0.00027370261
0.00029994007
0.00031897714
0.00031410808
0.00026694436
0.00019471119
0.0001392857
0.00011209582
8.7070709e-05
5.0547668e-05
1.9153683e-05
4.9795085e-06
1.0341266e-06
1.8296022e-07
0.00029115775
0.00034875593
0.00039338525
0.00038995699
0.00035519432
0.00032138661
0.00028673421
0.0002116727
9.3708184e-05
2.0080016e-05
2.626559e-06
1.734871e-07
5.4347144e-09
1.0141033e-10
1.4917803e-11
6.8630875e-12
2.9958693e-12
1.2018067e-12
4.4218988e-13
1.4898421e-13
4.5865252e-14
1.2869464e-14
3.2827579e-15
7.5914818e-16
1.586639e-16
2.9872184e-17
5.0461555e-18
7.608497e-19
1.0165164e-19
1.1920361e-20
1.7153216e-23
8.3088489e-27
1.0960454e-30
3.2789661e-35
2.7730601e-40
1.5146224e-45
6.3438443e-51
1.3187984e-56
9.7245446e-63
0.00029886773
0.00028530005
0.00032436067
0.00036331717
0.0003479234
0.00029255692
0.00024141587
0.00022956667
0.00025355409
0.00028308255
0.00030245163
0.00029185382
0.00023318639
0.00015345423
9.7047189e-05
6.8093645e-05
4.4689059e-05
2.0413729e-05
5.5496197e-06
1.0040325e-06
1.5060486e-07
1.994839e-08
0.00035252374
0.00039727407
0.00039222232
0.00035288761
0.00032080203
0.00029871885
0.00025028695
0.00014182801
4.4111246e-05
6.3504916e-06
6.1884548e-07
3.0798607e-08
7.9590012e-10
5.2152068e-11
2.2860464e-11
1.0593401e-11
4.5019728e-12
1.7554581e-12
6.2832173e-13
2.0619043e-13
6.1908269e-14
1.6966671e-14
4.2339591e-15
9.5955443e-16
1.9691372e-16
3.6468835e-17
6.0709431e-18
9.0378863e-19
1.1933076e-19
2.2568109e-22
1.482494e-25
2.732336e-29
1.139395e-33
1.1552759e-38
5.7632859e-44
2.6931453e-49
8.5162901e-55
1.3196109e-60
8.5842955e-67
0.00035167083
0.00030419791
0.00029776485
0.00033692462
0.00036726567
0.00034293368
0.00028057339
0.00022344733
0.00020697134
0.00023000439
0.00026171469
0.00028069385
0.00026100482
0.0001879589
0.00010660171
5.6743113e-05
3.3288405e-05
1.7790909e-05
6.0197681e-06
1.131038e-06
1.4141683e-07
1.5756724e-08
1.5875982e-09
0.00039428789
0.00038798151
0.00034495556
0.00031393124
0.00030244053
0.00027679399
0.00019140894
7.7444107e-05
1.7004573e-05
1.645308e-06
1.2196269e-07
4.8046302e-09
2.1334644e-10
7.2352714e-11
3.5110954e-11
1.5698137e-11
6.451205e-12
2.4401745e-12
8.4925476e-13
2.7149174e-13
7.9541905e-14
2.1308234e-14
5.2071151e-15
1.1578951e-15
2.3362635e-16
4.2627868e-17
7.0046977e-18
1.0309966e-18
2.5342862e-21
2.2292911e-24
5.6690718e-28
3.2969735e-32
4.3080296e-37
2.1083515e-42
9.0348147e-48
3.5974805e-53
8.6866238e-59
1.1870392e-64
7.3619077e-71
0.0003839537
0.00034633299
0.00030831631
0.00030932581
0.00034682222
0.00036798729
0.00033513804
0.00026611343
0.00020319359
0.00018201107
0.00020292314
0.00023521001
0.00025158333
0.00021586596
0.00013381158
6.176805e-05
2.6251129e-05
1.2519381e-05
5.1964079e-06
1.2491341e-06
1.6089653e-07
1.4097167e-08
1.2133948e-09
9.435033e-11
0.00037631485
0.00033148527
0.00030189444
0.00029992786
0.00029417797
0.0002358197
0.00011959437
3.4746473e-05
5.4172832e-06
3.5542237e-07
2.1007346e-08
9.8720175e-10
2.2398343e-10
1.1022192e-10
5.1403946e-11
2.2065594e-11
8.7663677e-12
3.2189962e-12
1.0901808e-12
3.3977069e-13
9.7221757e-14
2.5483875e-14
6.1057534e-15
1.3340209e-15
2.6505127e-16
4.7728695e-17
7.7570386e-18
2.4536759e-20
2.8588887e-23
9.920851e-27
8.0057107e-31
1.3938049e-35
7.5319025e-41
2.7522409e-46
1.1433232e-51
3.7102698e-57
7.9635074e-63
1.0350943e-68
6.1410691e-75
0.00035704524
0.00036691332
0.00033838719
0.00031182227
0.00031944849
0.00035361652
0.0003654695
0.00032433008
0.00024876378
0.00018041037
0.00015499954
0.00017226371
0.00020533839
0.00020978288
0.00015775457
7.9306521e-05
2.7902048e-05
9.1381231e-06
3.4517538e-06
1.0719566e-06
1.8000055e-07
1.5958838e-08
1.0341155e-09
7.0576421e-11
4.2450754e-12
0.00031277907
0.00028576944
0.00029304009
0.00030526785
0.00027280627
0.00016735804
6.1081994e-05
1.2885622e-05
1.4522623e-06
7.1221435e-08
5.0192065e-09
8.1073858e-10
3.3953067e-10
1.6065458e-10
7.1342234e-11
2.9371411e-11
1.1281558e-11
4.026741e-12
1.3283946e-12
4.0401218e-13
1.1302191e-13
2.9022716e-14
6.8271519e-15
1.4678813e-15
2.8768713e-16
5.1223314e-17
2.0657971e-19
3.1569648e-22
1.4804481e-25
1.6470798e-29
3.8698075e-34
2.5107187e-39
8.3983918e-45
3.0540584e-50
1.1668946e-55
3.4586024e-61
7.0665426e-67
8.7625134e-73
4.9892809e-79
0.00028962486
0.00033141979
0.00034613088
0.00032940596
0.00031449848
0.00032739835
0.00035696228
0.0003594002
0.00031029055
0.0002278312
0.00015530706
0.00012678952
0.00014291226
0.00016682491
0.00015472066
9.6950407e-05
3.6612905e-05
9.2676676e-06