/*--------------------------------*- C++ -*----------------------------------*\
| =========                 |                                                 |
| \\      /  F ield         | OpenFOAM: The Open Source CFD Toolbox           |
|  \\    /   O peration     | Version:  5.0                                   |
|   \\  /    A nd           | Web:      www.OpenFOAM.org                      |
|    \\/     M anipulation  |                                                 |
\*---------------------------------------------------------------------------*/
FoamFile
{
    version     2.0;
    format      ascii;
    class       volScalarField;
    location    "400";
    object      nuTilda_0;
}
// * * * * * * * * * * * * * * * * * * * * * * * * * * * * * * * * * * * * * //

dimensions      [0 2 -1 0 0 0 0];

internalField   nonuniform List<scalar> 
9520
(
4.8336618e-33
5.1312074e-31
4.6806269e-33
2.6652473e-29
4.9705012e-31
4.5260505e-33
8.996601e-28
2.5822024e-29
4.8071538e-31
4.3763631e-33
2.2216096e-26
8.7172075e-28
2.4974767e-29
4.6491697e-31
4.2424231e-33
4.2894541e-25
2.1527352e-26
8.4319371e-28
2.4158169e-29
4.5098491e-31
4.1323117e-33
6.7684653e-24
4.1563623e-25
2.0825547e-26
8.1583726e-28
2.3448324e-29
4.3984708e-31
4.0470714e-33
8.9925566e-23
6.5582214e-24
4.0212503e-25
2.0156966e-26
7.9235865e-28
2.2894202e-29
4.3141791e-31
3.9785056e-33
1.0248878e-21
8.7142282e-23
6.3457569e-24
3.8935626e-25
1.958942e-26
7.7435552e-28
2.2479286e-29
4.2441817e-31
3.909606e-33
1.0165822e-20
9.9346667e-22
8.4343301e-23
6.1467456e-24
3.786243e-25
1.9158991e-26
7.6084112e-28
2.2116886e-29
4.1667102e-31
3.819988e-33
8.8941724e-20
9.8589944e-21
9.6202449e-22
8.1744216e-23
5.9810171e-24
3.7052415e-25
1.8830424e-26
7.4828813e-28
2.1678632e-29
4.0598725e-31
3.6952522e-33
7.0603887e-19
8.6274923e-20
9.5538115e-21
9.3299243e-22
7.9597463e-23
5.8559188e-24
3.6415109e-25
1.8504326e-26
7.3199995e-28
2.1055555e-29
3.912858e-31
3.537111e-33
5.9613734e-18
6.816008e-19
8.3663321e-20
9.2715384e-21
9.0911906e-22
7.7972854e-23
5.7534038e-24
3.573882e-25
1.8060007e-26
7.0861331e-28
2.0219878e-29
3.7353085e-31
3.3683323e-33
9.5786921e-17
5.536161e-18
6.5919823e-19
8.1208334e-20
9.0386678e-21
8.9099023e-22
7.6580604e-23
5.637355e-24
3.4789238e-25
1.742604e-26
6.7824212e-28
1.9262375e-29
3.5590166e-31
3.2281144e-33
3.2128069e-15
8.181533e-17
5.2004285e-18
6.3752656e-19
7.914975e-20
8.8617045e-21
8.7480711e-22
7.4906623e-23
5.4715829e-24
3.3459234e-25
1.6632035e-26
6.4527952e-28
1.8381222e-29
3.428854e-31
3.1576643e-33
1.1484794e-13
2.7792603e-15
7.0613843e-17
4.8593024e-18
6.1899965e-19
7.7605939e-20
8.6995689e-21
8.5428451e-22
7.2487299e-23
5.2452995e-24
3.1859504e-25
1.5816245e-26
6.1729644e-28
1.7815522e-29
3.3848308e-31
3.1813266e-33
3.3950024e-12
1.0545182e-13
2.3510905e-15
5.7064604e-17
4.5586833e-18
6.0580416e-19
7.6201278e-20
8.483971e-21
8.2430778e-22
6.9272076e-23
4.9849143e-24
3.0306826e-25
1.5180676e-26
6.0221666e-28
1.7743261e-29
3.4424839e-31
3.2921647e-33
7.8428276e-11
3.2980489e-12
9.1556739e-14
1.7011525e-15
4.4310247e-17
4.3636158e-18
5.9483569e-19
7.4249502e-20
8.1638634e-21
7.8541934e-22
6.5737389e-23
4.7472892e-24
2.9205322e-25
1.4909202e-26
6.0473897e-28
1.8186282e-29
3.5811292e-31
3.4494678e-33
1.3797696e-09
7.9609048e-11
2.9325297e-12
6.5053048e-14
1.0639615e-15
3.6457186e-17
4.2456624e-18
5.7933899e-19
7.126393e-20
7.7561421e-21
7.4456683e-22
6.272022e-23
4.5961538e-24
2.8871475e-25
1.5079793e-26
6.2352745e-28
1.8970366e-29
3.7464241e-31
3.5899213e-33
1.8054312e-08
1.4456949e-09
7.2076683e-11
2.0758682e-12
3.8696686e-14
6.9682997e-16
3.3013534e-17
4.119786e-18
5.5452894e-19
6.749292e-20
7.3466295e-21
7.1211753e-22
6.1041532e-23
4.5729561e-24
2.9373848e-25
1.5608561e-26
6.5065258e-28
1.976572e-29
3.8667935e-31
3.6478477e-33
1.7208767e-07
1.9236928e-08
1.3241699e-09
5.0997922e-11
1.2340311e-12
2.5063608e-14
5.7626629e-16
3.1300801e-17
3.9203208e-18
5.2308882e-19
6.3865656e-20
7.0462254e-21
6.9685367e-22
6.1113762e-23
4.674282e-24
3.0456628e-25
1.6256738e-26
6.7381068e-28
2.0194104e-29
3.8769609e-31
3.5766118e-33
1.1670205e-06
1.8397601e-07
1.781132e-08
9.4246409e-10
3.0780279e-11
8.631516e-13
2.2844637e-14
5.5471834e-16
2.8861585e-17
3.6652596e-18
4.9406442e-19
6.1434241e-20
6.9338996e-21
7.0165051e-22
6.2691515e-23
4.8456314e-24
3.1593682e-25
1.6704449e-26
6.8052526e-28
1.9956956e-29
3.7396004e-31
3.3638178e-33
5.5905895e-06
1.2368772e-06
1.711677e-07
1.2965828e-08
5.8949081e-10
2.3703062e-11
9.0581309e-13
2.4457614e-14
4.7866681e-16
2.5413167e-17
3.4398095e-18
4.7651844e-19
6.0799498e-20
7.0175563e-21
7.213948e-22
6.4874716e-23
4.9963836e-24
3.2162394e-25
1.6663703e-26
6.625258e-28
1.8935501e-29
3.4579437e-31
3.0359354e-33
1.8986685e-05
5.8644223e-06
1.1587293e-06
1.2831168e-07
8.7201995e-09
5.0096831e-10
2.8010601e-11
1.0563944e-12
2.1218977e-14
3.2569027e-16
2.2541137e-17
3.3186851e-18
4.7431083e-19
6.1827174e-20
7.2229745e-21
7.4406121e-22
6.6391144e-23
5.0313337e-24
3.167001e-25
1.5982816e-26
6.1855821e-28
1.7233022e-29
3.0760742e-31
2.6518491e-33
4.7308351e-05
1.9713639e-05
5.5181776e-06
9.0195043e-07
9.3241873e-08
7.9910827e-09
6.3868369e-10
3.4449666e-11
9.3304645e-13
1.2346537e-14
1.9996561e-16
2.1172841e-17
3.3209009e-18
4.8461633e-19
6.3652873e-20
7.4154556e-21
7.548203e-22
6.6058559e-23
4.8862594e-24
2.9937567e-25
1.4699332e-26
5.5494347e-28
1.5152088e-29
2.6679023e-31
2.2882902e-33
9.1332821e-05
4.876544e-05
1.8645428e-05
4.4528859e-06
7.0270137e-07
9.0786133e-08
1.039733e-08
8.0471816e-10
3.0662358e-11
5.2374387e-13
5.0819051e-15
1.43118e-16
2.1110578e-17
3.4104379e-18
4.9886032e-19
6.4975538e-20
7.4489493e-21
7.4162049e-22
6.3238134e-23
4.5526852e-24
2.7165834e-25
1.303242e-26
4.8401427e-28
1.3119341e-29
2.3191417e-31
2.0221159e-33
0.00014500214
9.3659773e-05
4.645051e-05
1.5610889e-05
3.6880894e-06
7.1373514e-07
1.176716e-07
1.3118918e-08
7.1656445e-10
1.6923526e-11
1.9366485e-13
1.945472e-15
1.2806792e-16
2.1758681e-17
3.5110016e-18
5.0592307e-19
6.4562308e-20
7.2227824e-21
6.9991872e-22
5.8091918e-23
4.0819005e-24
2.3880929e-25
1.13272e-26
4.2107314e-28
1.1583842e-29
2.1080009e-31
1.9143214e-33
0.00019705563
0.00014839907
9.0104724e-05
4.0167587e-05
1.3588047e-05
3.8624032e-06
9.1285095e-07
1.4657781e-07
1.1646494e-08
3.9357361e-10
6.0317855e-12
5.7993609e-14
1.0304938e-15
1.2888205e-16
2.2407962e-17
3.5360528e-18
4.9676397e-19
6.1741908e-20
6.7218318e-21
6.3465291e-22
5.1545897e-23
3.5704365e-24
2.0800189e-25
9.9705054e-27
3.8082661e-28
1.0918024e-29
2.089374e-31
1.9989416e-33
0.00024010864
0.0002000952
0.00014311863
7.9806556e-05
3.6197772e-05
1.4508653e-05
4.8525958e-06
1.1135532e-06
1.2959545e-07
6.4496823e-09
1.4153108e-10
1.7368652e-12
2.089285e-14
8.5845013e-16
1.3222627e-16
2.2405775e-17
3.4273189e-18
4.6815145e-19
5.6670505e-20
6.024897e-21
5.5879208e-22
4.5025416e-23
3.1355795e-24
1.8659425e-25
9.3020909e-27
3.7421189e-28
1.1343142e-29
2.2850316e-31
2.27782e-33
0.00027621834
0.00024258928
0.00019251664
0.00012845259
7.3282332e-05
3.8984399e-05
1.7856164e-05
5.7577475e-06
9.8129493e-07
7.3242734e-08
2.4434384e-09
4.4939206e-11
6.8043377e-13
1.5374622e-14
8.7250022e-16
1.3105084e-16
2.1409788e-17
3.1793714e-18
4.237924e-19
5.0287737e-20
5.2803267e-21
4.8966117e-22
4.0097831e-23
2.887514e-24
1.804589e-25
9.5420198e-27
4.0620647e-28
1.2889086e-29
2.680214e-31
2.7207175e-33
0.00030713733
0.00027781755
0.00023339597
0.00017510705
0.00011917428
7.8808544e-05
4.6914457e-05
2.0568379e-05
5.0606445e-06
5.7157567e-07
2.9790323e-08
8.7517619e-10
2.1110859e-11
6.6192547e-13
1.8148006e-14
8.5322008e-16
1.2286923e-16
1.9517788e-17
2.8379074e-18
3.7287709e-19
4.4020752e-20
4.6648674e-21
4.4467455e-22
3.8106178e-23
2.9043736e-24
1.9271965e-25
1.0745578e-26
4.7484543e-28
1.5388646e-29
3.2259023e-31
3.2698637e-33
0.00033323559
0.00030729879
0.00026728358
0.00021438911
0.00016489296
0.0001275237
9.2866486e-05
5.2559344e-05
1.8079442e-05
3.0625183e-06
2.5213669e-07
1.2188673e-08
5.0367189e-10
2.5752162e-11
9.2783937e-13
1.8254183e-14
7.3642348e-16
1.0947884e-16
1.7164795e-17
2.4797211e-18
3.2718653e-19
3.9403202e-20
4.3413052e-21
4.3732389e-22
3.9864476e-23
3.2149278e-24
2.2306451e-25
1.2789061e-26
5.7143744e-28
1.8502189e-29
3.8459475e-31
3.8483648e-33
0.00035370918
0.00033167984
0.00029576153
0.00024731031
0.00020424017
0.0001759898
0.00014762205
0.00010168537
4.6408135e-05
1.1455631e-05
1.4766765e-06
1.1932944e-07
8.6065852e-09
7.0426237e-10
3.8754607e-11
9.7068543e-13
1.2023944e-14
5.9280691e-16
9.4596486e-17
1.4914875e-17
2.1891111e-18
2.9814062e-19
3.772325e-20
4.4214064e-21
4.7406893e-22
4.5466782e-23
3.7910895e-24
2.6768309e-25
1.5386354e-26
6.8187756e-28
2.1768558e-29
4.448663e-31
4.3719023e-33
0.00036881079
0.00035061191
0.00031900505
0.00027577987
0.00023728093
0.00021707449
0.00020040142
0.00015930668
9.0748426e-05
3.0973619e-05
6.0779588e-06
8.1647179e-07
1.0152485e-07
1.2933234e-08
1.0884513e-09
4.1228584e-11
5.9431432e-13
5.5630245e-15
4.8371316e-16
8.1797389e-17
1.3294996e-17
2.0391941e-18
2.9435373e-19
3.9733627e-20
4.9390913e-21
5.5262939e-22
5.4234785e-23
4.5510375e-24
3.1982737e-25
1.8133968e-26
7.889009e-28
2.4679601e-29
4.941794e-31
4.7623924e-33
0.00037926149
0.00036439085
0.0003372119
0.00029941031
0.00026617444
0.00025060538
0.00024290906
0.00021262197
0.00014332041
6.3861604e-05
1.8118885e-05
3.9323132e-06
8.1146857e-07
1.5725717e-07
2.0013294e-08
1.1646414e-09
2.5394831e-11
2.0180082e-13
2.7613789e-15
4.1284124e-16
7.3859953e-17
1.2703799e-17
2.0780709e-18
3.1971479e-19
4.5454406e-20
5.8384287e-21
6.6195231e-22
6.4814004e-23
5.3726661e-24
3.7093558e-25
2.0580001e-26
8.7505658e-28
2.6768845e-29
5.2484343e-31
4.9612338e-33
0.00038519368
0.0003737521
0.000350637
0.00031845589
0.00029060119
0.00027902126
0.00027568542
0.00025360105
0.00019227448
0.0001055901
4.0939981e-05
1.3538288e-05
4.4008836e-06
1.2636843e-06
2.3946026e-07
2.1388041e-08
7.2837827e-10
8.5414919e-12
4.5271585e-14
1.9916198e-15
3.7833319e-16
7.2560158e-17
1.3354918e-17
2.3180304e-18
3.7216893e-19
5.4112801e-20
6.9797442e-21
7.8375014e-22
7.5378475e-23
6.1145531e-24
4.1219932e-25
2.2307087e-26
9.2591727e-28
2.7696267e-29
5.3206667e-31
4.9391786e-33
0.00038718895
0.00037906187
0.00036005009
0.00033320314
0.00031069818
0.00030270153
0.00030215098
0.00028430649
0.00023107894
0.00014769225
7.3333227e-05
3.4273007e-05
1.6398062e-05
6.762196e-06
1.8682211e-06
2.5427171e-07
1.363991e-08
2.5365984e-10
1.758486e-12
1.3600332e-14
1.8064093e-15
3.8220015e-16
7.854854e-17
1.522841e-17
2.7292516e-18
4.4362652e-19
6.4255603e-20
8.1584052e-21
8.9578998e-22
8.3992046e-23
6.6408843e-24
4.362812e-25
2.3012656e-26
9.3280531e-28
2.7309449e-29
5.1473919e-31
4.7002409e-33
0.00038663988
0.00038117023
0.00036600171
0.00034436719
0.00032678475
0.00032201354
0.00032337331
0.00030835371
0.00026096145
0.0001844312
0.00010994442
6.6590425e-05
4.3243922e-05
2.451069e-05
9.6037848e-06
1.9619462e-06
1.6599999e-07
4.9963783e-09
5.7091089e-11
3.2715492e-13
8.6638656e-15
1.8678442e-15
4.2499741e-16
9.1157559e-17
1.8040667e-17
3.2417777e-18
5.2130326e-19
7.3961542e-20
9.1494552e-21
9.7662826e-22
8.9015905e-23
6.8527646e-24
4.3866756e-25
2.2566942e-26
8.9430879e-28
2.5663814e-29
4.7542197e-31
4.2786063e-33
0.0003841894
0.00038102434
0.00036952892
0.00035246616
0.00033955907
0.00033729244
0.00034008085
0.0003272318
0.00028578097
0.00021455085
0.00014521856
0.00010519349
8.5115424e-05
6.2277902e-05
3.3202329e-05
9.9410724e-06
1.315888e-06
6.4704399e-08
1.2560317e-09
1.1204291e-11
7.7485732e-14
8.6001904e-15
2.1281276e-15
5.0022516e-16
1.0820295e-16
2.1270459e-17
3.7582976e-18
5.898129e-19
8.1289324e-20
9.7539518e-21
1.010037e-21
8.94437e-23
6.7069621e-24
4.1862883e-25
2.1031833e-26
8.1613132e-28
2.2997611e-29
4.1956335e-31
3.7295581e-33
0.00037968702
0.00037926664
0.00037152312
0.00035858693
0.00034935067
0.00034937071
0.00035275474
0.00034163035
0.00030558218
0.00024251041
0.00017591304
0.00014328345
0.00013387978
0.00011764182
8.0356736e-05
3.3850628e-05
6.8759708e-06
5.5118173e-07
1.8192868e-08
2.752629e-10
2.0314968e-12
4.2634216e-14
9.9580603e-15
2.5352271e-15
5.9311788e-16
1.2626653e-16
2.4270103e-17
4.1740092e-18
6.347403e-19
8.4693241e-20
9.8427548e-21
9.8853915e-22
8.5106324e-23
6.2227858e-24
3.7917636e-25
1.863501e-26
7.0937699e-28
1.9668793e-29
3.541782e-31
3.117158e-33
0.00037668872
0.00037644832
0.00037290247
0.00036384612
0.00035670085
0.00035833564
0.00036218067
0.0003520083
0.00032120106
0.00026624525
0.00020418716
0.00017682043
0.00017966727
0.00017786957
0.00014488608
8.0892247e-05
2.4256399e-05
3.1212154e-06
1.7270271e-07
4.4353064e-09
5.3682158e-11
4.5398838e-13
4.5201908e-14
1.2005215e-14
2.9979236e-15
6.8346897e-16
1.415127e-16
2.6421067e-17
4.3955141e-18
6.4604393e-19
8.3371941e-20
9.3845431e-21
9.1477981e-22
7.6665134e-23
5.4737824e-24
3.2611382e-25
1.5708159e-26
5.8781371e-28
1.607368e-29
2.8639434e-31
2.5021913e-33
0.00037406911
0.00037678346
0.00037750651
0.00036825321
0.00036240464
0.0003645908
0.00036841184
0.00035900114
0.00033291243
0.00028625859
0.00022958322
0.00020478395
0.00021716406
0.00023013383
0.00020970205
0.0001441502
6.0305241e-05
1.1981474e-05
1.0831678e-06
4.6528033e-08
9.6777406e-10
1.1046882e-11
2.9340231e-13
5.5594736e-14
1.4164929e-14
3.4053442e-15
7.509512e-16
1.5068151e-16
2.7212115e-17
4.3691403e-18
6.2027378e-19
7.7434088e-20
8.4485559e-21
8.0029347e-22
6.5400011e-23
4.5671466e-24
2.6654048e-25
1.2609608e-26
4.6495249e-28
1.2571302e-29
2.2224682e-31
1.9331528e-33
0.00037177107
0.00037792114
0.00037697842
0.00037811472
0.0003663606
0.00036878493
0.00037199193
0.00036292636
0.00034132102
0.00030293373
0.0002518501
0.00022914558
0.0002460973
0.00026885112
0.00026271134
0.00020637818
0.00011180379
3.2439906e-05
4.5731742e-06
3.2120318e-07
1.1517665e-08
2.5066968e-10
7.0605413e-12
4.4134415e-13
6.6837466e-14
1.5841882e-14
3.6596965e-15
7.8071951e-16
1.5171734e-16
2.640936e-17
4.090793e-18
5.6114026e-19
6.7821614e-20
7.1812931e-21
6.6212593e-22
5.2868166e-23
3.6177747e-24
2.0728663e-25
9.6544011e-27
3.5173745e-28
9.4314616e-30
1.6595968e-31
1.4418086e-33
0.00036845582
0.00037613078
0.00037975132
0.00037604502
0.00037760482
0.00037080554
0.00037332879
0.00036442151
0.00034701843
0.00031665193
0.00027119923
0.00025029352
0.00026826789
0.00029601602
0.00029808985
0.00025520095
0.0001653299
6.5240226e-05
1.3545845e-05
1.4944993e-06
9.2669284e-08
4.1831852e-09
2.4037799e-10
1.5006291e-11
6.7642802e-13
7.3759721e-14
1.659469e-14
3.7059159e-15
7.6700305e-16
1.4372291e-16
2.4110355e-17
3.6045394e-18
4.7815036e-19
5.6020316e-20
5.7657534e-21
5.1850828e-22
4.0548737e-23
2.7250045e-24
1.5369295e-25
7.0688692e-27
2.5532801e-28
6.8141353e-30
1.1978728e-31
1.0432476e-33
0.0003705775
0.00036941101
0.00037912482
0.00037934052
0.00037383894
0.00037512599
0.00037256479
0.00036396338
0.00035072823
0.00032777332
0.0002879485
0.000268516
0.00028662119
0.00031471836
0.00032005525
0.00028746868
0.00020981969
0.00010398351
2.9701631e-05
4.9306059e-06
5.2762719e-07
5.0137291e-08
5.6269929e-09
5.5360832e-10
2.7657779e-11
7.7071671e-13
7.3433294e-14
1.6289599e-14
3.5414156e-15
7.0899414e-16
1.2791911e-16
2.0691081e-17
2.988244e-18
3.8382898e-19
4.3664245e-20
4.3774991e-21
3.8500092e-22
2.9578456e-23
1.9581039e-24
1.0910225e-25
4.9763621e-27
1.7902181e-28
4.7777258e-30
8.4296385e-32
7.3912256e-34
0.00036971649
0.00036776803
0.000370866
0.00038027164
0.00037697235
0.00036972914
0.00036923258
0.00036203608
0.00035316112
0.00033688855
0.00030235285
0.00028412743
0.00030163511
0.0003293708
0.00033544815
0.00030834516
0.00024256935
0.00014083615
5.1706349e-05
1.2288186e-05
2.2558567e-06
4.2528016e-07
8.3356281e-08
1.2843857e-08
1.0124722e-09
3.2470786e-11
5.9541461e-13
6.7879156e-14
1.5072109e-14
3.191171e-15
6.1504702e-16
1.0691109e-16
1.6690103e-17
2.3317258e-18
2.9054252e-19
3.2169843e-20
3.151323e-21
2.7215997e-22
2.0634909e-23
1.3524688e-24
7.488069e-26
3.4099804e-27
1.2303462e-28
3.3058892e-30
5.8896233e-32
5.2244633e-34
0.00035899077
0.00036474473
0.00036486292
0.00037182481
0.0003792904
0.00037250399
0.0003622193
0.0003591017
0.00035501511
0.00034470208
0.00031477244
0.00029740177
0.00031387846
0.00034010429
0.00034620081
0.00032320969
0.0002686879
0.00017211556
7.6464198e-05
2.4793208e-05
7.4922366e-06
2.5157593e-06
7.8356911e-07
1.8234643e-07
2.2655284e-08
1.1843273e-09
2.2061721e-11
3.5956107e-13
5.9892993e-14
1.3197721e-14
2.697117e-15
5.0055673e-16
8.3919424e-17
1.2664139e-17
1.7153351e-18
2.0798092e-19
2.2506921e-20
2.1663827e-21
1.8506933e-22
1.3963979e-23
9.1499866e-25
5.0897909e-26
2.341526e-27
8.5696703e-29
2.3410605e-30
4.2424291e-32
3.8239743e-34
0.00035643074
0.00035504245
0.0003585899
0.0003619977
0.00037133865
0.00037599751
0.00036462313
0.00035078756
0.00034442147
0.00035146627
0.00032575531
0.0003086383
0.00032355364
0.00034802996
0.00035260406
0.00033290362
0.00028872705
0.00020617471
0.00010116154
4.2374162e-05
1.9477856e-05
1.0294201e-05
4.7558656e-06
1.6113321e-06
3.0742945e-07
2.6162694e-08
8.2024639e-10
8.3651285e-12
2.3718526e-13
5.0612882e-14
1.0855748e-14
2.1369854e-15
3.8241706e-16
6.1960094e-17
9.0656028e-18
1.1956897e-18
1.4195622e-19
1.5146628e-20
1.4498417e-21
1.2439681e-22
9.504475e-24
6.3474448e-25
3.6203952e-26
1.7146919e-27
6.4652876e-29
1.8151203e-30
3.3640629e-32
3.0816556e-34
0.00035809382
0.00035602977
0.00034980807
0.00035217871
0.00035831468
0.00036880053
0.00036956266
0.00035288797
0.00033521409
0.00032445343
0.00033561388
0.00031809668
0.00033099076
0.00035311406
0.00035585274
0.00033800581
0.00030336868
0.00023449608
0.00013253327
6.3601801e-05
3.969579e-05
2.9571424e-05
1.9052081e-05
9.0731379e-06
2.5768586e-06
3.4882342e-07
1.8594473e-08
3.2024659e-10
2.0563841e-12
1.8306357e-13
4.0388875e-14
8.3701951e-15
1.5894245e-15
2.7502478e-16
4.3253782e-17
6.1778319e-18
8.016009e-19
9.4585644e-20
1.0157894e-20
9.930423e-22
8.8249798e-23
7.048138e-24
4.9449685e-25
2.9672201e-26
1.4733024e-27
5.7798551e-29
1.6715236e-30
3.1564635e-32
2.9143541e-34
0.00034431211
0.00036207166
0.00035390392
0.00034341567
0.00034472318
0.00035322436
0.00036355591
0.00035935179
0.0003372267
0.00031478156
0.0002990811
0.0003259317
0.0003365321
0.00035592285
0.00035614819
0.00033947481
0.00031327961
0.00025834178
0.00016314949
8.770554e-05
6.6257275e-05
6.1886458e-05
5.2170631e-05
3.3435414e-05
1.3663155e-05
2.8625543e-06
2.5388669e-07
7.85636e-09
6.8336958e-11
7.5288572e-13
1.4024084e-13
3.0267957e-14
6.063046e-15
1.1152978e-15
1.8791181e-16
2.9011651e-17
4.1160143e-18
5.3899529e-19
6.5443482e-20
7.3831522e-21
7.7203668e-22
7.4086916e-23
6.3839292e-24
4.7956303e-25
3.0467057e-26
1.5798973e-27
6.3839099e-29
1.8773843e-30
3.5642908e-32
3.2752292e-34
0.00033240434
0.00035131031
0.00036384823
0.00034989096
0.00033531873
0.00033575394
0.00034605656
0.00035488187
0.00034525471
0.00031686157
0.00028937378
0.00026842534
0.00034017739
0.00035663773
0.00035413554
0.00033807861
0.00031936318
0.00027791511
0.00019205706
0.00011371998
9.0951351e-05
0.00010205481
0.00010298857
8.3878507e-05
4.7118132e-05
1.4819119e-05
2.1337226e-06
1.15926e-07
1.9255003e-09
1.0813388e-11
4.705927e-13
1.0179875e-13
2.1362722e-14
4.1621985e-15
7.5028719e-16
1.2544442e-16
1.9578421e-17
2.8767849e-18
4.0089017e-19
5.3065278e-20
6.6199445e-21
7.6554954e-22
8.0169832e-23
7.393948e-24
5.8329822e-25
3.8285642e-26
2.0237542e-27
8.2480971e-29
2.4264376e-30
4.5772729e-32
4.1542004e-34
0.00034209922
0.00033748007
0.00035649728
0.00036350804
0.00034384305
0.000325508
0.00032470108
0.00033611411
0.00034243396
0.00032652625
0.00029163105
0.00025908494
0.00023313189
0.0003553019
0.00034992452
0.0003344444
0.00032260451
0.00029357383
0.00021882604
0.00013996241
0.0001156102
0.00013727166
0.00015949257
0.00015245292
0.00011045546
4.9908585e-05
1.1334323e-05
1.0528102e-06
3.2806088e-08
3.2439673e-10
2.4383628e-12
3.2220456e-13
7.0010267e-14
1.4407604e-14
2.7828907e-15
5.0721955e-16
8.8183076e-17
1.4793204e-17
2.4075885e-18
3.779638e-19
5.6264514e-20
7.7562565e-21
9.6639464e-22
1.0633349e-22
1.0097302e-23
8.0874691e-25
5.3386022e-26
2.8197303e-27
1.1432295e-28
3.334919e-30
6.2219116e-32
3.2502852e-36
0.0003518526
0.00034224884
0.00034133017
0.00035987413
0.00036103272
0.00033588047
0.00031358873
0.00031122269
0.00032283173
0.00032560068
0.00030286836
0.00026176028
0.0002245479
0.00019147087
0.00034370293
0.00032900393
0.00032391994
0.00030596058
0.00024313215
0.00016555041
0.00013942956
0.0001658349
0.00020798838
0.00021886337
0.00018865329
0.00011482642
3.9374545e-05
6.060913e-06
3.4187941e-07
6.6006248e-09
4.9335783e-11
1.0603258e-12
2.15233e-13
4.6673629e-14
9.7102084e-15
1.9527405e-15
3.8485356e-16
7.5007137e-17
1.4392195e-17
2.6687454e-18
4.664085e-19
7.4940831e-20
1.0835898e-20
1.3851902e-21
1.5405421e-22
1.4636858e-23
1.1669317e-24
7.644407e-26
4.0001614e-27
1.6053051e-28
4.6325963e-30
4.995208e-34
1.3390789e-38
0.00033550585
0.00034599895
0.00034067805
0.00034422628
0.00036132699
0.00035650002
0.00032566491
0.00029915328
0.00029510478
0.000305677
0.00030403712
0.00027431033
0.00022719539
0.00018358497
0.00014214471
0.00032222086
0.00032397698
0.00031609164
0.00026477016
0.00019012544
0.00016190286
0.00019086665
0.00024038645
0.00027056029
0.00025582812
0.00019340207
9.4143147e-05
2.2923536e-05
2.2537194e-06
8.1844007e-08
1.1350516e-09
8.1952398e-12
6.3447968e-13
1.4297774e-13
3.2333828e-14
7.2929842e-15
1.6574266e-15
3.7842516e-16
8.5096246e-17
1.8313218e-17
3.6711303e-18
6.7146299e-19
1.1027803e-19
1.6052298e-20
2.0470067e-21
2.2586055e-22
2.1226595e-23
1.6726147e-24
1.0828896e-25
5.6021074e-27
2.2237519e-28
4.0015269e-32
1.977086e-36
2.9556514e-41
0.00031455909
0.00032532159
0.00033773405
0.00033790814
0.00034605152
0.00036067464
0.00034967113
0.00031284438
0.00028192923
0.00027590561
0.00028425379
0.00027745261
0.00024000364
0.00018566263
0.0001351404
8.9697143e-05
0.00032323593
0.00032500277
0.00028402104
0.00021355458
0.00018305737
0.00021266123
0.00026703484
0.00030402354
0.0003017734
0.00025838354
0.00016556618
5.9956074e-05
9.7452978e-06
6.3648754e-07
1.652867e-08
1.70156e-10
2.3009402e-12
4.1957342e-13
1.0427862e-13
2.6821681e-14
7.0920859e-15
1.8855566e-15
4.8790701e-16
1.1914912e-16
2.6828282e-17
5.4832398e-18
1.0064197e-18
1.6437435e-19
2.3681181e-20
2.9824383e-21
3.2445072e-22
3.0069172e-23
2.3384484e-24
1.4956884e-25
7.6523195e-27
2.1164273e-30
1.6457587e-34
3.909176e-39
3.1611746e-44
0.00032171014
0.00030572261
0.00031335963
0.00032796085
0.00033447226
0.00034623434
0.00035777198
0.00034011289
0.00029721189
0.00026143667
0.00025282504
0.00025794013
0.00024457965
0.00019776186
0.00013607989
8.5079653e-05
4.6471039e-05
0.00033343622
0.00030136957
0.00023577553
0.00020299621
0.00023199284
0.00028892969
0.0003302237
0.00033280054
0.00029891239
0.00022973283
0.0001158457
2.9078671e-05
3.2196492e-06
1.4990038e-07
2.8281086e-09
2.4596983e-11
1.2365616e-12
3.2981067e-13
9.7770564e-14
2.9967443e-14
9.1204577e-15
2.6570927e-15
7.2162986e-16
1.7957866e-16
4.0489044e-17
8.2091611e-18
1.4877377e-18
2.394235e-19
3.3968736e-20
4.2137883e-21
4.5144942e-22
4.1258909e-23
3.1685563e-24
2.0040562e-25
8.1095568e-29
9.5334636e-33
3.0841928e-37
3.8842225e-42
1.5971633e-47
0.00034091941
0.00031888621
0.00029535319
0.00030001343
0.00031806628
0.00032972456
0.000344339
0.00035204674
0.0003278212
0.0002780968
0.00023722843
0.00022553125
0.00022632177
0.00020350796
0.00014588805
8.5850692e-05
4.3592226e-05
1.8789657e-05
0.00031811525
0.0002567011
0.00022177058
0.00024920058
0.00030764029
0.00035079946
0.00035554761
0.00032620198
0.00027242934
0.00017628255
6.3749154e-05
1.1126031e-05
8.7610409e-07
2.9589399e-08
4.1540892e-10
5.3432513e-12
1.03299e-12
3.5201279e-13
1.2331452e-13
4.2085874e-14
1.3541686e-14
4.0279634e-15
1.0946103e-15
2.6970496e-16
5.9909167e-17
1.1943587e-17
2.1273932e-18
3.3661701e-19
4.699858e-20
5.7406523e-21
6.0616232e-22
5.4689126e-23
4.1527929e-24
2.3758433e-27
4.1044853e-31
1.8514309e-35
2.7098449e-40
1.9569907e-45
4.4803495e-51
0.00033372928
0.00034624564
0.00031430981
0.0002837528
0.00028538122
0.00030614166
0.00032315652
0.00033973557
0.00034339797
0.00031188958
0.00025505388
0.00020915988
0.00019422113
0.00018713069
0.00015197197
9.2577183e-05
4.4030084e-05
1.7270393e-05
5.6299911e-06
0.0002763897
0.00023939892
0.00026428125
0.00032348815
0.00036795292
0.00037178954
0.00034374245
0.00030058072
0.00022892322
0.00010967898
2.7864346e-05
3.4690237e-06
1.9799936e-07
4.9236421e-09
5.7651115e-11
3.3458988e-12
1.239189e-12
4.8701979e-13
1.8296237e-13
6.406276e-14
2.0637474e-14
6.0706298e-15
1.6221815e-15
3.9215958e-16
8.5434261e-17
1.6713678e-17
2.9240866e-18
4.549984e-19
6.2564919e-20
7.5289053e-21
7.8458942e-22
6.9985273e-23
5.5194665e-26
1.3659474e-29
8.7910639e-34
1.5072908e-38
1.2551738e-43
5.6319124e-49
8.0782836e-55
0.00029474181
0.00034707681
0.00034876706
0.00030803531
0.00027076078
0.00026907537
0.00029220581
0.00031396925
0.00033186413
0.00033096137
0.0002916973
0.00022715509
0.00017695135
0.00015656802
0.00013899659
9.6801389e-05
4.7984403e-05
1.732426e-05
5.0185642e-06
1.2052997e-06
0.00025585118
0.00027719257
0.00033606133
0.00038192792
0.00038369217
0.00035373174
0.0003163715
0.00026585119
0.00016685701
5.4070036e-05
9.8446881e-06
8.9029455e-07
3.7429867e-08
7.0540225e-10
1.4481264e-11
4.2251683e-12
1.8260265e-12
7.4420729e-13
2.8045754e-13
9.7025388e-14
3.067935e-14
8.8356604e-15
2.310461e-15
5.4687213e-16
1.1677567e-16
2.242151e-17
3.8554487e-18
5.9055508e-19
8.0041408e-20
9.5032091e-21
9.7898176e-22
1.0438654e-24
3.6206903e-28
3.3283703e-32
7.2875915e-37
6.0631487e-42
3.531297e-47
1.0470333e-52
1.0349788e-58
0.0002712291
0.00031159368
0.00035713707
0.00034869258
0.00029986308
0.0002562769
0.00025094606
0.00027550335
0.00030141464
0.00031999463
0.00031397668
0.00026552164
0.000193332
0.00013903912
0.00011272449
8.757202e-05
5.0599578e-05
1.9081124e-05
4.9613381e-06
1.0350812e-06
1.8358049e-07
0.00028765472
0.00034479726
0.00039184554
0.00039154621
0.0003576846
0.00032320501
0.00028855487
0.00021556143
9.7653308e-05
2.1415621e-05
2.8420479e-06
1.8976637e-07
5.9822756e-09
1.0772883e-10
1.4115185e-11
6.4594451e-12
2.8250186e-12
1.1363805e-12
4.1933178e-13
1.4168483e-13
4.3736833e-14
1.2303857e-14
3.1460664e-15
7.2916821e-16
1.5270924e-16
2.880408e-17
4.8736852e-18
7.3588182e-19
9.8411787e-20
1.1548244e-20
1.6392586e-23
7.8263757e-27
1.0174388e-30
3.020506e-35
2.6312536e-40
1.5418847e-45
6.6352789e-51
1.3784257e-56
1.0102316e-62
0.00029587495
0.00028516293
0.00032642379
0.00036392467
0.00034597819
0.00028982302
0.00024008742
0.00023059537
0.0002555846
0.0002848487
0.00030357078
0.00029160937
0.00023168064
0.00015221948
9.6889242e-05
6.8553101e-05
4.4992712e-05
2.0428525e-05
5.5227732e-06
9.9990683e-07
1.5088716e-07
2.0021665e-08
0.00034899517
0.00039618882
0.00039460034
0.00035603177
0.00032267468
0.00029989728
0.00025325062
0.00014657639
4.6605395e-05
6.8621338e-06
6.7681153e-07
3.395494e-08
8.6923339e-10
5.0240741e-11
2.1533022e-11
1.0011976e-11
4.2706345e-12
1.6711037e-12
6.0008424e-13
1.9752258e-13
5.9474051e-14
1.6342685e-14
4.0882536e-15
9.2861601e-16
1.9094968e-16
3.5427436e-17
5.9067403e-18
8.8044162e-19
1.163446e-19
2.1705647e-22
1.4053138e-25
2.5510744e-29
1.0507498e-33
1.0726539e-38
5.6798752e-44
2.7968596e-49
8.9158554e-55
1.3751707e-60
8.8853527e-67
0.00034870653
0.00030180808
0.00029801907
0.00033889944
0.00036752075
0.00034070436
0.00027761481
0.00022193849
0.00020791068
0.00023221773
0.00026375431
0.00028192698
0.00026062608
0.00018651701
0.00010562494
5.6665749e-05
3.3564543e-05
1.7928768e-05
6.0205623e-06
1.1242359e-06
1.4078524e-07
1.5797021e-08
1.5933576e-09
0.00039372552
0.00039111344
0.00034878371
0.00031584164
0.00030298953
0.00027859675
0.00019623037
8.1166705e-05
1.8207825e-05
1.7989237e-06
1.3457128e-07
5.2960784e-09
2.1415395e-10
6.8250902e-11
3.3245696e-11
1.4937524e-11
6.1643995e-12
2.3403029e-12
8.172387e-13
2.6206871e-13
7.7002775e-14
2.0683235e-14
5.0668179e-15
1.1292086e-15
2.2828782e-16
4.1724626e-17
6.8661234e-18
1.0116625e-18
2.4533196e-21
2.1271131e-24
5.3266975e-28
3.0541207e-32
3.9692838e-37
2.0064181e-42
9.2140032e-48
3.7627704e-53
9.0769005e-59
1.2326798e-64
7.5921272e-71
0.00038399591
0.00034404419
0.0003065768
0.00030996056
0.00034862877
0.00036789016
0.00033264393
0.00026296043
0.00020153107
0.00018285272
0.0002052508
0.00023750517
0.00025280415
0.00021532758
0.00013256342
6.112278e-05
2.6234633e-05
1.2648815e-05
5.2402658e-06
1.2483209e-06
1.5973392e-07
1.4027375e-08
1.2170818e-09
9.4653944e-11
0.00038006986
0.00033582172
0.00030375675
0.00029980685
0.00029477944
0.00023984359
0.00012444629
3.6922775e-05
5.8732111e-06
3.9202919e-07
2.3154255e-08
1.0207839e-09
2.1158861e-10
1.0440854e-10
4.9001662e-11
2.1152964e-11
8.4417463e-12
3.1113402e-12
1.0573033e-12
3.3055942e-13
9.486143e-14
2.4931913e-14
5.9881118e-15
1.3111785e-15
2.610083e-16
4.7075622e-17
7.660651e-18
2.3909575e-20
2.7461746e-23
9.3840385e-27
7.4599986e-31
1.2849422e-35
7.0050594e-41
2.7201555e-46
1.1880209e-51
3.8834976e-57
8.2953747e-63
1.0709763e-68
6.3099688e-75
0.00036120994
0.00036760966
0.00033685998
0.00031074755
0.00032038411
0.00035519508
0.00036502121
0.00032159375
0.00024544273
0.00017863488
0.00015571113
0.00017457723
0.00020766153
0.0002108293
0.00015718342
7.8396963e-05
2.7574121e-05
9.1464772e-06
3.4953871e-06
1.0813948e-06
1.7972241e-07
1.582713e-08
1.0293138e-09
7.0814467e-11
4.2560793e-12
0.00031735304
0.00028744907
0.00029217458
0.00030461261
0.00027539011
0.00017283726
6.448051e-05
1.3871224e-05
1.5888176e-06
7.6946281e-08
4.9776871e-09
7.4149325e-10
3.1903741e-10
1.5303414e-10
6.8435725e-11
2.835949e-11
1.0950686e-11
3.9232053e-12
1.2986654e-12
3.9622021e-13
1.11166e-13
2.8622485e-14
6.7492304e-15
1.4542062e-15
2.8552196e-16
5.09126e-17
2.0264001e-19
3.0532368e-22
1.4100124e-25
1.5449245e-29
3.5831219e-34
2.3151179e-39
8.0141243e-45
3.119577e-50
1.2204871e-55
3.6124754e-61
7.3351834e-67
9.0330832e-73
5.107959e-79
0.00029417793
0.00033577951
0.00034746677
0.00032866773
0.00031405698
0.00032853018
0.00035825396
0.00035862227
0.00030731744
0.00022438519
0.00015347441
0.00012736482
0.00014517376
0.00016898988
0.00015547277
9.6440489e-05