/*--------------------------------*- C++ -*----------------------------------*\
| =========                 |                                                 |
| \\      /  F ield         | OpenFOAM: The Open Source CFD Toolbox           |
|  \\    /   O peration     | Version:  5.0                                   |
|   \\  /    A nd           | Web:      www.OpenFOAM.org                      |
|    \\/     M anipulation  |                                                 |
\*---------------------------------------------------------------------------*/
FoamFile
{
    version     2.0;
    format      ascii;
    class       volScalarField;
    location    "400";
    object      p;
}
// * * * * * * * * * * * * * * * * * * * * * * * * * * * * * * * * * * * * * //

dimensions      [0 2 -2 0 0 0 0];

internalField   nonuniform List<scalar> 
9520
(
2.1683976e-05
2.1989671e-05
-7.1429214e-05
2.2276326e-05
-6.9357824e-05
-0.0001206067
2.2154639e-05
-6.6008655e-05
-0.00011674448
-0.00018490121
2.1313251e-05
-6.2219269e-05
-0.00011037121
-0.00017861337
-0.00024093692
1.9446571e-05
-5.8898124e-05
-0.00010304767
-0.00016796607
-0.00023181546
-0.00030413116
1.6209235e-05
-5.7018475e-05
-9.6300335e-05
-0.0001552491
-0.000216252
-0.00029138607
-0.00036926964
1.1115983e-05
-5.7160655e-05
-9.1661432e-05
-0.00014260057
-0.00019720659
-0.00026954467
-0.00035267297
-0.00044162316
3.7327104e-06
-5.9748583e-05
-9.0358995e-05
-0.00013204337
-0.00017748017
-0.00024232553
-0.00032366989
-0.00042089218
-0.00051996726
-5.6717201e-06
-6.482777e-05
-9.3357122e-05
-0.00012547235
-0.00015973944
-0.00021318205
-0.00028644933
-0.00038405027
-0.00049458071
-0.00060716931
-1.5402067e-05
-7.2614699e-05
-0.00010098514
-0.00012451105
-0.0001464546
-0.00018526481
-0.00024521417
-0.00033562039
-0.00044906856
-0.00057703164
-0.00070374029
-2.6307776e-05
-8.4961773e-05
-0.00011343142
-0.00013041759
-0.00013964791
-0.00016164691
-0.00020373477
-0.00027972099
-0.00038843688
-0.00052255206
-0.0006689348
-0.00081044787
-3.9771542e-05
-0.00010022209
-0.00013014236
-0.00014397889
-0.00014077747
-0.00014532362
-0.00016564043
-0.00022114893
-0.00031711134
-0.00044914641
-0.00060555189
-0.00077123686
-0.00092764487
-5.3714708e-05
-0.00011056966
-0.00014950283
-0.00016300405
-0.00015107339
-0.00013934625
-0.00013451076
-0.00016392059
-0.00023989899
-0.0003618424
-0.00051918715
-0.00069935694
-0.00088446652
-0.001055406
-5.9294395e-05
-0.00011965611
-0.00016974775
-0.00018558959
-0.00017282479
-0.00014702749
-0.00011380902
-0.00011169035
-0.00016084896
-0.00026498911
-0.00041478472
-0.00060043915
-0.00080482276
-0.001008864
-0.0011934526
-6.0395425e-05
-0.00013418363
-0.0001902822
-0.00021919919
-0.00021311647
-0.0001722937
-0.00010690464
-6.7756133e-05
-8.355971e-05
-0.00016271229
-0.00029692691
-0.00047929562
-0.00069424827
-0.00092252837
-0.0011443
-0.0013411879
-3.5917173e-05
-0.00015243438
-0.00020565143
-0.00026186359
-0.00026628154
-0.0002183553
-0.00011852698
-3.4618189e-05
-1.08825e-05
-5.8771133e-05
-0.00016988811
-0.00034044051
-0.00055733867
-0.00080171115
-0.0010526084
-0.0012903391
-0.0014977286
-6.9491477e-05
-0.00016626489
-0.00021432244
-0.00028332765
-0.00033736129
-0.00028244682
-0.00014973057
-1.2717183e-05
5.5451922e-05
4.3945929e-05
-3.748038e-05
-0.00018802415
-0.0003983457
-0.00065043688
-0.00092301798
-0.0011948354
-0.0014462404
-0.0016619376
-2.5860484e-05
-0.00014746392
-0.00021204135
-0.00029655101
-0.00043520475
-0.00036608725
-0.00020402129
-3.4449119e-06
0.0001161004
0.00014338864
9.6920489e-05
-2.6195846e-05
-0.00022134603
-0.00047249394
-0.00075897478
-0.0010584348
-0.0013488158
-0.0016109524
-0.0018324716
-8.4510199e-05
-0.00015905873
-0.00017522068
-0.00029449221
-0.00055336847
-0.00048518549
-0.00028765649
-9.2992822e-06
0.0001721014
0.00023857492
0.0002302773
0.00014089322
-3.0984032e-05
-0.00027208114
-0.00056381999
-0.0008838538
-0.0012084057
-0.0015137766
-0.00178317
-0.0020078699
-4.3123153e-05
-0.000165646
-0.0001216512
-0.00026451479
-0.00067804894
-0.00064884128
-0.00040429345
-3.3121201e-05
0.00022600038
0.00032958054
0.00036027012
0.00030908403
0.00016787479
-5.3771903e-05
-0.00034140206
-0.00067417477
-0.0010268926
-0.0013724389
-0.0016883653
-0.0019614453
-0.002186655
-0.00018072942
-0.00021148693
3.8277042e-06
-0.00020927176
-0.00082253014
-0.00086831624
-0.00056578889
-7.0177913e-05
0.00028640748
0.00042373944
0.00048565326
0.00047379367
0.00037002958
0.00017747756
-9.5852973e-05
-0.00043222365
-0.0008059949
-0.001187516
-0.0015488791
-0.0018712153
-0.0021442864
-0.002367327
-0.0002113082
-0.00028305748
0.00016710242
-7.0225763e-05
-0.00096196164
-0.0011657437
-0.00078326745
-0.00013044635
0.00034416357
0.00052311963
0.0006051088
0.00063002362
0.00056932935
0.00041620471
0.00016821748
-0.00016151691
-0.00054789111
-0.00095946814
-0.0013639996
-0.001736687
-0.002060881
-0.0023302167
-0.0025482874
-0.00035683281
-0.00037444253
0.00047502044
6.1567307e-05
-0.0011298494
-0.0015415023
-0.0010678617
-0.00021177824
0.00041417052
0.00063157534
0.00069076516
0.00076984237
0.00075907873
0.00065630308
0.00044577035
0.0001339008
-0.00025553188
-0.00068979489
-0.0011332102
-0.0015555612
-0.0019344974
-0.0022558872
-0.0025176377
-0.0027279779
-0.0004065039
-0.00044380126
0.000740068
0.00035584396
-0.0013203389
-0.0020748996
-0.0014281852
-0.0003230092
0.00050945915
0.0007680661
0.00077743377
0.00089179937
0.000930604
0.00089149088
0.00073153545
0.00044960601
6.7574662e-05
-0.00038049967
-0.0008562974
-0.0013258386
-0.0017612118
-0.0021407858
-0.0024545449
-0.0027048129
-0.0029050686
-0.00063479302
-0.00062399019
0.0012592526
0.00053823978
-0.001555375
-0.0026752875
-0.0018699694
-0.00046806578
0.00063772783
0.00095058828
0.00088284925
0.00098217334
0.0010890034
0.0011156323
0.0010204442
0.00078133084
0.00041753501
-3.4524723e-05
-0.00053431739
-0.0010460426
-0.0015373215
-0.0019793148
-0.0023538335
-0.0026549817
-0.0028902244
-0.0030782237
-0.00090806552
-0.00081286087
0.0017999799
0.001396655
-0.0017894035
-0.0035533804
-0.0023779837
-0.00065666837
0.00082976694
0.0011927554
0.0010065592
0.0010254051
0.0012163098
0.0013228592
0.0013077353
0.0011250642
0.00079065579
0.00034470359
-0.0001695391
-0.00071616732
-0.0012598771
-0.0017661329
-0.0022081154
-0.0025717599
-0.0028556594
-0.0030726364
-0.0032461356
-0.0010255943
-0.00084793862
0.0024509978
0.0017180416
-0.0020259986
-0.0043094367
-0.0029888542
-0.00092787678
0.0011130838
0.0015158235
0.0011467509
0.0010290527
0.0012845158
0.0015026755
0.0015898138
0.0014786555
0.0011838616
0.00075382764
0.00023478017
-0.00033774338
-0.00092759421
-0.0014964804
-0.0020104614
-0.0024459601
-0.0027928889
-0.0030551536
-0.0032506634
-0.0034077166
-0.001088799
-0.00075402782
0.0030587231
0.0022681346
-0.0022883896
-0.0054988818
-0.0037910923
-0.0012667201
0.0015250984
0.0019254568
0.0013243522
0.00098434362
0.0012813417
0.0016387937
0.0018609986
0.001842556
0.0015978371
0.001190425
0.0006744929
8.5938972e-05
-0.00054097245
-0.0011675013
-0.0017541982
-0.0022687167
-0.0026909993
-0.0030151808
-0.0032515529
-0.0034229244
-0.0035620068
-0.0010075852
-0.00074942474
0.0036921129
0.0025934261
-0.0026318901
-0.0069450432
-0.0046767027
-0.0015867248
0.0020637174
0.0024466559
0.0015317452
0.00089218801
0.0011764607
0.0017145648
0.002109231
0.0022184073
0.0020338043
0.0016525405
0.0011452754
0.00055003257
-0.00010292028
-0.00077836881
-0.0014345904
-0.0020317283
-0.0025392653
-0.0029407945
-0.0032364063
-0.0034431926
-0.0035883396
-0.003708189
-0.00099112735
-0.00075910744
0.0041865924
0.002689255
-0.002745065
-0.0085827224
-0.0053316599
-0.0019081676
0.0026017571
0.0030727373
0.0017995051
0.00072042916
0.00095172472
0.0017030927
0.0023305228
0.0026020188
0.0024939099
0.0021387057
0.0016425351
0.0010484464
0.00038154249
-0.00033103325
-0.0010491891
-0.0017280573
-0.0023275686
-0.0028194374
-0.0031931727
-0.0034555378
-0.0036292848
-0.0037460551
-0.0038455975
-0.00092537177
-0.00075473639
0.0045255723
0.0028489479
-0.0029657593
-0.010073667
-0.0064855316
-0.0023473849
0.0032180917
0.0037871562
0.0021192494
0.00046305501
0.00054987616
0.0015805633
0.0025113521
0.0029997904
0.002981119
0.002650681
0.0021623691
0.0015730362
0.00090468894
0.00016993723
-0.00059818262
-0.0013530391
-0.0020464687
-0.0026388784
-0.0031066445
-0.0034462934
-0.0036708912
-0.0038086479
-0.0038953006
-0.0039736485
-0.00089348013
-0.00074460178
0.0047863711
0.0029425481
-0.0033213927
-0.011797019
-0.008395676
-0.003096774
0.0039057875
0.0045774369
0.0025281888
7.9982755e-05
-5.1610782e-05
0.0013108821
0.002637738
0.0034123197
0.0035084466
0.0031928077
0.0027030444
0.0021157278
0.0014555443
0.00071748077
-8.3994941e-05
-0.00090430661
-0.0016889447
-0.0023870462
-0.002962543
-0.0033983775
-0.0036976517
-0.0038804966
-0.0039800505
-0.00403523
-0.0040918517
-0.00085265084
-0.00070885838
0.0047410294
0.0031341424
-0.0039201568
-0.013579839
-0.010221147
-0.0037953632
0.0046962686
0.0045623749
0.0030016584
-0.00044343139
-0.00092997419
0.00086583005
0.0026862326
0.0038498503
0.0040845735
0.0037760758
0.0032632731
0.0026726148
0.0020252093
0.0013059025
0.00048849553
-0.00038232752
-0.0012508098
-0.0020552027
-0.0027465501
-0.0032958249
-0.0036920882
-0.0039455529
-0.0040831616
-0.0041422725
-0.0041651104
-0.0042000737
-0.00080904128
-0.00070242834
0.0044865991
0.0033457628
-0.0045852973
-0.015032323
-0.011468375
-0.0043322644
0.0053882476
0.0053824897
0.0035740377
-0.0011904642
-0.00211968
0.00019670009
0.0026221117
0.0043092109
0.0047306462
0.0044051029
0.0038492038
0.0032333165
0.0025965763
0.0019248958
0.0011111322
0.00020816252
-0.00073020903
-0.0016369753
-0.0024489705
-0.0031229659
-0.0036360425
-0.0039854023
-0.0041884902
-0.0042780624
-0.0042944217
-0.0042849786
-0.0042983547
-0.0007504726
-0.00072442502
0.0040271265
0.0034207422
-0.0050449245
-0.016208749
-0.012736106
-0.0051433051
0.006047978
0.0059819009
0.0042392384
-0.0021739701
-0.0038209834
-0.0007224524
0.0024030269
0.0047920633
0.0054582772
0.0051009742
0.004456329
0.0037995209
0.0031479681
0.0025336328
0.0017678603
0.00085817951
-0.00013000064
-0.0011276719
-0.0020603973
-0.0028684703
-0.0035135801
-0.0039804032
-0.0042766009
-0.004424761
-0.004464368
-0.0044368892
-0.0043948856
-0.0043866873
-0.00066789938
-0.00078347842
0.0034123627
0.0033317859
-0.005551315
-0.017063495
-0.014268434
-0.0056967506
0.0065628588
0.006246239
0.0050763655
-0.0034996011
-0.006011628
-0.001917684
0.0019417768
0.0052803165
0.0062908123
0.00586622
0.0051021345
0.0043445326
0.0037241314
0.0031192506
0.0024373154
0.0015512395
0.00054299625
-0.00052701838
-0.0015725469
-0.0025183641
-0.0033094614
-0.0039142819
-0.0043264557
-0.0045631364
-0.0046531273
-0.0046396077
-0.0045692591
-0.0044945739
-0.0044651489
-0.00056615584
-0.0008724001
0.0026162538
0.0030004559
-0.0060750411
-0.017712175
-0.015805265
-0.0065895994
0.0071046218
0.0061338347
0.0059301615
-0.0049813231
-0.0089609033
-0.0033559819
0.0011573965
0.0057456638
0.0072435135
0.0067168891
0.0057785451
0.0048784175
0.0042004355
0.0036760788
0.0030999229
0.0022855101
0.0012778051
0.00016094284
-0.00098276453
-0.0020630403
-0.0030079595
-0.0037683478
-0.0043219361
-0.0046721163
-0.0048433545
-0.004871896
-0.0048032359
-0.0046905691
-0.0045839921
-0.0045339174
-0.00041848409
-0.00098565166
0.0016275109
0.0024164249
-0.0065529099
-0.018182779
-0.016975234
-0.0078759009
0.0066639194
0.005756479
0.0064317069
-0.0072476281
-0.012668326
-0.0050633746
-0.0001156783
0.006184565
0.0083139135
0.0076410111
0.0065064614
0.0053793479
0.0046179955
0.004152344
0.0037292312
0.003037646
0.0020748407
0.00093242919
-0.0002915596
-0.0014966888
-0.0025966893
-0.00352504
-0.0042415274
-0.0047334873
-0.0050139848
-0.0051152171
-0.0050789545
-0.0049557371
-0.0048008224
-0.0046632351
-0.0045932276
-0.00024635764
-0.0011511615
0.0004487716
0.0015524322
-0.0069858015
-0.018257241
-0.017765046
-0.0091526892
0.0057361593
0.0051642125
0.0063250735
-0.0095862126
-0.01734158
-0.0072698252
-0.0019450775
0.0064629698
0.0094889919
0.0086184931
0.0072617045
0.0058600959
0.0049274049
0.0045300384
0.0042890344
0.0037840061
0.0029167447
0.0017838737
0.00050216797
-0.00081517124
-0.0020664448
-0.00316928
-0.0040656264
-0.0047251704
-0.0051454181
-0.0053493113
-0.0053762711
-0.0052734135
-0.0050964731
-0.0048999817
-0.0047324325
-0.0046433885
-0.0013781168
-6.5843201e-05
-0.00090075775
0.0003919098
-0.0072611873
-0.017891314
-0.018003242
-0.010451728
0.004287343
0.0048530567
0.0059178021
-0.01273858
-0.021976522
-0.010920431
-0.0046187208
0.0063653288
0.010662781
0.0096388418
0.0080498318
0.0062758478
0.0051143731
0.0047432546
0.0047507711
0.0044972208
0.0037855405
0.0027098968
0.0013933896
-1.8376009e-05
-0.0014106503
-0.0026886845
-0.0037766105
-0.0046253966
-0.0052150796
-0.0055541999
-0.0056753144
-0.0056245832
-0.0054551598
-0.005225234
-0.0049881484
-0.0047919031
-0.0046847826
-0.0023393466
-0.0015907085
7.7941998e-05
-0.001018483
-0.0072849583
-0.017021947
-0.017633704
-0.011661312
0.0022408201
0.0039345356
0.0054699219
-0.015552588
-0.026958139
-0.015638222
-0.0088467332
0.0057034041
0.011907872
0.010525829
0.0088125595
0.0066379738
0.0051033928
0.0047647192
0.0050538637
0.0051490892
0.0046653634
0.0036963704
0.0023797473
0.00089637424
-0.00062646493
-0.0020744333
-0.0033592571
-0.0044140627
-0.0051994175
-0.0057068629
-0.0059562628
-0.005989438
-0.0058590691
-0.0056237892
-0.0053418665
-0.0050656469
-0.0048420137
-0.0047178089
-0.0025684159
-0.0037677217
-0.0017294412
0.00019455409
-0.0069863467
-0.015644916
-0.016674893
-0.012650809
-0.00049352701
0.0023188775
0.004312929
-0.017510407
-0.031814828
-0.020171988
-0.013969365
0.0046090816
0.013178448
0.011249731
0.0095077954
0.0068654533
0.0048852774
0.0044826851
0.0051620788
0.0056990647
0.00554099
0.0047322671
0.0034575483
0.0019223372
0.00028811717
-0.0013196179
-0.0028012041
-0.0040728891
-0.0050759949
-0.0057823792
-0.0061960097
-0.0063481872
-0.0062896342
-0.0060791184
-0.0057789237
-0.0054463893
-0.0051326549
-0.0048831056
-0.0047429232
-0.0063940891
-0.0041867781
-0.005098667
-0.0017559411
0.00030198508
-0.013790149
-0.015224725
-0.013235869
-0.0038533595
-0.00021390462
0.0023867487
-0.019243523
-0.037221338
-0.026073305
-0.018525725
0.0032795015
0.014367818
0.01147522
0.010015666
0.0069695732
0.0043417187
0.003863494
0.0049551552
0.0061054941
0.0063861015
0.0058135967
0.0046217978
0.0030513737
0.0013326407
-0.00042444401
-0.0020948161
-0.0035868076
-0.0048236744
-0.0057562863
-0.0063688009
-0.0066781454
-0.0067269933
-0.0065744265
-0.0062842572
-0.0059203103
-0.0055389415
-0.0051895197
-0.0049156951
-0.0047606021
-0.011540419
-0.0056852778
-0.0056542986
-0.0062282185
-0.0017173407
0.00039584129
-0.013403863
-0.013400942
-0.007749376
-0.0036597603
9.5974479e-05
-0.021572509
-0.042494376
-0.034587303
-0.023100727
0.0020556869
0.014470988
0.011272671
0.010243474
0.0067931432
0.0034773132
0.0027135284
0.0043839103
0.00629486
0.0071796661
0.0069253957
0.0058667265
0.0042911588
0.0024945952
0.00061108215
-0.0012352829
-0.0029446027
-0.0044241063
-0.0056047012
-0.0064485108
-0.0069532709
-0.0071492665
-0.0070902724
-0.0068425778
-0.0064738164
-0.0060478566
-0.0056197808
-0.0052368197
-0.0049402636
-0.0047713189
-0.011241384
-0.0089142128
-0.0049030552
-0.0068682534
-0.0071052954
-0.0016247614
0.00047388151
-0.013104121
-0.012007158
-0.0079855752
-0.0026609679
-0.023995745
-0.047867668
-0.042351745
-0.027709552
-0.001850952
0.014286002
0.010137153
0.0098897649
0.0064110378
0.0020881826
0.0010060312
0.0032130102
0.006194105
0.0078763203
0.0080711613
0.0071838136
0.0056356376
0.0037680787
0.0017812069
-0.00022876178
-0.0021412504
-0.0038628559
-0.0053056756
-0.0064086954
-0.0071462132
-0.007530652
-0.0076058966
-0.007436077
-0.0070931817
-0.0066473634
-0.0061617576
-0.0056894648
-0.0052749676
-0.0049572696
-0.0047755245
-0.012098505
-0.00874296
-0.0061574864
-0.0041679763
-0.0077178122
-0.0077154123
-0.0014720793
0.00054302589
-0.01626778
-0.012972086
-0.0059785806
-0.026268228
-0.052411262
-0.049116158
-0.032239933
-0.0066919243
0.011204608
0.0091252385
0.008971099
0.005462557
0.00025069686
-0.0016144092
0.001397722
0.005697451
0.0084443391
0.0092254592
0.0085799806
0.0070694911
0.0051519153
0.0030661982
0.00092121905
-0.0011778672
-0.0031325302
-0.0048419969
-0.0062241731
-0.0072283766
-0.0078430867
-0.0080962605
-0.0080450657
-0.0077627034
-0.0073254969
-0.0068049257
-0.0062625348
-0.0057484653
-0.0053043671
-0.0049670706
-0.0047736823
-0.020381453
-0.0106527
-0.0060526339
-0.0033556134
-0.003590915
-0.0081733157
-0.0080610318
-0.0012885085
0.00060469751
-0.018361004
-0.0097782008
-0.028163998
-0.055662021
-0.054758126
-0.037511476
-0.012121087
0.0069431013
0.006750309
0.0069708656
0.004279225
-0.0025126115
-0.0051115795
-0.0015789229
0.0046875934
0.0087900498
0.010392925
0.01003456
0.008591867
0.0066217192
0.0044572151
0.0021968434
-6.5511168e-05
-0.0022311159
-0.0042002171
-0.0058727449
-0.0071711114
-0.00805628
-0.0085331562
-0.0086458947
-0.0084641097
-0.0080686209
-0.0075391985
-0.0069469715
-0.0063505301
-0.0057967638
-0.0053250873
-0.004970088
-0.0047664614
-0.023665221
-0.024121589
-0.0092227035
-0.0032034845
-0.00072278086
-0.0031708755
-0.0082832372
-0.008214579
-0.0010852804
0.00065963643
-0.014081749
-0.029392941
-0.057292968
-0.059137744
-0.042501392
-0.017999941
0.00054397639
0.0041166504
0.0039489542
0.0020457969
-0.0056721016
-0.01007825
-0.0056478157
0.0030373437
0.0087852962
0.011489121
0.011547809
0.010159155
0.00817297
0.005924773
0.0035757156
0.0011805028
-0.0011678636
-0.0033765273
-0.005336953
-0.006947681
-0.0081385729
-0.0088852195
-0.0092108668
-0.0091756435
-0.0088606676
-0.0083531831
-0.0077346375
-0.0070736186
-0.0064251983
-0.0058341225
-0.0053377689
-0.0049675413
-0.0047545015
-0.018635813
-0.028206797
-0.027107098
-0.0080329921
-0.00034559469
0.001618331
-0.0028301836
-0.0081307969
-0.0081927391
-0.0008878492
0.00073846096
-0.029767249
-0.057080908
-0.061797924
-0.046744578
-0.024044049
-0.0068981087
-0.0011687659
0.0012634493
-1.5075377e-05
-0.010458664
-0.015781055
-0.011787187
0.00052520819
0.0082314095
0.012452626
0.013074454
0.011766657
0.0097329073
0.0074593486
0.00502476
0.00253291
3.8952935e-05
-0.0023758033
-0.0046067337
-0.0065350308
-0.0080585371
-0.0091183818
-0.0097082323
-0.009870837
-0.0096819303
-0.0092332864
-0.0086165003
-0.0079116243
-0.0071836583
-0.0064859301
-0.0058618557
-0.0053447784
-0.0049605656
-0.0047376135
-0.028936576
-0.023002205
-0.03164875
-0.02916011
-0.0070936545
0.0022073839
0.0036259849
-0.0024942003
-0.0077619317
-0.0080152734
-0.00079876073
0.00075515757
-0.054746829
-0.062427571
-0.049422124
-0.029938132
-0.015334183
-0.008358897
-0.0031884915
-0.0015443684
-0.014415676
-0.023965318
-0.016001874
-0.0029593112
0.0068431189
0.013121326
0.01454765
0.013361971
0.011304882
0.0089874621
0.0065208669
0.0039529315
0.001360662
-0.0012151825
-0.0036823538
-0.0059162774
-0.0077872593
-0.009196843
-0.010102255
-0.010518332
-0.010507964
-0.010162295
-0.0095816427
-0.0088579551
-0.0080680748
-0.0072759835
-0.0065350773
-0.0058840063
-0.0053476679
-0.0049475913
-0.0047140571
-0.050395977
-0.027184295
-0.026198916
-0.033951289
-0.030207672
-0.0063148479
0.0041874745
0.0052253048
-0.0021679911
-0.0072207274
-0.007678303
-0.0007583161
0.00087807763
-0.060756388
-0.050200135
-0.035224085
-0.024436536
-0.017980832
-0.010458149
-0.0038179695
-0.017736968
-0.03268346
-0.028100433
-0.0079383007
0.0043744115
0.013312379
0.015897832
0.014849005
0.012754044
0.010496342
0.0079898684
0.0054068356
0.0027541548
7.6314518e-05
-0.0025755871
-0.0050840432
-0.0073001321
-0.009086203
-0.01035389
-0.011081708
-0.011308643
-0.011118403
-0.010615709
-0.0099045745
-0.0090743287
-0.0082021337
-0.0073541985
-0.0065789602
-0.00590239
-0.005341982
-0.0049240309
-0.0046845962
-0.056781146
-0.044092302
-0.024684896
-0.02800188
-0.03491047
-0.030283039
-0.0056428659
0.005569944
0.0064240445
-0.0019056258
-0.0066020273
-0.0069420897
-0.00065390098
0.00083582366
-0.048735613
-0.039528493
-0.034266436
-0.029457934
-0.019911604
-0.0076352725
-0.020866295
-0.042680636
-0.039405247
-0.016252351
9.1637434e-05
0.012600949
0.016983837
0.016235728
0.013914597
0.011862188
0.0094181043
0.0068175503
0.0041769941
0.0014545403
-0.0013126574
-0.0040420915
-0.0065797911
-0.008752918
-0.010422971
-0.011519708
-0.012047943
-0.012073626
-0.011700111
-0.011040129
-0.010197342
-0.0092627312
-0.0083188764
-0.0074276275
-0.0066192977
-0.0059076393
-0.0053182373
-0.0048943621
-0.004649609
-0.044823535
-0.050392187
-0.036767206
-0.021267092
-0.02858781
-0.03458506
-0.029455224
-0.0050078689
0.0064088232
0.0072761868
-0.0016692408
-0.0060601614
-0.0062723558
-0.00055638129
0.00076818859
-0.0424376
-0.044867103
-0.042397625
-0.030841685
-0.013237402
-0.025670681
-0.050980741
-0.055981142
-0.028848324
-0.0065248154
0.010512734
0.01739796
0.017220055
0.014756039
0.013027451
0.01067641
0.0081636905
0.0055463207
0.0028696501
6.5053685e-05
-0.0028092028
-0.0056193119
-0.00816881
-0.01026754
-0.011786646
-0.012683387
-0.012993387
-0.012809837
-0.012249911
-0.011429246
-0.010455644
-0.0094298587
-0.0084314802
-0.0074978975
-0.0066398774
-0.0058836229
-0.0052874402
-0.0048588585
-0.0046089842
-0.043253234
-0.038636407
-0.041963849
-0.028877579
-0.017683948
-0.028048125
-0.033102909
-0.027842259
-0.0044172101
0.0067532452
0.0077860466
-0.0016354791
-0.0056651742
-0.0053995265
-0.00050857948
0.00057118064
-0.055506858
-0.056219802
-0.043268348
-0.021252156
-0.031721938
-0.06007942
-0.070722021
-0.049424752
-0.01562582
0.0083158404
0.016730379
0.018115821
0.014421692
0.013948201
0.011747183
0.009307153
0.0068317642
0.0042343387
0.001503467
-0.0014196473
-0.0044255678
-0.0073137947
-0.0098482323
-0.011834018
-0.013165422
-0.013835365
-0.013912831
-0.013512509
-0.012758993
-0.01177664
-0.010687852
-0.0095936375
-0.0085415886
-0.0075394088
-0.0066159357
-0.0058510523
-0.0052505576
-0.0048175651
-0.0045627199
-0.064582557
-0.042260336
-0.031420665
-0.032641439
-0.020763742
-0.014282267
-0.026505177
-0.03071579
-0.025626743
-0.0040901346
0.0066069554
0.0078563592
-0.0016846693
-0.0052695456
-0.0044849411
-0.00052326001
0.0004287588
-0.070137961
-0.057096595
-0.030941054
-0.038708949
-0.069861409
-0.087860929
-0.070849898
-0.030134665
0.0013317535
0.016715422
0.017545684
0.018222505
0.014397533
0.012506697
0.010246907
0.0078800546
0.0055060734
0.0029153358
7.4089095e-05
-0.0030206634
-0.006179205
-0.0091304826
-0.011611499
-0.013440419
-0.014548809
-0.01496858
-0.01479946
-0.014169944
-0.013218478
-0.012092362
-0.0109177
-0.0097556626
-0.0086112159
-0.0075163689
-0.0065810871
-0.0058119764
-0.0052076096
-0.0047703976
-0.004510647
-0.083097172
-0.071546812
-0.039915909
-0.023972138
-0.023679684
-0.012972699
-0.010988963
-0.024378513
-0.027469802
-0.023201946
-0.00388315
0.0064993556
0.0075982179
-0.0014982913
-0.0046788044
-0.0038266656
-0.00050960389
0.00036372674
-0.071488542
-0.041289695
-0.04620918
-0.079864591
-0.10507291
-0.093491786
-0.049280866
-0.0089105294
0.011226723
0.016862641
0.016028068
0.014805386
0.012806419
0.010806189
0.0087008424
0.0065138645
0.0042429103
0.0015911664
-0.0014478691
-0.0047700771
-0.008087619
-0.011070016
-0.013448667
-0.01507506
-0.015926946
-0.016073496
-0.015637902
-0.014769758
-0.013640307
-0.012406906
-0.011146716
-0.0098625475
-0.0085905823
-0.0074788241
-0.00653919
-0.0057664059
-0.0051585486
-0.0047170581
-0.0044528703
-0.08473391
-0.093564038
-0.075350736
-0.036345714
-0.016953787
-0.015501145
-0.0060569108
-0.0077799287
-0.021972721
-0.0238378
-0.02043728
-0.0029826699
0.0063054858
0.0072203983
-0.0012633026
-0.0036332235
-0.0031395437
-0.00048715195
0.00021266547
-0.051764166
-0.053496272
-0.089230567
-0.12067769
-0.11552491
-0.070397432
-0.023504107
0.0048221403
0.012991885
0.014131112
0.013659212
0.01265563
0.01093567
0.0090657665
0.0072716897
0.0053028626
0.0030600225
0.00022613961
-0.0031125318
-0.0067038863
-0.010164362
-0.01312767
-0.015348119
-0.016726965
-0.017286749
-0.01713015
-0.016411195
-0.015324951
-0.014062585
-0.012721444
-0.011302421
-0.0098469673
-0.0085502991
-0.0074336128
-0.0064903602
-0.0057145818
-0.0051031462
-0.0046579536
-0.0043892288
-0.06128465
-0.094752552
-0.099763846
-0.076013605
-0.032258773
-0.010633465
-0.0084503434
-0.00018164086
-0.0047451175
-0.019598704
-0.019556114
-0.017491494
-0.0019206952
0.0057428977
0.0063706803
-0.00088742668
-0.002703655
-0.0025846072
-0.00042432909
0.00015520792
-0.059821761
-0.096540086
-0.13301771
-0.13625658
-0.091621574
-0.041504601
-0.0056357006
0.0096916195
0.010117467
0.011784703
0.011531459
0.010507858
0.0090187707
0.0074916441
0.006099994
0.0042970045
0.0019239961
-0.0012512399
-0.0049817788
-0.0088558455
-0.012414479
-0.015293952
-0.017297929
-0.01837936
-0.018603202
-0.018116171
-0.017133059
-0.015882814
-0.014486124
-0.012940622
-0.011296041
-0.0098044743
-0.0085015407
-0.0073810872
-0.0064351143
-0.0056562604
-0.00504177
-0.0045926733
-0.0043198756
-0.064081052
-0.069212987
-0.0999862
-0.10162403
-0.073768622
-0.027954332
-0.0051730033
-0.0029079542
0.0045460986
-0.0019975216
-0.017173743
-0.016373717
-0.014530862
-0.0014614431
0.0053260751
0.005336797
-0.00050611563
-0.0021767475
-0.0018195354
-0.00032423609
6.3808925e-05
-0.099895421
-0.14005699
-0.1531705
-0.11222245
-0.062170014
-0.018706927
0.00038022693
0.0076288315
0.0078470773
0.0098032266
0.0093513718
0.0082522136
0.0072771908
0.0062832153
0.0052833006
0.0034771839
0.00074388797
-0.0029379352
-0.0071195677
-0.011246579
-0.014833569
-0.017558753
-0.019279193
-0.020001077
-0.019847339
-0.019045173
-0.017860817
-0.016444853
-0.014788501
-0.012949918
-0.011252798
-0.0097524159
-0.0084451311
-0.0073218409
-0.0063731104
-0.0055916369
-0.0049740682
-0.0045215893
-0.0042446539
-0.0981115
-0.065931402
-0.073497115
-0.10022998
-0.099141579
-0.069229183
-0.023707827
-0.0005361567
0.0010766432
0.0082603426
0.00049374441
-0.014684411
-0.013822342
-0.011544665
-0.00081072727
0.0048640296
0.0043687952
-0.00016215297
-0.0016525622
-0.0016096823
-0.00029627837
7.1954006e-05
-0.13998339
-0.16420652
-0.13132156
-0.081873587
-0.034778477
-0.011535555
0.0004665233
0.0037977418
0.0064388161
0.0074733437
0.0069198137
0.0061288149
0.0059758982
0.0056138367
0.0048399149
0.0027363059
-0.00062080137
-0.0049407138
-0.0095772226
-0.013882147
-0.017423573
-0.019902673
-0.02125398
-0.021554373
-0.021029736
-0.019985571
-0.01859632
-0.01685522
-0.014822066
-0.012908683
-0.011198608
-0.0096922534
-0.0083815763
-0.0072556127
-0.0063044537
-0.0055206066
-0.0049004668
-0.0044444703
-0.0041636767
-0.13280586
-0.090849876
-0.06403364
-0.073698452
-0.095656511
-0.09306507
-0.062928161
-0.019693925
0.0033790166
0.0037684229
0.010736573
0.0024171939
-0.012318225
-0.010582129
-0.0089694751
-0.00016206005
0.004281111
0.0036072629
5.6399936e-05
-0.0011178133
-0.0007982807
-0.00014170573
2.4691226e-05
-0.16337719
-0.1447007
-0.096169637
-0.051870666
-0.026637876
-0.0099970787
-0.0027623411
0.002897116
0.0046235276
0.0045001778
0.0045106006
0.0045598305
0.0054256989
0.0055886073
0.0046658315
0.001880698
-0.0023367469
-0.0073531291
-0.012377049
-0.016784982
-0.020152363
-0.022276786
-0.023172518
-0.023043798
-0.022230457
-0.020939736
-0.019146823
-0.016925684
-0.014786728
-0.012854382
-0.011135321
-0.0096243789
-0.0083106208
-0.0071823428
-0.0062293313
-0.0054435824
-0.0048206676
-0.0043612956
-0.0040769796
-0.15309517
-0.11847194
-0.079967328
-0.058416975
-0.070067894
-0.086712682
-0.084252103
-0.055531869
-0.016212058
0.005889972
0.0057201442
0.012551362
0.0029022379
-0.009868087
-0.0072949942
-0.0070011592
0.00029936254
0.003871045
0.0030270196
0.00027499539
-0.00065465189
-0.00050163876
-3.2837669e-05
7.4570119e-05
-0.14777829
-0.10408343
-0.067979834
-0.043997059
-0.02584469
-0.013055272
-0.0038799668
0.0019342751
0.001688357
0.0013055367
0.0026376903
0.0039614529
0.0058561543
0.0061342249
0.004509065
0.00065672328
-0.0045583631
-0.010228966
-0.015522125
-0.019916778
-0.022963037
-0.024619256
-0.025030042
-0.024561431
-0.023455328
-0.021669273
-0.019273044
-0.016902312
-0.014735772
-0.012789489
-0.011063543
-0.0095484833
-0.0082322376
-0.0071023448
-0.006148108
-0.0053601384
-0.0047342909
-0.0042723437
-0.0039847036
-0.14016644
-0.13140587
-0.099891373
-0.066199374
-0.050414405
-0.063711902
-0.074588804
-0.073935943
-0.047722495
-0.013729013
0.006849039
0.0080050713
0.012790244
0.003415231
-0.006883265
-0.0049660968
-0.0048876627
0.00070976169
0.0034024563
0.0026153369
0.00042851044
-0.00035380866
-0.00013755765
6.3856423e-05
9.863655e-05
-0.10560931
-0.080945876
-0.062703641
-0.046042255
-0.02760327
-0.01494453
-0.0032818289
-0.0009953795
-0.0017902151
-0.0014781296
0.0017956532
0.0047405451
0.0072338413
0.0069325994
0.0039929903
-0.001180912
-0.0073869792
-0.013580716
-0.019033886
-0.0231927
-0.025789064
-0.026911958
-0.026928294
-0.026120413
-0.024416594
-0.021875512
-0.019270753
-0.016860305
-0.014671941
-0.012714892
-0.010982812
-0.0094645718
-0.0081467957
-0.0070161401
-0.0060601519
-0.005269378
-0.004642038
-0.004177818
-0.0038869131
-0.10057707
-0.12312116
-0.1092184
-0.0788681
-0.051422108
-0.04071807
-0.05534819
-0.061631074
-0.062784911
-0.040463923
-0.011227054
0.0077021096
0.009419806
0.012982969
0.0039651787
-0.0040804312
-0.0035215223
-0.0032632515
0.001084587
0.0030334205
0.0023199403
0.00059959274
4.8776278e-06
0.00010131626
0.00016865566
0.00014619615
-0.088303991
-0.08058206
-0.068926928
-0.048386546
-0.030801164
-0.012713327
-0.0049112783
-0.0056466191
-0.0050149862
-0.0030848795
0.0027209918
0.0070842695
0.0092204383
0.0074573125
0.0027428487
-0.0038012197
-0.010862363
-0.017430024
-0.022840912
-0.02656237
-0.028591917
-0.029261512
-0.028896936
-0.027379524
-0.024739736
-0.021906603
-0.019246555
-0.016801869
-0.014596595
-0.012629946
-0.01089319
-0.0093731808
-0.0080548639
-0.006922767
-0.0059638897
-0.0051726101
-0.0045441315
-0.0040778241
-0.0037837176
-0.088364742
-0.08987746
-0.10121806
-0.086023518
-0.058177937
-0.036688255
-0.030093708
-0.045128653
-0.049099797
-0.052620427
-0.032526495