/*--------------------------------*- C++ -*----------------------------------*\
| =========                 |                                                 |
| \\      /  F ield         | OpenFOAM: The Open Source CFD Toolbox           |
|  \\    /   O peration     | Version:  5.0                                   |
|   \\  /    A nd           | Web:      www.OpenFOAM.org                      |
|    \\/     M anipulation  |                                                 |
\*---------------------------------------------------------------------------*/
FoamFile
{
    version     2.0;
    format      ascii;
    class       surfaceScalarField;
    location    "400";
    object      phi;
}
// * * * * * * * * * * * * * * * * * * * * * * * * * * * * * * * * * * * * * //

dimensions      [0 3 -1 0 0 0 0];

internalField   nonuniform List<scalar> 
18820
(
-0.0003975022
-1.3581191
-0.00076721892
-1.2701033
-0.00037970976
-1.3577394
-0.0011090109
-1.1878809
-0.00073438666
-1.2697486
-0.00036013597
-1.3573793
-0.0014223319
-1.1110448
-0.0010639454
-1.1875513
-0.00069699505
-1.2694117
-0.00034722652
-1.3570321
-0.0017067581
-1.0392286
-0.0013678359
-1.1107409
-0.0010109207
-1.1872374
-0.00067167992
-1.2690873
-0.00034418266
-1.3566879
-0.0019622338
-0.97208573
-0.0016453216
-1.0389512
-0.0013024414
-1.1104494
-0.00097466472
-1.1869344
-0.00066542395
-1.268766
-0.0003447109
-1.3563432
-0.0021883029
-0.90930069
-0.0018961195
-0.97183494
-0.0015713711
-1.0386822
-0.0012579323
-1.1101661
-0.00096593233
-1.1866339
-0.00066744478
-1.2684433
-0.00033932899
-1.3560038
-0.0023836879
-0.85058306
-0.0021202158
-0.9090766
-0.0018168227
-0.97158948
-0.0015224043
-1.0384178
-0.0012477176
-1.1098843
-0.00097108347
-1.1863302
-0.00065929063
-1.2681233
-0.00032428373
-1.3556796
-0.002545912
-0.79566471
-0.0023178275
-0.85038544
-0.0020383778
-0.90885504
-0.0017674822
-0.97134441
-0.0015122964
-1.0381532
-0.0012573706
-1.109598
-0.00096308288
-1.1860265
-0.00063247126
-1.2678152
-0.00030165795
-1.3553779
-0.0026711291
-0.74429533
-0.0024896786
-0.79549286
-0.0022366773
-0.85018714
-0.0019926092
-0.90862991
-0.0017600942
-0.97109661
-0.00152807
-1.0378825
-0.0012519686
-1.1093092
-0.0009281856
-1.1857307
-0.00058971981
-1.2675271
-0.00027766809
-1.3551002
-0.002755216
-0.69624702
-0.002636315
-0.74414869
-0.0024148792
-0.79531466
-0.0021978436
-0.84998191
-0.0019910324
-0.90839898
-0.0017849193
-0.97083976
-0.001527417
-1.037607
-0.0012131701
-1.1090242
-0.00086796073
-1.1854525
-0.00054314773
-1.2672616
-0.0002577098
-1.3548425
-0.0027953586
-0.65130862
-0.0027565608
-0.69612677
-0.0025801839
-0.74398339
-0.0023845474
-0.79512796
-0.0022045643
-0.84976838
-0.0020286379
-0.90815526
-0.0017918191
-0.97057536
-0.0014886569
-1.0373315
-0.0011395942
-1.1087525
-0.00080027946
-1.1851954
-0.00050360682
-1.2670157
-0.00024359815
-1.3545989
-0.0028020578
-0.60926713
-0.0028671439
-0.65119803
-0.0027484949
-0.69595846
-0.0025563901
-0.74381155
-0.0023988631
-0.79493366
-0.0022581993
-0.84953882
-0.0020468336
-0.90790024
-0.0017569606
-0.97030705
-0.0014063169
-1.0370648
-0.0010530822
-1.1084997
-0.00074221914
-1.1849568
-0.00047517189
-1.2667841
-0.00023336983
-1.3543655
-0.0027834974
-0.56991771
-0.0030024915
-0.60913179
-0.0029413153
-0.65100521
-0.002720861
-0.69579399
-0.0025700584
-0.74364035
-0.0024692966
-0.79472256
-0.0022932781
-0.84929237
-0.0020203291
-0.90763687
-0.001669123
-0.97004425
-0.001304336
-1.0368136
-0.00097758517
-1.1082644
-0.00070005024
-1.1847319
-0.00045469381
-1.2665628
-0.00022322036
-1.3541423
-0.0027447971
-0.53310913
-0.0031554715
-0.56976473
-0.0031482611
-0.60892484
-0.0028654925
-0.65086058
-0.0027049906
-0.69565906
-0.0026530135
-0.74345663
-0.002531108
-0.79448473
-0.0022813402
-0.84903136
-0.0019293586
-0.90737664
-0.0015544606
-0.96979412
-0.0012127268
-1.0365784
-0.00092231501
-1.1080421
-0.00066939847
-1.1845172
-0.00043510163
-1.2663509
-0.00020977879
-1.3539325
-0.0026884543
-0.49868094
-0.0033462099
-0.53291839
-0.003339391
-0.5695736
-0.0029637822
-0.60882655
-0.0027808903
-0.65078468
-0.0027955015
-0.69551657
-0.002759396
-0.74322835
-0.0025443248
-0.79422174
-0.0021892205
-0.8487715
-0.0018034296
-0.90712767
-0.0014485657
-0.96955828
-0.0011448656
-1.0363559
-0.00088170796
-1.1078298
-0.00064023117
-1.184312
-0.00040961485
-1.2661511
-0.00019151399
-1.353741
-0.0026240145
-0.46648523
-0.0035812575
-0.4984459
-0.0035281452
-0.53272964
-0.0030258861
-0.5695115
-0.0027836955
-0.60882374
-0.0028863645
-0.65069382
-0.0029790843
-0.69529688
-0.0028170952
-0.74295558
-0.0024529165
-0.79395805
-0.0020512029
-0.84852372
-0.0016848482
-0.90689139
-0.0013695967
-0.96933355
-0.0010947221
-1.0361429
-0.00084261707
-1.1076274
-0.00060309118
-1.1841186
-0.00037464949
-1.265968
-0.00016911378
-1.3535719
-0.0025496565
-0.43636503
-0.0039065749
-0.46615991
-0.0037469958
-0.49822704
-0.0030332381
-0.53272229
-0.0027236308
-0.56957156
-0.0029305389
-0.60877957
-0.003197293
-0.65047561
-0.0031119293
-0.69500205
-0.0027274647
-0.74268103
-0.0022975424
-0.79371171
-0.0019201854
-0.84828839
-0.0015973373
-0.90666365
-0.0013113073
-0.96911697
-0.0010459808
-1.0359395
-0.00079327528
-1.1074372
-0.00055268273
-1.1839405
-0.00033106497
-1.265806
-0.00014499291
-1.3534269
-0.0024934997
-0.40820317
-0.0043225322
-0.43594908
-0.0040231109
-0.46588379
-0.0030000659
-0.49826022
-0.0025608069
-0.53288511
-0.002937282
-0.56956482
-0.0034236535
-0.60855321
-0.0034501955
-0.65013734
-0.0030241705
-0.69470534
-0.0025415601
-0.74243701
-0.0021511013
-0.79348079
-0.0018273934
-0.84805833
-0.0015337497
-0.9064412
-0.0012539948
-0.96890895
-0.00098430904
-1.0357485
-0.00072756536
-1.1072623
-0.00048916559
-1.1837824
-0.00028352651
-1.2656675
-0.00012216214
-1.3533048
-0.0024071228
-0.38183356
-0.0049145205
-0.40761118
-0.0043942353
-0.43557795
-0.0028854292
-0.46599843
-0.0022526414
-0.49856838
-0.002901424
-0.53292097
-0.0036643036
-0.56932417
-0.0038519768
-0.60815143
-0.0033574075
-0.64980411
-0.0027831783
-0.69446372
-0.0023717816
-0.74221633
-0.0020566697
-0.79325152
-0.0017631052
-0.84782898
-0.001470293
-0.9062249
-0.0011806721
-0.96871259
-0.00090284608
-1.0355732
-0.00064534411
-1.1071062
-0.00041802274
-1.1836479
-0.00023814306
-1.2655515
-0.0001029685
-1.3532018
-0.0023606867
-0.3571361
-0.0056193575
-0.38112872
-0.0048670985
-0.40713832
-0.0026945327
-0.43576885
-0.0017421547
-0.46650892
-0.0027676079
-0.4987022
-0.0039508905
-0.53263438
-0.0043378786
-0.56883827
-0.0037448353
-0.607764
-0.0030203737
-0.64956691
-0.0025726949
-0.69426281
-0.0022791458
-0.74199385
-0.0019989235
-0.7930157
-0.0016980426
-0.84760123
-0.0013867183
-0.90601886
-0.0010833337
-0.9685321
-0.0008016795
-1.0354168
-0.00055128147
-1.1069729
-0.00034869649
-1.1835374
-0.00019958693
-1.2654549
-8.8404139e-05
-1.3531134
-0.0022449629
-0.33393776
-0.0065560241
-0.35619943
-0.0055070896
-0.38048873
-0.0023707868
-0.40746207
-0.00097688378
-0.43653412
-0.0025099223
-0.4667666
-0.0043097825
-0.49834331
-0.0049402637
-0.532032
-0.0041944028
-0.5683887
-0.0032543987
-0.60752998
-0.0027394742
-0.64940013
-0.0024837837
-0.69405817
-0.0022383921
-0.74175438
-0.0019402986
-0.79277344
-0.0016070259
-0.84738092
-0.0012732392
-0.90582895
-0.00096194782
-0.96837183
-0.00068503855
-1.0352831
-0.00045665164
-1.106865
-0.00028925121
-1.1834477
-0.00016973085
-1.2653736
-7.8195892e-05
-1.3530352
-0.0022403287
-0.31210062
-0.0075149652
-0.33297882
-0.0063094324
-0.35539709
-0.0019658514
-0.38089367
0.00011132171
-0.40855027
-0.0020739113
-0.43697013
-0.0047787556
-0.46629763
-0.0057293533
-0.49755422
-0.004729705
-0.53149669
-0.0034625728
-0.56818053
-0.0028486312
-0.60742082
-0.0026529323
-0.64923098
-0.0024742694
-0.69382229
-0.0021998015
-0.74149488
-0.001847294
-0.79253317
-0.0014772791
-0.84717688
-0.0011296852
-0.90566121
-0.00082110195
-0.96823577
-0.00056429381
-1.0351754
-0.00037412785
-1.1067801
-0.00024304742
-1.1833744
-0.00014807542
-1.2653037
-7.1349135e-05
-1.3529638
-0.0024360919
-0.29144428
-0.0088440808
-0.3107715
-0.0073243982
-0.33196386
-0.001337905
-0.35602503
0.0015794663
-0.38236181
-0.0014332763
-0.40919091
-0.0053835391
-0.43636535
-0.0067795693
-0.46524741
-0.0053900036
-0.49689392
-0.0036322064
-0.53132706
-0.0028635819
-0.56816557
-0.0027502389
-0.60732351
-0.0026931476
-0.6490121
-0.0024791282
-0.69354297
-0.0021151522
-0.74122702
-0.0017015277
-0.79230892
-0.0013085748
-0.84699799
-0.00096175319
-0.90552056
-0.00067251766
-0.96812754
-0.00045691341
-1.0350927
-0.00030930654
-1.1067138
-0.00020920298
-1.1833133
-0.00013299522
-1.265242
-6.6709489e-05
-1.3528971
-0.0025524161
-0.27267929
-0.010401917
-0.28988645
-0.0085149874
-0.30958091
-0.0006960691
-0.33260569
0.0035509649
-0.35799653
-0.00049535948
-0.38329973
-0.006180181
-0.40839426
-0.0081849191
-0.43496
-0.0062246576
-0.46441276
-0.0037426492
-0.49678347
-0.0027244154
-0.53146623
-0.0027517525
-0.56816406
-0.0028735351
-0.60714312
-0.0027809373
-0.64871029
-0.0024221778
-0.69323594
-0.0019545626
-0.74097399
-0.0015028411
-0.79211466
-0.0011091106
-0.84685063
-0.00078278676
-0.90541029
-0.00053841146
-0.96804605
-0.00037105553
-1.0350309
-0.00026133406
-1.1066617
-0.00018484199
-1.1832614
-0.00012275188
-1.265186
-6.3281957e-05
-1.3528339
-0.002682117
-0.25474805
-0.012174209
-0.270907
-0.0097780114
-0.28862342
0.00040892079
-0.3106859
0.0060056163
-0.33506035
0.00071029259
-0.35920218
-0.0071933046
-0.3822866
-0.010039083
-0.4065401
-0.0072955725
-0.43388908
-0.0037787575
-0.46437665
-0.0023705086
-0.49713738
-0.0026160422
-0.53160194
-0.0030162011
-0.56802139
-0.0031127346
-0.60681133
-0.0027854833
-0.64834699
-0.0022496723
-0.69294083
-0.0017179623
-0.74075887
-0.0012646057
-0.79195916
-0.00089595525
-0.84673746
-0.00061987173
-0.90532883
-0.00042984566
-0.96798726
-0.00030602632
-1.0349862
-0.00022630273
-1.1066202
-0.00016723948
-1.1832169
-0.00011569595
-1.2651336
-6.0294923e-05
-1.3527736
-0.0034583694
-0.23646718
-0.013844753
-0.25307751
-0.011529422
-0.26915559
0.001761936
-0.28997644
0.0090525204
-0.31373281
0.0023351112
-0.33668516
-0.0085505375
-0.35784495
-0.012467573
-0.37985811
-0.0086609283
-0.40517474
-0.0037208611
-0.43394698
-0.0017294174
-0.46501774
-0.002264485
-0.49748894
-0.0031344721
-0.53148366
-0.0034876094
-0.56764652
-0.0032346628
-0.60636215
-0.0026066604
-0.64799
-0.0019614594
-0.69269733
-0.00142877
-0.7405947
-0.0010113979
-0.79184372
-0.00070199852
-0.84665533
-0.00048710769
-0.90527157
-0.00034584106
-0.96794744
-0.00025755262
-1.034955
-0.00020008273
-1.1065874
-0.00015457111
-1.1831781
-0.00011004342
-1.2650838
-5.7143622e-05
-1.3527164
-0.0047435402
-0.21803026
-0.016462375
-0.23384956
-0.013510705
-0.25109622
0.003416888
-0.27081054
0.01267089
-0.29359481
0.0041741576
-0.31557185
-0.010214913
-0.33502079
-0.015568679
-0.35474384
-0.010413422
-0.37810562
-0.0035473173
-0.40534829
-0.00070769698
-0.4349687
-0.001607883
-0.46567434
-0.0031930935
-0.49743032
-0.0039379511
-0.53103332
-0.0037972836
-0.5670839
-0.003056637
-0.60591217
-0.002244064
-0.6477074
-0.0016006364
-0.69252547
-0.001126069
-0.74048003
-0.00078376981
-0.79176195
-0.00054407061
-0.84659837
-0.00038278411
-0.90523463
-0.0002814258
-0.96792357
-0.00022069388
-1.0349344
-0.00017977343
-1.1065622
-0.0001448981
-1.1831432
-0.00010398206
-1.265037
-5.3436084e-05
-1.352663
-0.0061663114
-0.20109098
-0.019372893
-0.21511974
-0.015256136
-0.23210413
0.0049972544
-0.25267659
0.016969226
-0.27510888
0.006374008
-0.29579466
-0.01239959
-0.31338718
-0.019480231
-0.33110924
-0.012602127
-0.35255514
-0.0032309036
-0.37842203
0.00079584007
-0.40685182
-0.00053953658
-0.43603705
-0.0031433166
-0.46572412
-0.0045025138
-0.49686575
-0.0045129347
-0.53031767
-0.0036297104
-0.56651083
-0.0025804976
-0.60557574
-0.0017785097
-0.64752952
-0.0012332786
-0.69241826
-0.00086099685
-0.7404028
-0.00060056608
-0.79170545
-0.00041909281
-0.84656206
-0.0003006918
-0.90521536
-0.00023098177
-0.96791328
-0.00019104353
-1.0349231
-0.00016321223
-1.1065439
-0.00013538742
-1.1831118
-9.6426238e-05
-1.264994
-4.9217768e-05
-1.3526138
-0.0077490864
-0.18519101
-0.022207287
-0.19825658
-0.016213894
-0.21416199
0.0079928972
-0.23509977
0.021832741
-0.25754011
0.0090853344
-0.2778202
-0.015219613
-0.29297464
-0.024231677
-0.30863573
-0.015363462
-0.3283479
-0.0027231858
-0.35306286
0.0029170648
-0.38054326
0.0010591698
-0.40845053
-0.0029304604
-0.4362499
-0.0052196041
-0.46500703
-0.0054613553
-0.49591733
-0.0043605013
-0.52958688
-0.0029895839
-0.56610174
-0.0019568336
-0.60539741
-0.0013214014
-0.6474414
-0.00092500149
-0.69235425
-0.00065389663
-0.74034947
-0.00045633381
-0.79166821
-0.0003187467
-0.84654401
-0.0002343722
-0.90521197
-0.00018925285
-0.96791507
-0.00016551934
-1.0349208
-0.00014800225
-1.1065312
-0.00012401129
-1.1830842
-8.7781137e-05
-1.2649554
-4.497235e-05
-1.3525688
-0.011233739
-0.20026503
-0.024935263
-0.18246304
-0.016739966
-0.19773051
0.012331802
-0.21850089
0.027434812
-0.24070185
0.012674407
-0.26112918
-0.018589075
-0.27445074
-0.029898273
-0.28730804
-0.018633288
-0.3053659
-0.0019670628
-0.32910403
0.0057878162
-0.35593361
0.0033296509
-0.38281374
-0.0024948335
-0.40888616
-0.0061313064
-0.4353382
-0.006736869
-0.46373152
-0.0053243973
-0.49495344
-0.0034852831
-0.52909118
-0.002129817
-0.56592876
-0.0013710878
-0.60534773
-0.00096046146
-0.64740594
-0.0006973439
-0.6923108
-0.00049490861
-0.7403109
-0.00033924422
-0.79164771
-0.00023520823
-0.84654317
-0.00017802562
-0.9052232
-0.00015279367
-0.96792779
-0.00014212197
-1.0349267
-0.00013179793
-1.1065235
-0.00011076878
-1.1830612
-7.9339325e-05
-1.2649211
-4.1237505e-05
-1.3525276
-0.014300292
-0.19684889
-0.029509409
-0.19569088
-0.016757073
-0.18244593
0.017144566
-0.20254327
0.033347655
-0.22441373
0.016282618
-0.24431006
-0.021549216
-0.25816904
-0.036653344
-0.26769567
-0.022439293
-0.28350203
-0.00081993031
-0.30651304
0.009572559
-0.33288877
0.0064088911
-0.35901285
-0.0017628208
-0.38354575
-0.0072866741
-0.40773079
-0.0084567964
-0.43361827
-0.0066166295
-0.46243928
-0.0040939932
-0.49434473
-0.0022863721
-0.52893463
-0.0013534272
-0.56594642
-0.00094319836
-0.60536499
-0.00071831411
-0.64738497
-0.00053286392
-0.69227285
-0.00036607206
-0.74028407
-0.00023900745
-0.79164391
-0.00016225595
-0.84655894
-0.00012795529
-0.90524804
-0.00011868723
-0.96795123
-0.00011828914
-1.0349402
-0.00011376206
-1.1065205
-9.7766139e-05
-1.1830428
-7.2013054e-05
-1.2648903
-3.8384803e-05
-1.3524892
-0.016925865
-0.19307653
-0.033626763
-0.19273154
-0.018501933
-0.19394602
0.022275838
-0.1875772
0.039054416
-0.20825003
0.018739605
-0.22687072
-0.024975129
-0.24088414
-0.044683336
-0.25013904
-0.027113193
-0.26302177
0.000780449
-0.28510241
0.014421995
-0.31136247
0.010462359
-0.33694224
-0.00067108042
-0.36010459
-0.0087421415
-0.38209028
-0.01075347
-0.40543412
-0.0083555271
-0.43187937
-0.0048585381
-0.46167474
-0.0024022582
-0.49422884
-0.0012315998
-0.52905645
-0.00083849738
-0.56605112
-0.00069607576
-0.60538723
-0.00056502846
-0.64735281
-0.0004033825
-0.69223554
-0.0002531499
-0.74026993
-0.00014867873
-0.79165749
-9.5586557e-05
-0.84659131
-8.0023277e-05
-0.9052867
-8.4364804e-05
-0.96798515
-9.374993e-05
-1.0349602
-9.5889122e-05
-1.1065223
-8.6543591e-05
-1.1830283
-6.641659e-05
-1.2648623
-3.6649196e-05
-1.3524525
-0.019097536
-0.18921464
-0.03723557
-0.18946772
-0.019634992
-0.19159848
0.025951681
-0.19762186
0.044297459
-0.19282025
0.02012123
-0.20963166
-0.030576049
-0.2212698
-0.053703637
-0.23186384
-0.033594285
-0.24365795
0.0027261921
-0.26496751
0.020478779
-0.2911592
0.015585075
-0.31648519
0.000874398
-0.33848771
-0.010566299
-0.35828043
-0.013792845
-0.37905091
-0.010674875
-0.40311477
-0.0058322868
-0.43090562
-0.0024493879
-0.46162761
-0.0009518275
-0.49450861
-0.00059587692
-0.52929907
-0.00060733047
-0.56613986
-0.0005838411
-0.60536841
-0.00045617499
-0.64730001
-0.00028772117
-0.69220097
-0.00014684585
-0.74027176
-6.2762166e-05
-0.79169032
-3.0133552e-05
-0.8466412
-3.2070577e-05
-0.90533899
-5.0682546e-05
-0.96802822
-7.0154124e-05
-1.0349859
-8.0227845e-05
-1.1065287
-7.7834794e-05
-1.1830169
-6.3049396e-05
-1.2648359
-3.6122592e-05
-1.3524164
-0.020788184
-0.18533897
-0.040303918
-0.18614629
-0.020220666
-0.18888205
0.030419317
-0.19606611
0.048322379
-0.20164678
0.02086042
-0.19355944
-0.037345197
-0.20286251
-0.062929419
-0.21204402
-0.040684027
-0.2247741
0.0047428019
-0.24567456
0.02777139
-0.27226012
0.02189867
-0.29747279
0.0029122896
-0.31852308
-0.012831402
-0.33622261
-0.017751006
-0.35432227
-0.013742417
-0.37598337
-0.0070767102
-0.40187034
-0.0023943744
-0.43096064
-0.00044236496
-0.46213707
-0.00014962126
-0.49495487
-0.00040772378
-0.52949868
-0.00057875519
-0.56614495
-0.00053093118
-0.60529366
-0.00035562886
-0.6472321
-0.00016976989
-0.69217804
-3.9296878e-05
-0.74029523
2.5323803e-05
-0.79174577
3.6318757e-05
-0.84670959
1.4106681e-05
-0.90540378
-1.9166864e-05
-0.96807921
-4.9513375e-05
-1.0350166
-6.8280443e-05
-1.1065382
-7.2404178e-05
-1.1830075
-6.1890176e-05
-1.2648101
-3.6781513e-05
-1.3523796
-0.021962918
-0.181671
-0.042753354
-0.18288954
-0.020381179
-0.18598578
0.035421363
-0.1938841
0.052943338
-0.20068707
0.021520178
-0.20230654
-0.044453377
-0.18645126
-0.071636215
-0.19415572
-0.046119037
-0.20660901
0.007332514
-0.22736381
0.036504112
-0.25440728
0.029392089
-0.27975354
0.0054778855
-0.30003839
-0.015659843
-0.31569464
-0.022840721
-0.3311329
-0.0177257
-0.35033898
-0.0086598649
-0.37440021
-0.0022016379
-0.40206308
0.00038622318
-0.43178922
0.00058610018
-0.46287279
-3.6231812e-05
-0.49532636
-0.00053192812
-0.52954551
-0.00062374154
-0.56605214
-0.00047219092
-0.6051771
-0.00023500268
-0.64716687
-3.8813636e-05
-0.69217853
7.6881165e-05
-0.74034678
0.0001157772
-0.79182523
0.00010035395
-0.84679584
5.7304825e-05
-0.90548025
7.4457003e-06
-0.96813617
-3.3904675e-05
-1.035051
-6.0913703e-05
-1.1065497
-7.0484204e-05
-1.1829989
-6.3046345e-05
-1.2647838
-3.8543091e-05
-1.3523411
-0.02261551
-0.17842591
-0.044531612
-0.17989274
-0.020163801
-0.18310692
0.040671558
-0.19123597
0.057886944
-0.1988277
0.022675572
-0.20184247
-0.051308989
-0.19545093
-0.07989523
-0.17819224
-0.050398467
-0.18987629
0.011265831
-0.21054233
0.046890221
-0.23774992
0.038358439
-0.26337363
0.0085619429
-0.2828376
-0.019232795
-0.29646544
-0.029282603
-0.30925276
-0.022830737
-0.32602786
-0.010651252
-0.3483476
-0.0018169681
-0.37478488
0.0016364207
-0.40331328
0.0017155996
-0.43291872
0.00057926314
-0.46348829
-0.00040694115
-0.49545135
-0.00075129918
-0.52941795
-0.00065140071
-0.56587293
-0.00036527185
-0.60504683
-8.0025429e-05
-0.64712566
0.00011172551
-0.69221337
0.0001988705
-0.74042988
0.00020354517
-0.79192842
0.00015893575
-0.84689747
9.3979597e-05
-0.90556679
2.8551052e-05
-0.96819862
-2.4375587e-05
-1.0350875
-5.8367057e-05
-1.1065618
-7.2505266e-05
-1.1829894
-6.6511028e-05
-1.2647559
-4.1233526e-05
-1.3522998
-0.02278287
-0.17582652
-0.045605399
-0.17735212
-0.019662545
-0.180394
0.045890451
-0.18832581
0.063011504
-0.19636053
0.024159038
-0.20031117
-0.057858105
-0.19529335
-0.089205401
-0.18614076
-0.05390717
-0.17468354
0.016334624
-0.19494508
0.058661411
-0.22231352
0.049141794
-0.24853328
0.012599237
-0.26741093
-0.023681865
-0.27838853
-0.037321647
-0.28842639
-0.029195544
-0.30288795
-0.0131293
-0.32354981
-0.0011770354
-0.34898753
0.0034326846
-0.37658115
0.0033626237
-0.4049603
0.0015306736
-0.43387013
-0.00016122272
-0.463734
-0.00092511218
-0.49527753
-0.00092203539
-0.52914731
-0.00059087714
-0.56564732
-0.00018822012
-0.60493863
0.00011272629
-0.64712666
0.00027581089
-0.69229031
0.00031954741
-0.74054588
0.00028436585
-0.79205385
0.00020904535
-0.84701253
0.00012183028
-0.90566007
4.1239876e-05
-0.96826424
-2.1317258e-05
-1.0351246
-6.0964795e-05
-1.1065734
-7.7986249e-05
-1.182978
-7.1832437e-05
-1.2647253
-4.4618619e-05
-1.3522552
-0.022391164
-0.17396429
-0.046033964
-0.17539795
-0.018870954
-0.17814371
0.050765654
-0.1852692
0.068022481
-0.19333679
0.026020486
-0.19822198
-0.064042227
-0.19412705
-0.098158851
-0.1863399
-0.061583713
-0.17846421
0.022307532
-0.18065644
0.071227254
-0.20751092
0.060997263
-0.23416898
0.018093378
-0.25402742
-0.028595274
-0.26249752
-0.047035435
-0.26867474
-0.036938942
-0.28068299
-0.016113867
-0.29990338
-0.0001958357
-0.32453101
0.0059050524
-0.3514599
0.0056639846
-0.37888251
0.0029263987
-0.40635603
0.00025520291
-0.43428656
-0.0011415989
-0.46351752
-0.0013343399
-0.49486523
-0.00094279201
-0.5287954
-0.00039950032
-0.56543604
5.8736845e-05
-0.60488464
0.00033422917
-0.64718508
0.0004423295
-0.69241309
0.00043169394
-0.74069321
0.00035376714
-0.79219857
0.00024748166
-0.84713818
0.00013926998
-0.9057581
4.5534391e-05
-0.96833109
-2.4564661e-05
-1.035161
-6.8393092e-05
-1.106583
-8.6238827e-05
-1.1829636
-7.8626311e-05
-1.2646913
-4.8482197e-05
-1.3522067
-0.17302583
-0.021485383
-0.045786921
-0.17421134
-0.017839747
-0.17642916
0.055088484
-0.18246654
0.072678521
-0.18992524
0.028031372
-0.19534767
-0.069717401
-0.1925468
-0.10649955
-0.18578635
-0.068982764
-0.17894085
0.022819034
-0.17897572
0.08418293
-0.19361212
0.072781892
-0.21929555
0.024544164
-0.24061977
-0.033593714
-0.24902898
-0.058380493
-0.25115246
-0.046151339
-0.25946235
-0.019576453
-0.27722041
0.0012392751
-0.30133849
0.0092082232
-0.32783418
0.0087690276
-0.35456494
0.0048897664
-0.38084587
0.00091046157
-0.40701129
-0.0013987016
-0.43402946
-0.0019343539
-0.4629175
-0.0014846867
-0.49432333
-0.00074816994
-0.52844673
-8.2186296e-05
-0.56529512
0.00035761814
-0.60490803
0.00056473774
-0.64730749
0.00059874077
-0.69258014
0.00052851104
-0.74086795
0.00040751514
-0.79235861
0.00027222302
-0.84727114
0.00014573412
-0.9058583
4.1533534e-05
-0.96839719
-3.387516e-05
-1.0351955
-7.9826655e-05
-1.1065894
-9.6712125e-05
-1.1829455
-8.6375421e-05
-1.2646534
-5.2531462e-05
-1.3521542
-0.17377242
-0.045040332
-0.17322141
-0.020104298
-0.016843743
-0.17520734
0.058719115
-0.18005979
0.0766944
-0.18648242
0.030118837
-0.19201271
-0.074796724
-0.19026835
-0.11418127
-0.18486509
-0.07597359
-0.17879552
0.023666744
-0.17978856
0.094064773
-0.18885756
0.083868675
-0.2046989
0.030427759
-0.22517915
-0.038413681
-0.2357998
-0.07163376
-0.23577571
-0.057388432
-0.23991537
-0.023548024
-0.25549077
0.0032722374
-0.27925337
0.013497079
-0.30562735
0.012833429
-0.33189858
0.0075586179
-0.35723379
0.001885372
-0.38182078
-0.0016978481
-0.40671214
-0.002776556
-0.43318726
-0.0022961492
-0.46210604
-0.0012875161
-0.49378399
-0.00034557155
-0.52818334
0.00032650341
-0.565264
0.00067766677
-0.60502096
0.00078328673
-0.64749203
0.0007341984
-0.69278583
0.00060407769
-0.74106451
0.0004430017
-0.79252939
0.00028256549
-0.84740797
0.00014150657
-0.90595827
2.9956942e-05
-0.96846102
-4.8600349e-05
-1.0352267
-9.430407e-05
-1.1065918
-0.0001086707
-1.1829232
-9.4505879e-05
-1.2646114
-5.6571487e-05
-1.3520976
-0.17470237
-0.015913792
-0.17452275
-0.043738992
-0.17469588
-0.018240283
0.061222453
-0.17771068
0.079914888
-0.18328028
0.032081043
-0.18844463
-0.079117161
-0.18769227
-0.1208926
-0.18355701
-0.082487879
-0.1783508
0.024799407
-0.17992818
0.10457325
-0.19029704
0.095772914
-0.2007618
0.034565892
-0.20883704
-0.044366214
-0.21922661
-0.086921549
-0.22051201
-0.071098863
-0.22206528
-0.028716154
-0.23474724
0.0060989699
-0.25831751
0.018941205
-0.2846975
0.017996377
-0.3107903
0.011081107
-0.33542107
0.0032734638
-0.35862188
-0.0020299256
-0.38148871
-0.0039268103
-0.40556188
-0.0034690978
-0.43201431
-0.002104607
-0.46128895
-0.0007661396
-0.49336342
0.00020993285
-0.52806677
0.00077277995
-0.56535912
0.00098469379
-0.60522237
0.00097314159
-0.64773097
0.00084044013
-0.69302219
0.0006550245
-0.74127654
0.00045948559
-0.79270631
0.00027896858
-0.84754543
0.00012745625
-0.90605577
1.1402198e-05
-0.96852102
-6.7539395e-05
-1.0352535
-0.00011093055
-1.1065895
-0.00012134544
-1.1828963
-0.00010276119
-1.2645652
-6.0446249e-05
-1.3520372
-0.17620529
0.062725378
-0.17545168
-0.014984865
-0.17652413
-0.041910739
-0.17690637
-0.015994239
0.082262651
-0.18005844
0.03377338
-0.18497261
-0.082557776
-0.18500401
-0.12646257
-0.18212231
-0.088267586
-0.1777773
0.026077626
-0.17962902
0.11556589
-0.19092082
0.10828993
-0.20281406
0.043553605
-0.20974951
-0.052169923
-0.20103333
-0.10288761
-0.20326055
-0.08679343
-0.20481745
-0.035496808
-0.21528462
0.0095981874
-0.23824645
0.025707226
-0.26508353
0.024399045
-0.29110016
0.015591031
-0.31530022
0.0051891285
-0.33733674
-0.0023905121
-0.3582613
-0.0054636766
-0.37995184
-0.0051127256
-0.40391826
-0.0032978558
-0.43082106
-0.0014072254
-0.46064786
-1.4811982e-05
-0.49313867
0.0008356793
-0.52812967
0.0012016854
-0.56557611
0.0012499271
-0.60549915
0.0011218489
-0.64801238
0.00091297921
-0.69328014
0.00068065509
-0.7414977
0.00045776445
-0.7928851
0.00026268406
-0.84768066
0.00010481447
-0.90614918
-1.2292554e-05
-0.96857627
-8.9488954e-05
-1.0352749
-0.00012876335
-1.1065821
-0.00013425566
-1.1828649
-0.00011069633
-1.2645149
-6.3976801e-05
-1.3519732
-0.17764348
0.083700834
-0.17579069
0.063064393
-0.17731138
-0.014197622
-0.17929104
-0.039526072
-0.17958033
-0.013566299
0.035361074
-0.18164614
-0.084975159
-0.18255523
-0.13071791
-0.18074867
-0.093105691
-0.17728421
0.027407925
-0.1791076
0.12661615
-0.19067928
0.12129272
-0.2039236
0.053343955
-0.21260441
-0.053331579
-0.20858786
-0.11801534
-0.18590561
-0.10174826
-0.18830572
-0.043064838
-0.19724942
0.013613692
-0.21930013
0.033994855
-0.24653408
0.032113746
-0.27279823
0.021237814
-0.29674695
0.0077449233
-0.31785602
-0.0027454599
-0.33698179
-0.0074780319
-0.35624694
-0.0073643241
-0.37770024
-0.0049816455
-0.40223447
-0.0023493051
-0.42987898
-0.0003714096
-0.46029127
0.00085217932
-0.49315518
0.0014384958
-0.52836648
0.001571454
-0.56589763
0.0014560857
-0.60583339
0.0012235059
-0.64832291
0.00095131872
-0.69355081
0.00068232452
-0.74172226
0.00043963427
-0.79306205
0.00023541141
-0.84781125
7.5083569e-05
-0.90623656
-4.0415652e-05
-0.96862534
-0.00011324661
-1.0352905
-0.00014700905
-1.1065693
-0.00014679687
-1.1828288
-0.0001180179
-1.2644609
-6.7120143e-05
-1.3519061
-0.17887457
0.036592166
-0.17611226
0.084022404
-0.17658615
0.062339165
-0.1800286
-0.013460058
-0.18237419
-0.036732205
-0.18288738
-0.0110334
-0.086056216
-0.18056508
-0.13363288
-0.17964026
-0.09688816
-0.1769662
0.028823825
-0.17870011
0.13722889
-0.18972034
0.13426911
-0.20365567
0.063157801
-0.21373745
-0.053513142
-0.21242285
-0.12997574
-0.19662745
-0.11450241
-0.17315145
-0.050386812
-0.18098374
0.017878303
-0.20151403
0.043859029
-0.2291643
0.041278702
-0.25569904
0.028097785
-0.2796582
0.011087656
-0.30008968
-0.0030882204
-0.31751326
-0.010074743
-0.33438508
-0.010380006
-0.35323126
-0.0072991595
-0.37538273
-0.003681238
-0.40090253
-0.00090180072
-0.42934859
0.00082134272
-0.46026043
0.0016998445
-0.49341652
0.0019526539
-0.52874768
0.0018568649
-0.56629841
0.001596604
-0.60620649
0.0012784816
-0.64865007
0.00095781757
-0.6938263
0.00066265527
-0.74194528
0.00040741484
-0.79323406
0.00019910033
-0.84793527
3.9940964e-05
-0.90631692
-7.112814e-05
-0.96866746
-0.00013772405
-1.0352997
-0.00016496881
-1.1065512
-0.00015853253
-1.1827882
-0.00012465309
-1.2644034
-6.9794241e-05
-1.3518363
-0.17926603
-0.085664757
-0.17701241
0.037492314
-0.17619923
0.08363548
-0.17819539
0.060505954
-0.18315473
-0.012679522
-0.18601377
-0.033605819
-0.18659041
-0.0085511306
-0.1352445
-0.17895346
-0.099540979
-0.17698744
0.030205119
-0.17834749
0.14695808
-0.1884293
0.14665766
-0.20210889
0.073316376
-0.21381425
-0.0538112
-0.21343939
-0.14195734
-0.20044125
-0.13076876
-0.1803611
-0.057081775
-0.16645649
0.022180005
-0.18528545
0.05515736
-0.21281236
0.051923648
-0.23980925
0.03629132
-0.26389257
0.015324175
-0.28389472
-0.0033413231
-0.29983658
-0.013371641
-0.31421636
-0.014363877
-0.33040121
-0.010405101
-0.35012532
-0.0055047324
-0.37355923
-0.0016549118
-0.40014942
0.00074611792
-0.42927336
0.0019966321
-0.46055722
0.002414532
-0.4938784
0.0023427804
-0.5292336
0.0020469109
-0.56674872
0.0016719454
-0.60659995
0.001290623
-0.64898288
0.00093642272
-0.69410007
0.00062490001
-0.74216277
0.00036368264
-0.79339864
0.00015586102
-0.84805119
1.2892131e-06
-0.90638933
-0.00010298522
-0.9687022
-0.00016203349
-1.0353027
-0.00018198385
-1.1065277
-0.00016927353
-1.1827436
-0.00013034501
-1.2643428
-7.1987826e-05
-1.3517643
-0.17925248
-0.13525805
-0.17907572
-0.083601451
-0.17647173
0.037764817
-0.17684916
0.082289248
-0.18041647
0.057767689
-0.18670628
-0.011987008
-0.18987195
-0.030324277
-0.19040987
-0.006314165
-0.10086891
-0.17762553
0.031518264
-0.17830058
0.1554353
-0.18682471
0.15786483
-0.19963646
0.083223631
-0.21201614
-0.053725589
-0.21389986
-0.15333956
-0.20205717
-0.14684151
-0.1843685
-0.073959355
-0.16348352
0.02630354
-0.17058002
0.067280913
-0.197409
0.064074036
-0.22496275
0.045776954
-0.24929488
0.020591114
-0.26915951
-0.0034948804
-0.28374116
-0.017502556
-0.29570566
-0.019522029
-0.30905821
-0.014499164
-0.32630714
-0.0079282429
-0.34770181
-0.0026757909
-0.37253835
0.00062554377
-0.40002885
0.0023556497
-0.42963238
0.0029861545
-0.46112884
0.0029417115
-0.49447733
0.00259498
-0.52978167
0.0021451374
-0.56722191
0.0016889645
-0.60699829
0.0012661268
-0.64931258
0.00089185055
-0.69436702
0.00057255551
-0.74237164
0.00031111413
-0.79355389
0.00010787411
-0.84815778
-3.9227354e-05
-0.90645309
-0.00013487247
-0.96872936
-0.00018538491
-1.0352993
-0.0001977423
-1.1064993
-0.00017869815
-1.1826953
-0.00013515196
-1.2642797
-7.3716304e-05
-1.3516906
-0.17955162
-0.10056976
-0.18096465
-0.13336912
-0.17953947
-0.080533711
-0.17684032
0.037755972
-0.17807454
0.079947325
-0.18309239
0.054153795
-0.19037756
-0.011481404
-0.19363273
-0.027101414
-0.1942074
-0.0045086389
0.033144596
-0.17925186
0.16233825
-0.18520354
0.16741229
-0.19637217
0.092541615
-0.20895445
-0.053545116
-0.21219662
-0.16438641
-0.202853
-0.16203072
-0.18686797
-0.090590891
-0.16773696
0.018361494
-0.15554147
0.080360089
-0.1836592
0.077495228
-0.21083019
0.056581151
-0.23576695