/*--------------------------------*- C++ -*----------------------------------*\
| =========                 |                                                 |
| \\      /  F ield         | OpenFOAM: The Open Source CFD Toolbox           |
|  \\    /   O peration     | Version:  5.0                                   |
|   \\  /    A nd           | Web:      www.OpenFOAM.org                      |
|    \\/     M anipulation  |                                                 |
\*---------------------------------------------------------------------------*/
FoamFile
{
    version     2.0;
    format      ascii;
    class       surfaceScalarField;
    location    "400";
    object      phi_0;
}
// * * * * * * * * * * * * * * * * * * * * * * * * * * * * * * * * * * * * * //

dimensions      [0 3 -1 0 0 0 0];

internalField   nonuniform List<scalar> 
18820
(
-0.00039752429
-1.3581332
-0.0007672377
-1.2701163
-0.00037987678
-1.3577533
-0.0011090107
-1.1878929
-0.00073469028
-1.2697615
-0.00036014044
-1.3573931
-0.0014223059
-1.1110557
-0.0010643564
-1.1875632
-0.00069702719
-1.2694246
-0.00034682529
-1.3570463
-0.0017067112
-1.0392385
-0.0013683063
-1.1107518
-0.0010109916
-1.1872492
-0.00067094918
-1.2691005
-0.00034347381
-1.3567028
-0.0019621803
-0.97209463
-0.0016458
-1.0389611
-0.001302532
-1.1104603
-0.0009736591
-1.1869465
-0.00066406994
-1.2687799
-0.00034396511
-1.3563589
-0.0021882529
-0.90930863
-0.0018965736
-0.97184386
-0.0015714401
-1.0386921
-0.0012566932
-1.1101772
-0.00096398927
-1.1866466
-0.00066596417
-1.2684579
-0.00033882801
-1.3560201
-0.0023836293
-0.85059006
-0.0021206127
-0.90908459
-0.0018168367
-0.97159846
-0.0015209485
-1.0384279
-0.0012452587
-1.109896
-0.00096887944
-1.1863437
-0.00065825085
-1.2681385
-0.0003240844
-1.355696
-0.0025457685
-0.79567081
-0.0023180983
-0.85039257
-0.0020383119
-0.90886311
-0.0017658053
-0.97135361
-0.0015093917
-1.0381638
-0.0012544901
-1.1096103
-0.00096146572
-1.1860405
-0.0006320334
-1.2678305
-0.00030158356
-1.3553944
-0.0026706866
-0.74430053
-0.0024896475
-0.79549926
-0.002236502
-0.85019438
-0.0019907034
-0.90863821
-0.0017567806
-0.97110622
-0.0015245746
-1.0378937
-0.001249756
-1.109322
-0.00092747143
-1.185745
-0.00058956583
-1.2675425
-0.0002774704
-1.3551169
-0.0027539832
-0.69625131
-0.0026355957
-0.74415458
-0.0024145406
-0.79532122
-0.0021957324
-0.84998936
-0.0019873304
-0.90840766
-0.0017808457
-0.97084994
-0.0015246114
-1.0376188
-0.0012121029
-1.1090374
-0.00086772737
-1.1854669
-0.00054278804
-1.2672772
-0.00025722749
-1.3548597
-0.0027925851
-0.65131225
-0.0027543412
-0.69613256
-0.0025795757
-0.74398954
-0.0023823636
-0.79513459
-0.0022005091
-0.84977618
-0.0020240004
-0.90816451
-0.001788432
-0.97058612
-0.0014871852
-1.0373437
-0.0011392334
-1.1087659
-0.00079977298
-1.1852099
-0.00050271103
-1.2670317
-0.00024283974
-1.3546168
-0.0027965138
-0.60927099
-0.0028620952
-0.6512045
-0.0027474833
-0.69596466
-0.0025544761
-0.74381743
-0.0023945676
-0.79494053
-0.0022529955
-0.84954718
-0.0020428625
-0.90791008
-0.0017550785
-0.97031823
-0.0014057633
-1.0370772
-0.0010524427
-1.1085132
-0.00074092999
-1.1849717
-0.00047372588
-1.2668008
-0.00023248593
-1.3543844
-0.0027739204
-0.56992195
-0.0029938536
-0.60913923
-0.0029403282
-0.65101165
-0.0027200581
-0.69579907
-0.0025658461
-0.74364615
-0.002463527
-0.79473
-0.0022886721
-0.84930137
-0.0020180531
-0.9076471
-0.0016683619
-0.97005563
-0.0013035496
-1.0368261
-0.00097592097
-1.1082783
-0.00069794644
-1.1847474
-0.00045296321
-1.2665804
-0.00022241192
-1.3541619
-0.0027293819
-0.53311442
-0.0031433048
-0.5697725
-0.0031488642
-0.6089307
-0.0028674296
-0.65086428
-0.0027015959
-0.69566332
-0.0026466658
-0.74346301
-0.002525664
-0.79449301
-0.0022786668
-0.84904076
-0.0019284416
-0.90738703
-0.0015535223
-0.96980566
-0.0012107114
-1.0365913
-0.00091956668
-1.1080566
-0.00066685703
-1.1845335
-0.00043347239
-1.2663693
-0.00020920713
-1.3539527
-0.0026649097
-0.49868747
-0.0033306317
-0.53292709
-0.0033430088
-0.56957836
-0.0029701277
-0.608828
-0.0027791129
-0.65078676
-0.0027882772
-0.69552171
-0.0027526083
-0.74323607
-0.0025411498
-0.79423052
-0.0021882723
-0.84878093
-0.0018023771
-0.90713817
-0.0014461971
-0.96957017
-0.0011414855
-1.0363694
-0.00087837637
-1.1078451
-0.00063779006
-1.1843292
-0.00040842233
-1.2661701
-0.00019124458
-1.3537615
-0.0025887094
-0.46649468
-0.0035618556
-0.49845624
-0.0035366043
-0.5327335
-0.0030373236
-0.56951116
-0.0027833631
-0.60882375
-0.0028772823
-0.65069776
-0.0029699179
-0.6953044
-0.0028131578
-0.74296406
-0.0024521782
-0.79396662
-0.0020501576
-0.84853315
-0.0016821025
-0.90690226
-0.0013655602
-0.9693461
-0.001090592
-1.0361572
-0.0008393873
-1.1076435
-0.00060121958
-1.1841364
-0.00037405216
-1.2659873
-0.00016910166
-1.3535924
-0.0025016389
-0.43637579
-0.0038836319
-0.4661729
-0.0037620543
-0.49823079
-0.0030515337
-0.53271929
-0.0027243424
-0.56957018
-0.0029182984
-0.60878273
-0.0031840692
-0.65048361
-0.0031068113
-0.69501075
-0.0027273416
-0.7426889
-0.0022967931
-0.79371998
-0.001917052
-0.8482982
-0.0015925709
-0.90667525
-0.0013063374
-0.96913035
-0.0010419465
-1.0359546
-0.00079071302
-1.107454
-0.00055164336
-1.1839588
-0.00033099139
-1.2658254
-0.00014511167
-1.3534473
-0.0024267771
-0.40821958
-0.0042938953
-0.43596553
-0.0040482339
-0.46588672
-0.0030283211
-0.498254
-0.0025625695
-0.53288106
-0.0029209133
-0.56956757
-0.0034043796
-0.60856242
-0.0034433778
-0.65014704
-0.0030253691
-0.69471272
-0.0025416659
-0.74244402
-0.0021476258
-0.79348941
-0.0018217784
-0.84806899
-0.0015278546
-0.90645374
-0.0012491067
-0.96892319
-0.00098103812
-1.0357643
-0.00072598271
-1.1072797
-0.00048894361
-1.1838009
-0.00028372553
-1.2656868
-0.00012226841
-1.353325
-0.0023241812
-0.3818501
-0.004881298
-0.40763217
-0.0044327667
-0.43558099
-0.0029278426
-0.4659872
-0.0022567436
-0.49855983
-0.002877916
-0.53292406
-0.0036366778
-0.56933527
-0.0038428602
-0.60816294
-0.0033611049
-0.6498113
-0.002785084
-0.6944693
-0.0023680988
-0.74222355
-0.0020500337
-0.79326115
-0.0017561295
-0.84784071
-0.0014644656
-0.90623838
-0.0011766404
-0.96872759
-0.00090068604
-1.0355896
-0.00064480772
-1.1071238
-0.00041828798
-1.1836663
-0.00023832783
-1.2655707
-0.00010296433
-1.3532221
-0.0022544645
-0.35716101
-0.0055781204
-0.38115328
-0.0049247981
-0.40714014
-0.0027572155
-0.43575162
-0.001749374
-0.46649457
-0.0027321885
-0.49870556
-0.0039123744
-0.53264836
-0.004325391
-0.56885274
-0.0037525494
-0.60777149
-0.0030255954
-0.64957079
-0.00256911
-0.69426829
-0.0022712643
-0.74200232
-0.001990596
-0.79302669
-0.0016911261
-0.84761405
-0.0013818711
-0.90603315
-0.0010805656
-0.96854771
-0.00080072265
-1.0354337
-0.0005515306
-1.1069906
-0.00034896507
-1.1835557
-0.00019957155
-1.2654741
-8.8262814e-05
-1.3531338
-0.002116805
-0.33395938
-0.0065102415
-0.35622889
-0.0055854262
-0.38049265
-0.0024605946
-0.40743676
-0.00098859367
-0.4365124
-0.0024562186
-0.46677054
-0.0042554605
-0.49836247
-0.004924084
-0.53204967
-0.0042092537
-0.56839603
-0.0032651301
-0.60753196
-0.0027365492
-0.64940335
-0.0024744318
-0.69406513
-0.0022282839
-0.74176463
-0.0019320199
-0.79278579
-0.0016012891
-0.84739463
-0.0012698673
-0.90584384
-0.00096057362
-0.96838786
-0.00068513153
-1.0353001
-0.00045698457
-1.1068826
-0.00028919884
-1.1834661
-0.0001694709
-1.2653929
-7.7950206e-05
-1.3530558
-0.0020796282
-0.31213233
-0.0074565273
-0.3330131
-0.0064156581
-0.35539865
-0.0020938427
-0.3808594
9.3965222e-05
-0.40851932
-0.0019946642
-0.43697395
-0.0047016776
-0.46632432
-0.005708883
-0.49757767
-0.0047546559
-0.53150426
-0.0034825848
-0.56817858
-0.0028480587
-0.60742045
-0.0026420189
-0.64923577
-0.0024616984
-0.69383171
-0.0021896634
-0.74150699
-0.0018405369
-0.79254654
-0.0014733462
-0.84719116
-0.0011279432
-0.90567647
-0.00082099068
-0.968252
-0.00056461812
-1.0351924
-0.00037402826
-1.1067977
-0.00024260206
-1.1833929
-0.00014762764
-1.2653232
-7.1061746e-05
-1.3529848
-0.00224311
-0.29148364
-0.0087742914
-0.31081457
-0.0074577384
-0.33197102
-0.001515237
-0.35597726
0.0015545893
-0.38232002
-0.0013188442
-0.40919514
-0.0052732133
-0.43640242
-0.0067541362
-0.46527907
-0.0054304797
-0.49690185
-0.0036666573
-0.53132019
-0.0028667702
-0.56815987
-0.0027377193
-0.60732475
-0.0026769956
-0.64902047
-0.002466203
-0.69355517
-0.0021071151
-0.74124041
-0.0016971306
-0.79232276
-0.0013065986
-0.8470125
-0.00096147395
-0.90553599
-0.00067278171
-0.96814384
-0.0004567162
-1.0351097
-0.00030864497
-1.1067317
-0.0002084781
-1.1833321
-0.00013245149
-1.2652618
-6.6446448e-05
-1.3529183
-0.002318698
-0.27272637
-0.010326428
-0.2899315
-0.0086877709
-0.30958454
-0.00093897065
-0.33254728
0.0035184334
-0.3579411
-0.00033585063
-0.38330302
-0.0060233287
-0.40844502
-0.0081536187
-0.43500294
-0.0062880286
-0.46442152
-0.0037986492
-0.49676986
-0.0027338155
-0.53145315
-0.0027356875
-0.5681619
-0.0028515345
-0.60715021
-0.0027635595
-0.64872311
-0.0024123398
-0.69324995
-0.001949871
-0.74098767
-0.0015009067
-0.79212845
-0.0011088094
-0.84686517
-0.00078297555
-0.9054258
-0.0005380297
-0.96806252
-0.00037015403
-1.0350482
-0.00026025614
-1.1066799
-0.0001840055
-1.1832805
-0.00012220652
-1.2652061
-6.3100756e-05
-1.3528552
-0.0024188026
-0.25478689
-0.012092342
-0.27096046
-0.010001487
-0.28861778
8.3406133e-05
-0.31060691
0.0059621532
-0.334991
0.00093069185
-0.35920765
-0.0069712337
-0.38235511
-0.010001812
-0.40659683
-0.0073916764
-0.43389929
-0.0038658683
-0.4643543
-0.0023894557
-0.49711422
-0.0025926559
-0.53159618
-0.0029856633
-0.56802777
-0.0030880052
-0.60682576
-0.0027728809
-0.64836257
-0.0022449698
-0.69295485
-0.0017165789
-0.740772
-0.0012646009
-0.79197266
-0.00089610735
-0.84675203
-0.00061922764
-0.9053446
-0.0004285974
-0.96800408
-0.00030457183
-1.0350039
-0.00022505994
-1.1066388
-0.00016641464
-1.1832363
-0.00011525841
-1.2651539
-6.0246571e-05
-1.352795
-0.0031431633
-0.23653808
-0.013742157
-0.25313707
-0.011810452
-0.26915149
0.0013528588
-0.28988724
0.0090061426
-0.3136509
0.0026281356
-0.33668845
-0.008242664
-0.35793622
-0.0124244
-0.37993252
-0.0088015382
-0.40518697
-0.0038517636
-0.43391339
-0.0017626736
-0.46498108
-0.0022304347
-0.49747644
-0.0030911611
-0.53149068
-0.0034519587
-0.56766382
-0.0032177446
-0.6063809
-0.0026024
-0.64800514
-0.0019615447
-0.69270988
-0.0014296458
-0.74060695
-0.0010116444
-0.79185712
-0.00070102409
-0.84667024
-0.00048538339
-0.90528781
-0.00034391601
-0.96796474
-0.00025582747
-1.0349732
-0.00019889275
-1.1066064
-0.00015386423
-1.1831977
-0.00010985247
-1.2651043
-5.7271484e-05
-1.3527377
-0.004381173
-0.21811623
-0.016358699
-0.23392154
-0.013842269
-0.25110526
0.0028978096
-0.27069644
0.012615322
-0.29349641
0.0045622076
-0.31558498
-0.0097919787
-0.33513913
-0.015522767
-0.35483785
-0.010612937
-0.37812112
-0.0037380069
-0.40530073
-0.00076188247
-0.43491418
-0.001559305
-0.46565221
-0.0031291653
-0.49743843
-0.0038874258
-0.53105521
-0.0037741096
-0.56710745
-0.0030536646
-0.60592964
-0.0022471645
-0.64771952
-0.0016033676
-0.69253616
-0.0011267099
-0.74049189
-0.000782417
-0.79177573
-0.00054171205
-0.84661391
-0.00038024253
-0.90525149
-0.00027915139
-0.96794141
-0.00021901425
-1.034953
-0.00017879281
-1.1065814
-0.00014450468
-1.1831631
-0.00010416844
-1.2650574
-5.3758404e-05
-1.352684
-0.0057580817
-0.20117883
-0.019296192
-0.21517873
-0.015682323
-0.23208148
0.0043358409
-0.25254329
0.016908648
-0.27498977
0.0068786502
-0.29581286
-0.011844869
-0.31353209
-0.019434222
-0.33122768
-0.012876242
-0.35257454
-0.0035023916
-0.37835674
0.00071223808
-0.40677485
-0.00047143774
-0.43600205
-0.003047915
-0.46573346
-0.0044306148
-0.49689524
-0.0044813489
-0.53034797
-0.0036291735
-0.56653194
-0.0025891323
-0.60558767
-0.0017846507
-0.64753824
-0.0012348791
-0.69242799
-0.0008592502
-0.74041505
-0.00059736936
-0.79172007
-0.00041573151
-0.84657842
-0.00029773355
-0.9052329
-0.00022874437
-0.96793168
-0.00018969124
-1.0349421
-0.00016263765
-1.1065633
-0.00013553167
-1.1831317
-9.702272e-05
-1.2650141
-4.9710198e-05
-1.3526342
-0.0073022592
-0.18528162
-0.022168457
-0.19830657
-0.016763848
-0.21409721
0.0071901015
-0.23493574
0.021781251
-0.25741589
0.0097291975
-0.27784032
-0.014502042
-0.29315569
-0.024184741
-0.30878157
-0.015731342
-0.32837258
-0.0031013556
-0.35297558
0.0027935913
-0.38043809
0.0011527773
-0.40839906
-0.0027895564
-0.43626041
-0.0051163885
-0.46504769
-0.0054182531
-0.49595834
-0.0043641594
-0.52961299
-0.0030071475
-0.56611393
-0.0019688861
-0.60540343
-0.0013249613
-0.64744815
-0.00092291084
-0.69236433
-0.00064956851
-0.74036285
-0.00045185658
-0.79168395
-0.00031490305
-0.84656125
-0.00023145544
-0.90523019
-0.00018740778
-0.96793396
-0.00016469466
-1.0349401
-0.00014803452
-1.1065508
-0.00012475143
-1.183104
-8.8703371e-05
-1.2649752
-4.5585537e-05
-1.3525887
-0.010745851
-0.20037036
-0.024948222
-0.18250185
-0.017421712
-0.1976487
0.011399344
-0.21830645
0.027419468
-0.24057396
0.013446665
-0.26113336
-0.017672978
-0.27466938
-0.029858404
-0.28748202
-0.019121694
-0.30539122
-0.0024844929
-0.32898944
0.0056124915
-0.35579448
0.0034560139
-0.38274133
-0.0022907865
-0.40889783
-0.0059824953
-0.4353943
-0.0066778151
-0.46378813
-0.0053353028
-0.4949872
-0.0035163433
-0.52910379
-0.0021517382
-0.56593108
-0.0013781578
-0.60535024
-0.00095817948
-0.64741289
-0.00069145911
-0.69232244
-0.00048886257
-0.74032585
-0.00033420166
-0.79166465
-0.00023143083
-0.84656127
-0.00017554586
-0.90524206
-0.00015156534
-0.96794709
-0.00014198929
-1.0349461
-0.00013254539
-1.106543
-0.00011201927
-1.1830807
-8.0490248e-05
-1.2649403
-4.1923157e-05
-1.3525467
-0.013773472
-0.19695924
-0.029578917
-0.19573967
-0.017575675
-0.18234789
0.016100276
-0.20234964
0.033403182
-0.22429016
0.017197248
-0.24432454
-0.02040687
-0.25839947
-0.036623372
-0.26790441
-0.023078364
-0.28352535
-0.0015115977
-0.30636411
0.0093319272
-0.33270887
0.0065769537
-0.35891542
-0.0014737305
-0.38355839
-0.0070731241
-0.4078072
-0.0083755283
-0.43369659
-0.0066391888
-0.46248424
-0.0041458186
-0.49435772
-0.0023235185
-0.52893201
-0.0013664445
-0.56594279
-0.00094103469
-0.60536738
-0.00071023983
-0.6473941
-0.00052453673
-0.69228676
-0.00035933816
-0.74030071
-0.00023407866
-0.791662
-0.00015897213
-0.84657785
-0.00012620013
-0.90526742
-0.00011830459
-0.96797078
-0.00011898594
-1.0349597
-0.0001151997
-1.1065398
-9.9377742e-05
-1.1830618
-7.3313523e-05
-1.2649089
-3.9100056e-05
-1.3525076
-0.016363279
-0.19318692
-0.033755173
-0.19278299
-0.019469025
-0.19384632
0.02114136
-0.18738897
0.03920729
-0.20815374
0.019873187
-0.2269661
-0.02358066
-0.24115075
-0.044605711
-0.25041713
-0.027928209
-0.26305457
-0.0001233689
-0.28491358
0.014104639
-0.31113682
0.010682141
-0.33681406
-0.00027086891
-0.36011828
-0.0084384737
-0.38219304
-0.01064173
-0.405541
-0.0083958509
-0.43193993
-0.0049416695
-0.46168839
-0.0024619926
-0.49421925
-0.0012542041
-0.52904425
-0.00083647483
-0.56604735
-0.00068480511
-0.60539281
-0.00055321917
-0.64736542
-0.00039408136
-0.69225202
-0.00024656973
-0.74028822
-0.00014436463
-0.79167661
-9.3194715e-05
-0.84661085
-7.9293706e-05
-0.90530643
-8.4948782e-05
-0.96800482
-9.5260485e-05
-1.0349796
-9.7851899e-05
-1.1065414
-8.8394821e-05
-1.1830467
-6.7782322e-05
-1.2648802
-3.735729e-05
-1.3524703
-0.018502706
-0.18932113
-0.037422002
-0.1895201
-0.020761387
-0.19149063
0.024716223
-0.19742118
0.044564091
-0.19274578
0.021487965
-0.20976852
-0.028944004
-0.22160276
-0.053558883
-0.23219758
-0.034618005
-0.24372733
0.0015530092
-0.26473095
0.020073897
-0.29088284
0.015869204
-0.31632388
0.001417514
-0.33850244
-0.010140314
-0.35841644
-0.013639826
-0.37919494
-0.010740929
-0.40319592
-0.0059612788
-0.43092032
-0.0025421081
-0.46160827
-0.00098883947
-0.49448461
-0.00059442901
-0.5292863
-0.00059094086
-0.56614121
-0.00056629273
-0.60537974
-0.00044280768
-0.6473167
-0.00027870387
-0.69221989
-0.00014117264
-0.74029141
-5.9628548e-05
-0.79171017
-2.9003712e-05
-0.84666114
-3.2464886e-05
-0.90535892
-5.2181121e-05
-0.9680479
-7.2331239e-05
-1.0350051
-8.2534077e-05
-1.1065472
-7.9805572e-05
-1.1830347
-6.4408815e-05
-1.2648531
-3.6799019e-05
-1.3524335
-0.020166414
-0.18543633
-0.040545738
-0.1861974
-0.02151244
-0.18876904
0.02908525
-0.19585965
0.048677842
-0.20153493
0.022458615
-0.19371643
-0.03551416
-0.20319837
-0.062815942
-0.2123457
-0.041962751
-0.22485283
0.0032185565
-0.24539288
0.027275545
-0.27193259
0.02226253
-0.29727617
0.0036343542
-0.31854072
-0.012242524
-0.33640023
-0.017543949
-0.35451232
-0.013844754
-0.37609111
-0.0072705762
-0.40188662
-0.0025342881
-0.43092814
-0.00050024804
-0.46209686
-0.00014944961
-0.49492959
-0.00038372894
-0.52949351
-0.00055296815
-0.56615454
-0.00051152911
-0.60531102
-0.0003430692
-0.64725233
-0.00016230179
-0.69219876
-3.528365e-05
-0.74031576
2.6947718e-05
-0.79176612
3.6155374e-05
-0.84672976
1.2635013e-05
-0.90542373
-2.1412931e-05
-0.96809881
-5.2146578e-05
-1.0350355
-7.0763671e-05
-1.1065563
-7.4388973e-05
-1.1830247
-6.3212129e-05
-1.2648267
-3.7412791e-05
-1.3523961
-0.02131991
-0.18175474
-0.043046037
-0.18293603
-0.021836336
-0.1858735
0.033997009
-0.1936808
0.053388568
-0.20057038
0.023342897
-0.20241921
-0.042443448
-0.18678714
-0.071607502
-0.19440681
-0.047668802
-0.20663965
0.0053906557
-0.22702493
0.035904328
-0.25402166
0.029853041
-0.2795231
0.0064199887
-0.3000618
-0.014858046
-0.3159252
-0.02256438
-0.3313798
-0.017877865
-0.35047921
-0.0089435451
-0.37441814
-0.0024073617
-0.40201355
0.00029919797
-0.43172758
0.00058347123
-0.46282978
-1.8415066e-06
-0.49531148
-0.00049353644
-0.52955294
-0.00059605135
-0.56607002
-0.00045455535
-0.60519953
-0.00022515573
-0.64718948
-3.3825216e-05
-0.69220022
7.8899445e-05
-0.74036771
0.00011579096
-0.79184576
9.8981107e-05
-0.84681611
5.4968023e-05
-0.90550011
4.5396291e-06
-0.9681555
-3.6773061e-05
-1.0350695
-6.3438569e-05
-1.1065672
-7.2405657e-05
-1.1830155
-6.4293363e-05
-1.2647998
-3.9122328e-05
-1.3523569
-0.021957533
-0.17849258
-0.044868096
-0.17993268
-0.021771998
-0.18300037
0.039166449
-0.19104294
0.058420032
-0.19871226
0.024735094
-0.20196258
-0.049091785
-0.19577088
-0.079978646
-0.17841599
-0.052208973
-0.18986663
0.0088942027
-0.2101432
0.046173553
-0.23729416
0.038923669
-0.26309229
0.009764795
-0.28286791
-0.018155836
-0.29676401
-0.028922903
-0.30956668
-0.02305007
-0.3262076
-0.011055677
-0.34836708
-0.0021122012
-0.3747133
0.0015096881
-0.40322404
0.0017092115
-0.43285332
0.00062965605
-0.46346128
-0.0003494181
-0.4954556
-0.00071104134
-0.52943795
-0.00062596797
-0.5658986
-0.0003521375
-0.60507255
-7.3972804e-05
-0.64714933
0.00011394111
-0.69223526
0.0001988847
-0.7404508
0.0002021745
-0.79194895
0.00015657225
-0.84691771
9.1002351e-05
-0.90558658
2.5399795e-05
-0.96821767
-2.7329392e-05
-1.0351056
-6.0824883e-05
-1.1065788
-7.4318702e-05
-1.1830055
-6.7660407e-05
-1.2647713
-4.1761298e-05
-1.3523152
-0.022117183
-0.17587555
-0.045978358
-0.17738232
-0.021407751
-0.18029693
0.044316972
-0.18815089
0.063621988
-0.1962449
0.026458903
-0.20043607
-0.055435819
-0.19561854
-0.089312013
-0.18643751
-0.05598931
-0.17463566
0.01352828
-0.19450071
0.057826162
-0.22179581
0.049809618
-0.24818011
0.014093514
-0.26742101
-0.022266441
-0.27875731
-0.036869772
-0.28881714
-0.029505525
-0.30311123
-0.013692955
-0.32357032
-0.0015908408
-0.34888844
0.0032537732
-0.37645739
0.0033510494
-0.40486588
0.0016020779
-0.43382574
-7.6987813e-05
-0.46373371
-0.00086501275
-0.49530162
-0.00088571133
-0.52917821
-0.00057273148
-0.56567801
-0.0001811097
-0.60496541
0.00011469277
-0.64715008
0.00027539421
-0.69231177
0.00031792933
-0.74056656
0.00028190229
-0.79207428
0.0002059822
-0.84703269
0.0001184873
-0.90567966
3.7955986e-05
-0.96828296
-2.4238899e-05
-1.0351422
-6.3303605e-05
-1.1065898
-7.9669646e-05
-1.1829935
-7.2882125e-05
-1.2647402
-4.5100463e-05
-1.3522701
-0.021726417
-0.17399249
-0.046436418
-0.17541749
-0.020732646
-0.17805743
0.049140316
-0.18512028
0.068698524
-0.19322743
0.028558028
-0.19834402
-0.061425788
-0.1944461
-0.098288797
-0.18664176
-0.063841988
-0.17858483
0.019071351
-0.18017873
0.070311586
-0.20698614
0.061833682
-0.23381987
0.019904172
-0.25399077
-0.026769313
-0.26291814
-0.046487843
-0.26913924
-0.037370662
-0.280952
-0.016881902
-0.29992228
-0.00076360894
-0.32439755
0.0056593358
-0.351294
0.0056455671
-0.37875191
0.0030258824
-0.40628968
0.00037758254
-0.43428031
-0.0010517665
-0.46354696
-0.0012823392
-0.494905
-0.0009177453
-0.52883319
-0.00039119283
-0.56546792
5.9715208e-05
-0.60491044
0.00033257199
-0.64720726
0.00043992718
-0.69243376
0.00042889912
-0.74071355
0.0003505847
-0.79221889
0.00024402523
-0.84715823
0.00013577251
-0.90577748
4.2263384e-05
-0.96834946
-2.7377495e-05
-1.0351781
-7.058048e-05
-1.1065989
-8.7788936e-05
-1.1829785
-7.9586074e-05
-1.2647057
-4.8929684e-05
-1.3522212
-0.17303383
-0.020818221
-0.04620726
-0.17422164
-0.019792318
-0.17635782
0.053433583
-0.18235069
0.073406047
-0.1898278
0.03079459
-0.19546399
-0.066911698
-0.19285811
-0.10665247
-0.18608243
-0.071418149
-0.1790656
0.019085572
-0.17859905
0.083237688
-0.19310483
0.073826683
-0.21897914
0.026666781
-0.24058248
-0.031253495
-0.24950658
-0.057712283
-0.2516937
-0.046732379
-0.25977752
-0.020601458
-0.27723245
0.00047694059
-0.30116283
0.0088798169
-0.32761803
0.0087418557
-0.35439029
0.0050256201
-0.38075164
0.0010847514
-0.40699685
-0.0012662156
-0.43406586
-0.0018590061
-0.46297029
-0.0014506645
-0.49437208
-0.0007384239
-0.52848596
-8.3533688e-05
-0.56532468
0.00035344562
-0.60493131
0.00056060988
-0.64732794
0.00059512148
-0.69259999
0.00052506132
-0.74088803
0.00040399061
-0.79237885
0.00026862482
-0.84729108
0.00014223582
-0.90587745
3.8354446e-05
-0.96841519
-3.6529365e-05
-1.0352122
-8.1860797e-05
-1.1066048
-9.8141057e-05
-1.18296
-8.7271775e-05
-1.2646673
-5.2959215e-05
-1.3521682
-0.17377644
-0.045464644
-0.17321041
-0.019436162
-0.01884951
-0.17516445
0.057051202
-0.17997544
0.077461622
-0.18640627
0.033083926
-0.19211714
-0.071815918
-0.19055977
-0.11435853
-0.18515205
-0.078581039
-0.17891954
0.019431054
-0.17941108
0.092967776
-0.18832914
0.085133719
-0.20441186
0.032874661
-0.22518702
-0.035470541
-0.23636543
-0.070794418
-0.23642445
-0.058119823
-0.24030626
-0.0248887
-0.25549028
0.0022719712
-0.27902748
0.013070121
-0.30535313
0.0127957
-0.33167188
0.007740278
-0.35710494
0.0021284737
-0.38179537
-0.0015055492
-0.40675752
-0.0026669614
-0.43325791
-0.0022495405
-0.46217142
-0.0012769648
-0.49383354
-0.00035068577
-0.52821881
0.00031765328
-0.56528888
0.00067023949
-0.60504094
0.00077796494
-0.64751078
0.00073013302
-0.69280506
0.00060045815
-0.7410845
0.00043942532
-0.79254965
0.00027899628
-0.84742784
0.00013810395
-0.9059772
2.6930079e-05
-0.96847865
-5.1084115e-05
-1.035243
-9.6200807e-05
-1.1066068
-0.00011001082
-1.1829373
-9.5359906e-05
-1.2646249
-5.6990761e-05
-1.3521112
-0.17469111
-0.017934845
-0.17451971
-0.04415535
-0.17466457
-0.017573683
0.059546946
-0.1776602
0.080711659
-0.18322548
0.035211542
-0.18853388
-0.075978776
-0.18795428
-0.12110143
-0.18381686
-0.085261341
-0.17847175
0.020069378
-0.17955787
0.10330791
-0.18975121
0.097084779
-0.2002802
0.037436981
-0.20897418
-0.040768039
-0.21988952
-0.085846537
-0.22131331
-0.071981762
-0.22256251
-0.030440669
-0.23475429
0.0048114831
-0.25802979
0.018400103
-0.28435746
0.017946761
-0.31050419
0.011318372
-0.33524997
0.0036060926
-0.35858256
-0.0017557043
-0.38154521
-0.0037682371
-0.40565624
-0.0034045845
-0.43210286
-0.0020942976
-0.46135408
-0.00077758309
-0.49340664
0.0001933426
-0.5280945
0.00075971827
-0.56537836
0.00097620427
-0.60523918
0.00096780126
-0.64774845
0.00083657568
-0.69304118
0.00065157319
-0.74129665
0.0004560329
-0.79272669
0.00027552145
-0.84756526
0.00012419851
-0.90607447
8.519591e-06
-0.96853825
-6.9870412e-05
-1.0352693
-0.00011271935
-1.1066041
-0.00012262665
-1.18291
-0.0001035947
-1.2645783
-6.0870342e-05
-1.3520503
-0.17618995
0.061045785
-0.1754697
-0.016984855
-0.17651497
-0.04230495
-0.17685442
-0.015335429
0.083072457
-0.18002099
0.037028493
-0.18504243
-0.079286304
-0.18522636
-0.12670882
-0.18234689
-0.09118737
-0.17789083
0.020870283
-0.17927266
0.1141144
-0.19036436
0.10966984
-0.20233627
0.046693759
-0.20953698
-0.047973557
-0.20176867
-0.10163391
-0.20410215
-0.087913999
-0.20538108
-0.037684749
-0.21531843
0.0079474473
-0.23789025
0.025042532
-0.26467222
0.024336659
-0.29074736
0.015894228
-0.31508005
0.0056348362
-0.33727872
-0.0020066195
-0.35833165
-0.0052363598
-0.38007709
-0.0050230083
-0.40403782
-0.0032890081
-0.43090815
-0.0014297814
-0.46070188
-4.2855364e-05
-0.49317044
0.0008131775
-0.52814796
0.0011878538
-0.56559001
0.001242261
-0.60551364
0.0011174138
-0.64802929
0.00090972408
-0.69329933
0.00067754278
-0.74151816
0.00045450907
-0.79290568
0.00025939296
-0.84770046
0.00010171349
-0.90616766
-1.4982e-05
-0.96859314
-9.1705643e-05
-1.0352903
-0.00013048271
-1.1065962
-0.0001355096
-1.1828781
-0.00011153816
-1.2645277
-6.4415141e-05
-1.3519859
-0.17762869
0.084511195
-0.17581449
0.061390573
-0.1773616
-0.01613822
-0.17927306
-0.039886308
-0.1795106
-0.012922645
0.038694759
-0.18168726
-0.081601085
-0.18272765
-0.13100497
-0.1809302
-0.096152004
-0.17738226
0.021756397
-0.17877695
0.12497763
-0.19013588
0.12272374
-0.20341826
0.056741398
-0.21238391
-0.048454046
-0.20905649
-0.11679415
-0.18660842
-0.10316999
-0.18884616
-0.045770346
-0.19729548
0.011503606
-0.21887459
0.033194549
-0.24604227
0.032039698
-0.27237526
0.021615941
-0.29646907
0.0083306356
-0.31777585
-0.0022171479
-0.33706819
-0.0071565349
-0.35641147
-0.0072393686
-0.37786073
-0.0049759067
-0.40235092
-0.0023896478
-0.42994829
-0.00041713966
-0.4603276
0.00081513552
-0.4931724
0.0014158838
-0.52837599
0.0015596779
-0.56590743
0.0014504809
-0.60584671
0.0012204678
-0.64834003
0.00094882377
-0.69357061
0.0006795844
-0.74174323
0.0004365781
-0.79308286
0.00023226728
-0.84783101
7.2120005e-05
-0.90625476
-4.3004578e-05
-0.96864184
-0.00011539742
-1.0353054
-0.00014869828
-1.106583
-0.00014806091
-1.1828415
-0.0001188818
-1.2644732
-6.7578949e-05
-1.3519183
-0.17888954
0.039955615
-0.1761258
0.084822513
-0.17663536
0.060664335
-0.18010368
-0.015307595
-0.1823455
-0.037051413
-0.18280023
-0.010411852
-0.082612338
-0.18067601
-0.13395665
-0.17977597
-0.10003602
-0.17704619
0.022773413
-0.17839927
0.13541475
-0.18921407
0.13574801
-0.20316016
0.066888144
-0.21356501
-0.047992243
-0.21284571
-0.12849219
-0.19735846
-0.11614855
-0.17362986
-0.053590103
-0.1810264
0.015240368
-0.20103224
0.042909376
-0.22858942
0.041197342
-0.25519991
0.028558407
-0.27931772
0.011841669
-0.29998011
-0.0023742092
-0.31761879
-0.0096252157
-0.33459951
-0.010207046
-0.35344379
-0.0072990887
-0.37553755
-0.0037481992
-0.40099237
-0.0009745915
-0.42939084
0.0007634383
-0.4602759
0.0016632821
-0.4934198
0.0019342018
-0.52875051
0.001849061
-0.56630601
0.0015937008
-0.60621994
0.0012769495
-0.64866816
0.00095603941
-0.69384706
0.0006602278
-0.74196688
0.00040451188
-0.79325511
0.00019606184
-0.84795495
3.7057428e-05
-0.90633483
-7.367106e-05
-0.96868357
-0.00013985672
-1.0353142
-0.0001666723
-1.1065644
-0.00015982898
-1.1828006
-0.00012555535
-1.2644152
-7.0278865e-05
-1.3518481
-0.17930641
-0.082195464
-0.17699182
0.040821628
-0.17623047
0.084417624
-0.17827947
0.05884012
-0.18324554
-0.014407554
-0.18597614
-0.0338755
-0.18648966
-0.0079576988
-0.13558499
-0.17904766
-0.10276191
-0.17705008
0.023813319
-0.17808609
0.1450027
-0.18798721
0.14817299
-0.20163905
0.077364539
-0.21363655
-0.047680888
-0.21387636
-0.14013106
-0.20120683
-0.13231861
-0.1811884
-0.060689116
-0.16653084
0.018991735
-0.18477777
0.054031594
-0.21215446
0.051842979
-0.23923505
0.036839997
-0.2634815
0.016276582
-0.28375264
-0.0023917439
-0.29996257
-0.012751488
-0.31449251
-0.014125974
-0.33068058
-0.01041453
-0.35032835
-0.0056104129
-0.37367533
-0.0017674221
-0.40019954
0.00065815653
-0.42928555
0.0019393543
-0.46055198
0.0023856486
-0.49387125
0.002331293
-0.52923274
0.0020440051
-0.56675631
0.0016718274
-0.60661482
0.0012904262
-0.64900255
0.00093519136
-0.69412203
0.000622668
-0.74218504
0.000360854
-0.7934199
0.0001528611
-0.84807075
-1.5704304e-06
-0.90640693
-0.0001055399
-0.96871789
-0.00016419535
-1.0353167
-0.0001837344
-1.1065405
-0.00017062521
-1.1827555
-0.00013129622
-1.2643542
-7.2498842e-05
-1.3517756
-0.17929237
-0.13559903
-0.17903105
-0.080156231
-0.17643809
0.041029247
-0.17690527
0.083043426
-0.1805335
0.056128082
-0.18680787
-0.013575833
-0.18982805
-0.030537108
-0.19030035
-0.0057545496
-0.1041581
-0.17765147
0.024860938
-0.1780977
0.15337669
-0.18646009
0.15939997
-0.19921419
0.087578079
-0.21185259
-0.047002162
-0.21431528
-0.15120796
-0.20279947
-0.14831299
-0.18521245
-0.077749718
-0.1641278
0.022509939
-0.17004905
0.065942109
-0.19668828
0.064001578
-0.22431306
0.046423334
-0.24881839
0.021775372
-0.26898029
-0.0022535174
-0.28389086
-0.016655912
-0.29605815
-0.019200329
-0.30941816
-0.014524855
-0.32657025
-0.008088549
-0.34785022
-0.0028446449
-0.37259811
0.00049493066
-0.40003631
0.0022694822
-0.42961568
0.0029416506
-0.46110798
0.0029245562
-0.49446451
0.0025917706
-0.52978051
0.0021470258
-0.56723151
0.0016912081
-0.6070156
0.0012669028
-0.64933426
0.00089092391
-0.69439028
0.00057037
-0.74239455
0.00030826003
-0.7935753
0.00010482997
-0.84817715
-4.2145772e-05
-0.90647032
-0.00013748719
-0.96874459
-0.00018761236
-1.0353128
-0.00019956126
-1.1065116
-0.00018011863
-1.1827067
-0.00013615342
-1.2642906
-7.4254384e-05
-1.3517013
-0.17954862
-0.10390185
-0.18093986
-0.13369022
-0.17942482
-0.077169506
-0.17678058
0.040904551
-0.17815198
0.080661909
-0.18324024
0.052560454
-0.19048658
-0.012917305
-0.19358408
-0.027253383
-0.19409442
-0.0039869953
0.026309197
-0.17909973
0.16020942
-0.18493043
0.16895413
-0.19601425
0.097165042
-0.20880115
-0.046267217
-0.21258754
-0.16194221
-0.20358103
-0.16341006
-0.18770239
-0.094516824
-0.16844535
0.013840871
-0.15545873
0.078770048
-0.18287699
0.077424365
-0.21011107
0.057333625
-0.23522335
0.028273011