/*--------------------------------*- C++ -*----------------------------------*\
| =========                 |                                                 |
| \\      /  F ield         | OpenFOAM: The Open Source CFD Toolbox           |
|  \\    /   O peration     | Version:  5.0                                   |
|   \\  /    A nd           | Web:      www.OpenFOAM.org                      |
|    \\/     M anipulation  |                                                 |
\*---------------------------------------------------------------------------*/
FoamFile
{
    version     2.0;
    format      ascii;
    class       volScalarField;
    location    "400";
    object      pMean;
}
// * * * * * * * * * * * * * * * * * * * * * * * * * * * * * * * * * * * * * //

dimensions      [0 2 -2 0 0 0 0];

internalField   nonuniform List<scalar> 
9520
(
0.00011741124
0.00011711189
0.00028435139
0.00011638881
0.00028402454
0.00046492244
0.00011502321
0.00028303879
0.00046469733
0.0006316378
0.00011282607
0.00028089951
0.00046372428
0.00063212298
0.00079788512
0.00010957633
0.0002771102
0.00046116879
0.00063224575
0.00079952263
0.00095544916
0.00010512917
0.00027113303
0.00045618327
0.00063083053
0.00080161907
0.00095881999
0.0011071947
9.9307923e-05
0.00026255
0.00044788838
0.00062667281
0.00080260949
0.00096400957
0.001112797
0.0012501088
9.2078407e-05
0.00025100707
0.00043557
0.00061853926
0.0008009044
0.00096906152
0.0011220354
0.0012583776
0.0013843078
8.3469135e-05
0.00023637323
0.00041857362
0.000605389
0.00079489468
0.0009720268
0.0011325706
0.0012725524
0.0013956508
0.0015082929
7.4097424e-05
0.00021834118
0.00039658184
0.00058633076
0.00078320322
0.00097094147
0.0011421143
0.0012899606
0.0014155518
0.0015229288
0.0016216485
6.2940813e-05
0.00019668568
0.0003693606
0.00056075761
0.00076465784
0.0009640805
0.0011483763
0.0013080227
0.0014410135
0.0015490253
0.0016397154
0.0017237182
4.9393841e-05
0.00017009162
0.00033709638
0.00052791728
0.00073842737
0.00094988537
0.0011493029
0.0013241489
0.0014691999
0.0015833491
0.0016723431
0.0017451651
0.0018141694
3.145279e-05
0.00014067029
0.00029897596
0.0004874766
0.00070376185
0.00092704629
0.0011430369
0.0013359333
0.0014972514
0.0016229017
0.0017161336
0.0017842907
0.0018388313
0.0018928353
1.4384865e-05
0.00010734608
0.00025527732
0.00043950786
0.00066024274
0.00089444264
0.0011280541
0.0013411391
0.0015225402
0.0016646451
0.0017679983
0.0018376255
0.0018842174
0.001920382
0.001959767
-6.3570177e-06
7.3947705e-05
0.00020460567
0.00038573356
0.00060719247
0.00085214499
0.0011031184
0.0013379058
0.001542601
0.0017057369
0.001824793
0.0019021073
0.0019469089
0.0019714754
0.0019897362
0.0020152887
-2.3296782e-05
3.4616625e-05
0.00015143977
0.00032427656
0.00054630695
0.00079965185
0.0010673292
0.0013248475
0.0015552976
0.00174345
0.0018835204
0.0019746059
0.0020239918
0.0020428686
0.0020457426
0.0020470925
0.0020598616
-4.7860398e-05
-1.6573263e-06
9.147958e-05
0.00025802043
0.00047615279
0.0007378825
0.001020194
0.0013009891
0.0015587163
0.0017753558
0.0019412514
0.0020520971
0.0021124711
0.0021319285
0.0021248617
0.0021069682
0.0020928266
0.0020942219
-6.5169403e-05
-4.6485035e-05
3.2356847e-05
0.00018272861
0.00039979518
0.00066500424
0.00096252687
0.0012652531
0.0015514954
0.0017992898
0.0019952719
0.0021315461
0.0022093624
0.0022359299
0.0022248802
0.0021924543
0.0021553404
0.0021275828
0.0021192013
-9.1895086e-05
-7.9205003e-05
-3.504361e-05
0.00010666987
0.00031349462
0.00058392601
0.00089229389
0.0012180807
0.0015324587
0.001813487
0.0020430895
0.002210026
0.0023115693
0.0023520837
0.0023434826
0.0023019025
0.0022455486
0.0021913266
0.0021521163
0.002135833
-0.00011047177
-0.00013022859
-9.4946264e-05
2.2136606e-05
0.00022465996
0.00049161985
0.00081192556
0.0011574895
0.0015017362
0.0018164689
0.0020826741
0.0022847408
0.0024160064
0.002477375
0.0024781986
0.0024335526
0.0023625099
0.0022843403
0.0022155647
0.0021674181
0.0021451423
-0.00013687811
-0.00016272675
-0.00017128839
-5.8775338e-05
0.00012455069
0.00039439887
0.00071908896
0.0010850294
0.0014573891
0.0018079533
0.0021122462
0.0023533021
0.0025196881
0.0026086669
0.0026261901
0.0025854072
0.0025051703
0.0024065164
0.0023092709
0.0022289479
0.0021745091
0.0021482901
-0.00015764319
-0.00021605764
-0.0002273936
-0.00015232326
2.6037745e-05
0.00028360245
0.00061929521
0.00099858605
0.0014002008
0.001786067
0.0021310124
0.0024135553
0.0026198803
0.0027427533
0.0027843488
0.0027549628
0.0026721535
0.0025576404
0.0024340697
0.0023210634
0.00223246
0.0021745737
0.0021464048
-0.00017298399
-0.00025325145
-0.00031174466
-0.00023401997
-8.5161118e-05
0.00017219107
0.00050359989
0.00090389165
0.0013279408
0.0017514618
0.0021368943
0.0024642106
0.0027140445
0.0028765407
0.0029493567
0.0029392683
0.0028614282
0.0027371082
0.0025907143
0.0024456416
0.0023206164
0.0022272804
0.0021687591
0.0021406909
-0.00019691781
-0.00031299222
-0.00036638193
-0.00034016702
-0.00018916691
4.5576024e-05
0.00038495236
0.00079151622
0.0012465143
0.001701193
0.00213084
0.0025030414
0.0028003855
0.0030071515
0.0031178536
0.0031349608
0.00307033
0.0029435364
0.0027795251
0.0026045135
0.0024419691
0.0023090735
0.0022145963
0.0021583135
0.0021322679
-0.00021967993
-0.00035128919
-0.00046449795
-0.00042148234
-0.00031668686
-7.7995615e-05
0.00024798407
0.00067384879
0.0011463267
0.0016410079
0.0021091314
0.0025304936
0.0028765154
0.0031322569
0.0032865899
0.0033384661
0.003295583
0.0031747155
0.002999925
0.0027990535
0.0025995188
0.0024240998
0.0022876631
0.0021957458
0.0021444376
0.0021222093
-0.00023569928
-0.00041912953
-0.00053203056
-0.00054775865
-0.00042689845
-0.0002274979
0.00010972144
0.00053483206
0.001038744
0.0015616451
0.0020770713
0.0025426256
0.0029419043
0.0032490908
0.0034526647
0.0035461697
0.0035335053
0.0034275963
0.0032503199
0.003029658
0.0027958167
0.0025765831
0.0023932555
0.002257796
0.0021720383
0.0021283126
0.0021114813
-0.0002598795
-0.000464377
-0.00062730342
-0.00064912389
-0.0005760687
-0.00036780761
-5.865234e-05
0.00039026311
0.00090715722
0.0014731917
0.0020256541
0.0025441911
0.0029925031
0.0033562539
0.0036129541
0.0037546298
0.0037801577
0.0036984983
0.0035280652
0.0032955317
0.003032372
0.0027703391
0.0025368275
0.0023508741
0.002220872
0.0021448043
0.0021109587
0.0021009882
-0.00027956352
-0.00050422591
-0.00071906548
-0.00078689527
-0.0007161882
-0.0005451607
-0.00022663596
0.00021162747
0.00076705594
0.0013579711
0.0019646362
0.002525658
0.0030323796
0.0034495395
0.0037651094
0.0039603735
0.0040315903
0.0039832192
0.0038296387
0.0035946248
0.0033093719
0.003008133
0.0027235296
0.0024816524
0.0022984125
0.0021783588
0.0021151804
0.0020933383
0.0020915421
-0.00029949442
-0.00055469572
-0.00080513737
-0.00093734503
-0.0009039471
-0.00073084725
-0.00043831691
2.3275315e-05
0.00058973994
0.0012313007
0.0018738299
0.0024976108
0.0030515543
0.0035321753
0.0039046384
0.0041601812
0.0042839902
0.0042773978
0.0041507124
0.0039237317
0.0036255612
0.0032913266
0.0029575097
0.0026566501
0.0024125888
0.0022374931
0.002131634
0.0020843023
0.0020763793
0.0020838653
-0.0003152491
-0.00059977823
-0.00090048356
-0.0010867871
-0.0011146953
-0.00097296754
-0.00066837327
-0.00021906781
0.00039254308
0.0010637285
0.0017676938
0.0024386135
0.0030600314
0.0035937753
0.0040339177
0.0043490129
0.0045333572
0.0045768355
0.0044866121
0.0042785784
0.003978269
0.0036196768
0.0032414744
0.0028815044
0.0025712659
0.0023314288
0.0021698823
0.0020822302
0.0020533016
0.0020609335
0.0020785802
-0.00032737284
-0.00065841675
-0.00098966663
-0.0012412869
-0.0013426421
-0.0012583277
-0.00097231836
-0.00048985204
0.00013183957
0.00086707766
0.0016157387
0.0023603581
0.0030361588
0.003643787
0.0041423108
0.004528411
0.0047738765
0.0048768757
0.0048326373
0.0046542979
0.0043634489
0.0039912642
0.0035763954
0.0031603765
0.0027815645
0.0024692618
0.0022401863
0.0020974908
0.0020315695
0.0020232666
0.0020477431
0.0020761942
-0.00034186048
-0.00071025717
-0.0011028857
-0.001388813
-0.0015710867
-0.0015807807
-0.0013407473
-0.00085990903
-0.000167075
0.00059871338
0.0014256403
0.0022304829
0.0029915071
0.0036589623
0.0042383257
0.0046875176
0.0050062833
0.0051708417
0.0051836093
0.0050457204
0.0047762106
0.0044024938
0.0039613429
0.0034956782
0.0030491352
0.0026594726
0.0023527644
0.0021410168
0.0020219521
0.0019808917
0.0019951161
0.0020374064
0.0020770836
-0.00035015475
-0.00078361894
-0.0012108649
-0.0015698051
-0.0017985335
-0.001905863
-0.0017747545
-0.0013135544
-0.00060273372
0.00027234517
0.0011512519
0.002052689
0.0028893152
0.003651715
0.0042977709
0.0048337153
0.0052194165
0.005458475
0.0055321073
0.00544713
0.0052110587
0.0048486528
0.0043934932
0.0038876594
0.0033780578
0.0029093617
0.0025174477
0.0022241465
0.0020358586
0.001944756
0.0019312981
0.0019696582
0.0020303804
0.0020815185
-0.00035855106
-0.00086036519
-0.0013447574
-0.0017501702
-0.0020737011
-0.0022379484
-0.0022266785
-0.0018852564
-0.0011435032
-0.00020968051
0.00079534186
0.0017772407
0.0027312028
0.0035816836
0.0043332183
0.0049421194
0.0054195188
0.0057282302
0.0058765392
0.0058504581
0.0056616948
0.0053240542
0.0048685124
0.0043346812
0.0037701482
0.0032247749
0.0027430888
0.0023578455
0.0020856944
0.0019267191
0.0018673587
0.0018837895
0.0019475992
0.0020270042
0.0020896981
-0.00036596972
-0.00093799607
-0.0014874112
-0.0019611166
-0.0023508003
-0.0026432432
-0.002683662
-0.0024906193
-0.0018574322
-0.00082714907
0.00027469162
0.0013968427
0.0024633581
0.0034496784
0.0043007127
0.0050254535
0.0055810469
0.0059852669
0.0062047413
0.0062525853
0.0061193557
0.0058219669
0.0053805991
0.0048330218
0.0042250861
0.0036093528
0.0030376094
0.0025529758
0.0021834997
0.0019398412
0.00181547
0.0017911493
0.0018394019
0.0019293677
0.0020275701
0.0021017396
-0.00036911949
-0.0010153493
-0.0016288521
-0.0021915169
-0.0026636125
-0.0030519837
-0.0032554703
-0.0030925438
-0.0026303173
-0.0016890626
-0.00042515799
0.00084234691
0.0020696855
0.0031960057
0.0042008104
0.0050364366
0.0057166424
0.006203221
0.0065212453
0.0066410064
0.006579692
0.0063328979
0.0059230004
0.0053770574
0.0047402206
0.0040644361
0.0034066193
0.0028190955
0.0023418888
0.0019972976
0.0017889748
0.0017039275
0.0017174437
0.0017991412
0.0019153037
0.0020322459
0.0021176913
-0.0003698923
-0.0010812734
-0.0017683083
-0.0024185424
-0.0030093856
-0.0035009843
-0.0038328564
-0.0038658925
-0.0034003966
-0.0026538704
-0.0014386588
4.97775e-05
0.0014784931
0.002797436
0.0039675979
0.0049760502
0.0057762829
0.00639441
0.0067985972
0.0070188366
0.0070294457
0.0068513857
0.0064856883
0.0059603679
0.0053103402
0.0045886999
0.0038532778
0.0031639319
0.0025720318
0.0021129115
0.0018020138
0.0016354574
0.0015937927
0.0016475826
0.0017634727
0.0019057701
0.0020411543
0.0021375319
-0.0003676501
-0.0011344117
-0.0018883007
-0.0026414044
-0.0033499393
-0.004001715
-0.0044560698
-0.0046544275
-0.004409569
-0.0036277186
-0.0026008771
-0.0011108715
0.00061162439
0.0021704936
0.0035706337
0.0047712946
0.0057618696
0.006506212
0.0070484491
0.0073580249
0.007470164
0.0073633868
0.0070617276
0.0065723391
0.0059298667
0.0051779839
0.0043779698
0.0035928166
0.0028838655
0.0022996474
0.0018693202
0.0016005146
0.0014815224
0.001486808
0.0015826323
0.0017328134
0.0019010133
0.0020542971
0.0021611827
-0.00036153951
-0.0011703703
-0.001984618
-0.002836458
-0.0036817532
-0.00449571
-0.0051567674
-0.0054943163
-0.0054565618
-0.0048954493
-0.0037982788
-0.0024728648
-0.00068648194
0.001247869
0.0029157549
0.0043872247
0.0055939687
0.0065412523
0.0072156413
0.0076691787
0.0078731794
0.0078684766
0.0076365524
0.0072047597
0.006587685
0.0058276503
0.0049783838
0.0041083034
0.0032851211
0.0025695722
0.0020055288
0.0016145314
0.0013956437
0.0013294445
0.0013844877
0.0015233278
0.0017075872
0.0019011287
0.0020716449
0.0021885108
-0.0011828532
-0.00036033971
-0.0020517381
-0.0029969259
-0.0039752093
-0.0049733352
-0.0058499821
-0.0064446241
-0.0065596674
-0.0062399499
-0.0053479057
-0.0039122037
-0.0022668366
-0.00017103172
0.0019494949
0.0037186802
0.0052362161
0.0064147285
0.0073036491
0.0078949648
0.0082478298
0.0083372775
0.0082077108
0.0078427488
0.0072744704
0.006526629
0.0056502756
0.0047101801
0.003780845
0.0029329338
0.0022247442
0.0016935519
0.0013520307
0.0011903114
0.0011812462
0.0012881048
0.0014702179
0.0016880754
0.0019061651
0.0020930821
0.0022193454
-0.0020802277
-0.0011797606
-0.00036418098
-0.0031137199
-0.0042205586
-0.0053994245
-0.0065173121
-0.0073893342
-0.0078109724
-0.007653993
-0.007018539
-0.0057689801
-0.0039753963
-0.0019795049
0.00042462433
0.0027214155
0.0045723928
0.0060910941
0.0072219065
0.0080401594
0.0085349411
0.0087778131
0.0087448273
0.0084815202
0.0079751743
0.0072646116
0.0063842568
0.0053951035
0.0043731741
0.0033975327
0.0025397498
0.001853548
0.0013678008
0.0010854229
0.00098721478
0.0010387919
0.0011986401
0.0014237845
0.0016744459
0.0019160706
0.0021184707
0.0022534917
-0.0031690472
-0.002079106
-0.0011611902
-0.00036500857
-0.0044019789
-0.0057563885
-0.0071181127
-0.0082980624
-0.009065323
-0.0092585034
-0.0087851239
-0.0077941766
-0.0061668336
-0.0039667597
-0.0015934488
0.001120934
0.0035515361
0.0054402737
0.0069366506
0.0080080699
0.0087404427
0.0091287413
0.0092543754
0.0090900651
0.0086828674
0.0080267411
0.0071689217
0.006156041
0.0050603226
0.0039681003
0.0029612441
0.0021097438
0.0014605514
0.0010325763
0.00081819578
0.00078889949
0.00090360677
0.0011169009
0.0013843987
0.0016667856
0.0019307598
0.0021476145
0.0022907271
-0.0044907908
-0.0031718392
-0.0020482604
-0.0011191048
-0.00036321746
-0.0060174665
-0.0076227392
-0.0091251392
-0.010277831
-0.01088229
-0.01079063
-0.0099490097
-0.0085762618
-0.0065032872
-0.0038559538
-0.0010736118
0.0019205015
0.0044010161
0.0063045674
0.0077676759
0.0087617833
0.0093970056
0.0096726326
0.0096728771
0.009366037
0.0088038481
0.0079898506
0.0069812129
0.0058382798
0.0046454459
0.0034969338
0.0024757689
0.001647749
0.0010506609
0.00069223555
0.00055370536
0.00059756886
0.00077699484
0.0010435129
0.001352342
0.0016650874
0.0019500521
0.0021802836
0.0023308089
-0.0061480332
-0.0044976381
-0.0031222
-0.0019786684
-0.0010604198
-0.00035906902
-0.0079921936
-0.0098243298
-0.011391313
-0.012463564
-0.0128402
-0.012402859
-0.011158767
-0.0093197135
-0.0067388344
-0.0036017091
-0.00041417993
0.0027512136
0.0052544998
0.0071655525
0.0085709923
0.0094749719
0.010008179
0.010164229
0.010026967
0.0095643724
0.0088358928
0.0078566395
0.0066958164
0.005428372
0.0041509126
0.0029626277
0.0019458632
0.0011591332
0.00062907821
0.00035105766
0.0002950131
0.0004152069
0.00065998518
0.0009790216
0.0013277476
0.0016692034
0.0019736835
0.0022162079
0.0023734954
-0.0081793412
-0.0061512512
-0.0044214709
-0.0030101341
-0.0018804069
-0.00099062696
-0.00035081195
-0.010337697
-0.012338132
-0.013923688
-0.014850336
-0.014927355
-0.014106926
-0.012360164
-0.0099725805
-0.0068345051
-0.0032003411
0.0003078665
0.0035878786
0.0061213143
0.0080091754
0.009337986
0.010147922
0.010573898
0.01059796
0.010308192
0.0096755734
0.0087693929
0.007619095
0.006307467
0.0049246528
0.0035781395
0.0023694011
0.0013771104
0.00064976531
0.00020108259
1.3111743e-05
4.4915419e-05
0.00024347038
0.00055354593
0.00092377298
0.0013105214
0.0016788274
0.0020013761
0.0022551755
0.0024185639
-0.010597109
-0.0081765766
-0.0060263483
-0.004251566
-0.0028531459
-0.0017592792
-0.00091070264
-0.00034132443
-0.013041567
-0.015173837
-0.016712784
-0.017418486
-0.017158895
-0.015847245
-0.013491273
-0.010493234
-0.0067751696
-0.002699049
0.0010708273
0.0044440147
0.0069860308
0.0088217994
0.010070606
0.010783672
0.011090515
0.010965454
0.010506255
0.0096887747
0.0085945561
0.0072696082
0.0058118619
0.004326591
0.0029299897
0.0017224886
0.00077583566
0.00012589548
-0.00022813627
-0.00031779747
-0.00019413989
8.3881959e-05
0.00045835737
0.00087780323
0.0013003376
0.0016937213
0.0020330269
0.0022970492
0.0024657632
-0.013405076
-0.010586115
-0.0079829024
-0.0057700855
-0.0040154198
-0.0026609852
-0.0016193929
-0.0008317993
-0.00033179043
-0.016116908
-0.018318017
-0.019734247
-0.020183142
-0.019472251
-0.017547797
-0.014507943
-0.010863326
-0.0065953945
-0.0021116689
0.0019026037
0.0053097165
0.0078286873
0.0096059155
0.010775943
0.011380434
0.011549387
0.011256275
0.010609185
0.0095922762
0.0083010967
0.0068012087
0.0052060202
0.0036352042
0.0022108209
0.0010283006
0.00014900878
-0.00040609839
-0.00065358755
-0.00063820123
-0.00041986356
-6.2369057e-05
0.00037464806
0.0008407843
0.0012970431
0.0017140113
0.0020686712
0.0023415527
0.0025147064
-0.016613794
-0.01339708
-0.010306142
-0.007606123
-0.0054170386
-0.0037290699
-0.0024403464
-0.0014776328
-0.00075503404
-0.00031599502
-0.019540647
-0.021740712
-0.023001726
-0.023077492
-0.021783771
-0.019159224
-0.015378054
-0.01110327
-0.0063077942
-0.0014068623
0.0027717814
0.0061597807
0.0086551191
0.010375147
0.011456017
0.011929568
0.011939706
0.011457884
0.010603483
0.009373443
0.0078790668
0.0062077775
0.0044885975
0.0028537373
0.0014266333
0.00029429156
-0.00049590581
-0.00093991175
-0.0010705636
-0.00094481461
-0.00063032471
-0.00019467575
0.00030216136
0.0008126952
0.0013011269
0.0017399588
0.0021078167
0.0023878876
0.0025650124
-0.020190846
-0.0166154
-0.013017744
-0.0097736463
-0.0070954904
-0.0049938305
-0.0034024771
-0.0022146474
-0.0013345792
-0.00068240859
-0.00030297903
-0.023275741
-0.025448013
-0.026443969
-0.026010852
-0.024039141
-0.02064285
-0.016115065
-0.011222641
-0.0058894799
-0.00062933258
0.0036404838
0.0070050883
0.0094859544
0.01113471
0.012102316
0.012420258
0.012248813
0.011555631
0.010474173
0.0090191774
0.0073190515
0.005484698
0.0036603899
0.0019872482
0.00058493609
-0.00047124531
-0.0011512014
-0.0014694006
-0.0014745161
-0.0012347123
-0.00082433436
-0.00031318956
0.00024106868
0.00079451247
0.0013131254
0.0017705662
0.0021487738
0.0024352872
0.0026168613
-0.024096597
-0.020202187
-0.016121081
-0.012299522
-0.009059268
-0.0064902999
-0.0045188894
-0.0030647534
-0.0019846512
-0.0012005991
-0.00063194463
-0.00028730986
-0.027322043
-0.029373434
-0.029966323
-0.02892674
-0.026197147
-0.021999607
-0.016718798
-0.011199043
-0.0053413678
0.00017971996
0.0045095171
0.0078764535
0.010331714
0.011875571
0.012702878
0.012839552
0.012461637
0.01153284
0.010205684
0.0085164537
0.0066129085
0.0046295329
0.0027241931
0.0010421766
-0.00030560805
-0.0012594155
-0.0018091633
-0.0019884893
-0.0018612233
-0.0015058833
-0.0010017175
-0.00041747308
0.00019297685
0.00078718422
0.0013312865
0.0018027712
0.0021903493
0.0024849566
0.0026734158
-0.02832287
-0.024115013
-0.019572835
-0.015180126
-0.011341443
-0.0082213779
-0.0058206905
-0.0040264093
-0.0027194714
-0.0017732445
-0.0010918506
-0.00057477677
-0.00026780276
-0.031615858
-0.033417542
-0.033513676
-0.031785027
-0.028257242
-0.02322131
-0.017162077
-0.0110342
-0.004695018
0.0010333242
0.0054155073
0.0087900454
0.011179662
0.012584135
0.013244973
0.013172484
0.012559935
0.011371156
0.0097817528
0.0078529845
0.0057540523
0.0036419973
0.0016846234
2.6813664e-05
-0.0012351715
-0.0020609102
-0.0024619703
-0.0024913328
-0.0022275319
-0.001757628
-0.0011617073
-0.0005050878
0.00015945111
0.00078799519
0.0013506598
0.0018351036
0.0022361279
0.0025419553
0.0027349241
-0.032810507
-0.02833324
-0.023327237
-0.018368389
-0.013932523
-0.010220516
-0.0073069245
-0.0051263652
-0.0035261039
-0.0024058827
-0.0015919374
-0.00097748407
-0.00053075109
-0.00024897218
-0.036058893
-0.037522515
-0.037048473
-0.034586305
-0.030201961
-0.024279891
-0.017447034
-0.010722389
-0.0039601902
0.0019568101
0.0063879281
0.0097341915
0.012007705
0.01324772
0.013713634
0.013400016
0.012522668
0.011050584
0.0091855625
0.0070177135
0.0047381879
0.0025243118
0.00054923378
-0.0010487242
-0.0021930752
-0.0028659773
-0.0031018298
-0.0029732628
-0.0025719438
-0.0019886314
-0.0013007745
-0.00057355906
0.00013665174
0.00078950015
0.001369619
0.001874971
0.0022947343
0.0026035522
0.0027999357
-0.037465056
-0.032808993
-0.027352538
-0.021819114
-0.016777934
-0.012474565
-0.0090050355
-0.0063603527
-0.0044258336
-0.0030770401
-0.0021263666
-0.0014087845
-0.00088717089
-0.00048196761
-0.00022608271
-0.040588706
-0.041656535
-0.04057425
-0.037308828
-0.031997843
-0.025166063
-0.017592818
-0.010265385
-0.0031334857
0.0029893748
0.0074218046
0.010684111
0.012806428
0.013853099
0.014090278
0.013499725
0.012326578
0.010550261
0.0084012449
0.0060015166
0.0035639052
0.0012818092
-0.00067171358
-0.0021725925
-0.0031676876
-0.0036645805
-0.0037221498
-0.0034316463
-0.0028923721
-0.0021939894
-0.0014152224
-0.00062796655
0.00011391088
0.00078988058
0.0014010303
0.0019361272
0.0023575215
0.0026691187
0.0028684708
-0.042218973
-0.03745316
-0.031610965
-0.025493784
-0.019833262
-0.014926345
-0.010896924
-0.0077511553
-0.0054120584
-0.003803054
-0.0026668352
-0.0018472133
-0.0012591025
-0.00079118965
-0.00044432203
-0.00021113753
-0.045183077
-0.045824438
-0.044063881
-0.039912648
-0.0336335
-0.025899206
-0.017585565
-0.0096573402
-0.0021255271
0.0041237209
0.008482096
0.011626539
0.013563947
0.014380983
0.014350441
0.013446702
0.011946917
0.0098498163
0.0074144306
0.004798204
0.0022331897
-7.7217543e-05
-0.0019662094
-0.0033315142
-0.004146597
-0.0044478363
-0.0043187693
-0.0038633257
-0.0031821186
-0.0023682491
-0.0015114801
-0.00068308885
8.9076973e-05
0.00080946263
0.0014655136
0.0020010706
0.002424896
0.002738557
0.0029405423
-0.04706313
-0.042195929
-0.036023563
-0.029362769
-0.023056233
-0.017530826
-0.012924672
-0.0092776182
-0.006503112
-0.0045752219
-0.0032260024
-0.0022605546
-0.0016164245
-0.0011021411
-0.00070536827
-0.00040084116
-0.0001887963
-0.04984235
-0.049992517
-0.047474472
-0.042383482
-0.035122263
-0.02647535
-0.017409904
-0.0088505462
-0.00093124571
0.0052912845
0.0095589687
0.012549257
0.01426301
0.014805084
0.014467423
0.013212727
0.011358204
0.0089289173
0.0062129492
0.0034049518
0.00075120132
-0.0015418051
-0.0033201445
-0.004510737
-0.0051183115
-0.0052096484
-0.0048870934
-0.0042592808
-0.0034333759
-0.002519246
-0.0016094443
-0.00074160866
9.2303337e-05
0.00087786119
0.0015335061
0.0020714442
0.0024964019
0.0028118833
0.0030161618
-0.051993182
-0.047046111
-0.040525542
-0.03335839
-0.026424426
-0.020242788
-0.015047935
-0.010882477
-0.0076777186
-0.0054042263
-0.0037917695
-0.0026566773
-0.0019290973
-0.0013835165
-0.00095085962
-0.00061497552
-0.00033655545
-0.00016573818
-0.054525947
-0.054113693
-0.050787378
-0.044737772
-0.036459138
-0.02687337
-0.017010778
-0.0077973979
0.00035726744
0.0064836716
0.010651849
0.013435537
0.014878481
0.015097875
0.014410822
0.012767156
0.010534524
0.007768504
0.0047878892
0.0018224169
-0.00087296142
-0.0030965783
-0.0047168034
-0.0056961498
-0.0060743865
-0.0059435584
-0.0054152045
-0.004608588
-0.0036553855
-0.0026732539
-0.0017125248
-0.00076079205
0.00016490342
0.00094980225
0.0016079959
0.0021462188
0.0025721412
0.0028890723
0.0030953164
-0.05696248
-0.051991723
-0.045135228
-0.037424144
-0.02988326
-0.023049633
-0.017220556
-0.012528227
-0.0088804886
-0.006266976
-0.0043629634
-0.0030249581
-0.0022031555
-0.0016032409
-0.0011506547
-0.00079853362
-0.00052122337
-0.00030017881
-0.00015140405
-0.059178519
-0.058163809
-0.054023905
-0.046969451
-0.037619666
-0.027026724
-0.016354515
-0.0065261464
0.0016858856
0.0077087809
0.011749128
0.014255836
0.015382861
0.015227077
0.014145446
0.01207886
0.0094498047
0.0063524159
0.0031347894
5.6557339e-05
-0.0026252508
-0.0047229395
-0.0061393382
-0.0068767347
-0.0070060686
-0.006634034
-0.0058879951
-0.0049217222
-0.0038822105
-0.0028347309
-0.0017620166
-0.00068410123
0.00024162214
0.0010295542
0.0016871567
0.0022256433
0.0026520235
0.002970101
0.0031779817
-0.061903964
-0.056979645
-0.049838794
-0.041584267
-0.033384469
-0.025909364
-0.019438356
-0.014169216
-0.010074138
-0.0071145148
-0.0049241679
-0.0033587016
-0.0024295852
-0.0017545446
-0.001278495
-0.00093360305
-0.00065811169
-0.00045431719
-0.00024359215
-0.00013113041
-0.063772065
-0.062174998
-0.057182768
-0.049044975
-0.038531922
-0.026907512
-0.015429038
-0.0051554492
0.0030697814
0.0089757664
0.012804778
0.014981672
0.015744448
0.015154683
0.013632808
0.011115364
0.0080802113
0.0046681922
0.0012536607
-0.001881257
-0.0044871415
-0.0064024366
-0.007574324
-0.0080408354
-0.0078933354
-0.0072605802
-0.0063169543
-0.0052422488
-0.0041196541
-0.0029249005
-0.0016819473
-0.0006018818
0.00032775094
0.001114277
0.0017714434
0.0023095298
0.0027360372
0.0030548667
0.0032641223
-0.066790529
-0.061936063
-0.054573683
-0.045819074
-0.036952559
-0.028775459
-0.021670616
-0.015810465
-0.011217907
-0.0079147812
-0.0054391857
-0.0036560379
-0.0025919884
-0.0018313874
-0.001324405
-0.00098901863
-0.00073944309
-0.00055543021
-0.00035846289
-0.00020758989
-0.00010548867
-0.068348401
-0.066145924
-0.060224905
-0.050888625
-0.039153535
-0.026506594
-0.014279331
-0.0037237496
0.0045350359
0.010240328
0.013784448
0.015578871
0.015921953
0.014838263
0.012833774
0.009844097
0.0064050873
0.0027086438
-0.00084884944
-0.0039739077
-0.0064386717
-0.0081196515
-0.0090067974
-0.0091631324
-0.0087089725
-0.0078351543
-0.0067569926
-0.0055779474
-0.0042640158
-0.0028430707
-0.0015937429
-0.0005083316
0.00041919857
0.0012046606
0.0018605649
0.0023978874
0.002824008
0.0031432974
0.0033537188
-0.07165694
-0.066835089
-0.059269224
-0.050066016
-0.040564222
-0.031672323
-0.023877087
-0.017430621
-0.012321068
-0.0086291027
-0.0058784317
-0.0038840189
-0.0026781393
-0.0018239688
-0.0012696507
-0.00095749451
-0.00074412287
-0.00059468909
-0.0004265997
-0.00030491341
-0.00015656791
-8.7758073e-05
-0.072906259
-0.07004425
-0.063075379
-0.052439758
-0.039470356
-0.025847676
-0.012952763
-0.0021488137
0.006022504
0.01147745
0.014659543
0.016007737
0.015869222
0.01423284
0.011708687
0.008235255
0.0044083443
0.00047498171
-0.0031580694
-0.0062019166
-0.0084617573
-0.0098562358
-0.010405396
-0.010208191
-0.0094645971
-0.008426276
-0.0072187816
-0.0057942426
-0.0041832176
-0.0027488151
-0.0014919222
-0.00040901134
0.0005169511
0.0013003344
0.0019545425
0.002490439
0.0029158118
0.0032353568
0.0034467512
-0.076512644
-0.071701846
-0.06389697
-0.054252533
-0.044152738
-0.034573113
-0.026077874
-0.018996992
-0.013373951
-0.0092775355
-0.006210129
-0.0040122014
-0.0026779406
-0.001712216
-0.0011165209
-0.00082441015
-0.00065688105
-0.00055557038
-0.00044062076
-0.00034468891
-0.00022192705
-0.00012567759
-6.2044786e-05
-0.07741892
-0.073796921
-0.065659219
-0.053674104
-0.039501502
-0.024946381
-0.011440235
-0.00045156715
0.0075141417
0.012670207
0.015392436
0.016218658
0.015535076
0.013293269
0.010216107
0.0062623706
0.0020820244
-0.0020241547
-0.0056567301
-0.0085476842
-0.010535737
-0.011573944
-0.011724668
-0.011186186
-0.010244674
-0.0090485885
-0.0075298059
-0.0057190621
-0.004083448
-0.002638193
-0.001383659
-0.00030259403
0.00062054915
0.0014012992
0.0020529889
0.0025870027
0.0030114839
0.0033310947
0.0035430832
-0.081331834
-0.076546234
-0.068469732
-0.058349945
-0.047645121
-0.037405955
-0.028242284
-0.020527236
-0.014352769
-0.0098585269
-0.0064627098
-0.0040138437
-0.0025641845
-0.0015062606
-0.00084744562
-0.00058172799
-0.00046185084
-0.00042896695
-0.00037582617
-0.00032725342
-0.00023669679
-0.00016679266
-7.5588375e-05
-4.5683442e-05
-0.081826157
-0.077327966
-0.067955309
-0.054602112
-0.039264801
-0.023791095
-0.0097447521
0.0012846615
0.0090022782
0.013769935
0.015936329
0.016154003
0.014864974
0.011969819
0.008317624
0.0039059808
-0.00057214228
-0.0047761747
-0.0083298864
-0.01098812
-0.012614954
-0.01321564
-0.012972165
-0.012200084
-0.011069709
-0.0094834652
-0.0074673949
-0.00561528
-0.003964085
-0.0025201296
-0.0012673157
-0.00018963075
0.00072998408
0.0015070557
0.0021556604
0.0026877419
0.0031112689
0.003430176
0.0036426365
-0.086063372
-0.081343869
-0.072995189
-0.062354286
-0.051009914
-0.040099231
-0.030299949
-0.021988472
-0.015273844
-0.010351651
-0.0066365864
-0.003928958
-0.0023032
-0.0011904366
-0.00048008622
-0.00022778321
-0.00015128253
-0.00019684127
-0.00021945146
-0.00023359356
-0.00019634327
-0.00015457275
-9.1282419e-05
-4.3489238e-05
-2.1580653e-05
-0.086051213
-0.080619925
-0.069968085
-0.055245098
-0.038749423
-0.022392249
-0.0079433347
0.0030418427
0.010436168
0.014710286
0.01623282
0.015750293
0.013799206
0.010211099
0.0059811102
0.0011565812
-0.0035477278
-0.0077700053
-0.01115516
-0.013468355
-0.014629021
-0.014785042
-0.014272
-0.013278568
-0.011665273
-0.0094445425
-0.0073625974
-0.005488159
-0.0038357594
-0.0023927237
-0.0011434964
-7.0124255e-05
0.00084460391
0.0016173026
0.0022629297
0.0027932087
0.0032145213
0.003532484
0.0037453097
-0.090638745
-0.086049011
-0.077449357
-0.066273314
-0.05423539
-0.042620261
-0.032184738
-0.023317702
-0.016111313
-0.010774825
-0.0067145704
-0.0037635363
-0.0019514656
-0.00071796059
-1.3526378e-05
0.00022962025
0.00025937191
0.00014416115
3.9814245e-05
-5.2956004e-05
-8.2158396e-05
-9.0300776e-05
-5.9758707e-05
-3.2283952e-05
9.3141367e-07
-5.096489e-06
-0.090088008
-0.083684759
-0.071715172
-0.055598387
-0.037959668
-0.020776939
-0.0060201712
0.0047895963
0.011757711
0.01541036
0.016216097
0.014940319
0.012275037
0.0079724595
0.0031849949
-0.0019903579
-0.0068421838
-0.010986086
-0.014070497
-0.015904589
-0.016576933
-0.016429895
-0.015664089
-0.014081139
-0.011665385
-0.0093439003
-0.0072301617
-0.0053497502
-0.0036964286
-0.0022565768
-0.001012209
5.5083031e-05
0.0009640696
0.0017327377
0.002375763
0.0029023021
0.0033211084
0.0036378291
0.0038510049
-0.095051946
-0.090607492
-0.081790094
-0.07008182
-0.057326208
-0.044956538
-0.033864085
-0.024457896
-0.016813128
-0.011111874
-0.0067116885
-0.003497466
-0.0015188523
-0.00014815847
0.00058526778
0.00079268447
0.00075951633
0.0005875931
0.00040199935
0.00022388332
0.00011410598
4.2482459e-05
2.2953299e-05
2.113771e-05
3.4687188e-05
3.6808368e-05
1.5231151e-05
-0.093956943
-0.086543191
-0.073188092
-0.0556634
-0.036911463
-0.018954454
-0.0039958497
0.0065025388
0.012906009
0.01579341
0.015817095
0.013655891
0.010232767