/*--------------------------------*- C++ -*----------------------------------*\
| =========                 |                                                 |
| \\      /  F ield         | OpenFOAM: The Open Source CFD Toolbox           |
|  \\    /   O peration     | Version:  5.0                                   |
|   \\  /    A nd           | Web:      www.OpenFOAM.org                      |
|    \\/     M anipulation  |                                                 |
\*---------------------------------------------------------------------------*/
FoamFile
{
    version     2.0;
    format      ascii;
    class       volScalarField;
    location    "400";
    object      pPrime2Mean;
}
// * * * * * * * * * * * * * * * * * * * * * * * * * * * * * * * * * * * * * //

dimensions      [0 4 -4 0 0 0 0];

internalField   nonuniform List<scalar> 
9520
(
1.6689315e-07
1.5560308e-07
1.1336326e-06
1.3654618e-07
1.0566338e-06
3.06688e-06
1.1339047e-07
9.2654974e-07
2.8595533e-06
6.0097211e-06
8.9342136e-08
7.6823756e-07
2.509099e-06
5.6040161e-06
1.0113192e-05
6.6882681e-08
6.0356784e-07
2.082323e-06
4.9179243e-06
9.4329284e-06
1.5547326e-05
4.772002e-08
4.4949109e-07
1.6379956e-06
4.0818846e-06
8.2818657e-06
1.4505673e-05
2.2553268e-05
3.286768e-08
3.1746077e-07
1.2216824e-06
3.210755e-06
6.8779011e-06
1.2742002e-05
2.1050561e-05
3.1405908e-05
2.2809145e-08
2.1393427e-07
8.6435019e-07
2.3937301e-06
5.4133153e-06
1.0588433e-05
1.8503521e-05
2.932751e-05
4.2428532e-05
1.7642213e-08
1.4131495e-07
5.8355475e-07
1.6917763e-06
4.0379318e-06
8.33877e-06
1.5388564e-05
2.5800188e-05
3.964308e-05
5.5985411e-05
1.7295868e-08
9.9173522e-08
3.8572366e-07
1.1395855e-06
2.8547214e-06
6.2229269e-06
1.212853e-05
2.1478203e-05
3.4909223e-05
5.2344774e-05
7.2481866e-05
2.1969207e-08
8.5550325e-08
2.6940209e-07
7.5011048e-07
1.9228158e-06
4.3999404e-06
9.0563364e-06
1.6944455e-05
2.9096716e-05
4.6147811e-05
6.7820982e-05
9.235435e-05
3.231402e-08
9.7273597e-08
2.2753208e-07
5.1966427e-07
1.2649714e-06
2.962413e-06
6.4040458e-06
1.2661043e-05
2.2983173e-05
3.8520811e-05
5.98735e-05
8.6492361e-05
0.00011606796
4.9731773e-08
1.2991889e-07
2.4881152e-07
4.3228066e-07
8.7641639e-07
1.9474449e-06
4.3087471e-06
8.9530205e-06
1.7189156e-05
3.0474539e-05
5.0065754e-05
7.647729e-05
0.00010880996
0.00014410814
7.6349949e-08
1.8152335e-07
3.2200639e-07
4.6732825e-07
7.3381965e-07
1.350267e-06
2.8273685e-06
6.0151101e-06
1.2156103e-05
2.2821621e-05
3.968353e-05
6.4081044e-05
9.6383387e-05
0.00013524788
0.00017697345
1.1614478e-07
2.5243758e-07
4.3703736e-07
6.0469259e-07
8.0519006e-07
1.139485e-06
1.9559488e-06
3.9309873e-06
8.1530188e-06
1.6147021e-05
2.9769039e-05
5.0908703e-05
8.0952034e-05
0.00012004309
0.00016629702
0.00021516441
1.7263981e-07
3.4527052e-07
5.8579042e-07
8.2105498e-07
1.0517095e-06
1.2663277e-06
1.6490672e-06
2.6983622e-06
5.3000159e-06
1.0814256e-05
2.1082707e-05
3.8273022e-05
6.4485493e-05
0.00010109475
0.00014793042
0.00020245493
0.00025917444
2.5269463e-07
4.545927e-07
7.6177129e-07
1.0890659e-06
1.4347341e-06
1.6700869e-06
1.8341911e-06
2.2530524e-06
3.5992511e-06
6.9930437e-06
1.4107581e-05
2.7145919e-05
4.861091e-05
8.0782301e-05
0.00012495477
0.00018053375
0.00024421717
0.00030947743
3.6316596e-07
6.1222961e-07
9.6577029e-07
1.3955606e-06
1.9153503e-06
2.2921513e-06
2.4264045e-06
2.4933963e-06
2.9680227e-06
4.6983456e-06
9.0808349e-06
1.8159352e-05
3.4551134e-05
6.1092435e-05
0.00010020344
0.00015300063
0.00021834799
0.00029206573
0.0003665188
5.1344617e-07
7.7065809e-07
1.2028707e-06
1.7268648e-06
2.462481e-06
3.0830401e-06
3.3368386e-06
3.3007798e-06
3.2702545e-06
3.8304469e-06
6.0399921e-06
1.1639763e-05
2.3120591e-05
4.3542065e-05
7.6067926e-05
0.00012318369
0.00018571783
0.00026186462
0.00034645928
0.00043070312
7.0047668e-07
1.0689763e-06
1.4673704e-06
2.0757187e-06
3.0508667e-06
3.9952968e-06
4.4957423e-06
4.548039e-06
4.3425194e-06
4.2167314e-06
4.8733434e-06
7.6611547e-06
1.4760997e-05
2.9166584e-05
5.4404445e-05
9.3923177e-05
0.00015018508
0.00022360105
0.00031156237
0.00040782199
0.00050238593
9.3069663e-07
1.2943248e-06
1.8319033e-06
2.4551779e-06
3.6790276e-06
4.9984706e-06
5.8458785e-06
6.1263265e-06
6.0160098e-06
5.6434546e-06
5.371598e-06
6.1065237e-06
9.6006152e-06
1.8554101e-05
3.651186e-05
6.7461493e-05
0.00011507984
0.00018169163
0.00026714597
0.00036789517
0.00047653476
0.00058186192
1.1940388e-06
1.8551316e-06
2.2059784e-06
2.8895073e-06
4.3417801e-06
6.0840998e-06
7.3385711e-06
7.9495076e-06
8.1254689e-06
7.8928037e-06
7.268227e-06
6.7285126e-06
7.5251056e-06
1.1908566e-05
2.3161449e-05
4.5407873e-05
8.3077441e-05
0.00013999239
0.00021820265
0.0003168373
0.00043128525
0.00055292328
0.00066935954
1.4972971e-06
2.147855e-06
2.9057626e-06
3.3931954e-06
5.0875959e-06
7.2464406e-06
8.9473048e-06
9.939864e-06
1.052821e-05
1.07338e-05
1.0284255e-05
9.203528e-06
8.2484601e-06
9.1292978e-06
1.4661334e-05
2.8760021e-05
5.6147623e-05
0.00010165656
0.00016914373
0.00026022443
0.00037314176
0.00050211001
0.00063725183
0.00076503288
1.7741188e-06
3.1033226e-06
3.5192904e-06
4.1491213e-06
5.9187095e-06
8.5513805e-06
1.0675898e-05
1.2049087e-05
1.3106849e-05
1.3960368e-05
1.4121455e-05
1.3177912e-05
1.138171e-05
9.8926261e-06
1.0941596e-05
1.7965958e-05
3.5564052e-05
6.9066497e-05
0.00012364131
0.00020304013
0.00030826014
0.00043649665
0.00058069459
0.0007297138
0.00086895938
2.0767839e-06
3.7555085e-06
4.8105583e-06
4.9912604e-06
7.0644133e-06
9.9987152e-06
1.2584754e-05
1.4271723e-05
1.5786453e-05
1.7402866e-05
1.8515354e-05
1.8286745e-05
1.6480354e-05
1.3734487e-05
1.1647406e-05
1.3012113e-05
2.1959107e-05
4.3826958e-05
8.4542641e-05
0.00014951155
0.00024220525
0.00036280218
0.0005073007
0.0006673007
0.00083042875
0.00098113664
2.4165909e-06
5.07253e-06
6.0024343e-06
6.457382e-06
8.3855934e-06
1.1878973e-05
1.471723e-05
1.6652189e-05
1.8529787e-05
2.0949697e-05
2.3238306e-05
2.4200004e-05
2.310187e-05
2.0105734e-05
1.6232552e-05
1.3527062e-05
1.5411719e-05
2.6807828e-05
5.3842978e-05
0.00010300069
0.00017978131
0.00028716893
0.00042432265
0.00058590232
0.00076212261
0.00093943796
0.0011014824
2.9896391e-06
6.3750064e-06
8.171062e-06
8.1044624e-06
1.0475141e-05
1.4081411e-05
1.7359831e-05
1.9286625e-05
2.1366551e-05
2.4524699e-05
2.8133941e-05
3.0629487e-05
3.0834555e-05
2.84582e-05
2.4032665e-05
1.8883257e-05
1.555766e-05
1.8227364e-05
3.2710953e-05
6.5954739e-05
0.00012491201
0.00021499375
0.00033846235
0.00049326117
0.00067259301
0.00086528068
0.0010567041
0.0012298359
3.5869129e-06
7.7389975e-06
1.0393388e-05
1.0946717e-05
1.2970504e-05
1.7250148e-05
2.0506538e-05
2.2427017e-05
2.4411884e-05
2.814857e-05
3.3082547e-05
3.736952e-05
3.9314165e-05
3.8275152e-05
3.4360942e-05
2.8297213e-05
2.1701313e-05
1.7763817e-05
2.1561299e-05
3.9909068e-05
8.0557925e-05
0.00015079486
0.00025571184
0.00039660641
0.00057001661
0.00076759678
0.00097681906
0.0011821094
0.0013659613
4.1904274e-06
9.0633428e-06
1.2520967e-05
1.412297e-05
1.7090348e-05
2.1085982e-05
2.4834902e-05
2.6220241e-05
2.7904113e-05
3.1917632e-05
3.8098009e-05
4.4253419e-05
4.8268156e-05
4.908758e-05
4.6566511e-05
4.091798e-05
3.2942319e-05
2.4679494e-05
2.0162337e-05
2.5541744e-05
4.8693842e-05
9.8107013e-05
0.00018121026
0.00030251342
0.00046210234
0.00065493295
0.00087106674
0.0010966994
0.0013154588
0.0015095537
4.7819188e-06
9.8502471e-06
1.4712571e-05
1.7436864e-05
2.1858593e-05
2.7111443e-05
3.0062253e-05
3.1349779e-05
3.2125735e-05
3.6089889e-05
4.3246952e-05
5.1273383e-05
5.7478214e-05
6.0526655e-05
6.0040839e-05
5.5928973e-05
4.8258596e-05
3.7964861e-05
2.7771218e-05
2.2771416e-05
3.033674e-05
5.9419217e-05
0.00011911556
0.00021675654
0.00035598161
0.00053541618
0.00074829184
0.00098307833
0.0012248033
0.0014564854
0.0016602444
5.1576589e-06
1.1016088e-05
1.6236609e-05
2.0657134e-05
2.7130621e-05
3.4329534e-05
3.8157236e-05
3.7637056e-05
3.7754533e-05
4.1013109e-05
4.8818908e-05
5.8459715e-05
6.689722e-05
7.2298129e-05
7.4281953e-05
7.2550835e-05
6.6636605e-05
5.6436483e-05
4.3285295e-05
3.0896487e-05
2.5627634e-05
3.6170824e-05
7.2507211e-05
0.00014415746
0.00025806167
0.00041668779
0.00061696611
0.0008503042
0.001103627
0.0013609379
0.001604855
0.0018176088
5.349342e-06
1.1487507e-05
1.8294934e-05
2.3297507e-05
3.1986035e-05
4.2338328e-05
4.8201705e-05
4.7400275e-05
4.4820479e-05
4.7403577e-05
5.5170836e-05
6.6118909e-05
7.6513264e-05
8.4289067e-05
8.8886016e-05
9.0114684e-05
8.7100753e-05
7.8863643e-05
6.5372421e-05
4.8748553e-05
3.3963107e-05
2.8808572e-05
4.333649e-05
8.8455124e-05
0.00017385928
0.00030576967
0.0004851773
0.00070711108
0.00096110656
0.001232626
0.0015048386
0.0017601728
0.0019811753
5.1577448e-06
1.1793641e-05
1.9500786e-05
2.6460849e-05
3.6338317e-05
4.9311297e-05
5.9550315e-05
5.9821785e-05
5.583636e-05
5.5510573e-05
6.3077416e-05
7.4596577e-05
8.6624138e-05
9.6445004e-05
0.00010363448
0.00010806738
0.00010878927
0.00010405204
9.2581902e-05
7.4857379e-05
5.4149919e-05
3.6897884e-05
3.2450301e-05
5.2207489e-05
0.00010783301
0.0002088912
0.00036053001
0.00056196133
0.00080614841
0.001080752
0.00136991
0.001656171
0.0019219926
0.0021504336
4.6097624e-06
1.146861e-05
2.0250949e-05
2.8633343e-05
4.1128899e-05
5.598027e-05
6.9301229e-05
7.4935025e-05
7.0191342e-05
6.7745398e-05
7.2959331e-05
8.4696061e-05
9.7555783e-05
0.0001090267
0.00011840772
0.00012605493
0.00013096466
0.00013092593
0.00012348227
0.00010755841
8.4594252e-05
5.9276596e-05
3.9670026e-05
3.6766138e-05
6.3241615e-05
0.00013128152
0.00024995997
0.00042298697
0.00064750698
0.00091429973
0.0012092106
0.0015152378
0.0018145376
0.0020898241
0.0023248424
3.7665675e-06
1.0501302e-05
2.0045051e-05
3.0035864e-05
4.4656125e-05
6.2911943e-05
7.890665e-05
8.8123618e-05
8.8988772e-05
8.3970507e-05
8.7044193e-05
9.6965826e-05
0.00011014676
0.00012233489
0.00013340134
0.00014385038
0.00015311591
0.00015853497
0.00015676289
0.00014516963
0.00012342459
9.4251394e-05
6.3938551e-05
4.2314483e-05
4.2054102e-05
7.6982891e-05
0.0001595027
0.00029779991
0.00049376297
0.00074221712
0.0010317031
0.0013463685
0.0016682941
0.0019794877
0.002263139
0.0025038386
2.7672938e-06
8.9263995e-06
1.8705352e-05
3.0200046e-05
4.6844814e-05
6.8323816e-05
8.8741333e-05
0.00010120912
0.00010599196
0.00010654608
0.0001057424
0.00011339011
0.00012500162
0.00013723328
0.00014889649
0.00016156207
0.00017487002
0.00018619331
0.00019123277
0.00018611633
0.0001686915
0.00013975277
0.00010350418
6.7994511e-05
4.4941869e-05
4.870454e-05
9.4062208e-05
0.00019326037
0.00035315846
0.00057344194
0.00084642145
0.0011584078
0.0014920288
0.0018286933
0.0021505251
0.0024413828
0.0026868456
1.8133571e-06
6.8834907e-06
1.6281565e-05
2.8690087e-05
4.7316488e-05
7.151623e-05
9.7028414e-05
0.00011483239
0.00012327601
0.00012804059
0.00013272497
0.00013532209
0.00014395005
0.00015436421
0.00016573748
0.00017942881
0.00019623171
0.00021334561
0.00022600687
0.00022893903
0.00021852214
0.00019354756
0.00015611829
0.0001120627
7.1359615e-05
4.7744925e-05
5.7203856e-05
0.00011519874
0.00023337118
0.00041678019
0.00066255663
0.00096036539
0.0012943739
0.0016459111
0.0019959949
0.0023271164
0.002623982
0.0028732807
1.0648601e-06
4.729979e-06
1.3017325e-05
2.5568542e-05
4.5255637e-05
7.2312991e-05
0.00010193477
0.00012730154
0.00014134204
0.00015080839
0.00015925998
0.00016705037
0.00016885712
0.00017556355
0.00018463618
0.00019824194
0.00021734402
0.00023988414
0.00026031522
0.00027251481
0.00027115402
0.00025342381
0.00021925235
0.00017213073
0.00011967677
7.4011654e-05
5.1004433e-05
6.8145332e-05
0.00014119841
0.00028068936
0.00048938822
0.00076157057
0.0010842047
0.0014394665
0.0018076603
0.0021697088
0.002508699
0.0028103521
0.0030625632
6.4773538e-07
2.8878112e-06
9.5090531e-06
2.1161878e-05
4.0765731e-05
6.9388201e-05
0.0001037102
0.00013511139
0.0001592274
0.00017368539
0.00018849384
0.00019897371
0.00020467566
0.00020276139
0.00020747429
0.00021879424
0.00023895201
0.00026579509
0.00029391804
0.00031582483
0.00032516848
0.00031726817
0.00029031579
0.00024537641
0.00018742655
0.00012612826
7.599182e-05
5.5106464e-05
8.2232329e-05
0.00017294788
0.00033608965
0.00057166529
0.00087086647
0.0012179938
0.0015934607
0.0019768564
0.0023493
0.002694691
0.0029999066
0.0032541201
1.813174e-06
6.3948974e-07
6.4697364e-06
1.6308171e-05
3.4336226e-05
6.2903591e-05
0.00010035976
0.00013917296
0.00017116171
0.00019787973
0.00021646444
0.00023564067
0.0002424981
0.00024168946
0.00023605262
0.00024297024
0.00026184943
0.00029178018
0.00032659027
0.00035846778
0.00037926181
0.00038329655
0.00036678135
0.0003287997
0.0002715238
0.00020164027
0.00013121624
7.7424647e-05
6.0557385e-05
0.00010028373
0.00021140264
0.00040044802
0.00066423649
0.00099072968
0.0013616867
0.0017560467
0.0021530201
0.0025342006
0.0028844996
0.0031920626
0.0034473923
4.6925889e-06
1.8131365e-06
1.04097e-06
1.2065347e-05
2.7193086e-05
5.3569515e-05
9.204779e-05
0.00013667154
0.00017894221
0.00021477235
0.00024777421
0.00026926645
0.00028767686
0.00028536156
0.00027692087
0.00027236744
0.00028790024
0.00031853891
0.00035898247
0.00039995136
0.00043281549
0.00044986793
0.00044642361
0.00041939987
0.00036855006
0.00029727124
0.00021437056
0.00013476081
7.852913e-05
6.7999512e-05
0.0001232344
0.0002575714
0.00047462124
0.00076764758
0.0011213414
0.0015151347
0.001926837
0.0023356199
0.002723818
0.0030775269
0.0033862477
0.003641839
9.5814318e-06
4.6870951e-06
2.8862828e-06
1.7738706e-06
2.096939e-05
4.3174804e-05
7.967582e-05
0.00012761522
0.00017882628
0.00022728687
0.00027033098
0.00030879073
0.00032781912
0.00033911963
0.00032518982
0.00031393415
0.00031866835
0.00034794284
0.00039158552
0.00044087069
0.00048504597
0.0005160697
0.00052718981
0.00051442646
0.0004749824
0.00040920658
0.00032209701
0.00022516317
0.00013663405
7.965037e-05
7.8218973e-05
0.00015212763
0.00031249632
0.00055942231
0.00088234941
0.0012627709
0.0016780924
0.0021053716
0.0025240821
0.002917544
0.0032731799
0.0035819054
0.003836942
1.7311835e-05
9.5784757e-06
6.453339e-06
4.7268367e-06
2.7146853e-06
3.4141118e-05
6.5730828e-05
0.00011297893
0.00017045401
0.00023067429
0.00028840228
0.00033807132
0.00037734198
0.00038643731
0.00038665868
0.00036502938
0.00036043263
0.00038142584
0.00042630209
0.00048139123
0.00053645537
0.00058080901
0.00060777389
0.00061132636
0.00058747372
0.00053338025
0.00045025313
0.00034533747
0.00023352841
0.00013680277
8.1296273e-05
9.2161539e-05
0.00018810282
0.0003772296
0.00065559648
0.0010086833
0.0014149745
0.0018502188
0.0022911272
0.0027178005
0.0031147627
0.003470875
0.0037784994
0.0040322091
2.8784307e-05
1.7310329e-05
1.2054968e-05
9.485786e-06
6.8788169e-06
3.7066757e-06
5.3516439e-05
9.5990498e-05
0.00015474055
0.00022404109
0.00029624559
0.00036322124
0.00041527249
0.00044803786
0.00044130607
0.00043343126
0.00041338448
0.00042464515
0.000464252
0.00052349836
0.00058683727
0.00064442854
0.00068673696
0.00070828013
0.0007028732
0.00066578938
0.0005942412
0.0004909275
0.00036617764
0.00023898845
0.00013536886
8.4163237e-05
0.00011093321
0.00023237803
0.00045280474
0.00076379895
0.0011468711
0.0015777923
0.0020310865
0.0024835253
0.0029161458
0.0033148594
0.0036700446
0.0039755177
0.0042271763
4.6176604e-05
2.8744513e-05
2.0963149e-05
1.629155e-05
1.2990213e-05
8.9196815e-06
4.5504358e-06
8.079305e-05
0.0001356127
0.00020814417
0.00029229485
0.00037703396
0.0004498025
0.00049711346
0.00051612375
0.00049541579
0.00048857376
0.00047963435
0.00051092707
0.0005677933
0.00063829038
0.00070636439
0.00076416607
0.0008034408
0.00081873083
0.00080259571
0.00074936791
0.00065685843
0.00053017844
0.00038369102
0.00024112734
0.00013261598
8.9156504e-05
0.00013579507
0.00028622357
0.00054020689
0.00088457595
0.0012970055
0.0017509535
0.0022201866
0.0026819446
0.003118476
0.0035172277
0.0038701417
0.0041724751
0.0044214095
7.1528267e-05
4.6072129e-05
3.4025574e-05
2.7182659e-05
2.1145813e-05
1.6254309e-05
1.0494187e-05
5.105283e-06
0.00011792563
0.00018747098
0.00027699532
0.00037736236
0.00047220316
0.0005445373
0.00057868991
0.00058424439
0.00055726371
0.00056129021
0.00056894231
0.00062001775
0.00069078796
0.00076880662
0.00083916754
0.00089649515
0.00093269158
0.00094062161
0.00091103152
0.00083775057
0.00072008773
0.00056668646
0.00039689901
0.00023966304
0.0001290576
9.7407772e-05
0.0001681464
0.00035092972
0.00064034569
0.0010183449
0.0014590471
0.0019340769
0.0024169414
0.0028857305
0.0033241454
0.0037212745
0.004070642
0.0043689152
0.0046145063
0.00010701438
7.1383952e-05
5.3221138e-05
4.2998583e-05
3.4328088e-05
2.555538e-05
1.8685156e-05
1.1460707e-05
5.3080973e-06
0.0001676209
0.00025525803
0.00036401778
0.00047945861
0.00057906994
0.00064248148
0.00066210579
0.00066016549
0.00063573415
0.00065673341
0.00068147666
0.00075043567
0.00083120874
0.00091393652
0.00098624006
0.001043891
0.0010768708
0.0010752365
0.0010281734
0.00092988112
0.00078233707
0.00059892647
0.00040486285
0.00023453124
0.00012548176
0.00011027695
0.00020949898
0.00042777131
0.00075402455
0.001165381
0.0016328198
0.0021266836
0.0026207154
0.0030942088
0.0035325108
0.0039264235
0.0042710485
0.0045644135
0.004806097
0.00015533802
0.0001068763
8.0369532e-05
6.527676e-05
5.336322e-05
4.0763873e-05
2.8684556e-05
2.0031565e-05
1.1787342e-05
5.128061e-06
0.00023347575
0.00034216989
0.00047032051
0.00059706301
0.00069327028
0.00074583827
0.0007540096
0.00075190934
0.00073624969
0.00077526297
0.00081698289
0.00090002034
0.00098766232
0.0010746986
0.0011508006
0.0012098163
0.0012382069
0.001223223
0.0011532627
0.0010240635
0.00084161428
0.0006252628
0.00040678231
0.00022597643
0.00012299336
0.00012934529
0.00026144148
0.00051797063
0.00088191457
0.0013258041
0.0018180175
0.0023282058
0.0028308288
0.00330669
0.0037429351
0.004132121
0.0044708971
0.0047585812
0.0049958441
0.00021997022
0.00015538316
0.00011751583
9.5328972e-05
7.9128604e-05
6.2692163e-05
4.5267462e-05
3.020005e-05
2.0243867e-05
1.1486835e-05
4.7634858e-06
0.00031906924
0.00045015451
0.00059558103
0.00072668245
0.000817279
0.00086052482
0.00086176972
0.00086519417
0.00086010028
0.00091785319
0.00097365877
0.0010669226
0.0011610066
0.0012549912
0.0013375035
0.0013976376
0.0014181995
0.0013843392
0.001284718
0.0011179929
0.0008956272
0.00064406494
0.00040211485
0.00021459726
0.00012302768
0.00015638973
0.00032559658
0.00062265633
0.0010245282
0.0014995758
0.0020142114
0.0025380014
0.0030465628
0.0035224758
0.0039547972
0.0043378486
0.0046697632
0.0049510611
0.0051834399
0.00030466352
0.00022016269
0.00016772463
0.00013497346
0.00011217473
9.1472326e-05
6.9196379e-05
4.7339838e-05
3.0042254e-05
1.949916e-05
1.1018257e-05
4.1812431e-06
0.00042696491
0.00057981714
0.00073738623
0.00087133513
0.00095656599
0.00099257547
0.00099062979
0.001002906
0.0010072954
0.00108289
0.001149296
0.0012515924
0.0013556233
0.001460858
0.0015509972
0.0016098988
0.0016173278
0.0015573398
0.0014201297
0.0012088419
0.00094190527
0.00065384753
0.00039067044
0.00020138766
0.00012733858
0.00019334493
0.00040357092
0.00074282278
0.0011822044
0.0016865018
0.002220862
0.0027553557
0.0032671671
0.0037408715
0.0041675121
0.0045431314
0.0048672503
0.0051415159
0.0053775927
0.00041227757
0.00030493904
0.00023397886
0.00018758338
0.00015395566
0.00012676077
9.9814443e-05
7.2149128e-05
4.6878146e-05
2.8645623e-05
1.8299659e-05
9.8548166e-06
3.585415e-06
0.00055836043
0.00072996156
0.00089938429
0.0010361228
0.0011159213
0.0011468425
0.0011441177
0.0011653925
0.0011765744
0.0012666995
0.0013438696
0.0014587177
0.0015789825
0.0016984478
0.0017949802
0.0018479859
0.0018349149
0.0017399675
0.0015563428
0.0012933771
0.00097793736
0.00065339826
0.00037270709
0.00018778656
0.00013798969
0.00024224895
0.00049690009
0.00087929838
0.0013551006
0.0018862367
0.002437317
0.0029794913
0.003491878
0.0039612189
0.0043805424
0.0047475153
0.0050629661
0.0053377377
0.005582562
0.00054411588
0.00041241237
0.00031980427
0.00025594285
0.00020822909
0.00016961357
0.00013586249
0.00010323087
7.1391478e-05
4.4695643e-05
2.6473202e-05
1.6246644e-05
9.068231e-06
2.9918376e-06
0.00071319393
0.0009047234
0.0010865776
0.001224747
0.0012996363
0.0013277533
0.0013235878
0.0013506165
0.0013651907
0.0014692654
0.0015617244
0.0016972724
0.0018389268
0.0019727809
0.0020718977
0.0021120096
0.0020691299
0.0019289963
0.0016895461
0.0013680981
0.0010013339
0.00064192633
0.00034902831
0.00017571244
0.00015731037
0.00030517869
0.00060699814
0.0010327239
0.0015431858
0.0020982743
0.0026628174
0.0032095935
0.003719964
0.0041829094
0.0045933595
0.0049505266
0.0052642471
0.0055441788
0.0057928006
0.00070105215
0.00054376266
0.00042737153
0.00034318306
0.00027774271
0.00022409167
0.00017803405
0.00013845358
0.00010154399
6.8231269e-05
4.117617e-05
2.3308688e-05
1.4723312e-05
7.7482551e-06
2.4203112e-06
0.00089581732
0.0011088515
0.0013015834
0.0014408064
0.0015130277
0.0015375494
0.0015290191
0.0015532646
0.0015733491
0.0016940669
0.0018135662
0.0019769988
0.0021417712
0.0022874785
0.0023828364
0.0024008105
0.0023169939
0.0021203025
0.0018153931
0.0014293968
0.0010100068
0.00061920438
0.0003210372
0.00016753628
0.00018783049
0.00038418541
0.00073511937
0.0012035284
0.0017462168
0.0023219492
0.0028965345
0.0034448715
0.0039507426
0.004405324
0.0048053808
0.0051594633
0.0054756783
0.005756742
0.0060082331
0.00088750406
0.00070035686
0.00055737071
0.00045065559
0.00036511103
0.0002929826
0.00023071303
0.00017825391
0.00013453063
9.6722927e-05
6.2849694e-05
3.6386464e-05
2.0665581e-05
1.2531833e-05
6.3875238e-06
2.082524e-06
0.0011105593
0.0013439774
0.0015471532
0.0016899643
0.0017602487
0.0017763551
0.0017558093
0.0017709389
0.001800373
0.0019535618
0.0021109617
0.0023055786
0.0024923511
0.0026447591
0.0027275683
0.0027119893
0.002574441
0.0023089705
0.00192915
0.0014737486
0.001002353
0.00058568701
0.00029076029
0.00016602359
0.00023220983
0.00048123868
0.0008823101
0.0013918808
0.0019637297
0.0025564839
0.0031376488
0.0036845755
0.0041834916
0.0046277424
0.0050242786
0.0053789841
0.005694128
0.0059753196
0.0062287668
0.0011074477
0.00088668414
0.00071126473
0.0005782474
0.00047074361
0.00037835855
0.00029682978
0.00022732804
0.00017062338
0.00012684697
8.8526482e-05
5.5951091e-05
3.2031093e-05
1.744177e-05
1.040968e-05
5.0787738e-06
1.7828826e-06
0.0013581137
0.0016114747
0.001829209
0.001978828
0.0020426311
0.0020407415
0.0019972999
0.0020031002
0.0020596136
0.0022628573
0.0024627999
0.0026892203
0.0028940867
0.0030455597
0.0031045837
0.0030418951
0.002836348
0.0024893879
0.0020258629
0.0014979191
0.00097743093
0.00054260434
0.00026085556
0.00017429895
0.00029317248
0.00059815241
0.0010493285
0.0015976646
0.0021950982
0.0028010885
0.003385367
0.0039278723
0.0044173228
0.0048586556
0.0052547203
0.0056064941
0.0059194648
0.0061997781
0.0064542898
0.0013612088
0.0011066863
0.00089364938
0.00072704224
0.00059355202
0.00047970022
0.00037787462
0.0002888883
0.00021484621
0.00015883327
0.00011451369
7.8768986e-05
4.9297324e-05
2.716868e-05
1.4136782e-05
8.1839025e-06
3.7579972e-06
1.5061365e-06
0.0016383453
0.0019169161
0.0021564247
0.0023102565
0.0023578106
0.002323968
0.0022505184
0.0022590406
0.002369971
0.0026321415
0.0028763155
0.0031326389
0.0033492397
0.0034895753
0.0035110926
0.003385631
0.0030965916
0.0026553638
0.0021005623
0.0014991824
0.00093513432
0.00049203492
0.00023461112
0.00019577038
0.00037340417
0.00073646008
0.0012365902
0.001820549
0.0024396554
0.0030549717
0.0036387478
0.0041736796
0.0046620406
0.0051026688
0.005494226
0.0058418463
0.0061515268
0.0064299488
0.0066846737
0.0016475097
0.0013613559
0.0011085286
0.00090152798
0.00073381504
0.00059477792
0.00047224615
0.00036387929
0.00027069834
0.00019796145
0.0001411004
0.0001010057
6.9207914e-05
4.2341495e-05
2.1895815e-05
1.0961394e-05
6.0082634e-06
3.1066997e-06
1.2020265e-06
0.0019555984
0.002270076
0.0025334422
0.0026840381
0.0026994899
0.0026184064
0.0025232805
0.0025584919
0.0027426933
0.003069802
0.003357544
0.0036397563
0.0038590673
0.0039752309
0.0039429209
0.0037370425
0.0033481159
0.0028003026
0.0021485153
0.0014755828
0.00087635092
0.0004369378
0.00021588512
0.00023400957
0.00047538087
0.0008973223
0.0014442493
0.0020601303
0.0026966931
0.0033171034
0.0038964937
0.0044336596
0.0049221101
0.0053569591
0.0057426424
0.0060848617
0.0063901038
0.0066656383
0.0069197699
0.0019689644
0.0016489547
0.0013584938
0.0011059898
0.00089548864
0.00072285134
0.00057672547
0.00044971998
0.00033858744
0.00024806873
0.0001737796
0.00012313273
8.7983138e-05
5.9514182e-05
3.4329034e-05
1.7118277e-05
8.1154198e-06
4.8170038e-06
2.1522274e-06
9.3845461e-07
0.0023202303
0.0026776578
0.0029627789
0.0030944921
0.0030572095
0.002928648
0.0028329786
0.00291747
0.0031877807
0.0035825981
0.0039122917
0.0042135633
0.0044236373
0.0044995063
0.0043944602
0.0040887378
0.0035830283
0.0029174074
0.0021654755
0.0014261596
0.00080309634
0.00038119465
0.00020899865
0.00029253322
0.00060122579
0.0010816152
0.0016723637
0.0023159093
0.0029651444
0.0035859619
0.0041727361
0.0047120539
0.0051938496
0.0056213754
0.0059997842
0.0063353008
0.0066349512
0.006906618
0.0071594147
0.0023363444
0.0019712287
0.0016423387
0.0013447034
0.0010831366
0.00086717844
0.00068949522
0.00054232911
0.00041516105
0.00030926341
0.00021671716
0.00015088306
0.00010590745
7.487233e-05
4.8207076e-05
2.7114228e-05
1.2986037e-05
6.4662313e-06
3.5259174e-06
1.8568434e-06
7.0603671e-07
0.0027401097
0.0031436
0.0034404349
0.00353115
0.0034320933
0.0032692543
0.0031921477
0.0033522298
0.003711124
0.0041783278
0.0045455136
0.0048560429
0.0050415682
0.0050578873
0.0048586527
0.004432061
0.0037927048
0.0029999415
0.0021480154
0.001351202
0.00071863775
0.00032954061
0.00021848961
0.00037461448
0.00075280805
0.0012901136
0.0019208234
0.0025868705
0.0032432735
0.0038788282
0.0044714317
0.0050037494
0.005477121
0.0058957389
0.0062653952
0.0065928809
0.0068857785
0.0071526358
0.0074034251
0.0027577479
0.0023388237
0.0019618029
0.0016174241
0.0013023995
0.0010324389
0.00081322001
0.00063908538
0.0004953242
0.00037730531
0.0002696038
0.00018867051
0.00012814364
8.8980448e-05
5.9814231e-05
3.8148937e-05
2.1088756e-05
1.048872e-05
4.996115e-06
2.9098953e-06
1.2969491e-06
5.1757427e-07
0.0032193226
0.0036665185
0.0039574253
0.0039929316
0.003836789
0.0036637503
0.0036192899
0.0038636395
0.0043227496
0.0048644963
0.0052613591
0.0055678035
0.0057099827
0.0056443067
0.0053268286
0.0047570926
0.0039679659
0.0030415858
0.0020939073
0.0012525173
0.00062750774
0.0002873007
0.00024886866
0.0004833847
0.00093192881
0.0015233484
0.0021888087
0.0028711093
0.003552227
0.0041993633
0.0047853833
0.0053086351
0.0057717666
0.0061797883
0.0065391668
0.0068572634
0.0071422613
0.0074034068
0.0076516018
0.0032369142
0.0027606507
0.0023274189
0.0019258944
0.0015539349
0.0012254467
0.00095294246
0.00074217829
0.0005759997
0.00044672938
0.00032783759
0.00023592021
0.00015939227
0.00010661199
7.0211769e-05
4.7382234e-05
3.0055168e-05
1.7248465e-05
8.392132e-06
4.1539118e-06
2.210251e-06
1.0695867e-06
3.6624757e-07
0.0037573832
0.0042396197
0.0045118828
0.004492772
0.0042943696
0.0041187018
0.0041187328
0.0044626588
0.0050320231
0.0056484586
0.0060628571
0.0063479915
0.0064244529
0.0062509119
0.0057885643
0.0050526604
0.0040993925
0.0030368444
0.0020025001
0.0011335832
0.00053531882
0.00026014626
0.00030474388
0.00062201331
0.0011400776
0.0017809036
0.0024743421
0.0031943566
0.0038954489
0.0045375494
0.0051145221
0.0056265938
0.0060775348
0.0064732027
0.0068207258
0.0071280656
0.0074040316
0.0076586356
0.0079037662
0.0037726797
0.0032392652
0.0027482639
0.0022805436
0.0018394572
0.0014473252
0.0011160949
0.00085724885
0.00065923469
0.00051424442
0.00038564358
0.00028775364
0.00019917762
0.00013280278
8.404435e-05
5.5844371e-05
3.762947e-05
2.4830715e-05
1.4079696e-05
7.0686919e-06
3.39638e-06
1.8351113e-06
7.7178731e-07
2.5481857e-07
0.0043505068
0.0048641135
0.0051196327
0.005047707
0.0048109263
0.0046391372
0.0047011083
0.0051634887
0.0058487098
0.006535947
0.0069517934
0.0071944462
0.0071788839
0.0068677492
0.0062314722
0.0053064992
0.0041777556
0.0029815896
0.0018750847
0.00099948364
0.00044857178
0.00025424011
0.0003909866
0.00079333128
0.0013775422
0.0020609013
0.0028083824
0.0035600759
0.0042593242
0.0048933719
0.0054587883
0.0059574003
0.0063941072
0.006775588
0.0071096437
0.0074048507
0.0076707133
0.0079180455
0.0081596926
0.004362976
0.0037725724
0.0032257677
0.0026895203
0.0021683503
0.0016997781
0.0013048682
0.00099238579
0.00075149598
0.00058226117
0.0004402074
0.00033868257
0.00024263314
0.00016716535
0.00010578163
6.7795168e-05
4.4828682e-05
3.1345549e-05
2.0502909e-05
1.1876193e-05
5.920217e-06
2.8921715e-06
1.4702278e-06
6.1288168e-07
1.7407734e-07
0.005002957
0.0055588195
0.0057968513
0.0056663663
0.0053953755
0.0052309742
0.0053859232
0.0059773105
0.0067811353
0.0075310969
0.0079286956
0.0081035686
0.0079649813
0.0074823015
0.0066410972
0.0055055611
0.0041945909
0.0028736452
0.0017150675
0.00085681708
0.00037481084
0.0002763988
0.00051218075
0.00099871316
0.0016428032
0.0023999473
0.0031948913
0.0039502919
0.004643896
0.0052668458
0.0058180022
0.0063007569
0.0067210842
0.0070864843
0.0074054281
0.0076871758
0.0079419435
0.0081813033
0.0084191456
0.0050147788
0.0043598136
0.0037574761
0.0031531015
0.0025469284
0.0019903344
0.0015208971
0.0011506186
0.00086157871
0.0006584231
0.00049422183
0.00038603737
0.00028519055
0.00020479783
0.00013535972
8.7054116e-05
5.5515108e-05
3.7755429e-05
2.6217536e-05
1.7355227e-05
9.9961981e-06
5.0882864e-06
2.457409e-06
1.2051499e-06
4.5538692e-07
1.171825e-07
0.0057363884
0.0063421338
0.0065511213
0.0063532743
0.0060444464
0.0059135243
0.0061841798
0.0069148186
0.0078366931
0.008636952
0.0089932388
0.0090699279
0.0087715488
0.0080790778
0.0070009772
0.0056365222
0.0041429627
0.0027132403
0.0015280486
0.0007139978
0.00032284982
0.00033334413
0.00067125347
0.0012373799
0.0019780945
0.002803347
0.0036108991
0.0043650956
0.0050492663
0.0056578543
0.0061919052
0.0066562737
0.0070579888
0.0074053566
0.0077075816
0.0079745987
0.0082173002
0.0084480425
0.0086818795
0.0057500769
0.0050103861
0.0043430972
0.0036673336