/*--------------------------------*- C++ -*----------------------------------*\
| =========                 |                                                 |
| \\      /  F ield         | OpenFOAM: The Open Source CFD Toolbox           |
|  \\    /   O peration     | Version:  5.0                                   |
|   \\  /    A nd           | Web:      www.OpenFOAM.org                      |
|    \\/     M anipulation  |                                                 |
\*---------------------------------------------------------------------------*/
FoamFile
{
    version     2.0;
    format      ascii;
    class       volVectorField;
    location    "400";
    object      U;
}
// * * * * * * * * * * * * * * * * * * * * * * * * * * * * * * * * * * * * * //

dimensions      [0 1 -1 0 0 0 0];

internalField   nonuniform List<vector> 
9520
(
(1.0144227 0.00016688158 0)
(1.0145201 0.00048879909 0)
(1.0139266 0.00016497208 0)
(1.0146916 0.0007875425 0)
(1.0140264 0.00048450095 0)
(1.0137363 0.00016226925 0)
(1.014921 0.0010626938 0)
(1.0142032 0.00078248751 0)
(1.0138356 0.00047657534 0)
(1.0134313 0.00016253459 0)
(1.0151939 0.0013136643 0)
(1.0144418 0.0010583041 0)
(1.0140128 0.00077045668 0)
(1.0135305 0.00047635615 0)
(1.0131963 0.00016730336 0)
(1.0154978 0.0015403308 0)
(1.0147284 0.0013116444 0)
(1.0142532 0.0010434447 0)
(1.0137083 0.00077002618 0)
(1.013296 0.00048954697 0)
(1.0129272 0.0001735981 0)
(1.0158214 0.0017426521 0)
(1.0150502 0.0015417189 0)
(1.0145436 0.0012968274 0)
(1.0139492 0.0010438017 0)
(1.0134743 0.00079116128 0)
(1.0130271 0.00050869582 0)
(1.012677 0.00017671577 0)
(1.0161548 0.001919968 0)
(1.0153971 0.0017485419 0)
(1.0148712 0.0015292446 0)
(1.014241 0.0013004356 0)
(1.0137155 0.0010732604 0)
(1.0132044 0.00082367595 0)
(1.0127763 0.00051995372 0)
(1.0124234 0.00017460989 0)
(1.0164901 0.0020710115 0)
(1.0157609 0.0019322406 0)
(1.0152256 0.0017402086 0)
(1.0145729 0.001539143 0)
(1.0140076 0.0013384174 0)
(1.0134438 0.0011204369 0)
(1.0129515 0.00084513547 0)
(1.0125191 0.00051603918 0)
(1.0121901 0.00016820331 0)
(1.0168211 0.0021935394 0)
(1.0161367 0.0020926786 0)
(1.0155983 0.0019297389 0)
(1.0149342 0.0017594917 0)
(1.0143413 0.0015871921 0)
(1.0137332 0.0014003698 0)
(1.0131883 0.001154639 0)
(1.0126886 0.00084237997 0)
(1.0122813 0.00049824661 0)
(1.0119736 0.00016069161 0)
(1.0171457 0.0022792833 0)
(1.0165237 0.0022300498 0)
(1.015982 0.0020985796 0)
(1.015315 0.0019610192 0)
(1.0147066 0.0018198879 0)
(1.0140637 0.0016656579 0)
(1.0134747 0.0014486641 0)
(1.0129188 0.0011566453 0)
(1.0124437 0.00081557911 0)
(1.0120599 0.0004757026 0)
(1.0117749 0.00015509222 0)
(1.0174718 0.0023332307 0)
(1.0169282 0.0023468192 0)
(1.016372 0.0022519003 0)
(1.0157046 0.0021441176 0)
(1.0150932 0.0020360292 0)
(1.0144261 0.0019177063 0)
(1.0138011 0.0017299699 0)
(1.0131971 0.0014596549 0)
(1.0126653 0.0011234683 0)
(1.0122143 0.00077953712 0)
(1.0118568 0.00045772918 0)
(1.0115887 0.0001525097 0)
(1.0178008 0.002350616 0)
(1.0173582 0.0024482481 0)
(1.0167642 0.0023977034 0)
(1.0160908 0.002312335 0)
(1.0154901 0.0022349812 0)
(1.0148128 0.0021565345 0)
(1.0141592 0.0020008232 0)
(1.0135126 0.0017534867 0)
(1.0129346 0.0014256684 0)
(1.0124238 0.0010751006 0)
(1.0120037 0.00074972476 0)
(1.0116671 0.0004485243 0)
(1.011411 0.00015178795 0)
(1.0180981 0.0023515825 0)
(1.0177557 0.002534432 0)
(1.0171093 0.0025546105 0)
(1.0164539 0.0024688043 0)
(1.0158845 0.0024143108 0)
(1.015218 0.0023801068 0)
(1.0145428 0.0022625197 0)
(1.0138569 0.0020406953 0)
(1.0132388 0.0017227321 0)
(1.0126777 0.001368473 0)
(1.0122023 0.0010346671 0)
(1.0118067 0.00073347937 0)
(1.0114868 0.00044564635 0)
(1.0112402 0.00015052404 0)
(1.0183982 0.0023108232 0)
(1.0180878 0.0026776535 0)
(1.017369 0.0027435696 0)
(1.0167722 0.0026170193 0)
(1.0162604 0.0025662888 0)
(1.0156386 0.0025819533 0)
(1.014949 0.0025153533 0)
(1.0142236 0.0023237244 0)
(1.0135687 0.0020159747 0)
(1.0129656 0.0016604333 0)
(1.0124418 0.001318462 0)
(1.0119941 0.0010125415 0)
(1.0116195 0.00072785407 0)
(1.0113136 0.00044238059 0)
(1.0110776 0.0001464461 0)
(1.0187038 0.0023001118 0)
(1.0184129 0.0027968631 0)
(1.0176337 0.0029277275 0)
(1.017065 0.0027394554 0)
(1.0166387 0.0026785492 0)
(1.0160834 0.0027491203 0)
(1.0153795 0.0027579303 0)
(1.0146094 0.002605723 0)
(1.0139163 0.0023072261 0)
(1.013278 0.0019511629 0)
(1.0127138 0.0016028168 0)
(1.0122189 0.0012905969 0)
(1.0117961 0.0010042778 0)
(1.01144 0.00072265603 0)
(1.0111484 0.0004316637 0)
(1.0109268 0.0001383648 0)
(1.0190444 0.002181286 0)
(1.0187463 0.0030318788 0)
(1.0178238 0.0030924179 0)
(1.0173772 0.002817057 0)
(1.0170413 0.0027141713 0)
(1.0165627 0.0028750299 0)
(1.015841 0.0029927577 0)
(1.015014 0.0028930955 0)
(1.0142727 0.0025996884 0)
(1.013606 0.0022406307 0)
(1.0130098 0.0018882596 0)
(1.0124737 0.0015702953 0)
(1.0120067 0.0012798851 0)
(1.0116064 0.00099612827 0)
(1.0112692 0.00070626145 0)
(1.0109944 0.00040924064 0)
(1.0107915 0.00012655382 0)
(1.0193725 0.0022651539 0)
(1.0190778 0.0031558724 0)
(1.0179591 0.0032668636 0)
(1.0176072 0.002839107 0)
(1.0174486 0.0026981323 0)
(1.0170764 0.0029309013 0)
(1.0163513 0.0032175245 0)
(1.0154366 0.00319589 0)
(1.014627 0.0028999114 0)
(1.0139396 0.0025287416 0)
(1.0133216 0.0021738727 0)
(1.0127509 0.0018536768 0)
(1.0122439 0.0015580277 0)
(1.0118031 0.0012685741 0)
(1.0114264 0.00097356309 0)
(1.0111095 0.00067067905 0)
(1.0108558 0.00037522967 0)
(1.0106741 0.00011258319 0)
(1.0197984 0.0019337387 0)
(1.0194164 0.0036778188 0)
(1.0179252 0.0034925191 0)
(1.0177196 0.0028476675 0)
(1.0178952 0.0025958814 0)
(1.0175903 0.0029594182 0)
(1.0168996 0.0034457206 0)
(1.0158713 0.0035296511 0)
(1.0149706 0.0032163443 0)
(1.0142681 0.002815157 0)
(1.013641 0.0024571399 0)
(1.0130442 0.0021409411 0)
(1.0125006 0.0018426021 0)
(1.0120216 0.0015444204 0)
(1.0116095 0.0012384765 0)
(1.0112588 0.00092646052 0)
(1.0109649 0.00061500235 0)
(1.0107356 0.00033390199 0)
(1.0105748 9.8672413e-05 0)
(1.0200361 0.0023569144 0)
(1.0197002 0.0037625336 0)
(1.0177795 0.0037496596 0)
(1.0176578 0.0027895101 0)
(1.0182472 0.0023951137 0)
(1.0182087 0.002949934 0)
(1.0174541 0.0036853893 0)
(1.016301 0.0039246584 0)
(1.0152826 0.0035654264 0)
(1.0145744 0.0030979826 0)
(1.01396 0.0027326121 0)
(1.0133494 0.0024302061 0)
(1.0127718 0.0021358514 0)
(1.0122545 0.0018290373 0)
(1.0118092 0.0015077281 0)
(1.0114294 0.0011784054 0)
(1.0111069 0.00085167306 0)
(1.0108394 0.00054616532 0)
(1.0106344 0.00029179258 0)
(1.0104915 8.6807543e-05 0)
(1.0203699 0.0015529863 0)
(1.0200647 0.0048123764 0)
(1.0173273 0.0041837618 0)
(1.0174021 0.0026104 0)
(1.0186267 0.0019882787 0)
(1.0189599 0.0028878714 0)
(1.0180792 0.0039435517 0)
(1.0166967 0.0043966003 0)
(1.0155391 0.0039642561 0)
(1.0148361 0.0033804325 0)
(1.0142673 0.0029912678 0)
(1.0136634 0.0027157341 0)
(1.0130557 0.0024383046 0)
(1.0124971 0.0021269942 0)
(1.012017 0.0017872499 0)
(1.0116109 0.0014349206 0)
(1.0112669 0.0010853629 0)
(1.0109736 0.00075449182 0)
(1.010735 0.00047540641 0)
(1.0105502 0.00025484568 0)
(1.0104208 7.8061816e-05 0)
(1.0200892 0.0025251797 0)
(1.0201791 0.0048775146 0)
(1.0167968 0.0045637056 0)
(1.0168935 0.0024944091 0)
(1.0189379 0.0014290706 0)
(1.0199145 0.0026718172 0)
(1.0188561 0.004279554 0)
(1.017063 0.0049680004 0)
(1.0156857 0.0044303774 0)
(1.0150146 0.003653519 0)
(1.014548 0.0032220173 0)
(1.0139832 0.0029883299 0)
(1.0133538 0.0027481267 0)
(1.0127482 0.0024421923 0)
(1.012227 0.0020832723 0)
(1.0117936 0.0017016622 0)
(1.0114319 0.0013222235 0)
(1.0111243 0.00096248908 0)
(1.0108633 0.00065071821 0)
(1.0106504 0.00041256984 0)
(1.0104799 0.00022644044 0)
(1.0103594 7.2445307e-05 0)
(1.019888 0.0011417959 0)
(1.0203272 0.0065156035 0)
(1.0156303 0.0053790582 0)
(1.0160776 0.0019122318 0)
(1.0192858 0.00050887616 0)
(1.021064 0.0023962638 0)
(1.0198184 0.0046820985 0)
(1.0174178 0.0056974087 0)
(1.0157284 0.0049725825 0)
(1.015095 0.0039232477 0)
(1.014768 0.003389336 0)
(1.0143069 0.0032290447 0)
(1.0136733 0.0030601622 0)
(1.0130109 0.0027788451 0)
(1.0124357 0.0024023083 0)
(1.0119701 0.001985165 0)
(1.0115923 0.0015674081 0)
(1.0112765 0.0011722038 0)
(1.0110056 0.00082543588 0)
(1.0107761 0.00055722144 0)
(1.0105817 0.00036273956 0)
(1.0104202 0.00020712167 0)
(1.0103041 6.9265666e-05 0)
(1.019188 0.0026955844 0)
(1.0195104 0.0065312303 0)
(1.0148221 0.0059294911 0)
(1.0148007 0.0018835091 0)
(1.0194164 -0.00068795466 0)
(1.0225234 0.0017542539 0)
(1.021036 0.0052612148 0)
(1.0177523 0.0066619851 0)
(1.0155623 0.0056340619 0)
(1.0150148 0.0041453174 0)
(1.0149769 0.0035028787 0)
(1.0146419 0.0034070478 0)
(1.0140287 0.0033596777 0)
(1.0132961 0.0031404183 0)
(1.0126431 0.0027537108 0)
(1.0121332 0.002292573 0)
(1.011739 0.0018264531 0)
(1.0114196 0.0013871142 0)
(1.0111478 0.00099955594 0)
(1.0109134 0.00069824288 0)
(1.0107081 0.00048327528 0)
(1.010525 0.00032646853 0)
(1.0103683 0.00019547178 0)
(1.0102528 6.7617637e-05 0)
(1.0194967 0.0012962793 0)
(1.0175466 0.0087585999 0)
(1.011783 0.0074348441 0)
(1.013126 0.0005447863 0)
(1.0197917 -0.002319048 0)
(1.0242487 0.0011923274 0)
(1.0225434 0.0059102654 0)
(1.0180771 0.0079583719 0)
(1.0151353 0.0064432535 0)
(1.0147051 0.0043283555 0)
(1.0151392 0.0034329538 0)
(1.0150326 0.0034877446 0)
(1.0144571 0.003632496 0)
(1.0136239 0.0035297244 0)
(1.0128545 0.0031495604 0)
(1.0122774 0.0026344022 0)
(1.0118621 0.0021049673 0)
(1.0115436 0.0016108911 0)
(1.0112782 0.001175859 0)
(1.0110495 0.00083575016 0)
(1.0108438 0.00059442342 0)
(1.0106549 0.00042949746 0)
(1.0104773 0.0003019993 0)
(1.0103217 0.00018921851 0)
(1.0102043 6.6660582e-05 0)
(1.0186467 0.0029896167 0)
(1.0185417 0.0091945253 0)
(1.0085683 0.007713075 0)
(1.0104266 0.00090007703 0)
(1.0195176 -0.0045024052 0)
(1.0265524 -0.00019449955 0)
(1.0244492 0.0069748275 0)
(1.018323 0.0096841867 0)
(1.0143507 0.0075128788 0)
(1.0140704 0.0044042621 0)
(1.0151898 0.0031738402 0)
(1.0155552 0.0034177208 0)
(1.0149722 0.0038252512 0)
(1.0140352 0.0039549074 0)
(1.0130813 0.0036096518 0)
(1.0123965 0.0030248779 0)
(1.011951 0.0024102186 0)
(1.0116381 0.0018466362 0)
(1.011387 0.0013564211 0)
(1.0111721 0.00097211444 0)
(1.0109773 0.00069903309 0)
(1.0107927 0.0005160066 0)
(1.0106128 0.0003913656 0)
(1.0104364 0.00028726145 0)
(1.0102786 0.00018604256 0)
(1.0101583 6.5728996e-05 0)
(1.0139829 0.0016027352 0)
(1.0178547 0.012180714 0)
(1.0062102 0.0099256788 0)
(1.00737 -0.0016443346 0)
(1.0199262 -0.0070376337 0)
(1.0288593 -0.0010861411 0)
(1.0267 0.0079284693 0)
(1.0185496 0.011944836 0)
(1.013109 0.0088357763 0)
(1.0129966 0.0044268945 0)
(1.0150831 0.0025882587 0)
(1.0161973 0.0031555206 0)
(1.0156333 0.0039996483 0)
(1.0145291 0.004416895 0)
(1.0133437 0.0041629544 0)
(1.0124855 0.0034882096 0)
(1.0119914 0.002751192 0)
(1.0116911 0.0020959205 0)
(1.0114648 0.0015420926 0)
(1.0112717 0.0011092964 0)
(1.0110959 0.00079953507 0)
(1.0109267 0.00059185903 0)
(1.0107563 0.00045874442 0)
(1.0105791 0.0003639684 0)
(1.0104011 0.00027985086 0)
(1.010238 0.00018390327 0)
(1.0101143 6.4404296e-05 0)
(1.0024176 0.0041491705 0)
(1.0078369 0.012054906 0)
(1.0046998 0.010925648 0)
(1.0041256 -0.0015138053 0)
(1.0190424 -0.010426361 0)
(1.0314167 -0.0037317586 0)
(1.0293246 0.0099118377 0)
(1.0184723 0.014907194 0)
(1.0112371 0.010567904 0)
(1.0113775 0.0042722813 0)
(1.014769 0.0016511935 0)
(1.0169649 0.0025395888 0)
(1.0165806 0.004138219 0)
(1.0151203 0.0049569163 0)
(1.013626 0.0048580678 0)
(1.0125312 0.0040582797 0)
(1.0119653 0.0031425538 0)
(1.0116871 0.0023589931 0)
(1.0115021 0.0017300759 0)
(1.0113413 0.0012477581 0)
(1.0111905 0.00089858848 0)
(1.0110442 0.00066033637 0)
(1.0108939 0.00050971735 0)
(1.0107315 0.00041636932 0)
(1.0105527 0.00034489539 0)
(1.0103701 0.00027579019 0)
(1.0101993 0.00018090874 0)
(1.0100729 6.2473692e-05 0)
(0.98986581 0.0038312915 0)
(0.99112019 0.016167498 0)
(0.99060713 0.013637392 0)
(1.0005334 -0.0050220514 0)
(1.0193848 -0.014017924 0)
(1.0341935 -0.0045483564 0)
(1.0316338 0.011281787 0)
(1.018373 0.018630245 0)
(1.0085737 0.012749485 0)
(1.0090014 0.004039757 0)
(1.0141757 0.00011744178 0)
(1.017922 0.0015349884 0)
(1.0178979 0.0041432654 0)
(1.01597 0.0056262449 0)
(1.0139061 0.0057255873 0)
(1.0125116 0.0047880328 0)
(1.0118379 0.0036006095 0)
(1.0116043 0.002633156 0)
(1.0114882 0.0019137526 0)
(1.0113759 0.0013837422 0)
(1.0112556 0.00099771274 0)
(1.0111357 0.00072554771 0)
(1.0110131 0.00054887663 0)
(1.0108765 0.00044562873 0)
(1.0107162 0.00038310438 0)
(1.0105332 0.0003318809 0)
(1.0103418 0.00026973364 0)
(1.0101632 0.00017546186 0)
(1.0100344 5.9922087e-05 0)
(0.97628862 0.0062843976 0)
(0.97642591 0.017611036 0)
(0.97449178 0.013515731 0)
(0.99130734 -0.0043701132 0)
(1.0184145 -0.018813855 0)
(1.0385579 -0.0083329154 0)
(1.0338192 0.014702159 0)
(1.0170135 0.023366989 0)
(1.0048007 0.015463303 0)
(1.0057425 0.0035338934 0)
(1.0132096 -0.0019467491 0)
(1.0191142 -0.00013819109 0)
(1.0197129 0.0040198166 0)
(1.0171763 0.0064609319 0)
(1.0142727 0.0068517418 0)
(1.012368 0.0057093916 0)
(1.0115741 0.0041529801 0)
(1.0114091 0.0029147379 0)
(1.0114081 0.0020781885 0)
(1.0113722 0.0015073897 0)
(1.0112909 0.0010950692 0)
(1.0111969 0.00079122283 0)
(1.0111034 0.00058225945 0)
(1.0110007 0.00045733821 0)
(1.0108726 0.00039200919 0)
(1.0107096 0.00035442837 0)
(1.0105191 0.00031918472 0)
(1.0103162 0.00025799917 0)
(1.0101305 0.00016737179 0)
(1.0099993 5.7058019e-05 0)
(0.96050682 0.0069115187 -4.3223285e-24)
(0.96022476 0.020686112 0)
(0.9604309 0.015678221 0)
(0.98115928 -0.010243811 0)
(1.01721 -0.023577654 0)
(1.0422764 -0.0095944497 0)
(1.0384829 0.016489556 0)
(1.0145568 0.028988049 0)
(0.99948191 0.018950507 0)
(1.001241 0.0028465292 0)
(1.0118514 -0.0049893638 0)
(1.0206162 -0.002431225 0)
(1.0221423 0.0035710202 0)
(1.0188798 0.0075523795 0)
(1.0147662 0.008355939 0)
(1.0120647 0.0069043911 0)
(1.0111096 0.0048263542 0)
(1.0110538 0.0031917945 0)
(1.0112412 0.0022011299 0)
(1.011328 0.0015993811 0)
(1.011301 0.0011831597 0)
(1.01123 0.00085957627 0)
(1.0111601 0.00061632582 0)
(1.0110921 0.00045931548 0)
(1.0110058 0.00037726481 0)
(1.0108806 0.00034335798 0)
(1.0107114 0.00032706211 0)
(1.0105101 0.00030162262 0)
(1.0102946 0.00024190608 0)
(1.0101015 0.00015829617 0)
(1.0099672 5.4468433e-05 0)
(0.94243036 0.0090359 9.0687232e-24)
(0.94304831 0.022975213 4.5103431e-24)
(0.94567116 0.01444915 0)
(0.97057443 -0.012827555 0)
(1.0145686 -0.029514298 0)
(1.0428044 -0.01608905 0)
(1.0454088 0.022157733 0)
(1.0139192 0.03517944 0)
(0.9925548 0.022734783 0)
(0.99545031 0.0017858295 0)
(1.0099032 -0.008831121 0)
(1.0225012 -0.005823188 0)
(1.0253959 0.0029186691 0)
(1.02121 0.008885316 0)
(1.0154494 0.010398847 0)
(1.01156 0.008487777 0)
(1.0103265 0.0056471875 0)
(1.010481 0.0034564513 0)
(1.0109554 0.0022430602 0)
(1.0112425 0.0016285604 0)
(1.0112971 0.0012460809 0)
(1.0112449 0.00092962767 0)
(1.0111851 0.0006584077 0)
(1.0111441 0.00046058594 0)
(1.0111016 0.00034743509 0)
(1.0110262 0.00030285371 0)
(1.010899 0.00029572799 0)
(1.010721 0.00029596046 0)
(1.010505 0.00027688178 0)
(1.010277 0.00022543147 0)
(1.0100756 0.00015026969 0)
(1.0099376 5.2752566e-05 0)
(0.92256802 0.010606663 -9.1046515e-24)
(0.92383611 0.02590952 -7.5424178e-24)
(0.92819014 0.015604701 0)
(0.95982617 -0.018854124 0)
(1.0073588 -0.035177181 0)
(1.0398164 -0.016694244 0)
(1.0461426 0.02316702 0)
(1.0194645 0.043882662 0)
(0.98562602 0.027359555 0)
(0.98792419 7.5629435e-05 0)
(1.0075327 -0.014123842 0)
(1.0247985 -0.010091089 0)
(1.0295988 0.00164898 0)
(1.0243791 0.010662104 0)
(1.0163538 0.0131293 0)
(1.0107865 0.010637875 0)
(1.0091043 0.0066503072 0)
(1.009589 0.0036876668 0)
(1.0105112 0.0021496014 0)
(1.0111171 0.0015458653 0)
(1.0113002 0.001257716 0)
(1.0112623 0.00099598261 0)
(1.0111897 0.00071570836 0)
(1.0111559 0.00047340206 0)
(1.0111503 0.00031367538 0)
(1.0111301 0.00024022245 0)
(1.011061 0.00022726463 0)
(1.0109292 0.00024316914 0)
(1.0107377 0.00025872516 0)
(1.0105044 0.00024975964 0)
(1.0102631 0.00021098524 0)
(1.0100523 0.00014482044 0)
(1.0099098 5.235982e-05 0)
(0.90222211 0.012426047 0)
(0.90370688 0.028741097 7.554184e-24)
(0.9094021 0.015355533 0)
(0.94453862 -0.023263665 0)
(0.99874669 -0.040056969 0)
(1.0320795 -0.020766132 0)
(1.0349566 0.029338239 0)
(1.0145749 0.053009656 0)
(0.97839403 0.033313619 0)
(0.97922211 -0.0017076693 0)
(1.0042862 -0.020515227 0)
(1.0276785 -0.015997673 0)
(1.0349997 0.00010559679 0)
(1.0285184 0.012751453 0)
(1.0175773 0.016784823 0)
(1.0096531 0.013498565 0)
(1.0072963 0.0079477779 0)
(1.0082397 0.0038209119 0)
(1.0098552 0.0018602121 0)
(1.0109465 0.0012819493 0)
(1.0113342 0.0011707222 0)
(1.0113149 0.0010462998 0)
(1.0111952 0.0007969338 0)
(1.0111345 0.00051401972 0)
(1.0111463 0.00029197605 0)
(1.011179 0.000167543 0)
(1.0111782 0.00012854248 0)
(1.011112 0.00014528211 0)
(1.0109698 0.00018612073 0)
(1.01076 0.00021920901 0)
(1.0105083 0.00022546123 0)
(1.0102521 0.00020058586 0)
(1.0100306 0.0001431556 0)
(1.0098828 5.3580329e-05 0)
(0.88168305 0.014172713 1.9301329e-24)
(0.88392754 0.031521935 0)
(0.88998636 0.015775551 -4.6090002e-23)
(0.92716404 -0.028437319 0)
(0.98559478 -0.046125625 0)
(1.0213079 -0.019493518 0)
(1.0179579 0.033885316 0)
(0.98984531 0.063364125 0)
(0.96544158 0.042105692 0)
(0.96783752 -0.0047023188 0)
(1.0005275 -0.028717826 0)
(1.0309269 -0.022865932 0)
(1.0416004 -0.0024498246 0)
(1.0338944 0.015581217 0)
(1.0190962 0.021569222 0)
(1.0080318 0.017332516 0)
(1.0047216 0.0095651044 0)
(1.006272 0.0038496653 0)
(1.0089021 0.0012521421 0)
(1.0107313 0.00074345705 0)
(1.0114443 0.00094996383 0)
(1.0114248 0.0010558739 0)
(1.0112336 0.00091006635 0)
(1.0110957 0.00060537503 0)
(1.0110889 0.00030437532 0)
(1.0111615 0.00010175925 0)
(1.0112342 1.0434077e-05 0)
(1.0112492 8.1780251e-06 0)
(1.0111777 5.9728261e-05 0)
(1.011019 0.00012785956 0)
(1.0107879 0.0001823064 0)
(1.0105159 0.00020672304 0)
(1.0102431 0.00019652088 0)
(1.01001 0.00014608006 0)
(1.0098558 5.660343e-05 0)
(0.86195776 0.015701958 -1.4335661e-23)
(0.86485937 0.034134693 -1.7713116e-23)
(0.87117395 0.015768425 4.6079004e-23)
(0.9086197 -0.033861485 3.7956268e-23)
(0.96881396 -0.051638751 -6.2018092e-23)
(1.0078682 -0.022108907 0)
(1.0026875 0.043335416 0)
(0.96762672 0.072400691 0)
(0.94583333 0.048690211 0)
(0.95416446 -0.0062973615 0)
(0.99507154 -0.038170689 0)
(1.034608 -0.031858362 0)
(1.0494099 -0.0051280257 0)
(1.0404322 0.018791603 0)
(1.0210302 0.027792231 0)
(1.0057531 0.022341583 0)
(1.0011153 0.011685278 0)
(1.0034959 0.0036501996 0)
(1.0075563 0.00023413315 0)
(1.0104659 -0.00020819145 0)
(1.0116867 0.00048663781 0)
(1.0117036 0.0010321489 0)
(1.0113507 0.0010684375 0)
(1.0110663 0.00077214541 0)
(1.0109842 0.00038166955 0)
(1.0110684 6.7191461e-05 0)
(1.0112104 -0.00011079722 0)
(1.0113201 -0.0001602466 0)
(1.011342 -0.00011648785 0)
(1.0112568 -2.5520826e-05 0)
(1.0110759 7.365305e-05 0)
(1.01082 0.00015370662 0)
(1.0105263 0.00019675331 0)
(1.0102363 0.00019950856 0)
(1.0099896 0.00015405326 0)
(1.0098279 6.1477304e-05 0)
(0.84419549 0.01694677 1.8663496e-23)
(0.84754018 0.036369824 1.9434271e-23)
(0.85369267 0.015858259 0)
(0.8895152 -0.039315028 -5.1484636e-24)
(0.94951821 -0.057239576 6.1706022e-23)
(0.99138867 -0.024811586 1.8897273e-22)
(0.98574805 0.050189713 9.6373768e-23)
(0.94925488 0.081854444 0)
(0.92715333 0.055277167 0)
(0.94079357 -0.010972688 0)
(0.98849413 -0.049806033 0)
(1.0384459 -0.041442722 0)
(1.0581253 -0.0092794794 0)
(1.0479156 0.023257721 0)
(1.0229741 0.035715293 0)
(1.0026149 0.028814255 0)
(0.99621545 0.014304474 0)
(0.99967581 0.0032659921 0)
(1.0056841 -0.0014237179 0)
(1.0101463 -0.0017020389 0)
(1.012125 -0.00033584228 0)
(1.0122507 0.00089233953 0)
(1.0116156 0.0012580985 0)
(1.0110987 0.0010549821 0)
(1.0108455 0.00056165331 0)
(1.010893 9.6863448e-05 0)
(1.01109 -0.00021257516 0)
(1.0113014 -0.00034700884 0)
(1.011437 -0.00033747268 0)
(1.0114545 -0.00023945071 0)
(1.0113486 -0.00010443006 0)
(1.0111386 3.0345327e-05 0)
(1.0108552 0.00013676712 0)
(1.0105363 0.00019722761 0)
(1.0102287 0.00021095453 0)
(1.0099681 0.00016732345 0)
(1.0097982 6.8090923e-05 0)
(0.82965027 0.017969361 -1.265474e-24)
(0.83279942 0.038165139 -6.6323832e-24)
(0.8383382 0.015783033 -2.208823e-23)
(0.87095198 -0.044459789 -2.0845302e-23)
(0.9286496 -0.062992449 -3.3832891e-23)
(0.97134651 -0.026298828 2.1111167e-22)
(0.96877249 0.054982092 2.9295417e-22)
(0.9306639 0.091720354 -4.8153748e-23)
(0.90993445 0.05667914 0)
(0.92718424 -0.014594328 0)
(0.98272298 -0.063425393 0)
(1.0434749 -0.054737929 0)
(1.0691637 -0.012844102 0)
(1.0560446 0.028273276 0)
(1.024368 0.045722264 0)
(0.99811999 0.037088113 0)
(0.98961881 0.017642071 0)
(0.99455913 0.0024512459 0)
(1.0031674 -0.0037800466 0)
(1.0097444 -0.003989004 0)
(1.0128461 -0.0016403559 0)
(1.0131662 0.00057758799 0)
(1.0121803 0.0015415781 0)
(1.0112211 0.0014591578 0)
(1.0107109 0.00090559687 0)
(1.0106315 0.00023685027 0)
(1.0108542 -0.00026350325 0)
(1.0111691 -0.00053334025 0)
(1.0114373 -0.00059545038 0)
(1.0115835 -0.00051329563 0)
(1.0115847 -0.00035357633 0)
(1.0114496 -0.00016933213 0)
(1.0112061 2.3312204e-06 0)
(1.0108915 0.00013407173 0)
(1.010548 0.00021141995 0)
(1.0102199 0.00023175131 0)
(1.0099448 0.00018565817 0)
(1.0097663 7.620335e-05 0)
(0.81823007 0.018583862 -5.0016997e-24)
(0.82140389 0.039475242 6.684709e-25)
(0.82604328 0.015683404 0)
(0.8535037 -0.04927892 2.8077733e-23)
(0.90696613 -0.068244102 -5.6677211e-23)
(0.95003068 -0.028914552 0)
(0.94822573 0.062263807 -4.2441335e-22)
(0.9140145 0.10052562 -4.5956113e-22)
(0.8912913 0.064922681 0)
(0.91425824 -0.023756539 0)
(0.97675223 -0.078220126 0)
(1.0488963 -0.067968405 0)
(1.0841224 -0.020352303 0)
(1.0681474 0.035138922 0)
(1.0251364 0.058109632 0)
(0.99144684 0.047132908 0)
(0.98098116 0.021740047 0)
(0.98779545 0.0012679056 0)
(0.99984584 -0.0072231562 0)
(1.0092611 -0.0071822752 0)
(1.0139352 -0.0036472809 0)
(1.0146056 1.7423721e-05 0)
(1.0131779 0.0018987609 0)
(1.0115458 0.0020966295 0)
(1.0105857 0.0014570042 0)
(1.0102917 0.00054649249 0)
(1.0104838 -0.00021953682 0)
(1.0108957 -0.00069352793 0)
(1.0113145 -0.00087725629 0)
(1.0116178 -0.00084332939 0)
(1.0117571 -0.00067751118 0)
(1.0117293 -0.00045016586 0)
(1.0115572 -0.00021481043 0)
(1.0112758 -7.4475586e-06 0)
(1.0109273 0.00014691759 0)
(1.0105579 0.0002386725 0)
(1.0102091 0.00026101708 0)
(1.0099193 0.00020849615 0)
(1.0097316 8.5522023e-05 0)
(0.81137523 0.018714639 0)
(0.81421925 0.040223694 0)
(0.81719685 0.015373673 -6.9206545e-25)
(0.83891349 -0.05339287 0)
(0.88497148 -0.073078767 -4.0821006e-24)
(0.92688349 -0.030926543 2.1711165e-22)
(0.92802555 0.068086495 7.8997517e-22)
(0.89543061 0.11008763 9.3294202e-24)
(0.87502351 0.072097773 0)
(0.89656502 -0.027840996 0)
(0.97228436 -0.093348205 0)
(1.0510538 -0.085160861 0)
(1.0957302 -0.025726692 0)
(1.0868254 0.041006136 0)
(1.0305755 0.072696708 0)
(0.98296939 0.059423743 0)
(0.96957595 0.026502207 0)
(0.97918326 -0.00059460981 0)
(0.99554812 -0.011744847 0)
(1.0086564 -0.01171271 0)
(1.015506 -0.006458678 0)
(1.0167445 -0.00094175333 0)
(1.0147801 0.0023486069 0)
(1.012218 0.0030461778 0)
(1.0105044 0.0023132427 0)
(1.0098747 0.0011101277 0)
(1.0099543 -3.5305882e-05 0)
(1.0104491 -0.00079775325 0)
(1.0110356 -0.001167425 0)
(1.0115271 -0.0012238135 0)
(1.0118393 -0.0010763483 0)
(1.0119531 -0.00081877379 0)
(1.0118848 -0.00052191561 0)
(1.0116687 -0.00023700386 0)
(1.0113456 2.677601e-06 0)
(1.0109623 0.00017695417 0)
(1.0105654 0.00027777473 0)
(1.0101953 0.00029823902 0)
(1.0098905 0.0002352587 0)
(1.0096939 9.5693995e-05 0)
(0.81159382 0.040432177 -6.1049429e-25)
(0.81004898 0.018483227 0)
(0.8125658 0.01511487 -8.7668831e-24)
(0.82741789 -0.056769348 -1.741444e-24)
(0.86459151 -0.077137901 -5.8658167e-23)
(0.90302907 -0.032922645 -1.4653825e-25)
(0.90605444 0.074327293 -7.9794101e-25)
(0.87779742 0.11910906 -2.5888776e-22)
(0.85839586 0.080209877 -1.2518551e-22)
(0.87930879 -0.02881472 0)
(0.95933428 -0.1096596 -3.0358743e-22)
(1.0510217 -0.095727813 0)
(1.0973879 -0.038371185 0)
(1.1030218 0.049511692 0)
(1.0424864 0.089107563 0)
(0.97701068 0.073684994 0)
(0.9552136 0.032149862 0)
(0.96818891 -0.0032779555 0)
(0.99021858 -0.017899189 0)
(1.0079125 -0.017542596 0)
(1.0176599 -0.010494413 0)
(1.0197983 -0.0023287935 0)
(1.0171954 0.0028430937 0)
(1.013385 0.0044128098 0)
(1.0105711 0.0036238151 0)
(1.0093279 0.0019905549 0)
(1.0092551 0.00038487594 0)
(1.0097886 -0.00080163196 0)
(1.0105604 -0.0014488563 0)
(1.0112768 -0.0016497936 0)
(1.0118017 -0.0015512541 0)
(1.012095 -0.0012791416 0)
(1.0121659 -0.00092771442 0)
(1.012047 -0.00056378246 0)
(1.0117811 -0.00023378598 0)
(1.0114137 3.3622734e-05 0)
(1.0109948 0.00022385575 0)
(1.0105696 0.00032775979 0)
(1.0101781 0.00034177882 0)
(1.0098587 0.0002647356 0)
(1.0096532 0.00010636882 0)
(0.81153103 0.014933077 7.7376743e-24)
(0.8143839 0.040312714 0)
(0.81471742 0.017747415 1.3846397e-24)
(0.81781926 -0.059198281 1.7401115e-24)
(0.84682907 -0.080258293 2.5248967e-23)
(0.87974638 -0.034707123 3.5401034e-22)
(0.88446501 0.079861683 -6.5720151e-22)
(0.8601171 0.12763234 -1.5518865e-22)
(0.84306789 0.088021059 -9.5153895e-23)
(0.86198091 -0.031199881 4.4489373e-23)
(0.94179324 -0.12317819 -3.6970873e-22)
(1.041689 -0.11407026 3.1568204e-22)
(1.0941003 -0.039689686 0)
(1.1033379 0.05431132 0)
(1.053289 0.1109144 0)
(0.97339156 0.091687071 0)
(0.9390354 0.038387681 0)
(0.95480357 -0.0068510466 0)
(0.98353051 -0.02563033 0)
(1.0070707 -0.025362598 0)
(1.0205031 -0.015683065 0)
(1.0239874 -0.0044938883 0)
(1.020701 0.0034759808 0)
(1.01522 0.0062869523 0)
(1.0108647 0.0055619934 0)
(1.0086712 0.003350478 0)
(1.0083031 0.0010967503 0)
(1.0088647 -0.0006630105 0)
(1.009841 -0.0016939886 0)
(1.0108253 -0.0021150426 0)
(1.0116112 -0.0021055633 0)
(1.0121277 -0.0018379022 0)
(1.0123763 -0.0014394449 0)
(1.0123895 -0.0009980709 0)
(1.0122118 -0.00057307336 0)
(1.0118919 -0.00020430629 0)
(1.0114788 8.5654124e-05 0)
(1.0110234 0.00028540915 0)
(1.0105698 0.00038718299 0)
(1.0101574 0.00038983891 0)
(1.0098236 0.00029616591 0)
(1.0096095 0.0001172748 0)
(0.81269923 -0.0604246 4.8460101e-24)
(0.81679878 0.014794109 2.6688874e-23)
(0.82375261 0.039631234 0)
(0.82333312 0.016577261 1.137355e-24)
(0.82969282 -0.082570918 -1.8973213e-23)
(0.8584245 -0.036023803 -1.5620102e-22)
(0.86391077 0.084671597 0)
(0.84405633 0.13510173 1.5411702e-22)
(0.82970887 0.095542927 -2.1040915e-23)
(0.84564127 -0.03301258 -4.3942222e-23)
(0.92282323 -0.13739306 4.4772221e-22)
(1.0253122 -0.13193774 3.835551e-22)
(1.0852562 -0.050037607 0)
(1.0891396 0.065045913 0)
(1.040882 0.13253208 0)
(0.96336338 0.11436608 0)
(0.92238216 0.047531235 0)
(0.93800306 -0.012253044 0)
(0.97586589 -0.035485517 0)
(1.0059729 -0.03481078 0)
(1.0241535 -0.022792293 0)
(1.0295648 -0.00729105 0)
(1.0255633 0.0040398906 0)
(1.0179709 0.0088624223 0)
(1.0114685 0.0083163714 0)
(1.0079119 0.0053860066 0)
(1.006999 0.0021969227 0)
(1.0076095 -0.000285453 0)
(1.0088073 -0.0018950179 0)
(1.0101239 -0.0026234963 0)
(1.0112308 -0.0027475225 0)
(1.0120225 -0.0025054636 0)
(1.0124921 -0.002067721 0)
(1.0126743 -0.0015496381 0)
(1.012618 -0.0010268085 0)
(1.0123754 -0.00054905088 0)
(1.0119989 -0.00014878113 0)
(1.0115394 0.00015741337 0)
(1.0110472 0.00035961892 0)
(1.0105655 0.00045386457 0)
(1.0101324 0.00044183392 0)
(1.0097849 0.00032878495 0)
(1.009563 0.00012813583 0)
(0.81788553 -0.083723764 -9.6805646e-24)
(0.81427711 -0.060585471 -6.2073862e-24)
(0.82807749 0.014707035 -2.3994274e-23)
(0.83672795 0.038352447 -1.0539323e-23)
(0.83507802 0.015077637 -7.7520236e-24)
(0.83854423 -0.037115271 1.4950176e-22)
(0.8458113 0.088576912 8.7541096e-23)
(0.8303994 0.14130362 0)
(0.81913216 0.10215324 2.2606623e-23)
(0.83130931 -0.034665185 8.1888998e-24)
(0.90304393 -0.15221489 0)
(1.0060266 -0.14869917 -6.1733987e-22)
(1.0713385 -0.067195171 0)
(1.0728481 0.075065672 0)
(1.0137247 0.15420272 0)
(0.94660672 0.13758355 0)
(0.9053759 0.058097379 0)
(0.91913146 -0.017357494 0)
(0.96624241 -0.047624765 0)
(1.0049435 -0.046894602 0)
(1.0285811 -0.03128806 0)
(1.0367472 -0.011485695 0)
(1.0321852 0.0048579627 0)
(1.0218592 0.012193768 0)
(1.0125132 0.012151079 0)
(1.0070239 0.0083040368 0)
(1.0052826 0.0038610794 0)
(1.0058756 0.00034151124 0)
(1.0073757 -0.0019925635 0)
(1.0091012 -0.0031630344 0)
(1.0106145 -0.0034916278 0)
(1.011749 -0.0032987616 0)
(1.01249 -0.0028273793 0)
(1.0128813 -0.0022313891 0)
(1.0129806 -0.0016064001 0)
(1.0128463 -0.0010134501 0)
(1.0125348 -0.00049244591 0)
(1.0121003 -6.8513065e-05 0)
(1.0115942 0.00024615317 0)
(1.0110653 0.00044412885 0)
(1.0105563 0.00052590435 0)
(1.0101035 0.00049559789 0)
(1.0097433 0.00036150261 0)
(1.0095139 0.00013877635 0)
(0.82298238 -0.037951099 6.6884624e-24)
(0.81204403 -0.083714899 8.7860236e-24)
(0.82116665 -0.059662278 3.4825886e-23)
(0.84377031 0.014609284 1.090915e-23)
(0.85160977 0.036575353 -1.9357899e-23)
(0.85017105 0.013365809 7.0595059e-24)
(0.83096153 0.091427846 -1.6825597e-22)
(0.82065869 0.14626911 -8.323953e-23)
(0.81203455 0.10787946 -1.3018745e-22)
(0.81996718 -0.036181319 -1.6604286e-23)
(0.88309009 -0.16641631 -7.058955e-22)
(0.9836994 -0.1665634 4.8895415e-22)
(1.0539058 -0.079242661 0)
(1.0632065 0.068569323 -1.7562627e-21)
(0.99365182 0.17540798 1.729501e-21)
(0.92936681 0.15463861 0)
(0.8899132 0.071801949 0)
(0.89957623 -0.025462521 0)
(0.95537967 -0.062136039 0)
(1.0035387 -0.060621659 0)
(1.0339795 -0.042544461 0)
(1.045733 -0.01641918 0)
(1.0407955 0.0052793047 0)
(1.0272721 0.016666505 0)
(1.0140731 0.017326989 0)
(1.0059696 0.012394243 0)
(1.0030491 0.0062561925 0)
(1.0035147 0.001308928 0)
(1.0054296 -0.0019732605 0)
(1.0076724 -0.0037700014 0)
(1.0097058 -0.0043588241 0)
(1.0112706 -0.0042408541 0)
(1.0123471 -0.003739229 0)
(1.0129927 -0.0030599099 0)
(1.0132829 -0.0023255326 0)
(1.0132879 -0.0016096919 0)
(1.0130701 -0.00095928379 0)
(1.0126874 -0.00040522736 0)
(1.0121944 3.3681827e-05 0)
(1.011642 0.00034869778 0)