/*--------------------------------*- C++ -*----------------------------------*\
| =========                 |                                                 |
| \\      /  F ield         | OpenFOAM: The Open Source CFD Toolbox           |
|  \\    /   O peration     | Version:  5.0                                   |
|   \\  /    A nd           | Web:      www.OpenFOAM.org                      |
|    \\/     M anipulation  |                                                 |
\*---------------------------------------------------------------------------*/
FoamFile
{
    version     2.0;
    format      ascii;
    class       volVectorField;
    location    "400";
    object      U_0;
}
// * * * * * * * * * * * * * * * * * * * * * * * * * * * * * * * * * * * * * //

dimensions      [0 1 -1 0 0 0 0];

internalField   nonuniform List<vector> 
9520
(
(1.0144332 0.00016689748 0)
(1.0145305 0.00048882073 0)
(1.0139371 0.00016504682 0)
(1.0147018 0.00078755249 0)
(1.0140368 0.00048470945 0)
(1.0137466 0.0001622623 0)
(1.014931 0.0010626826 0)
(1.0142134 0.00078280024 0)
(1.0138458 0.00047658692 0)
(1.0134418 0.00016233323 0)
(1.0152035 0.0013136292 0)
(1.0144518 0.0010586991 0)
(1.0140229 0.00077049899 0)
(1.0135409 0.00047581616 0)
(1.0132071 0.00016695489 0)
(1.0155071 0.0015402825 0)
(1.0147381 0.001312062 0)
(1.0142632 0.0010435245 0)
(1.0137185 0.00076920605 0)
(1.0133067 0.00048854063 0)
(1.0129387 0.00017323406 0)
(1.0158303 0.0017426032 0)
(1.0150595 0.0015421255 0)
(1.0145533 0.0012969055 0)
(1.0139592 0.0010427444 0)
(1.0134849 0.00078955776 0)
(1.0130385 0.00050758358 0)
(1.012689 0.00017647379 0)
(1.0161632 0.0019199184 0)
(1.015406 0.0017489146 0)
(1.0148806 0.0015292852 0)
(1.0142508 0.0012991753 0)
(1.0137257 0.0010711083 0)
(1.0132156 0.00082183043 0)
(1.0127882 0.00051916607 0)
(1.0124356 0.0001745157 0)
(1.0164978 0.0020709306 0)
(1.0157693 0.0019325422 0)
(1.0152346 0.0017401844 0)
(1.0145823 0.0015376812 0)
(1.0140176 0.0013358088 0)
(1.0134547 0.0011178689 0)
(1.0129633 0.00084376717 0)
(1.0125313 0.00051570667 0)
(1.0122023 0.00016816078 0)
(1.0168278 0.0021933311 0)
(1.0161447 0.0020928284 0)
(1.0156069 0.0019296303 0)
(1.0149433 0.0017578166 0)
(1.014351 0.0015841757 0)
(1.0137438 0.0013971583 0)
(1.0131999 0.0011526511 0)
(1.0127007 0.00084176899 0)
(1.0122936 0.00049812157 0)
(1.011986 0.00016056181 0)
(1.0171509 0.0022786768 0)
(1.0165312 0.0022298177 0)
(1.0159904 0.0020983565 0)
(1.0153238 0.0019591304 0)
(1.0147159 0.0018164872 0)
(1.014074 0.0016618531 0)
(1.013486 0.0014460503 0)
(1.0129307 0.0011557093 0)
(1.0124559 0.00081535651 0)
(1.0120722 0.00047537373 0)
(1.0117875 0.00015478086 0)
(1.0174751 0.0023316583 0)
(1.0169353 0.0023456541 0)
(1.0163806 0.0022514885 0)
(1.015713 0.0021420536 0)
(1.0151022 0.0020322597 0)
(1.0144361 0.0019133361 0)
(1.0138121 0.0017267451 0)
(1.0132088 0.0014582933 0)
(1.0126776 0.0011231594 0)
(1.0122266 0.00077902742 0)
(1.0118693 0.00045688751 0)
(1.0116017 0.0001520216 0)
(1.0178027 0.002347443 0)
(1.0173658 0.0024455136 0)
(1.0167739 0.0023969881 0)
(1.0160991 0.0023102847 0)
(1.0154986 0.0022309005 0)
(1.0148223 0.0021516046 0)
(1.0141699 0.0019969991 0)
(1.0135241 0.001751673 0)
(1.0129467 0.0014251683 0)
(1.012436 0.0010744322 0)
(1.0120162 0.00074841028 0)
(1.0116801 0.00044713589 0)
(1.0114247 0.0001512166 0)
(1.0180986 0.00234537 0)
(1.0177658 0.0025285302 0)
(1.0171216 0.0025534455 0)
(1.0164624 0.0024673131 0)
(1.0158922 0.0024101236 0)
(1.015227 0.0023746143 0)
(1.0145532 0.0022580828 0)
(1.0138682 0.0020384424 0)
(1.0132507 0.0017219889 0)
(1.0126898 0.0013676449 0)
(1.0122147 0.0010328741 0)
(1.0118197 0.00073126262 0)
(1.0115004 0.00044395151 0)
(1.0112545 0.00014999815 0)
(1.0183972 0.002300961 0)
(1.0181007 0.0026686734 0)
(1.0173834 0.0027428564 0)
(1.0167802 0.0026171625 0)
(1.0162666 0.0025624411 0)
(1.0156465 0.0025759145 0)
(1.0149591 0.0025102119 0)
(1.0142347 0.0023210545 0)
(1.0135803 0.0020150052 0)
(1.0129776 0.001659424 0)
(1.0124542 0.0013162363 0)
(1.012007 0.0010095017 0)
(1.0116331 0.00072507716 0)
(1.011328 0.00044075771 0)
(1.0110925 0.00014607383 0)
(1.0187006 0.002283742 0)
(1.0184302 0.002784432 0)
(1.0176484 0.0029292055 0)
(1.0170702 0.0027427765 0)
(1.0166417 0.0026756483 0)
(1.0160894 0.0027424071 0)
(1.0153891 0.0027517553 0)
(1.0146206 0.0026025983 0)
(1.0139277 0.0023061209 0)
(1.0132896 0.0019499791 0)
(1.012726 0.0016001735 0)
(1.0122317 0.0012867608 0)
(1.0118097 0.0010004704 0)
(1.0114544 0.00071991464 0)
(1.0111634 0.00043045982 0)
(1.0109421 0.00013819531 0)
(1.0190395 0.0021603403 0)
(1.0187698 0.0030175637 0)
(1.0178402 0.0030972953 0)
(1.0173789 0.0028249674 0)
(1.0170405 0.0027136494 0)
(1.0165659 0.0028672755 0)
(1.0158503 0.0029847912 0)
(1.0150256 0.002889309 0)
(1.014284 0.0025986293 0)
(1.0136171 0.0022393491 0)
(1.0130216 0.0018851764 0)
(1.0124864 0.0015656685 0)
(1.0120203 0.0012750495 0)
(1.0116208 0.00099230931 0)
(1.0112842 0.00070414958 0)
(1.0110098 0.00040863744 0)
(1.0108068 0.0001265618 0)
(1.0193679 0.002224182 0)
(1.0191133 0.0031339828 0)
(1.0179791 0.0032768682 0)
(1.0176049 0.0028525541 0)
(1.0174455 0.002698699 0)
(1.0170767 0.0029204952 0)
(1.0163606 0.0032065354 0)
(1.0154497 0.0031911521 0)
(1.0146386 0.0028992366 0)
(1.0139501 0.0025275676 0)
(1.0133329 0.0021703209 0)
(1.0127634 0.0018481987 0)
(1.0122574 0.0015521435 0)
(1.0118174 0.0012637022 0)
(1.0114415 0.00097046177 0)
(1.011125 0.00066955641 0)
(1.0108713 0.00037518169 0)
(1.0106893 0.00011268173 0)
(1.0197924 0.0018968188 0)
(1.0194609 0.0036645584 0)
(1.0179494 0.0035086401 0)
(1.0177146 0.0028682775 0)
(1.0178845 0.0025967721 0)
(1.0175878 0.0029456382 0)
(1.0169099 0.0034293842 0)
(1.0158876 0.0035233355 0)
(1.0149831 0.0032166499 0)
(1.0142779 0.0028145517 0)
(1.0136516 0.0024531251 0)
(1.0130563 0.0021344932 0)
(1.0125141 0.0018355926 0)
(1.012036 0.0015384384 0)
(1.0116246 0.0012344296 0)
(1.0112744 0.00092458278 0)
(1.0109807 0.00061482645 0)
(1.0107511 0.00033416458 0)
(1.0105899 9.8752794e-05 0)
(1.0200367 0.0022832449 0)
(1.0197707 0.0037216648 0)
(1.0178143 0.0037787354 0)
(1.0176464 0.0028215812 0)
(1.0182235 0.0023977388 0)
(1.0182038 0.0029313534 0)
(1.017466 0.0036616361 0)
(1.0163223 0.0039162204 0)
(1.0152969 0.0035676408 0)
(1.0145833 0.0030987702 0)
(1.0139694 0.0027282414 0)
(1.0133609 0.0024226155 0)
(1.0127851 0.0021275701 0)
(1.012269 0.0018218644 0)
(1.0118245 0.0015026482 0)
(1.0114452 0.0011757131 0)
(1.0111229 0.00085118451 0)
(1.0108552 0.00054651697 0)
(1.0106497 0.00029204684 0)
(1.0105066 8.6787656e-05 0)
(1.0203742 0.0014875806 0)
(1.0201348 0.0047999141 0)
(1.0173687 0.0042218469 0)
(1.0173819 0.0026568873 0)
(1.0185836 0.001994022 0)
(1.0189492 0.0028600452 0)
(1.0180951 0.003910028 0)
(1.0167258 0.0043850868 0)
(1.0155567 0.0039699474 0)
(1.0148438 0.0033838595 0)
(1.0142748 0.0029867357 0)
(1.0136738 0.0027067584 0)
(1.0130687 0.0024284998 0)
(1.0125118 0.0021184841 0)
(1.0120326 0.001781072 0)
(1.0116269 0.0014313578 0)
(1.0112832 0.0010842458 0)
(1.0109897 0.0007549561 0)
(1.0107507 0.00047574323 0)
(1.0105655 0.00025484762 0)
(1.010436 7.7916736e-05 0)
(1.0200878 0.0024130368 0)
(1.0202905 0.0048153647 0)
(1.0168662 0.0046288204 0)
(1.016861 0.0025644082 0)
(1.0188697 0.0014372583 0)
(1.0198955 0.0026294568 0)
(1.0188795 0.0042332098 0)
(1.0171028 0.0049525363 0)
(1.0157096 0.0044419233 0)
(1.0150213 0.0036621427 0)
(1.0145528 0.0032179899 0)
(1.0139916 0.0029776612 0)
(1.0133663 0.0027363602 0)
(1.0127632 0.002432091 0)
(1.012243 0.0020759123 0)
(1.01181 0.0016972068 0)
(1.0114484 0.0013204704 0)
(1.0111409 0.00096279468 0)
(1.0108794 0.00065123693 0)
(1.010666 0.00041251395 0)
(1.0104953 0.00022609709 0)
(1.0103747 7.2205371e-05 0)
(1.0198846 0.0010383706 0)
(1.020434 0.0064985594 0)
(1.0157059 0.0054504683 0)
(1.016029 0.002010576 0)
(1.0191816 0.00052518947 0)
(1.0210305 0.0023320709 0)
(1.0198538 0.0046155649 0)
(1.0174758 0.0056776062 0)
(1.015758 0.0049934504 0)
(1.0150964 0.0039392779 0)
(1.0147683 0.0033869033 0)
(1.014312 0.0032164759 0)
(1.0136849 0.0030457626 0)
(1.0130263 0.0027666745 0)
(1.0124523 0.0023936405 0)
(1.0119869 0.001979846 0)
(1.0116092 0.0015650352 0)
(1.0112934 0.0011721951 0)
(1.0110222 0.00082598956 0)
(1.0107921 0.00055709603 0)
(1.0105974 0.00036218018 0)
(1.0104357 0.0002064842 0)
(1.0103196 6.8991318e-05 0)
(1.0192123 0.0025304006 0)
(1.0196878 0.0064455206 0)
(1.0149517 0.0060546862 0)
(1.0147301 0.0020232641 0)
(1.019268 -0.00067075155 0)
(1.0224702 0.0016619499 0)
(1.021088 0.005167978 0)
(1.0178377 0.0066373749 0)
(1.0156028 0.0056682853 0)
(1.0150132 0.0041749861 0)
(1.0149673 0.0035032846 0)
(1.0146401 0.0033920025 0)
(1.0140381 0.003341541 0)
(1.0133121 0.0031253233 0)
(1.0126608 0.0027434929 0)
(1.0121508 0.0022864795 0)
(1.0117562 0.0018235848 0)
(1.0114367 0.0013867771 0)
(1.0111648 0.0010000442 0)
(1.01093 0.00069803122 0)
(1.0107242 0.00048229124 0)
(1.010541 0.00032549453 0)
(1.010384 0.00019468295 0)
(1.0102685 6.7375439e-05 0)
(1.0195201 0.001144504 0)
(1.017765 0.0087294148 0)
(1.0119285 0.0075435665 0)
(1.0130324 0.00073717923 0)
(1.0195723 -0.0022867087 0)
(1.0241665 0.0010551692 0)
(1.0226208 0.0057734653 0)
(1.018203 0.0079276439 0)
(1.0151923 0.0064984963 0)
(1.0146958 0.0043780303 0)
(1.0151118 0.0034398943 0)
(1.0150231 0.0034720428 0)
(1.0144626 0.0036085906 0)
(1.0136406 0.0035100458 0)
(1.0128742 0.0031373108 0)
(1.0122962 0.0026277162 0)
(1.0118798 0.0021018743 0)
(1.0115609 0.001610353 0)
(1.0112955 0.0011762212 0)
(1.0110665 0.00083529974 0)
(1.0108606 0.00059310732 0)
(1.0106713 0.00042786811 0)
(1.0104935 0.00030076116 0)
(1.0103377 0.00018845434 0)
(1.0102202 6.6511882e-05 0)
(1.0186836 0.0027482084 0)
(1.0188288 0.0090835089 0)
(1.0087129 0.0079141834 0)
(1.0102894 0.0011361736 0)
(1.0192314 -0.0044735442 0)
(1.0264418 -0.00037073963 0)
(1.0245588 0.0067865042 0)
(1.0185041 0.009646864 0)
(1.0144317 0.0075976365 0)
(1.0140506 0.0044837049 0)
(1.0151397 0.0031897684 0)
(1.0155344 0.0033942969 0)
(1.0149732 0.0037924579 0)
(1.0140535 0.0039280067 0)
(1.0131047 0.0035943985 0)
(1.0124177 0.0030179051 0)
(1.0119694 0.0024074501 0)
(1.0116555 0.0018462158 0)
(1.0114044 0.0013566664 0)
(1.0111894 0.00097128903 0)
(1.0109947 0.00069721809 0)
(1.0108097 0.00051375647 0)
(1.0106296 0.00038948354 0)
(1.0104529 0.00028592027 0)
(1.0102948 0.00018547699 0)
(1.0101743 6.5724757e-05 0)
(1.0140647 0.0013882588 0)
(1.0180934 0.012151056 0)
(1.0063933 0.010123795 0)
(1.0071825 -0.0013398283 0)
(1.0195196 -0.0069815358 0)
(1.0286994 -0.001355512 0)
(1.0268599 0.007654405 0)
(1.0188081 0.011902303 0)
(1.0132218 0.0089636511 0)
(1.0129621 0.0045487331 0)
(1.0150002 0.0026181183 0)
(1.0161538 0.0031209428 0)
(1.0156313 0.0039539726 0)
(1.0145508 0.0043774388 0)
(1.0133737 0.0041430224 0)
(1.0125108 0.0034814265 0)
(1.0120111 0.0027497087 0)
(1.0117084 0.0020962813 0)
(1.0114819 0.0015423368 0)
(1.0112892 0.0011079713 0)
(1.0111138 0.00079701903 0)
(1.0109444 0.00058886956 0)
(1.0107738 0.00045599116 0)
(1.0105963 0.0003621152 0)
(1.0104177 0.00027866514 0)
(1.0102543 0.00018371222 0)
(1.0101303 6.458188e-05 0)
(1.0025965 0.0038459065 0)
(1.0083329 0.011915887 0)
(1.0050237 0.011243389 0)
(1.0038981 -0.0010884221 0)
(1.0185532 -0.010390061 0)
(1.0312632 -0.0040369343 0)
(1.0295396 0.0095541011 0)
(1.0188303 0.014854982 0)
(1.0113945 0.010751355 0)
(1.0113237 0.0044534861 0)
(1.0146393 0.0017013852 0)
(1.0168869 0.0024898058 0)
(1.0165735 0.0040723583 0)
(1.0151484 0.0049006656 0)
(1.0136664 0.0048307396 0)
(1.012564 0.0040525298 0)
(1.0119871 0.0031440934 0)
(1.0117039 0.0023612696 0)
(1.0115183 0.0017306246 0)
(1.0113585 0.0012458359 0)
(1.0112086 0.00089512527 0)
(1.0110626 0.00065639396 0)
(1.0109123 0.00050602856 0)
(1.0107495 0.00041361494 0)
(1.0105702 0.00034324133 0)
(1.010387 0.00027518702 0)
(1.0102157 0.00018127646 0)
(1.0100887 6.2855855e-05 0)
(0.99007422 0.003518144 0)
(0.99169671 0.016125087 0)
(0.99083326 0.013927638 0)
(1.0002554 -0.0044771768 0)
(1.0187038 -0.013943568 0)
(1.0339648 -0.0050196338 0)
(1.0319088 0.010754201 0)
(1.0188646 0.018576731 0)
(1.0087856 0.01300934 0)
(1.0089214 0.004299932 0)
(1.0139822 0.00019749341 0)
(1.0177944 0.0014644888 0)
(1.0178811 0.0040446189 0)
(1.0160092 0.0055470133 0)
(1.0139623 0.005688214 0)
(1.0125555 0.0047848414 0)
(1.0118633 0.003608114 0)
(1.0116203 0.0026392811 0)
(1.0115027 0.0019152652 0)
(1.011392 0.001381158 0)
(1.0112736 0.00099300512 0)
(1.0111547 0.00072034323 0)
(1.0110323 0.00054406798 0)
(1.0108954 0.0004418828 0)
(1.0107346 0.00038081871 0)
(1.0105509 0.00033084976 0)
(1.0103589 0.00027016796 0)
(1.0101794 0.00017650564 0)
(1.0100499 6.0507061e-05 0)
(0.97656444 0.0059257753 0)
(0.97704284 0.017523847 0)
(0.97457663 0.013983002 0)
(0.99084463 -0.0036794242 0)
(1.0175656 -0.018791094 0)
(1.0382926 -0.0088844538 0)
(1.0342258 0.014065691 0)
(1.0176726 0.023317714 0)
(1.005087 0.015820794 0)
(1.005628 0.0039031401 0)
(1.0129295 -0.0018263736 0)
(1.018918 -0.00023627243 0)
(1.0196799 0.0038728533 0)
(1.0172328 0.0063473137 0)
(1.0143548 0.0068008116 0)
(1.012428 0.0057105354 0)
(1.0116057 0.0041710105 0)
(1.0114235 0.002927578 0)
(1.0114194 0.0020818344 0)
(1.0113861 0.0015041667 0)
(1.0113082 0.0010887092 0)
(1.0112163 0.00078433533 0)
(1.0111234 0.00057602012 0)
(1.0110207 0.00045241238 0)
(1.010892 0.00038886391 0)
(1.0107284 0.00035306706 0)
(1.010537 0.00031938694 0)
(1.0103332 0.00025962448 0)
(1.0101465 0.00016904974 0)
(1.0100144 5.7811934e-05 0)
(0.96081376 0.0065167022 -5.020877e-24)
(0.96085224 0.020691398 0)
(0.96043252 0.01620324 0)
(0.98042676 -0.0094495869 0)
(1.0162135 -0.023487174 0)
(1.0420578 -0.01033646 0)
(1.0389875 0.015649892 0)
(1.0154049 0.028946541 0)
(0.99984291 0.019414086 0)
(1.0010783 0.0033543261 0)
(1.0114563 -0.0048128848 0)
(1.0203255 -0.002565101 0)
(1.0220847 0.0033551396 0)
(1.0189614 0.0073894219 0)
(1.0148883 0.0082863859 0)
(1.0121512 0.0069131269 0)
(1.0111494 0.004860385 0)
(1.0110658 0.0032161882 0)
(1.011247 0.0022089415 0)
(1.0113378 0.001595683 0)
(1.0113164 0.0011745582 0)
(1.0112492 0.0008503683 0)
(1.0111809 0.00060820829 0)
(1.0111132 0.0004529336 0)
(1.0110265 0.00037299226 0)
(1.0109006 0.00034128713 0)
(1.0107304 0.00032700173 0)
(1.0105279 0.00030332438 0)
(1.0103113 0.00024450442 0)
(1.010117 0.00016046545 0)
(1.0099818 5.5339999e-05 0)
(0.94277061 0.0086056232 1.0795503e-23)
(0.94370502 0.022998803 5.2390451e-24)
(0.94558533 0.015140067 0)
(0.96971428 -0.01187555 0)
(1.0134718 -0.029570806 0)
(1.0426187 -0.016891435 0)
(1.0457853 0.021118109 0)
(1.0150187 0.035131748 0)
(0.99299766 0.02335974 0)
(0.99521584 0.0024783717 0)
(1.0093579 -0.0085870643 0)
(1.0220869 -0.0060025249 0)
(1.0253026 0.002608919 0)
(1.0213268 0.0086489279 0)
(1.0156307 0.010303529 0)
(1.0116871 0.0085096058 0)
(1.0103779 0.0057055074 0)
(1.0104893 0.0034997878 0)
(1.0109518 0.0022579861 0)
(1.011245 0.0016247155 0)
(1.0113089 0.001234367 0)
(1.0112634 0.00091710055 0)
(1.0112067 0.00064768418 0)
(1.0111665 0.00045231565 0)
(1.0111237 0.00034173389 0)
(1.0110476 0.00029980097 0)
(1.0109193 0.00029522666 0)
(1.01074 0.00029761429 0)
(1.0105229 0.00028009957 0)
(1.0102934 0.00022879368 0)
(1.0100907 0.00015278719 0)
(1.0099517 5.3690056e-05 0)
(0.9229231 0.010141476 -1.0838311e-23)
(0.9245017 0.026002073 -9.2935393e-24)
(0.928084 0.016408583 0)
(0.95883347 -0.017858642 0)
(1.0062721 -0.03521976 0)
(1.0396709 -0.017732542 0)
(1.0465671 0.021793571 0)
(1.0208772 0.043837676 0)
(0.98619205 0.028150339 0)
(0.9875945 0.0010218798 0)
(1.006793 -0.013788929 0)
(1.0242216 -0.010328278 0)
(1.0294576 0.0012128841 0)
(1.0245444 0.010326064 0)
(1.0166195 0.012997709 0)
(1.0109738 0.01067986 0)
(1.0091735 0.0067462717 0)
(1.0095903 0.0037593097 0)
(1.0104931 0.002176552 0)
(1.0111074 0.0015424911 0)
(1.0113054 0.0012415054 0)
(1.0112789 0.00097849608 0)
(1.0112119 0.00070127459 0)
(1.0111798 0.00046255491 0)
(1.0111741 0.00030615537 0)
(1.0111531 0.00023595025 0)
(1.0110829 0.00022611199 0)
(1.0109497 0.00024466154 0)
(1.0107568 0.00026220779 0)
(1.010522 0.00025417227 0)
(1.0102791 0.00021494909 0)
(1.0100669 0.00014754953 0)
(1.0099233 5.3316832e-05 0)
(0.90257505 0.01192878 0)
(0.90436012 0.028878217 9.3079856e-24)
(0.90929023 0.016306316 0)
(0.94345164 -0.022134209 0)
(0.99769926 -0.040300276 0)
(1.0320882 -0.022035353 0)
(1.0360799 0.027794537 0)
(1.0164104 0.052900012 0)
(0.97933824 0.034360256 0)
(0.97879914 -0.00048476233 0)
(1.0033078 -0.020089466 0)
(1.0269061 -0.01630502 0)
(1.0347927 -0.00049528456 0)
(1.0287484 0.012272153 0)
(1.017961 0.016605088 0)
(1.0099256 0.013571425 0)
(1.0073918 0.0080995363 0)
(1.0082297 0.0039343805 0)
(1.0098148 0.0019059912 0)
(1.0109177 0.0012787805 0)
(1.0113299 0.0011481614 0)
(1.0113287 0.0010214082 0)
(1.0112182 0.00077670212 0)
(1.0111605 0.00049938704 0)
(1.0111723 0.00028210098 0)
(1.011204 0.00016180326 0)
(1.0112019 0.00012652816 0)
(1.0111342 0.00014642514 0)
(1.0109904 0.0001896818 0)
(1.0107789 0.0002242791 0)
(1.0105255 0.00023076249 0)
(1.0102676 0.00020492045 0)
(1.0100447 0.00014596483 0)
(1.0098958 5.4519737e-05 0)
(0.8820174 0.013648715 2.3543419e-24)
(0.88455108 0.031711843 0)
(0.88986885 0.016877138 -4.6766803e-23)
(0.92603574 -0.027223863 0)
(0.98452179 -0.046430113 0)
(1.0214452 -0.020961408 0)
(1.0194154 0.032054421 0)
(0.99179964 0.063221756 0)
(0.96659971 0.043360978 0)
(0.96731072 -0.0031638174 0)
(0.99925354 -0.028169561 0)
(1.0299157 -0.023264885 0)
(1.0413155 -0.0032554907 0)
(1.0342114 0.014917725 0)
(1.0196408 0.021322235 0)
(1.0084241 0.017448318 0)
(1.0048542 0.0097980712 0)
(1.0062444 0.0040235636 0)
(1.0088277 0.001325642 0)
(1.0106736 0.00074186823 0)
(1.0114233 0.00091616312 0)
(1.011435 0.0010182863 0)
(1.0112577 0.00088060397 0)
(1.0111249 0.00058516004 0)
(1.0111181 0.00029139181 0)
(1.0111891 9.4279537e-05 0)
(1.01126 7.4638766e-06 0)
(1.0112732 8.8199624e-06 0)
(1.0112 6.3198565e-05 0)
(1.0110395 0.00013329465 0)
(1.0108066 0.00018856337 0)
(1.0105326 0.00021260704 0)
(1.0102581 0.0002010108 0)
(1.0100236 0.00014887309 0)
(1.0098683 5.749966e-05 0)
(0.86225414 0.015155384 -1.6435963e-23)
(0.86542112 0.03437263 -2.2066129e-23)
(0.87104839 0.017034427 4.6754892e-23)
(0.90748638 -0.032540789 3.8962501e-23)
(0.96772253 -0.052022769 -5.6744185e-23)
(1.0080616 -0.023848226 0)
(1.0043149 0.041340473 0)
(0.96948965 0.072244101 0)
(0.94677323 0.05028262 0)
(0.9534921 -0.0042926154 0)
(0.99346303 -0.03753496 0)
(1.0333305 -0.032363249 0)
(1.0490362 -0.0061914515 0)
(1.0408678 0.017872441 0)
(1.0217899 0.027464041 0)
(1.0063052 0.022518991 0)
(1.0012982 0.012030895 0)
(1.0034434 0.0039102934 0)
(1.0074323 0.00034709565 0)
(1.0103641 -0.00020655291 0)
(1.0116394 0.00043626905 0)
(1.011706 0.00097720186 0)
(1.0113743 0.0010254924 0)
(1.0111 0.00074383072 0)
(1.0110181 0.00036461194 0)
(1.0110997 5.7716931e-05 0)
(1.0112389 -0.00011475378 0)
(1.0113463 -0.00016011532 0)
(1.0113662 -0.00011321713 0)
(1.0112791 -1.9927035e-05 0)
(1.0110962 8.0532296e-05 0)
(1.0108382 0.00016073207 0)
(1.0105425 0.00020291775 0)
(1.0102507 0.00020407174 0)
(1.0100026 0.00015676955 0)
(1.0098399 6.2318629e-05 0)
(0.84444014 0.016382825 2.1131958e-23)
(0.84801645 0.0366511 2.5730741e-23)
(0.85356646 0.017276173 0)
(0.88844019 -0.037913755 -1.3210677e-23)
(0.94845712 -0.057728115 5.6458131e-23)
(0.99160262 -0.026776973 1.8877489e-22)
(0.98752253 0.04797793 9.6336017e-23)
(0.95119261 0.081954337 0)
(0.92790399 0.057169971 0)
(0.93989063 -0.0084902773 0)
(0.98646285 -0.048992407 0)
(1.0368239 -0.042093564 0)
(1.0576616 -0.010651707 0)
(1.048519 0.022023863 0)
(1.0240226 0.035274433 0)
(1.0033811 0.02907314 0)
(0.99646364 0.014805807 0)
(0.99958642 0.0036442788 0)
(1.0054899 -0.0012564857 0)
(1.0099819 -0.001694838 0)
(1.0120389 -0.00040856412 0)
(1.0122385 0.00080962276 0)
(1.0116414 0.0011978726 0)
(1.0111384 0.0010147609 0)
(1.0108866 0.00053904983 0)
(1.0109297 8.5277157e-05 0)
(1.0111221 -0.00021730265 0)
(1.01133 -0.00034719184 0)
(1.0114632 -0.00033435267 0)
(1.0114787 -0.00023379897 0)
(1.0113708 -9.7157682e-05 0)
(1.0111587 3.8197125e-05 0)
(1.0108731 0.00014422535 0)
(1.0105521 0.00020337101 0)
(1.0102426 0.00021542778 0)
(1.0099806 0.00016991881 0)
(1.0098099 6.8878204e-05 0)
(0.82984497 0.017393588 -1.5338241e-24)
(0.83316996 0.038482325 -8.1576496e-24)
(0.83822353 0.017341174 -2.2592941e-23)
(0.86997357 -0.042978851 -1.7182855e-23)
(0.92762487 -0.063556542 -2.6526667e-23)
(0.97158797 -0.02852998 2.1003842e-22)
(0.9705682 0.052510759 3.0642953e-22)
(0.93260788 0.091816105 -5.102851e-23)
(0.91051866 0.058864628 0)
(0.92605035 -0.011521487 0)
(0.98026791 -0.062497719 0)
(1.0414034 -0.055475552 0)
(1.0685023 -0.014574706 0)
(1.0568473 0.026611386 0)
(1.0257992 0.045166763 0)
(0.99915314 0.037457784 0)
(0.98995033 0.018349312 0)
(0.99441783 0.0029897959 0)
(1.0028765 -0.0035398419 0)
(1.0094922 -0.0039743663 0)
(1.0127036 -0.001742673 0)
(1.0131328 0.00045404392 0)
(1.0122103 0.0014522179 0)
(1.0112708 0.0014010686 0)
(1.0107629 0.00087531162 0)
(1.0106763 0.00022295385 0)
(1.0108914 -0.00026837157 0)
(1.0112009 -0.00053322473 0)
(1.0114658 -0.00059217851 0)
(1.0116097 -0.00050753092 0)
(1.0116088 -0.0003460082 0)
(1.0114716 -0.00016088038 0)
(1.0112258 1.077842e-05 0)
(1.0109089 0.00014167034 0)
(1.0105633 0.00021744121 0)
(1.0102333 0.000236028 0)
(1.0099569 0.0001881172 0)
(1.0097776 7.6947838e-05 0)
(0.81836735 0.018008784 -5.4308265e-24)
(0.82165929 0.039825994 8.943685e-25)
(0.82593709 0.01736267 0)
(0.85264519 -0.047732871 2.8060323e-23)
(0.90601948 -0.068885714 -5.3385981e-23)
(0.9502555 -0.031399198 0)
(0.94999168 0.059598772 -4.2347159e-22)
(0.91594914 0.10065028 -4.6234109e-22)
(0.89186037 0.067398399 0)
(0.91282132 -0.020347927 0)
(0.97390553 -0.077126475 0)
(1.04632 -0.068940131 0)
(1.0831105 -0.022518427 0)
(1.0690814 0.033006063 0)
(1.0269869 0.057407126 0)
(0.99280137 0.047656346 0)
(0.98140655 0.022719031 0)
(0.98758023 0.0020146049 0)
(0.99942543 -0.0068867668 0)
(1.0088898 -0.0071578178 0)
(1.0137136 -0.0037912805 0)
(1.0145398 -0.0001634447 0)
(1.0132118 0.0017645643 0)
(1.0116131 0.0020142561 0)
(1.0106539 0.0014143526 0)
(1.0103493 0.00053064217 0)
(1.0105285 -0.0002232857 0)
(1.0109316 -0.00069184705 0)
(1.0113453 -0.00087301225 0)
(1.0116458 -0.00083717897 0)
(1.0117831 -0.000669714 0)
(1.0117534 -0.00044128315 0)
(1.011579 -0.00020563371 0)
(1.0112952 1.2711702e-06 0)
(1.0109442 0.00015444679 0)
(1.0105727 0.00024450282 0)
(1.0102221 0.00026506794 0)
(1.009931 0.00021082483 0)
(1.0097426 8.6242797e-05 0)
(0.81140248 0.018139253 0)
(0.81433202 0.040591786 0)
(0.81710511 0.017153539 -9.2579976e-25)
(0.83818795 -0.051805004 0)
(0.88415724 -0.073784131 -4.1580826e-24)
(0.9270932 -0.033662373 2.162301e-22)
(0.92973162 0.065189383 7.9615545e-22)
(0.89727389 0.11024369 2.481173e-23)
(0.87560343 0.074755644 0)
(0.89499938 -0.023714758 0)
(0.96917355 -0.092240716 0)
(1.048388 -0.086257533 0)
(1.0950395 -0.028265792 0)
(1.0878285 0.038263852 0)
(1.0328156 0.07188168 0)
(0.98468674 0.060149187 0)
(0.97009694 0.027822706 0)
(0.97886376 0.00042116427 0)
(0.99495711 -0.011290093 0)
(1.0081275 -0.01167463 0)
(1.015176 -0.0066581413 0)
(1.0166329 -0.0012009728 0)
(1.0148181 0.0021488727 0)
(1.0123116 0.0029274728 0)
(1.0105992 0.0022552446 0)
(1.0099508 0.0010910747 0)
(1.0100104 -3.5891331e-05 0)
(1.0104906 -0.00079210151 0)
(1.011069 -0.0011605455 0)
(1.0115567 -0.0012164731 0)
(1.0118669 -0.001068174 0)
(1.011979 -0.00080966998 0)
(1.0119087 -0.00051225868 0)
(1.0116902 -0.00022746739 0)
(1.0113646 1.1429157e-05 0)
(1.0109788 0.00018426511 0)
(1.0105797 0.00028337754 0)
(1.0102079 0.00030208643 0)
(1.0099019 0.00023749903 0)
(1.0097045 9.6415819e-05 0)
(0.81161674 0.040809594 -6.1384441e-25)
(0.80999454 0.017906241 0)
(0.81253392 0.016965651 -8.8458649e-24)
(0.82685263 -0.055163755 -1.7871805e-24)
(0.86397193 -0.077886348 -6.2085072e-23)
(0.90320265 -0.035890489 -5.0671419e-25)
(0.90765895 0.071233513 -8.2578574e-25)
(0.8795556 0.11928332 -2.5501187e-22)
(0.85895997 0.083088637 -1.4874035e-22)
(0.87779314 -0.024122571 0)
(0.95602678 -0.10845609 -2.6789714e-22)
(1.0483558 -0.097258008 0)
(1.0968931 -0.041347698 0)
(1.1037889 0.045976923 0)
(1.0452552 0.088061185 0)
(0.97924152 0.074635264 0)
(0.95583916 0.033889755 0)
(0.96772534 -0.0019304472 0)
(0.98940846 -0.017294214 0)
(1.0071809 -0.017489663 0)
(1.0171847 -0.010764213 0)
(1.0196217 -0.0026949849 0)
(1.0172369 0.0025500376 0)
(1.0135167 0.0042404356 0)
(1.0107072 0.003544938 0)
(1.0094324 0.0019686786 0)
(1.0093289 0.00039099051 0)
(1.009838 -0.00078887125 0)
(1.0105967 -0.0014366704 0)
(1.0113074 -0.0016396982 0)
(1.0118301 -0.0015421324 0)
(1.0121223 -0.0012698898 0)
(1.0121917 -0.00091794324 0)
(1.0120708 -0.00055377106 0)
(1.0118024 -0.00022415597 0)
(1.0114323 4.2234061e-05 0)
(1.0110109 0.00023092422 0)
(1.0105835 0.00033313875 0)
(1.0101903 0.00034552052 0)
(1.0098697 0.00026695065 0)
(1.0096635 0.00010711558 0)
(0.81153934 0.01681338 7.8126394e-24)
(0.81430049 0.040688265 0)
(0.81457879 0.017166637 1.6020939e-24)
(0.81748661 -0.057582791 1.7858097e-24)
(0.84638024 -0.081042926 2.6112771e-23)
(0.87988713 -0.037873071 3.4962596e-22)
(0.88591897 0.076577806 -6.5417847e-22)
(0.8616992 0.12783625 -1.6477017e-22)
(0.8436026 0.091107739 -1.1058898e-22)
(0.86053654 -0.025885886 5.4813319e-23)
(0.93845905 -0.12171732 -3.3830629e-22)
(1.0391502 -0.11572096 2.7848198e-22)
(1.0937146 -0.043041033 0)
(1.1043896 0.049861845 0)
(1.0572261 0.10960645 0)
(0.97637614 0.092811801 0)
(0.93991931 0.040659055 0)
(0.95413132 -0.0050889644 0)
(0.98244452 -0.024859883 0)
(1.0060857 -0.025287729 0)
(1.0198397 -0.016041627 0)
(1.0237219 -0.0050002273 0)
(1.0207447 0.0030538866 0)
(1.0154052 0.0060355229 0)
(1.0110617 0.005453436 0)
(1.0088211 0.0033279301 0)
(1.0084008 0.0011121528 0)
(1.0089266 -0.00063635409 0)
(1.0098807 -0.0016717978 0)
(1.0108559 -0.0020995588 0)
(1.0116393 -0.0020943362 0)
(1.0121554 -0.0018283085 0)
(1.0124036 -0.0014298854 0)
(1.0124154 -0.0009880866 0)
(1.0122355 -0.00056298306 0)
(1.011913 -0.0001947495 0)
(1.011497 9.4039879e-05 0)
(1.011039 0.00029227965 0)
(1.0105833 0.00039241514 0)
(1.0101692 0.00039353508 0)
(1.0098342 0.00029840607 0)
(1.0096194 0.00011806902 0)
(0.81263914 -0.058804616 4.791773e-24)
(0.81685102 0.016674257 2.6818045e-23)
(0.82355781 0.039997835 0)
(0.82312555 0.016002048 1.5709635e-24)
(0.82938568 -0.083375003 -2.0315296e-23)
(0.85853292 -0.039345055 -1.5467999e-22)
(0.86516117 0.081221513 0)
(0.84541478 0.13534756 1.6363234e-22)
(0.83015204 0.098815594 -1.5265182e-23)
(0.84432568 -0.027103884 -5.414207e-23)
(0.91955059 -0.13573035 4.1336918e-22)
(1.0226654 -0.13361276 3.5085641e-22)
(1.0848786 -0.054097209 0)
(1.0914934 0.059951472 0)
(1.0457313 0.13080378 0)
(0.96708044 0.11581692 0)
(0.92365401 0.050423857 0)
(0.93710059 -0.010003143 0)
(0.97443751 -0.034507727 0)
(1.0046784 -0.034721018 0)
(1.0232535 -0.023254428 0)
(1.0291763 -0.0079789501 0)
(1.0256077 0.0034420467 0)
(1.0182298 0.0085013399 0)
(1.0117528 0.0081655473 0)
(1.0081288 0.0053648051 0)
(1.0071335 0.0022302105 0)
(1.0076887 -0.0002380985 0)
(1.0088514 -0.0018568385 0)
(1.0101531 -0.0025981347 0)
(1.0112565 -0.0027320337 0)
(1.0120491 -0.0024949422 0)
(1.0125198 -0.0020586145 0)
(1.0127019 -0.0015402529 0)
(1.0126441 -0.0010168622 0)
(1.0123991 -0.00053902645 0)
(1.0120197 -0.00013938136 0)
(1.0115572 0.00016560834 0)
(1.0110624 0.00036636762 0)
(1.0105786 0.00045906587 0)
(1.0101438 0.00044557824 0)
(1.0097953 0.00033112582 0)
(1.0095726 0.00012899687 0)
(0.81771124 -0.084526415 -9.5695407e-24)
(0.81444177 -0.058970154 -6.2052856e-24)
(0.82819164 0.016548433 -2.4114972e-23)
(0.83641038 0.038692635 -1.0314906e-23)
(0.83482044 0.014513218 -1.0792355e-23)
(0.83858976 -0.040550799 1.4848018e-22)
(0.84679905 0.084991801 8.8080557e-23)
(0.83149464 0.14160014 0)
(0.81947021 0.10559568 2.0206693e-23)
(0.83019973 -0.028176134 1.1266229e-23)
(0.89987937 -0.15029905 0)
(1.003315 -0.15049195 -5.7189842e-22)
(1.0710706 -0.071424174 0)
(1.0755345 0.068859983 0)
(1.018412 0.15242675 0)
(0.95044641 0.13940863 0)
(0.90681323 0.061793188 0)
(0.91801131 -0.014459542 0)
(0.96437981 -0.046463465 0)
(1.0032909 -0.046773202 0)
(1.0273882 -0.031877074 0)
(1.0361999 -0.012398009 0)
(1.0322242 0.0040281735 0)
(1.0222182 0.011675569 0)
(1.0129211 0.011941224 0)
(1.0073367 0.0082873366 0)
(1.0054727 0.0039243739 0)
(1.005977 0.00041947543 0)
(1.0074266 -0.0019264962 0)
(1.0091273 -0.0031218631 0)
(1.010635 -0.0034688444 0)
(1.0117717 -0.0032862335 0)
(1.0125163 -0.0028188678 0)
(1.0129096 -0.0022232887 0)
(1.0130088 -0.0015973927 0)
(1.0128727 -0.0010036298 0)
(1.0125584 -0.00048251525 0)
(1.0121208 -5.9241913e-05 0)
(1.0116116 0.00025427185 0)
(1.0110801 0.00045087233 0)
(1.010569 0.00053119027 0)
(1.0101146 0.00049952521 0)
(1.0097533 0.00036400339 0)
(1.0095233 0.00013971792 0)
(0.82300473 -0.041447453 6.6389693e-24)
(0.81208938 -0.08451791 8.7931494e-24)
(0.82158396 -0.058046333 3.4825232e-23)
(0.84392703 0.016376055 1.0675155e-23)
(0.85118119 0.036878595 -1.6629218e-23)
(0.84986334 0.01281896 9.0640111e-24)
(0.83161529 0.087738531 -1.6946803e-22)
(0.82146063 0.14660643 -8.459644e-23)
(0.81224869 0.11145452 -1.2838525e-22)
(0.81906308 -0.029170414 -1.7767778e-23)
(0.88012678 -0.16425629 -6.6780082e-22)
(0.98105947 -0.16842528 4.5834572e-22)
(1.0534673 -0.083984481 0)
(1.0655999 0.061382836 -1.7977576e-21)
(0.99830911 0.17369681 1.7590732e-21)
(0.93256977 0.15696389 0)
(0.89131009 0.076221617 0)
(0.89832876 -0.021793121 0)
(0.95300516 -0.060697682 0)
(1.0014601 -0.06050271 0)
(1.0324403 -0.043264878 0)
(1.044971 -0.017611518 0)
(1.0408236 0.004145014 0)
(1.0277641 0.015942908 0)
(1.0146516 0.01703445 0)
(1.0064182 0.012385406 0)
(1.0033186 0.0063658683 0)
(1.003648 0.0014350397 0)
(1.0054879 -0.0018676178 0)
(1.0076921 -0.0037025761 0)
(1.0097164 -0.0043227165 0)
(1.0112852 -0.0042242264 0)
(1.0123689 -0.0037312778 0)
(1.0130199 -0.0030539514 0)
(1.0133125 -0.0023185475 0)
(1.0133169 -0.0016010479 0)
(1.0130968 -0.00094954981 0)
(1.012711 -0.00039532354 0)