/*--------------------------------*- C++ -*----------------------------------*\
| =========                 |                                                 |
| \\      /  F ield         | OpenFOAM: The Open Source CFD Toolbox           |
|  \\    /   O peration     | Version:  5.0                                   |
|   \\  /    A nd           | Web:      www.OpenFOAM.org                      |
|    \\/     M anipulation  |                                                 |
\*---------------------------------------------------------------------------*/
FoamFile
{
    version     2.0;
    format      ascii;
    class       volVectorField;
    location    "400";
    object      UMean;
}
// * * * * * * * * * * * * * * * * * * * * * * * * * * * * * * * * * * * * * //

dimensions      [0 1 -1 0 0 0 0];

internalField   nonuniform List<vector> 
9520
(
(1.0116918 8.0831965e-05 0)
(1.0117833 0.0002366862 0)
(1.0114511 8.1706844e-05 0)
(1.0119457 0.00038184805 0)
(1.0115435 0.00023951591 0)
(1.0113553 8.2166622e-05 0)
(1.0121637 0.00051581751 0)
(1.0117078 0.00038696671 0)
(1.0114477 0.00024093336 0)
(1.0111998 8.2585072e-05 0)
(1.012424 0.00063884646 0)
(1.0119292 0.00052374467 0)
(1.0116122 0.00038982448 0)
(1.0112917 0.00024259644 0)
(1.0110802 8.2640986e-05 0)
(1.0127148 0.00075039936 0)
(1.0121949 0.00065022848 0)
(1.0118342 0.00052867257 0)
(1.0114555 0.00039356043 0)
(1.0111714 0.00024301049 0)
(1.0109503 8.2070509e-05 0)
(1.0130255 0.00085027507 0)
(1.0124937 0.00076595279 0)
(1.0121011 0.0006580187 0)
(1.0116771 0.00053568304 0)
(1.0113341 0.00039520822 0)
(1.0110399 0.00024175078 0)
(1.0108327 8.0942884e-05 0)
(1.0133471 0.00093826374 0)
(1.0128153 0.00087074612 0)
(1.0124019 0.00077748654 0)
(1.0119441 0.00066976323 0)
(1.0115544 0.0005398114 0)
(1.0111997 0.00039438977 0)
(1.0109206 0.00023876766 0)
(1.0107191 7.885434e-05 0)
(1.0136715 0.0010137865 0)
(1.013151 0.00096424014 0)
(1.0127265 0.00088699298 0)
(1.0122459 0.00079561228 0)
(1.0118202 0.00067791277 0)
(1.0114161 0.00054100999 0)
(1.0110773 0.00039067811 0)
(1.0108045 0.00023297171 0)
(1.010613 7.599142e-05 0)
(1.0139921 0.0010776616 0)
(1.0134928 0.0010459961 0)
(1.0130662 0.00098635585 0)
(1.0125728 0.00091323053 0)
(1.0121212 0.00080947604 0)
(1.0116775 0.00068307634 0)
(1.0112895 0.00053813704 0)
(1.0109563 0.00038238666 0)
(1.0106957 0.00022483235 0)
(1.0105161 7.2050401e-05 0)
(1.0143035 0.0011270485 0)
(1.0138344 0.0011164585 0)
(1.0134134 0.0010748557 0)
(1.0129164 0.001022281 0)
(1.012448 0.00093460951 0)
(1.0119739 0.00082088021 0)
(1.011546 0.00068295138 0)
(1.0111618 0.00052901016 0)
(1.0108427 0.00037012462 0)
(1.0105957 0.00021344575 0)
(1.0104268 6.7283812e-05 0)
(1.0146012 0.0011690585 0)
(1.0141701 0.0011733461 0)
(1.0137618 0.0011528395 0)
(1.0132694 0.0011220959 0)
(1.0127925 0.0010530486 0)
(1.0122962 0.00095472547 0)
(1.0118368 0.00082566901 0)
(1.0114098 0.00067503935 0)
(1.0110414 0.00051417025 0)
(1.0107368 0.00035237465 0)
(1.0105033 0.00019954167 0)
(1.0103485 6.1549225e-05 0)
(1.014882 0.001192875 0)
(1.0145 0.0012216244 0)
(1.0141053 0.0012189949 0)
(1.0136256 0.0012131056 0)
(1.0131473 0.0011643558 0)
(1.0126366 0.001084432 0)
(1.0121534 0.00096679284 0)
(1.0116909 0.00082140562 0)
(1.0112809 0.00065951451 0)
(1.0109269 0.00049146707 0)
(1.0106384 0.00033028424 0)
(1.010422 0.00018266133 0)
(1.0102789 5.5130539e-05 0)
(1.0151431 0.0012178205 0)
(1.0148155 0.0012477932 0)
(1.0144385 0.0012767161 0)
(1.0139821 0.0012931573 0)
(1.0135068 0.0012687 0)
(1.0129884 0.0012095357 0)
(1.012488 0.0011063312 0)
(1.0119968 0.00096891176 0)
(1.011552 0.00080742477 0)
(1.0111553 0.00063362837 0)
(1.0108201 0.00046238384 0)
(1.0105511 0.00030300129 0)
(1.0103494 0.00016365295 0)
(1.0102209 4.8014965e-05 0)
(1.0153826 0.0012051849 0)
(1.015108 0.0012813125 0)
(1.0147558 0.0013205125 0)
(1.0143358 0.0013645865 0)
(1.0138638 0.0013649075 0)
(1.0133467 0.0013299493 0)
(1.0128341 0.0012440842 0)
(1.0123203 0.0011177738 0)
(1.0118464 0.00095899934 0)
(1.0114129 0.00078051813 0)
(1.0110375 0.00059905581 0)
(1.0107238 0.000425568 0)
(1.0104728 0.00027192956 0)
(1.0102888 0.00014245043 0)
(1.010172 4.0487103e-05 0)
(1.0155978 0.0012234525 0)
(1.0153846 0.0012788213 0)
(1.0150614 0.0013648598 0)
(1.0146727 0.001419167 0)
(1.0142162 0.0014552952 0)
(1.0137083 0.0014431713 0)
(1.0131854 0.0013797841 0)
(1.0126554 0.0012677572 0)
(1.012157 0.001114714 0)
(1.0116916 0.00093358722 0)
(1.0112818 0.00074229245 0)
(1.0109292 0.00055382729 0)
(1.0106368 0.0003829749 0)
(1.010407 0.00023687191 0)
(1.0102377 0.00011991099 0)
(1.0101341 3.2624885e-05 0)
(1.0157864 0.0011676743 0)
(1.0156396 0.0013108962 0)
(1.0153529 0.001375944 0)
(1.0149911 0.0014770078 0)
(1.014556 0.0015330025 0)
(1.0140652 0.0015528082 0)
(1.0135377 0.0015126218 0)
(1.0129979 0.0014184162 0)
(1.0124775 0.001274559 0)
(1.0119852 0.0010936097 0)
(1.0115448 0.00089386928 0)
(1.0111582 0.00069014036 0)
(1.0108307 0.00050043485 0)
(1.010563 0.00033416662 0)
(1.0103514 0.00019926876 0)
(1.0101983 9.62432e-05 0)
(1.010105 2.4697751e-05 0)
(1.0159399 0.0012002476 0)
(1.0158668 0.0012666932 0)
(1.0156249 0.0014149711 0)
(1.0152969 0.0015069679 0)
(1.0148826 0.0016117639 0)
(1.0144104 0.0016505128 0)
(1.0138887 0.001643336 0)
(1.0133426 0.0015686942 0)
(1.0128032 0.0014384553 0)
(1.0122881 0.0012607791 0)
(1.0118199 0.0010548851 0)
(1.0114029 0.00083668319 0)
(1.011045 0.00062699179 0)
(1.0107456 0.00043806561 0)
(1.0105003 0.00028117242 0)
(1.0103086 0.0001593985 0)
(1.0101682 7.2264027e-05 0)
(1.0100856 1.6837494e-05 0)
(1.0160543 0.001090709 0)
(1.0160556 0.00131432 0)
(1.0158658 0.0013874653 0)
(1.0155833 0.0015624529 0)
(1.0152 0.0016633216 0)
(1.0147418 0.0017513808 0)
(1.0142307 0.0017651274 0)
(1.0136855 0.0017193948 0)
(1.0131311 0.0016054636 0)
(1.0125961 0.0014350673 0)
(1.0121015 0.0012258928 0)
(1.0116571 0.00099498651 0)
(1.0112718 0.00076517832 0)
(1.0109452 0.0005515445 0)
(1.0106728 0.00036934557 0)
(1.0104518 0.00022427593 0)
(1.0102762 0.00011864639 0)
(1.0101486 4.8348817e-05 0)
(1.0100738 9.282546e-06 0)
(1.0160925 0.0011486752 0)
(1.0162085 0.0012110254 0)
(1.0160769 0.0014376096 0)
(1.0158431 0.0015567916 0)
(1.0154946 0.0017362993 0)
(1.0150666 0.0018278693 0)
(1.0145607 0.0018903125 0)
(1.0140203 0.0018647157 0)
(1.0134581 0.0017758279 0)
(1.012905 0.0016155604 0)
(1.0123858 0.0014071442 0)
(1.0119159 0.0011659651 0)
(1.0115046 0.00091692115 0)
(1.0111535 0.00067753389 0)
(1.0108588 0.00046699872 0)
(1.0106156 0.00029447026 0)
(1.0104152 0.00016546 0)
(1.0102559 7.7600772e-05 0)
(1.0101375 2.523608e-05 0)
(1.0100698 2.1835776e-06 0)
(1.0160588 0.00098165439 0)
(1.0163095 0.0013041424 0)
(1.0162512 0.0013514755 0)
(1.0160715 0.001619382 0)
(1.0157697 0.0017535558 0)
(1.0153678 0.0019245925 0)
(1.0148848 0.0019948593 0)
(1.0143429 0.0020141891 0)
(1.0137784 0.0019447101 0)
(1.0132118 0.0018026243 0)
(1.0126698 0.0015980052 0)
(1.0121751 0.001350072 0)
(1.0117383 0.0010835475 0)
(1.0113642 0.00081847104 0)
(1.0110497 0.0005774298 0)
(1.0107894 0.00037336902 0)
(1.0105722 0.00021603594 0)
(1.0103927 0.00010547532 0)
(1.0102453 3.7534915e-05 0)
(1.010135 3.3731178e-06 0)
(1.0100719 -4.2558453e-06 0)
(1.0157766 0.0010690279 0)
(1.0162952 0.0011317577 0)
(1.0163473 0.0014398896 0)
(1.0162684 0.0015650286 0)
(1.0160142 0.0018356551 0)
(1.0156544 0.001967219 0)
(1.0151919 0.0021182532 0)
(1.0146583 0.0021488117 0)
(1.0140873 0.0021190734 0)
(1.013512 0.0019920153 0)
(1.0129509 0.0017985069 0)
(1.0124319 0.0015468635 0)
(1.0119694 0.0012659108 0)
(1.0115724 0.00097618078 0)
(1.0112389 0.00070354722 0)
(1.0109641 0.00046462565 0)
(1.0107357 0.00027385211 0)
(1.0105451 0.00013493494 0)
(1.0103818 4.6191357e-05 0)
(1.0102451 -8.1092455e-07 0)
(1.0101394 -1.662826e-05 0)
(1.0100794 -9.9054271e-06 0)
(1.0150366 0.00085641619 0)
(1.0161216 0.0012656911 0)
(1.0163749 0.0012749763 0)
(1.0163875 0.0016598339 0)
(1.0162228 0.0017993997 0)
(1.0159134 0.0020731499 0)
(1.0154823 0.0021912289 0)
(1.0149628 0.0023018614 0)
(1.0143862 0.0022833765 0)
(1.0138009 0.0021890378 0)
(1.0132255 0.0020049607 0)
(1.0126838 0.0017563363 0)
(1.0121956 0.0014640261 0)
(1.0117745 0.0011519251 0)
(1.0114213 0.00084769589 0)
(1.0111327 0.00057166986 0)
(1.0108962 0.00034287297 0)
(1.0107009 0.00016945808 0)
(1.0105321 5.3653126e-05 0)
(1.0103837 -1.137562e-05 0)
(1.0102533 -3.6355751e-05 0)
(1.0101502 -3.4340501e-05 0)
(1.010091 -1.4608809e-05 0)
(1.0139535 0.00091327481 0)
(1.015401 0.0010577505 0)
(1.0162001 0.0014204208 0)
(1.0164323 0.0015295443 0)
(1.0163578 0.0019101854 0)
(1.0161332 0.0020636125 0)
(1.0157504 0.0023255289 0)
(1.0152507 0.0024097008 0)
(1.0146785 0.002466343 0)
(1.0140764 0.0023805695 0)
(1.0134874 0.0022218271 0)
(1.0129283 0.0019753863 0)
(1.012415 0.0016777554 0)
(1.0119685 0.0013460924 0)
(1.0115935 0.0010116952 0)
(1.01129 0.00069745119 0)
(1.0110462 0.0004270256 0)
(1.0108498 0.0002132295 0)
(1.010683 6.3262841e-05 0)
(1.0105348 -2.6509853e-05 0)
(1.0103961 -6.5594843e-05 0)
(1.0102696 -6.8375023e-05 0)
(1.0101658 -4.9314516e-05 0)
(1.0101058 -1.8270292e-05 0)
(1.0134902 0.00078710547 0)
(1.0143143 0.0011341756 0)
(1.0155722 0.0012062057 0)
(1.0162922 0.0016817386 0)
(1.0164193 0.0018011676 0)
(1.01629 0.0021941439 0)
(1.0159801 0.0023478702 0)
(1.015519 0.0025774991 0)
(1.014955 0.0026096757 0)
(1.014348 0.0025911992 0)
(1.0137362 0.0024358459 0)
(1.0131582 0.0022071146 0)
(1.0126257 0.001904562 0)
(1.0121529 0.0015586718 0)
(1.0117539 0.0011964797 0)
(1.0114328 0.00084441042 0)
(1.0111799 0.00052986264 0)
(1.0109834 0.00027065808 0)
(1.0108233 7.936687e-05 0)
(1.0106841 -4.31146e-05 0)
(1.0105507 -0.00010331761 0)
(1.0104192 -0.00011541446 0)
(1.0102922 -9.6059741e-05 0)
(1.0101854 -6.1239234e-05 0)
(1.0101225 -2.0809099e-05 0)
(1.0117856 0.00077434104 0)
(1.0139567 0.00096045683 0)
(1.0144612 0.001312461 0)
(1.0157032 0.0014955395 0)
(1.0162951 0.0019628513 0)
(1.0163662 0.0021127892 0)
(1.0161547 0.0025046104 0)
(1.0157506 0.0026393419 0)
(1.0152132 0.002812269 0)
(1.014603 0.0027679605 0)
(1.0139806 0.0026700083 0)
(1.0133765 0.0024394384 0)
(1.012821 0.0021459251 0)
(1.0123268 0.0017878067 0)
(1.0119016 0.0014024169 0)
(1.0115592 0.0010140265 0)
(1.0112941 0.00065451267 0)
(1.0110959 0.00034594766 0)
(1.0109437 0.00010679718 0)
(1.0108193 -5.6824452e-05 0)
(1.0107019 -0.0001468208 0)
(1.0105806 -0.00017534417 0)
(1.0104507 -0.00015957112 0)
(1.0103204 -0.00011884329 0)
(1.0102076 -6.9846689e-05 0)
(1.0101404 -2.2180254e-05 0)
(1.0059243 0.0006091002 0)
(1.0124574 0.0011114641 0)
(1.0141068 0.0011017315 0)
(1.0145949 0.0016374497 0)
(1.0157423 0.0017973541 0)
(1.0162634 0.0022854516 0)
(1.0162474 0.0024593101 0)
(1.015934 0.0028308552 0)
(1.0154354 0.0029157386 0)
(1.0148421 0.0030019709 0)
(1.0142072 0.0028750275 0)
(1.0135884 0.0026925479 0)
(1.0130039 0.0023923066 0)
(1.012484 0.0020339562 0)
(1.0120364 0.0016282191 0)
(1.0116692 0.0012072548 0)
(1.0113872 0.00080317406 0)
(1.0111834 0.00044296848 0)
(1.0110378 0.00015039076 0)
(1.0109303 -6.2451322e-05 0)
(1.0108358 -0.000191816 0)
(1.0107372 -0.00024597597 0)
(1.0106217 -0.00024077766 0)
(1.0104902 -0.0001971911 0)
(1.0103526 -0.00013622032 0)
(1.0102316 -7.4974939e-05 0)
(1.0101582 -2.2363047e-05 0)
(0.99686069 0.00061296378 0)
(1.0064984 0.00072749707 0)
(1.0128489 0.0013072564 0)
(1.0142307 0.0013910209 0)
(1.0146535 0.0019646614 0)
(1.0157506 0.0021378897 0)
(1.0161703 0.0026545595 0)
(1.0160343 0.0028339126 0)
(1.0156135 0.0031452537 0)
(1.0150444 0.003144459 0)
(1.0144205 0.0031350363 0)
(1.0137827 0.0029209123 0)
(1.0131795 0.0026600549 0)
(1.0126275 0.0022890332 0)
(1.0121533 0.0018736141 0)
(1.0117629 0.0014234928 0)
(1.0114591 0.0009774591 0)
(1.0112443 0.00056469061 0)
(1.0111013 0.0002147704 0)
(1.0110096 -5.4555219e-05 0)
(1.0109415 -0.0002328644 0)
(1.0108743 -0.0003232696 0)
(1.0107876 -0.00033816527 0)
(1.0106741 -0.00029835127 0)
(1.0105357 -0.00022744724 0)
(1.0103877 -0.00014785951 0)
(1.0102562 -7.6549015e-05 0)
(1.0101754 -2.1350044e-05 0)
(0.98683687 0.0004680796 0)
(0.99756048 0.00086700403 0)
(1.0068997 0.0009327115 0)
(1.0132018 0.0016716328 0)
(1.0142486 0.0016910128 0)
(1.0146916 0.0023237955 0)
(1.0157059 0.0025296334 0)
(1.0159765 0.0030624426 0)
(1.0157092 0.0031975997 0)
(1.0152051 0.0034089092 0)
(1.0145969 0.003309684 0)
(1.0139638 0.0032029747 0)
(1.0133386 0.0029077743 0)
(1.0127629 0.0025671236 0)
(1.0122537 0.0021322468 0)
(1.011837 0.0016621636 0)
(1.011511 0.0011776154 0)
(1.0112789 0.00071356796 0)
(1.0111324 0.00030377355 0)
(1.0110526 -2.7716997e-05 0)
(1.0110104 -0.00026399348 0)
(1.0109793 -0.00040166132 0)
(1.0109321 -0.00044807391 0)
(1.0108531 -0.00042161761 0)
(1.0107352 -0.00034678393 0)
(1.0105862 -0.00024976931 0)
(1.0104247 -0.00015358772 0)
(1.0102804 -7.4519701e-05 0)
(1.0101909 -1.9154208e-05 0)
(0.97592413 0.00044596048 0)
(0.98755802 0.00063339373 0)
(0.99794798 0.001012518 0)
(1.0074608 0.0012912314 0)
(1.0134971 0.0020283654 0)
(1.0142492 0.002041246 0)
(1.0146813 0.0027496038 0)
(1.0155542 0.0029839375 0)
(1.0156535 0.0034649588 0)
(1.0152852 0.0035019404 0)
(1.0147336 0.003604052 0)
(1.0141125 0.0034012066 0)
(1.0134858 0.0032070606 0)
(1.0128826 0.0028304717 0)
(1.0123448 0.0024156795 0)
(1.011891 0.0019184453 0)
(1.0115407 0.0014030161 0)
(1.0112886 0.00089058863 0)
(1.0111313 0.00042077947 0)
(1.0110568 2.2917432e-05 0)
(1.0110369 -0.00027903294 0)
(1.0110427 -0.00047475163 0)
(1.0110413 -0.00056498319 0)
(1.0110096 -0.00056391361 0)
(1.0109309 -0.00049453124 0)
(1.0108043 -0.00038512502 0)
(1.0106402 -0.00026386632 0)
(1.0104623 -0.00015330489 0)
(1.0103035 -6.8913438e-05 0)
(1.0102043 -1.5810984e-05 0)
(0.96284521 0.00031112163 -2.4800358e-24)
(0.97673162 0.00064962903 0)
(0.98802166 0.00080533024 0)
(0.99843882 0.0012867901 0)
(1.0081935 0.0016321835 0)
(1.0137732 0.0023996155 0)
(1.0141887 0.0024689834 0)
(1.0145597 0.0032478287 0)
(1.0152575 0.0034418663 0)
(1.0152197 0.0038043844 0)
(1.0147929 0.0037273724 0)
(1.0142242 0.0037204372 0)
(1.0136014 0.0034275992 0)
(1.0129919 0.0031447377 0)
(1.0124207 0.002690512 0)
(1.0119338 0.0022017577 0)
(1.0115462 0.0016501226 0)
(1.0112728 0.0010955755 0)
(1.0110998 0.00056761351 0)
(1.0110225 0.00010157748 0)
(1.0110182 -0.00027216457 0)
(1.0110577 -0.00053564859 0)
(1.0111044 -0.00068220454 0)
(1.0111284 -0.00071995075 0)
(1.0111039 -0.00066835557 0)
(1.0110204 -0.00055550725 0)
(1.0108789 -0.00041265407 0)
(1.0106961 -0.00026904049 0)
(1.0104993 -0.00014683488 0)
(1.0103247 -5.9814458e-05 0)
(1.0102149 -1.1376231e-05 0)
(0.94760319 0.00025901286 3.3767126e-24)
(0.9637148 0.00048179848 2.5884569e-24)
(0.97726015 0.00079347185 0)
(0.9885449 0.0010871022 0)
(0.99903734 0.0015700277 0)
(1.0090732 0.0020338562 0)
(1.0139431 0.0028725065 0)
(1.0139709 0.003001755 0)
(1.0142811 0.0037510165 0)
(1.0148369 0.003827232 0)
(1.0147153 0.0040547387 0)
(1.0142616 0.0038680285 0)
(1.0136874 0.0037644783 0)
(1.0130725 0.0033861404 0)
(1.012487 0.0030160081 0)
(1.0119606 0.0024826638 0)
(1.0115377 0.001926778 0)
(1.0112286 0.0013260042 0)
(1.0110388 0.00074500994 0)
(1.0109517 0.00021114175 0)
(1.0109543 -0.00023795924 0)
(1.0110208 -0.00057749331 0)
(1.0111135 -0.00079222941 0)
(1.0111971 -0.00088291824 0)
(1.0112375 -0.00086338395 0)
(1.0112145 -0.00075943251 0)
(1.0111187 -0.0006034433 0)
(1.0109579 -0.00042906488 0)
(1.0107529 -0.00026549072 0)
(1.0105349 -0.00013434416 0)
(1.0103432 -4.7395407e-05 0)
(1.0102223 -5.9261181e-06 0)
(0.93118282 0.00017528323 -3.391752e-24)
(0.94862571 0.00039943003 -7.930162e-24)
(0.96427112 0.00063987205 0)
(0.97789564 0.0010441609 0)
(0.98916575 0.0013252516 0)
(0.99986208 0.0019193144 0)
(1.0099175 0.0025259919 0)
(1.0139011 0.0034575549 0)
(1.0135735 0.0035554405 0)
(1.013875 0.0041613548 0)
(1.0143439 0.0041056297 0)
(1.0141743 0.0042156241 0)
(1.0137042 0.0039328264 0)
(1.013127 0.0037420501 0)
(1.0125264 0.0032769504 0)
(1.0119776 0.0028148991 0)
(1.0115109 0.0022066166 0)
(1.0111666 0.0015884482 0)
(1.0109448 0.00095080655 0)
(1.0108463 0.00035331766 0)
(1.010847 -0.0001725694 0)
(1.0109313 -0.00059383576 0)
(1.0110638 -0.00088726608 0)
(1.0112062 -0.0010448012 0)
(1.0113177 -0.0010728803 0)
(1.0113683 -0.00099262257 0)
(1.011338 -0.00083547414 0)
(1.0112247 -0.00063747639 0)
(1.0110397 -0.00043378577 0)
(1.0108093 -0.00025328177 0)
(1.0105683 -0.00011613952 0)
(1.0103585 -3.1859969e-05 0)
(1.0102261 4.5329462e-07 0)
(0.91443721 9.4004687e-05 0)
(0.93227101 0.00033282343 7.9427525e-24)
(0.94930301 0.00050268962 0)
(0.9649457 0.00089608594 0)
(0.9786633 0.0012619365 0)
(0.98996882 0.0015850487 0)
(1.0009138 0.0024640253 0)
(1.010636 0.0031512754 0)
(1.0136042 0.0040535446 0)
(1.0130362 0.0040384672 0)
(1.013404 0.0044496005 0)
(1.0138188 0.0042863787 0)
(1.0136115 0.0043012561 0)
(1.0131177 0.0039317576 0)
(1.0125444 0.0036514767 0)
(1.0119688 0.0030916735 0)
(1.0114732 0.0025386724 0)
(1.0110838 0.001859563 0)
(1.0108286 0.0011910206 0)
(1.0107032 0.00052661257 0)
(1.0106993 -7.3061697e-05 0)
(1.0107911 -0.00057944295 0)
(1.0109539 -0.00095963741 0)
(1.01115 -0.0011969332 0)
(1.0113335 -0.0012885038 0)
(1.0114664 -0.0012486828 0)
(1.0115174 -0.0011052265 0)
(1.0114735 -0.00089489358 0)
(1.0113358 -0.00065681356 0)
(1.0111227 -0.00042668086 0)
(1.0108641 -0.00023264074 0)
(1.0105987 -9.2540063e-05 0)
(1.0103702 -1.3425615e-05 0)
(1.0102261 7.7059677e-06 0)
(0.89777298 6.7042754e-05 1.6813099e-24)
(0.9155341 0.00017928673 0)
(0.93296561 0.0004688959 1.5783028e-23)
(0.9501138 0.00067847169 0)
(0.9657713 0.001101461 0)
(0.97963076 0.0015303946 0)
(0.99093607 0.0019607346 0)
(1.0021014 0.0032059229 0)
(1.01116 0.0038271823 0)
(1.0130477 0.004509453 0)
(1.0124533 0.0043834637 0)
(1.0129152 0.0046378149 0)
(1.0132735 0.0043904047 0)
(1.0130139 0.0043250154 0)
(1.0125026 0.0038642983 0)
(1.0119406 0.0034816006 0)
(1.0114093 0.0028245847 0)
(1.0109871 0.0021828231 0)
(1.0106885 0.0014450688 0)
(1.0105329 0.00073657476 0)
(1.0105087 5.9981833e-05 0)
(1.0106038 -0.00053004051 0)
(1.0107854 -0.0010028178 0)
(1.0110257 -0.0013305966 0)
(1.0112775 -0.0015009798 0)
(1.0114959 -0.0015192538 0)
(1.0116397 -0.0014070573 0)
(1.0116839 -0.0011989322 0)
(1.0116178 -0.00093658728 0)
(1.0114507 -0.00066103002 0)
(1.0112053 -0.0004080469 0)
(1.0109164 -0.00020393699 0)
(1.0106254 -6.393083e-05 0)
(1.010378 7.6684576e-06 0)
(1.010222 1.5723597e-05 0)
(0.88186979 -7.9745573e-06 -7.4975582e-24)
(0.89879003 0.00014417874 -2.2617955e-23)
(0.91621491 0.00028411558 -1.5774926e-23)
(0.93379593 0.00066637864 -2.4073786e-23)
(0.95108082 0.00078273237 -3.0194999e-23)
(0.96679965 0.0013469425 0)
(0.98076493 0.0019682402 0)
(0.99196636 0.0024936862 0)
(1.0033259 0.0039725465 0)
(1.0114678 0.0044075029 0)
(1.0123682 0.0047820061 0)
(1.0118703 0.004606374 0)
(1.0124128 0.0047552552 0)
(1.0126957 0.0044343783 0)
(1.0123791 0.0042862401 0)
(1.0118549 0.0037168788 0)
(1.0113267 0.0032222607 0)
(1.0108636 0.0024690163 0)
(1.0105319 0.0017511742 0)
(1.0103354 0.00096555138 0)
(1.0102855 0.00023189901 0)
(1.0103678 -0.0004451056 0)
(1.0105624 -0.0010106793 0)
(1.0108342 -0.0014376617 0)
(1.0111457 -0.0017004423 0)
(1.0114476 -0.0017945601 0)
(1.0116901 -0.0017328308 0)
(1.0118367 -0.0015448894 0)
(1.0118639 -0.0012721392 0)
(1.0117694 -0.00095968366 0)
(1.0115671 -0.00065020487 0)
(1.0112863 -0.00037815526 0)
(1.0109652 -0.00016764752 0)
(1.0106481 -3.0670154e-05 0)
(1.0103815 3.1171311e-05 0)
(1.0102139 2.4427076e-05 0)
(0.86756296 -3.5861192e-05 9.3973648e-24)
(0.88273562 3.8656866e-05 3.9649095e-23)
(0.8993938 0.00025656716 0)
(0.91704416 0.00041804412 8.422199e-23)
(0.93478943 0.00078414337 3.0044159e-23)
(0.95226545 0.00090296614 4.5401864e-23)
(0.96796527 0.001767873 2.3293906e-23)
(0.98195906 0.0025872405 0)
(0.99306441 0.0031137724 0)
(1.0045551 0.0046221125 0)
(1.0115571 0.0048007965 0)
(1.0116309 0.0049524938 0)
(1.0112969 0.0047400916 0)
(1.011881 0.0048248042 0)
(1.0120689 0.0044217035 0)
(1.0116968 0.0041667933 0)
(1.0111875 0.0034734085 0)
(1.0107213 0.0028646198 0)
(1.0103467 0.0020282224 0)
(1.0101185 0.0012464555 0)
(1.0100313 0.0004278353 0)
(1.0100932 -0.00031902022 0)
(1.0102841 -0.00098178645 0)
(1.0105798 -0.001510278 0)
(1.0109378 -0.0018772872 0)
(1.0113158 -0.0020638947 0)
(1.0116574 -0.002072608 0)
(1.0119155 -0.0019253443 0)
(1.0120532 -0.0016599398 0)
(1.0120556 -0.0013232277 0)
(1.011925 -0.00096399644 0)
(1.0116833 -0.00062442751 0)
(1.0113643 -0.00033756328 0)
(1.0110096 -0.00012433633 0)
(1.0106663 7.1931391e-06 0)
(1.0103807 5.6777495e-05 0)
(1.0102016 3.3728836e-05 0)
(0.85552698 -7.0789375e-05 -9.6963281e-27)
(0.86820252 -9.0732498e-06 -9.2847631e-24)
(0.88322015 0.00015406319 1.689855e-23)
(0.90013733 0.00036608247 -3.3324875e-23)
(0.91805565 0.00046390399 -6.2396504e-23)
(0.93601271 0.00092355908 4.0721305e-23)
(0.95359776 0.0011885796 1.6244044e-22)
(0.96916078 0.0024048904 -2.9126427e-23)
(0.98316186 0.0032206354 0)
(0.99430774 0.0037102027 0)
(1.005715 0.0050895246 0)
(1.0113325 0.0050484499 0)
(1.010897 0.0050905504 0)
(1.0107169 0.0048188394 0)
(1.0113008 0.0048510163 0)
(1.0113751 0.0043299417 0)
(1.0109818 0.0039432063 0)
(1.0105228 0.0031209371 0)
(1.0101428 0.0024117552 0)
(1.0098715 0.0015058787 0)
(1.0097545 0.00067595787 0)
(1.0097832 -0.00016381481 0)
(1.0099598 -0.00090963397 0)
(1.0102628 -0.0015455116 0)
(1.0106576 -0.0020218132 0)
(1.0110989 -0.002316031 0)
(1.011534 -0.0024148741 0)
(1.0119067 -0.0023302467 0)
(1.0121676 -0.0020933535 0)
(1.0122875 -0.0017496644 0)
(1.0122554 -0.0013516179 0)
(1.0120831 -0.0009491665 0)
(1.0117976 -0.00058428072 0)
(1.011438 -0.00028686765 0)
(1.0110496 -7.4164041e-05 0)
(1.0106797 4.8528619e-05 0)
(1.0103755 8.4256586e-05 0)
(1.0101853 4.351567e-05 0)
(0.84569509 -7.8655818e-05 -3.7754326e-24)
(0.85591064 -4.822372e-05 4.2187504e-24)
(0.86856108 0.00010301332 0)
(0.88383546 0.00022856039 -2.5497001e-23)
(0.90107206 0.00037014633 -7.3499372e-24)
(0.91930751 0.00053059315 0)
(0.93738935 0.0012464456 -1.1564488e-22)
(0.95496632 0.001689907 -1.3275352e-22)
(0.97035081 0.003100113 0)
(0.98445304 0.0037102623 0)
(0.99578701 0.0041320937 0)
(1.0067911 0.0054234386 0)
(1.0108939 0.0051624097 0)
(1.0101711 0.0052170545 0)
(1.0100956 0.0048673168 0)
(1.0106398 0.0048045375 0)
(1.0106293 0.0041255078 0)
(1.0102625 0.0035977366 0)
(1.0098835 0.0026630908 0)
(1.0096058 0.0018688274 0)
(1.0094463 0.00091056057 0)
(1.0094468 4.4453944e-05 0)
(1.009595 -0.00080287107 0)
(1.0098911 -0.001535566 0)
(1.0103064 -0.0021294217 0)
(1.0107993 -0.0025398534 0)
(1.0113165 -0.002747166 0)
(1.0118008 -0.0027477393 0)
(1.0121915 -0.0025629225 0)
(1.012445 -0.0022334835 0)
(1.0125351 -0.0018127421 0)
(1.0124612 -0.0013563528 0)
(1.0122408 -0.00091578246 0)
(1.0119083 -0.00053030745 0)
(1.0115068 -0.00022679125 0)
(1.0110841 -1.8128251e-05 0)
(1.0106881 9.3523683e-05 0)
(1.0103658 0.0001132598 0)
(1.0101649 5.3689662e-05 0)
(0.83885818 -8.714934e-05 0)
(0.84574705 -5.4226226e-05 0)
(0.85610758 6.4352975e-05 -4.3519612e-24)
(0.86902709 0.00013691883 0)
(0.88465432 0.00018229498 -3.7162209e-24)
(0.90223821 0.00038374517 5.8294901e-23)
(0.92073421 0.0007956416 2.8138173e-22)
(0.93880426 0.0017951914 2.5584486e-22)
(0.95634823 0.0022453976 0)
(0.97163364 0.0036599193 0)
(0.98598251 0.0039830662 0)
(0.99759989 0.0044164183 0)
(1.0078502 0.0056828438 0)
(1.0103319 0.0052130408 0)
(1.0093715 0.0053247918 0)
(1.0094017 0.0048497286 0)
(1.0099107 0.0046378647 0)
(1.0098689 0.0037853603 0)
(1.0095674 0.0031346623 0)
(1.0092863 0.0021073247 0)
(1.0091197 0.0012457088 0)
(1.0090775 0.00024777429 0)
(1.0091994 -0.00064159138 0)
(1.0094724 -0.0014859228 0)
(1.0098905 -0.002190692 0)
(1.0104199 -0.0027280343 0)
(1.0110056 -0.0030570626 0)
(1.011592 -0.0031644528 0)
(1.0121128 -0.0030567522 0)
(1.0125103 -0.0027661662 0)
(1.0127426 -0.0023433845 0)
(1.0127939 -0.0018475012 0)
(1.0126694 -0.0013377949 0)
(1.0123965 -0.0008640608 0)
(1.0120142 -0.00046340886 0)
(1.0115699 -0.00015795756 0)
(1.011113 4.3379509e-05 0)
(1.0106915 0.00014113051 0)
(1.0103517 0.00014357154 0)
(1.0101407 6.4212048e-05 0)
(0.8384341 -4.2233888e-05 -5.5194027e-25)
(0.83880797 1.0113289e-05 0)
(0.84569527 6.9514809e-05 -1.1489045e-23)
(0.85633554 7.1302503e-05 -1.7572688e-23)
(0.86971082 4.2804044e-05 -1.0328707e-23)
(0.88569556 0.00013751871 1.9762888e-23)
(0.90358071 0.0005995925 8.7565004e-24)
(0.92221553 0.0013077379 3.5251819e-23)
(0.94025081 0.0023892394 -3.3584387e-22)
(0.95783828 0.0026642257 0)
(0.97315832 0.0039421345 -3.4550736e-22)
(0.98786437 0.0041142146 0)
(0.99964542 0.0046532823 0)
(1.0087092 0.0059273761 0)
(1.009587 0.0052887151 0)
(1.0084487 0.0053639678 0)
(1.0086493 0.0047018218 0)
(1.0091581 0.0043178056 0)
(1.0091295 0.0033147309 0)
(1.0089158 0.0025647746 0)
(1.0087413 0.001465367 0)
(1.0086902 0.00054957729 0)
(1.0087685 -0.00047569648 0)
(1.0090172 -0.001379283 0)
(1.0094195 -0.0022074616 0)
(1.0099639 -0.002869903 0)
(1.010605 -0.003333932 0)
(1.011279 -0.0035664297 0)
(1.0119231 -0.0035608561 0)
(1.0124688 -0.0033362464 0)
(1.0128581 -0.0029363947 0)
(1.013058 -0.0024204932 0)
(1.0130591 -0.0018537857 0)
(1.012878 -0.0012957078 0)
(1.0125478 -0.00079514013 0)
(1.012114 -0.00038434848 0)
(1.0116266 -8.1223733e-05 0)
(1.011136 0.00010934659 0)
(1.0106897 0.00019132822 0)
(1.0103334 0.00017489514 0)
(1.0101128 7.4967192e-05 0)
(0.83814797 9.2335554e-05 1.0225694e-23)
(0.83839133 0.0001062894 0)
(0.84558774 -1.5697656e-07 -3.7501714e-24)
(0.84557294 6.5124778e-05 1.7563418e-23)
(0.8567378 -5.7396669e-05 4.0908153e-24)
(0.87058336 -4.2914105e-05 1.208831e-22)
(0.88691639 0.00030549938 -2.2473828e-22)
(0.90497807 0.0010660973 -1.0337774e-22)
(0.92374069 0.0018718951 -3.126833e-22)
(0.94181407 0.0028118317 -1.2268087e-22)
(0.95958447 0.0028041938 -4.5253312e-22)
(0.97502007 0.0040555118 3.592613e-22)
(0.99006735 0.0042335665 0)
(1.0016899 0.0049859644 0)
(1.0090435 0.006175932 0)
(1.0085756 0.0053427012 0)
(1.0074478 0.0052479603 0)
(1.0078938 0.0043776478 0)
(1.0084241 0.0038531206 0)
(1.0084327 0.0027284571 0)
(1.0083186 0.0019017746 0)
(1.0082537 0.0007461843 0)
(1.0083194 -0.00021234251 0)
(1.0085233 -0.0012574703 0)
(1.0089045 -0.002164601 0)
(1.0094429 -0.0029636083 0)
(1.010115 -0.0035663654 0)
(1.0108654 -0.003939792 0)
(1.0116188 -0.0040602201 0)
(1.0123094 -0.0039296569 0)
(1.0128642 -0.0035812182 0)
(1.013232 -0.0030699041 0)
(1.0133859 -0.002463782 0)
(1.0133285 -0.0018307915 0)
(1.0130837 -0.0012312846 0)
(1.0126934 -0.00070962645 0)
(1.0122067 -0.0002941532 0)
(1.0116764 2.4972744e-06 0)
(1.0111528 0.00017930861 0)
(1.0106829 0.00024331106 0)
(1.010311 0.00020700473 0)
(1.0100815 8.5889969e-05 0)
(0.83777583 7.74778e-05 4.6411639e-24)
(0.83810779 0.0002267792 1.3299744e-23)
(0.84564879 0.00011495834 0)
(0.85537787 -6.4762985e-06 -5.6385486e-27)
(0.84557115 -7.8970216e-05 -5.4000501e-24)
(0.85722651 -0.00018554407 -6.644965e-23)
(0.87160095 9.2189146e-05 0)
(0.88822663 0.00074071688 1.0268818e-22)
(0.90643426 0.0015813534 -1.5816946e-22)
(0.92538744 0.0022525738 1.2110069e-22)
(0.94362271 0.002909474 5.634687e-22)
(0.96170391 0.002759519 4.6979372e-22)
(0.9772017 0.004155795 0)
(0.99244948 0.0044760127 0)
(1.003437 0.0054494528 0)
(1.008812 0.0063231292 0)
(1.0073937 0.0052692923 0)
(1.0064632 0.0049343202 0)
(1.0071854 0.0038927052 0)
(1.0077297 0.0032646758 0)
(1.0077912 0.0020436825 0)
(1.0077804 0.0011574386 0)
(1.0078237 -4.1333137e-05 0)
(1.008009 -0.0010382536 0)
(1.0083456 -0.0020950952 0)
(1.0088682 -0.002995065 0)
(1.0095479 -0.0037482984 0)
(1.0103494 -0.0042734335 0)
(1.0112016 -0.0045379299 0)
(1.0120256 -0.0045303913 0)
(1.0127469 -0.0042642381 0)
(1.013296 -0.0037866544 0)
(1.0136263 -0.0031644833 0)
(1.0137231 -0.0024717048 0)
(1.0135976 -0.0017794602 0)
(1.0132847 -0.0011448562 0)
(1.0128314 -0.00060894903 0)
(1.0122916 -0.00019389029 0)
(1.0117189 9.219303e-05 0)
(1.0111636 0.00025244973 0)
(1.0106711 0.00029693658 0)
(1.0102846 0.00023964517 0)
(1.0100469 9.689609e-05 0)
(0.83766215 -0.00010430544 -6.773713e-24)
(0.83775822 0.00018593399 -4.6435211e-24)
(0.84563758 0.00024523918 -1.1467557e-23)
(0.85575035 0.00010174074 -4.1882422e-24)
(0.86736791 -4.0784268e-05 1.3061623e-23)
(0.84567491 -0.00022342687 6.7705768e-23)
(0.85782943 -8.6369119e-05 4.9317573e-23)
(0.87265456 0.0005029106 0)
(0.88961511 0.0012351773 1.6240435e-22)
(0.9080001 0.0019062387 -5.4188492e-23)
(0.92726412 0.0022738525 0)
(0.94579232 0.0028051014 -6.7097538e-22)
(0.96417976 0.0026985353 0)
(0.97961111 0.004394753 0)
(0.99488618 0.0048726574 0)
(1.0047981 0.0059089591 0)
(1.0080044 0.0062035589 0)
(1.0061524 0.00496678 0)
(1.0055753 0.0044417029 0)
(1.0065417 0.003283576 0)
(1.0070859 0.0025703995 0)
(1.0072104 0.0012759633 0)
(1.0072991 0.00034361891 0)
(1.0074501 -0.00089526333 0)
(1.007762 -0.0019277312 0)
(1.0082423 -0.0029886924 0)
(1.0089151 -0.0038663121 0)
(1.0097418 -0.0045557532 0)
(1.0106698 -0.0049825567 0)
(1.0116163 -0.0051201586 0)
(1.0124967 -0.0049689366 0)
(1.0132332 -0.0045580358 0)
(1.0137584 -0.0039487448 0)
(1.0140373 -0.0032175649 0)
(1.0140645 -0.002444561 0)
(1.0138642 -0.001699774 0)
(1.0134783 -0.0010381561 0)
(1.0129608 -0.00049407127 0)
(1.012368 -8.4782149e-05 0)
(1.011754 0.00018698635 0)
(1.0111682 0.00032821787 0)
(1.0106547 0.00035154739 0)
(1.0102546 0.00027261642 0)
(1.0100093 0.00010793077 0)
(0.83771332 -0.00030507951 4.0596916e-24)
(0.8376511 -3.3872685e-05 6.780402e-24)
(0.84555497 0.00019440179 1.7590404e-23)
(0.85602623 0.00023892795 4.3205458e-24)
(0.86798216 5.698921e-05 -1.295287e-23)
(0.88161467 -6.5595104e-05 -7.4337068e-24)
(0.84600695 -0.00013939283 -1.0701883e-22)
(0.85847635 0.00030282021 -6.5521528e-23)
(0.87373785 0.00097429734 -1.9618101e-22)
(0.8910838 0.001540622 6.4980162e-23)
(0.90975835 0.0018507986 -6.6870866e-22)
(0.92947188 0.0020669325 2.9458196e-22)
(0.94831556 0.0026794689 0)
(0.96690987 0.0027811273 -5.6750295e-22)
(0.98210858 0.0048276594 9.8622879e-22)
(0.99719708 0.0052766409 0)
(1.0056809 0.0061749345 0)
(1.0069726 0.0058254584 0)
(1.0049144 0.0044441643 0)
(1.0048201 0.0038148627 0)
(1.0059627 0.0025684514 0)