/*--------------------------------*- C++ -*----------------------------------*\
| =========                 |                                                 |
| \\      /  F ield         | OpenFOAM: The Open Source CFD Toolbox           |
|  \\    /   O peration     | Version:  5.0                                   |
|   \\  /    A nd           | Web:      www.OpenFOAM.org                      |
|    \\/     M anipulation  |                                                 |
\*---------------------------------------------------------------------------*/
FoamFile
{
    version     2.0;
    format      ascii;
    class       volSymmTensorField;
    location    "400";
    object      UPrime2Mean;
}
// * * * * * * * * * * * * * * * * * * * * * * * * * * * * * * * * * * * * * //

dimensions      [0 2 -2 0 0 0 0];

internalField   nonuniform List<symmTensor> 
9520
(
(2.3067844e-05 5.7307628e-07 0 1.8460833e-08 0 0)
(2.3326695e-05 1.6831744e-06 0 1.5878581e-07 0 0)
(1.9793056e-05 5.3509453e-07 0 1.8860087e-08 0 0)
(2.3793561e-05 2.7233911e-06 0 4.1339017e-07 0 0)
(2.0061298e-05 1.5734617e-06 0 1.6223921e-07 0 0)
(1.8546837e-05 5.2382661e-07 0 1.9238874e-08 0 0)
(2.4436918e-05 3.6972824e-06 0 7.568652e-07 0 0)
(2.0549352e-05 2.5514842e-06 0 4.2264975e-07 0 0)
(1.88163e-05 1.5418555e-06 0 1.6562111e-07 0 0)
(1.6610562e-05 5.0455819e-07 0 2.0030318e-08 0 0)
(2.5232485e-05 4.6072776e-06 0 1.1669346e-06 0 0)
(2.1227585e-05 3.4745446e-06 0 7.745974e-07 0 0)
(1.9306667e-05 2.5037156e-06 0 4.3181143e-07 0 0)
(1.6878724e-05 1.4869142e-06 0 1.725449e-07 0 0)
(1.5184725e-05 4.9021504e-07 0 2.07822e-08 0 0)
(2.615811e-05 5.4539994e-06 0 1.6243681e-06 0 0)
(2.2074277e-05 4.3462066e-06 0 1.1958034e-06 0 0)
(1.9989945e-05 3.4158859e-06 0 7.9221212e-07 0 0)
(1.736913e-05 2.4200284e-06 0 4.5052317e-07 0 0)
(1.5449059e-05 1.4461408e-06 0 1.7919936e-07 0 0)
(1.3652563e-05 4.7480342e-07 0 2.179352e-08 0 0)
(2.7191699e-05 6.2375408e-06 0 2.1128923e-06 0 0)
(2.3069814e-05 5.1679139e-06 0 1.6670391e-06 0 0)
(2.0845663e-05 4.2825793e-06 0 1.2244764e-06 0 0)
(1.8055594e-05 3.3119236e-06 0 8.2815501e-07 0 0)
(1.5934005e-05 2.3581031e-06 0 4.6859564e-07 0 0)
(1.3909076e-05 1.4020993e-06 0 1.8812696e-07 0 0)
(1.233342e-05 4.5967464e-07 0 2.2720442e-08 0 0)
(2.8311297e-05 6.9571443e-06 0 2.6188581e-06 0 0)
(2.4194721e-05 5.940222e-06 0 2.1721625e-06 0 0)
(2.1855374e-05 5.1055769e-06 0 1.7092168e-06 0 0)
(1.891967e-05 4.1682855e-06 0 1.2831332e-06 0 0)
(1.6615037e-05 3.2355447e-06 0 8.6304655e-07 0 0)
(1.4380799e-05 2.29106e-06 0 4.9290133e-07 0 0)
(1.2581767e-05 1.3587656e-06 0 1.9633859e-07 0 0)
(1.1032054e-05 4.4359143e-07 0 2.3795334e-08 0 0)
(2.9494781e-05 7.6120711e-06 0 3.1318429e-06 0 0)
(2.5429622e-05 6.6623923e-06 0 2.6978327e-06 0 0)
(2.3000879e-05 5.8855789e-06 0 2.2298881e-06 0 0)
(1.9944926e-05 4.9918316e-06 0 1.796289e-06 0 0)
(1.7475736e-05 4.0854252e-06 0 1.3402467e-06 0 0)
(1.5045223e-05 3.1527469e-06 0 9.1018894e-07 0 0)
(1.3039413e-05 2.224447e-06 0 5.1536312e-07 0 0)
(1.1268189e-05 1.3126282e-06 0 2.0584312e-07 0 0)
(9.87195e-06 4.25572e-07 0 2.4776763e-08 0 0)
(3.0720994e-05 8.2016156e-06 0 3.6426393e-06 0 0)
(2.675463e-05 7.3328639e-06 0 3.2325296e-06 0 0)
(2.4263953e-05 6.6219854e-06 0 2.7723094e-06 0 0)
(2.1115189e-05 5.7838811e-06 0 2.351306e-06 0 0)
(1.8501493e-05 4.9111611e-06 0 1.8810615e-06 0 0)
(1.5887859e-05 3.9953647e-06 0 1.4179402e-06 0 0)
(1.3685443e-05 3.0691926e-06 0 9.5399998e-07 0 0)
(1.1703596e-05 2.1529732e-06 0 5.4137408e-07 0 0)
(1.0095979e-05 1.2607285e-06 0 2.1452162e-07 0 0)
(8.7662403e-06 4.054473e-07 0 2.5823275e-08 0 0)
(3.1969196e-05 8.7233435e-06 0 4.1466358e-06 0 0)
(2.814937e-05 7.9487127e-06 0 3.7660257e-06 0 0)
(2.5626374e-05 7.3141129e-06 0 3.3262933e-06 0 0)
(2.2414084e-05 6.5440596e-06 0 2.9342184e-06 0 0)
(1.9677469e-05 5.7144941e-06 0 2.469136e-06 0 0)
(1.6896483e-05 4.8233576e-06 0 1.9973417e-06 0 0)
(1.4507177e-05 3.9021437e-06 0 1.4906189e-06 0 0)
(1.2319934e-05 2.9782612e-06 0 1.0047864e-06 0 0)
(1.0509801e-05 2.0716269e-06 0 5.651926e-07 0 0)
(8.9751025e-06 1.2024137e-06 0 2.2380572e-07 0 0)
(7.781222e-06 3.831208e-07 0 2.6734797e-08 0 0)
(3.3221573e-05 9.1823955e-06 0 4.6386086e-06 0 0)
(2.9595742e-05 8.5078366e-06 0 4.2953086e-06 0 0)
(2.7070043e-05 7.9601014e-06 0 3.8822822e-06 0 0)
(2.3824098e-05 7.270847e-06 0 3.5330812e-06 0 0)
(2.0987971e-05 6.4953452e-06 0 3.0904464e-06 0 0)
(1.8058335e-05 5.6392335e-06 0 2.6323234e-06 0 0)
(1.5494323e-05 4.7286997e-06 0 2.1067111e-06 0 0)
(1.3106361e-05 3.7983673e-06 0 1.5750332e-06 0 0)
(1.1097163e-05 2.8728135e-06 0 1.0515327e-06 0 0)
(9.361546e-06 1.9791928e-06 0 5.907877e-07 0 0)
(7.9753801e-06 1.1372142e-06 0 2.3193043e-07 0 0)
(6.8656683e-06 3.5919098e-07 0 2.7600874e-08 0 0)
(3.446549e-05 9.5772443e-06 0 5.1371276e-06 0 0)
(3.1104833e-05 9.0149998e-06 0 4.8136869e-06 0 0)
(2.8575993e-05 8.5578486e-06 0 4.4348617e-06 0 0)
(2.5328142e-05 7.9632921e-06 0 4.1379156e-06 0 0)
(2.2415888e-05 7.253126e-06 0 3.7334462e-06 0 0)
(1.9359566e-05 6.4433441e-06 0 3.3089965e-06 0 0)
(1.6635646e-05 5.5519832e-06 0 2.7864341e-06 0 0)
(1.4054501e-05 4.6197644e-06 0 2.2342475e-06 0 0)
(1.1848644e-05 3.6748364e-06 0 1.653206e-06 0 0)
(9.9117021e-06 2.7507891e-06 0 1.1019642e-06 0 0)
(8.3356253e-06 1.8746542e-06 0 6.1332656e-07 0 0)
(7.0438414e-06 1.0667975e-06 0 2.3972496e-07 0 0)
(6.0582603e-06 3.3438171e-07 0 2.8252668e-08 0 0)
(3.5686507e-05 9.9053059e-06 0 5.6004055e-06 0 0)
(3.2639992e-05 9.4478222e-06 0 5.323155e-06 0 0)
(3.0123838e-05 9.103816e-06 0 4.9758303e-06 0 0)
(2.6922989e-05 8.6224742e-06 0 4.742206e-06 0 0)
(2.3944653e-05 7.9876216e-06 0 4.3887521e-06 0 0)
(2.0785148e-05 7.2351665e-06 0 4.0159215e-06 0 0)
(1.791883e-05 6.3728978e-06 0 3.5162196e-06 0 0)
(1.5155253e-05 5.446539e-06 0 2.9670751e-06 0 0)
(1.2757069e-05 4.4849534e-06 0 2.3530462e-06 0 0)
(1.0617944e-05 3.5283669e-06 0 1.7377467e-06 0 0)
(8.8500387e-06 2.6106853e-06 0 1.1467918e-06 0 0)
(7.3754501e-06 1.760621e-06 0 6.3520081e-07 0 0)
(6.22186e-06 9.9335523e-07 0 2.4566154e-07 0 0)
(5.3219945e-06 3.0910892e-07 0 2.8764442e-08 0 0)
(3.6868754e-05 1.0157097e-05 0 6.1084418e-06 0 0)
(3.4133067e-05 9.8330344e-06 0 5.8248087e-06 0 0)
(3.1679836e-05 9.6014211e-06 0 5.5232352e-06 0 0)
(2.8595841e-05 9.2482684e-06 0 5.3354742e-06 0 0)
(2.5547286e-05 8.6966202e-06 0 5.0503325e-06 0 0)
(2.2321802e-05 8.0141745e-06 0 4.7431555e-06 0 0)
(1.9329992e-05 7.1910526e-06 0 4.2849025e-06 0 0)
(1.6399039e-05 6.2803449e-06 0 3.7601665e-06 0 0)
(1.3814326e-05 5.3078232e-06 0 3.136277e-06 0 0)
(1.1473818e-05 4.3196144e-06 0 2.4818681e-06 0 0)
(9.5124532e-06 3.3571119e-06 0 1.8137307e-06 0 0)
(7.8504047e-06 2.4557513e-06 0 1.1907778e-06 0 0)
(6.5271379e-06 1.6406589e-06 0 6.5213276e-07 0 0)
(5.471134e-06 9.1821166e-07 0 2.5041335e-07 0 0)
(4.6790317e-06 2.8391801e-07 0 2.903169e-08 0 0)
(3.8007688e-05 1.0358938e-05 0 6.5538433e-06 0 0)
(3.5665873e-05 1.014732e-05 0 6.3617945e-06 0 0)
(3.3257545e-05 1.0055065e-05 0 6.0486207e-06 0 0)
(3.0278521e-05 9.8212129e-06 0 5.9259298e-06 0 0)
(2.7216551e-05 9.3811017e-06 0 5.7131174e-06 0 0)
(2.3963054e-05 8.7786379e-06 0 5.4830474e-06 0 0)
(2.0851994e-05 8.003106e-06 0 5.0836379e-06 0 0)
(1.7775694e-05 7.1211248e-06 0 4.6022114e-06 0 0)
(1.5011354e-05 6.1456298e-06 0 3.989925e-06 0 0)
(1.2473105e-05 5.1299595e-06 0 3.3203629e-06 0 0)
(1.0317734e-05 4.1219797e-06 0 2.598955e-06 0 0)
(8.46424e-06 3.164352e-06 0 1.888959e-06 0 0)
(6.9653336e-06 2.2910246e-06 0 1.2255338e-06 0 0)
(5.7499425e-06 1.5170181e-06 0 6.6606795e-07 0 0)
(4.8157086e-06 8.4319933e-07 0 2.5300166e-07 0 0)
(4.1026686e-06 2.5860302e-07 0 2.9136142e-08 0 0)
(3.9089244e-05 1.0455128e-05 0 7.1385545e-06 0 0)
(3.7203756e-05 1.0433059e-05 0 6.8705481e-06 0 0)
(3.4890068e-05 1.044808e-05 0 6.6102619e-06 0 0)
(3.1955626e-05 1.0349104e-05 0 6.5148554e-06 0 0)
(2.8924371e-05 1.0026835e-05 0 6.3896626e-06 0 0)
(2.5679164e-05 9.5241044e-06 0 6.2363881e-06 0 0)
(2.2474374e-05 8.8070432e-06 0 5.9085854e-06 0 0)
(1.9277949e-05 7.9676647e-06 0 5.483301e-06 0 0)
(1.6337568e-05 6.9985026e-06 0 4.9024543e-06 0 0)
(1.3608881e-05 5.9626214e-06 0 4.2407846e-06 0 0)
(1.1260146e-05 4.9108346e-06 0 3.4894642e-06 0 0)
(9.2130502e-06 3.8945263e-06 0 2.7157954e-06 0 0)
(7.5333472e-06 2.9566765e-06 0 1.9498406e-06 0 0)
(6.1513106e-06 2.1196272e-06 0 1.2549325e-06 0 0)
(5.0713437e-06 1.3929885e-06 0 6.7414876e-07 0 0)
(4.2274918e-06 7.6773721e-07 0 2.5417141e-07 0 0)
(3.6054424e-06 2.3347726e-07 0 2.9024456e-08 0 0)
(4.0098934e-05 1.0576268e-05 0 7.7078471e-06 0 0)
(3.8813425e-05 1.056773e-05 0 7.5262541e-06 0 0)
(3.6558623e-05 1.0798141e-05 0 7.1387569e-06 0 0)
(3.3696332e-05 1.0832882e-05 0 7.1601396e-06 0 0)
(3.0667862e-05 1.0629178e-05 0 7.0782145e-06 0 0)
(2.7451796e-05 1.0229031e-05 0 7.0129557e-06 0 0)
(2.4196251e-05 9.59988e-06 0 6.756628e-06 0 0)
(2.0892852e-05 8.816808e-06 0 6.3973936e-06 0 0)
(1.7781909e-05 7.8653851e-06 0 5.8643447e-06 0 0)
(1.4873188e-05 6.8193602e-06 0 5.2317721e-06 0 0)
(1.2332382e-05 5.7268754e-06 0 4.4736791e-06 0 0)
(1.0092541e-05 4.6521079e-06 0 3.6595274e-06 0 0)
(8.228947e-06 3.6457946e-06 0 2.8126409e-06 0 0)
(6.6734775e-06 2.7379332e-06 0 2.0026544e-06 0 0)
(5.4399501e-06 1.9464835e-06 0 1.2731431e-06 0 0)
(4.4609333e-06 1.2676192e-06 0 6.7851917e-07 0 0)
(3.7203771e-06 6.9290559e-07 0 2.5341109e-07 0 0)
(3.1694125e-06 2.0825316e-07 0 2.8758928e-08 0 0)
(4.1045216e-05 1.0397184e-05 0 8.4596577e-06 0 0)
(4.0445839e-05 1.0782986e-05 0 8.23278e-06 0 0)
(3.8319087e-05 1.1020951e-05 0 7.865125e-06 0 0)
(3.5493149e-05 1.1266807e-05 0 7.8001572e-06 0 0)
(3.2505512e-05 1.1183762e-05 0 7.8364245e-06 0 0)
(2.9274995e-05 1.0891317e-05 0 7.8268059e-06 0 0)
(2.6002707e-05 1.0360242e-05 0 7.6417358e-06 0 0)
(2.2615247e-05 9.6626528e-06 0 7.3426991e-06 0 0)
(1.9341114e-05 8.7464434e-06 0 6.8684969e-06 0 0)
(1.6256386e-05 7.7004817e-06 0 6.2827371e-06 0 0)
(1.3524665e-05 6.5715277e-06 0 5.5409364e-06 0 0)
(1.1097171e-05 5.4407878e-06 0 4.7097301e-06 0 0)
(9.0489987e-06 4.3643184e-06 0 3.8034637e-06 0 0)
(7.3157581e-06 3.380194e-06 0 2.8984193e-06 0 0)
(5.920694e-06 2.5148669e-06 0 2.0375648e-06 0 0)
(4.7985754e-06 1.7702824e-06 0 1.2845005e-06 0 0)
(3.935274e-06 1.1430585e-06 0 6.7759405e-07 0 0)
(3.2751782e-06 6.1768009e-07 0 2.5131239e-07 0 0)
(2.8004908e-06 1.8343835e-07 0 2.8307686e-08 0 0)
(4.1696284e-05 1.0502357e-05 0 9.5366729e-06 0 0)
(4.2485816e-05 1.0440871e-05 0 9.2315105e-06 0 0)
(4.0251135e-05 1.1283866e-05 0 8.6401192e-06 0 0)
(3.7456666e-05 1.1601963e-05 0 8.706753e-06 0 0)
(3.441852e-05 1.1672541e-05 0 8.6397394e-06 0 0)
(3.1236564e-05 1.1503855e-05 0 8.7364343e-06 0 0)
(2.7884844e-05 1.1080035e-05 0 8.5817677e-06 0 0)
(2.44391e-05 1.048917e-05 0 8.3320529e-06 0 0)
(2.1012405e-05 9.6385502e-06 0 7.9108874e-06 0 0)
(1.7748539e-05 8.6058187e-06 0 7.386167e-06 0 0)
(1.4827544e-05 7.4458374e-06 0 6.681762e-06 0 0)
(1.2219356e-05 6.2626382e-06 0 5.8568177e-06 0 0)
(9.9886718e-06 5.1157323e-06 0 4.913024e-06 0 0)
(8.076314e-06 4.0526341e-06 0 3.9331792e-06 0 0)
(6.5140091e-06 3.1064087e-06 0 2.9584783e-06 0 0)
(5.2404584e-06 2.2859961e-06 0 2.0617294e-06 0 0)
(4.2467194e-06 1.5945097e-06 0 1.2856135e-06 0 0)
(3.4730962e-06 1.0173387e-06 0 6.7313483e-07 0 0)
(2.8989133e-06 5.436388e-07 0 2.475654e-07 0 0)
(2.4864675e-06 1.591055e-07 0 2.7705146e-08 0 0)
(4.2340166e-05 9.6561095e-06 0 1.0532874e-05 0 0)
(4.4517839e-05 1.1004476e-05 0 1.0890291e-05 0 0)
(4.2743752e-05 1.1012929e-05 0 9.9363331e-06 0 0)
(3.9708255e-05 1.1895765e-05 0 9.7365971e-06 0 0)
(3.6627946e-05 1.206824e-05 0 9.8091214e-06 0 0)
(3.3339829e-05 1.2035495e-05 0 9.7594946e-06 0 0)
(2.99448e-05 1.1751564e-05 0 9.6469331e-06 0 0)
(2.6350652e-05 1.1280304e-05 0 9.3866142e-06 0 0)
(2.2792316e-05 1.0531617e-05 0 9.0019974e-06 0 0)
(1.9342435e-05 9.5349282e-06 0 8.5371253e-06 0 0)
(1.6231821e-05 8.3515265e-06 0 7.8899037e-06 0 0)
(1.344903e-05 7.118033e-06 0 7.0925211e-06 0 0)
(1.1041054e-05 5.9014204e-06 0 6.1326676e-06 0 0)
(8.9520345e-06 4.7591757e-06 0 5.0987814e-06 0 0)
(7.2190973e-06 3.7276588e-06 0 4.0283932e-06 0 0)
(5.7877108e-06 2.8230522e-06 0 3.0032482e-06 0 0)
(4.655204e-06 2.0563504e-06 0 2.0691952e-06 0 0)
(3.7610054e-06 1.4160695e-06 0 1.2801624e-06 0 0)
(3.0835576e-06 8.9343546e-07 0 6.6413325e-07 0 0)
(2.578512e-06 4.7075521e-07 0 2.4250679e-07 0 0)
(2.2277101e-06 1.3594263e-07 0 2.693769e-08 0 0)
(4.1436596e-05 9.843917e-06 0 1.2885887e-05 0 0)
(4.7480243e-05 9.1516966e-06 0 1.2661187e-05 0 0)
(4.5479251e-05 1.1509811e-05 0 1.1993731e-05 0 0)
(4.2784156e-05 1.1766996e-05 0 1.1646978e-05 0 0)
(3.9329842e-05 1.237326e-05 0 1.1273669e-05 0 0)
(3.5907584e-05 1.2450413e-05 0 1.1265281e-05 0 0)
(3.2281342e-05 1.2333843e-05 0 1.0889115e-05 0 0)
(2.8461223e-05 1.2032953e-05 0 1.0593029e-05 0 0)
(2.4669723e-05 1.1404607e-05 0 1.0165132e-05 0 0)
(2.1039296e-05 1.0482646e-05 0 9.7455832e-06 0 0)
(1.7729907e-05 9.2899707e-06 0 9.1615102e-06 0 0)
(1.4775172e-05 8.0068081e-06 0 8.4125775e-06 0 0)
(1.2198446e-05 6.7210939e-06 0 7.4559802e-06 0 0)
(9.938509e-06 5.5015041e-06 0 6.3874402e-06 0 0)
(8.034099e-06 4.3829958e-06 0 5.2402027e-06 0 0)
(6.440229e-06 3.3883589e-06 0 4.1032968e-06 0 0)
(5.1619274e-06 2.5365554e-06 0 3.0236025e-06 0 0)
(4.1398982e-06 1.8217852e-06 0 2.0662896e-06 0 0)
(3.352948e-06 1.239728e-06 0 1.2658369e-06 0 0)
(2.7518616e-06 7.7085643e-07 0 6.5164371e-07 0 0)
(2.3151969e-06 4.0120527e-07 0 2.3598647e-07 0 0)
(2.0150404e-06 1.1423059e-07 0 2.6029389e-08 0 0)
(3.954703e-05 7.3265067e-06 0 1.4008874e-05 0 0)
(4.8743982e-05 1.0950645e-05 0 1.6863617e-05 0 0)
(5.0062673e-05 9.4359881e-06 0 1.4876867e-05 0 0)
(4.6662751e-05 1.210124e-05 0 1.4522612e-05 0 0)
(4.3172244e-05 1.2252781e-05 0 1.3999882e-05 0 0)
(3.9264446e-05 1.2726893e-05 0 1.3297673e-05 0 0)
(3.5232833e-05 1.2777672e-05 0 1.2745521e-05 0 0)
(3.0965272e-05 1.2702223e-05 0 1.2025914e-05 0 0)
(2.6747074e-05 1.2251642e-05 0 1.1500777e-05 0 0)
(2.2837014e-05 1.1427899e-05 0 1.1038337e-05 0 0)
(1.9322461e-05 1.0257911e-05 0 1.0511011e-05 0 0)
(1.6190442e-05 8.929095e-06 0 9.8173794e-06 0 0)
(1.3453416e-05 7.5736529e-06 0 8.8800875e-06 0 0)
(1.1030486e-05 6.2789039e-06 0 7.793044e-06 0 0)
(8.9561696e-06 5.0745234e-06 0 6.5864142e-06 0 0)
(7.1969363e-06 3.987065e-06 0 5.355999e-06 0 0)
(5.7671974e-06 3.0422004e-06 0 4.145115e-06 0 0)
(4.6110028e-06 2.2419919e-06 0 3.0291165e-06 0 0)
(3.7082143e-06 1.5890268e-06 0 2.048784e-06 0 0)
(3.0059509e-06 1.0641864e-06 0 1.2449102e-06 0 0)
(2.4809063e-06 6.5368703e-07 0 6.3510043e-07 0 0)
(2.0992195e-06 3.3570229e-07 0 2.2822569e-07 0 0)
(1.8449713e-06 9.4487672e-08 0 2.4990906e-08 0 0)
(3.6642966e-05 6.5639587e-06 0 1.8921487e-05 0 0)
(5.218759e-05 5.241998e-06 0 1.9944184e-05 0 0)
(5.3495202e-05 1.1424455e-05 0 2.084666e-05 0 0)
(5.3341226e-05 9.9971506e-06 0 1.9373535e-05 0 0)
(4.8693958e-05 1.2371348e-05 0 1.8195345e-05 0 0)
(4.4212905e-05 1.2554225e-05 0 1.7096976e-05 0 0)
(3.9330316e-05 1.3037781e-05 0 1.5383141e-05 0 0)
(3.4243776e-05 1.3239808e-05 0 1.4191556e-05 0 0)
(2.9290348e-05 1.3041124e-05 0 1.3110171e-05 0 0)
(2.4828467e-05 1.2358389e-05 0 1.253223e-05 0 0)
(2.1017708e-05 1.1233285e-05 0 1.1973555e-05 0 0)
(1.7698465e-05 9.8812213e-06 0 1.1329339e-05 0 0)
(1.4802211e-05 8.4561362e-06 0 1.0410488e-05 0 0)
(1.2224115e-05 7.0882714e-06 0 9.312769e-06 0 0)
(9.9826903e-06 5.8020454e-06 0 8.0606114e-06 0 0)
(8.0561109e-06 4.6224646e-06 0 6.754396e-06 0 0)
(6.4702866e-06 3.579157e-06 0 5.4294441e-06 0 0)
(5.174627e-06 2.6836419e-06 0 4.1672674e-06 0 0)
(4.1503807e-06 1.9478475e-06 0 3.0130778e-06 0 0)
(3.3422548e-06 1.3558274e-06 0 2.0206578e-06 0 0)
(2.7246766e-06 8.9595974e-07 0 1.2159481e-06 0 0)
(2.2595566e-06 5.4269641e-07 0 6.1517702e-07 0 0)
(1.9275773e-06 2.759856e-07 0 2.192896e-07 0 0)
(1.7101729e-06 7.6869413e-08 0 2.3850636e-08 0 0)
(3.8622378e-05 4.0964653e-06 0 2.0533551e-05 0 0)
(5.4389218e-05 6.5334328e-06 0 2.8764606e-05 0 0)
(6.089062e-05 4.0236052e-06 0 2.7525741e-05 0 0)
(6.055087e-05 1.1620852e-05 0 2.812648e-05 0 0)
(5.823115e-05 1.012394e-05 0 2.5730015e-05 0 0)
(5.1986899e-05 1.235797e-05 0 2.3040173e-05 0 0)
(4.5610937e-05 1.2829225e-05 0 2.0336413e-05 0 0)
(3.902255e-05 1.3571023e-05 0 1.7400062e-05 0 0)
(3.2744772e-05 1.372237e-05 0 1.5559564e-05 0 0)
(2.7324679e-05 1.3262385e-05 0 1.4362104e-05 0 0)
(2.2917982e-05 1.2197702e-05 0 1.3682163e-05 0 0)
(1.9320189e-05 1.0836133e-05 0 1.299468e-05 0 0)
(1.625499e-05 9.3620398e-06 0 1.2075652e-05 0 0)
(1.3521114e-05 7.9239109e-06 0 1.0954082e-05 0 0)
(1.1113856e-05 6.5629112e-06 0 9.6586164e-06 0 0)
(9.0163829e-06 5.2960107e-06 0 8.2911125e-06 0 0)
(7.2693435e-06 4.1519961e-06 0 6.8703998e-06 0 0)
(5.8297884e-06 3.1530889e-06 0 5.4785947e-06 0 0)
(4.6798761e-06 2.3226647e-06 0 4.1599984e-06 0 0)
(3.7619897e-06 1.6511122e-06 0 2.9815783e-06 0 0)
(3.0481746e-06 1.131451e-06 0 1.9790569e-06 0 0)
(2.496483e-06 7.3547466e-07 0 1.1804104e-06 0 0)
(2.0858552e-06 4.4137423e-07 0 5.9191109e-07 0 0)
(1.7925041e-06 2.2253075e-07 0 2.0942161e-07 0 0)
(1.6056465e-06 6.1517974e-08 0 2.2635103e-08 0 0)
(3.9374277e-05 3.7422517e-06 0 2.9670647e-05 0 0)
(6.6627762e-05 -1.7525389e-06 0 3.5089002e-05 0 0)
(6.806456e-05 4.9727618e-06 0 4.0776756e-05 0 0)
(7.3498746e-05 2.8702629e-06 0 4.080966e-05 0 0)
(7.1164529e-05 1.0968267e-05 0 3.8583353e-05 0 0)
(6.5190258e-05 9.8385448e-06 0 3.4091342e-05 0 0)
(5.5983125e-05 1.2338358e-05 0 2.8277157e-05 0 0)
(4.6621281e-05 1.3442252e-05 0 2.3484774e-05 0 0)
(3.802875e-05 1.4204532e-05 0 1.9320551e-05 0 0)
(3.0844709e-05 1.4087335e-05 0 1.7159091e-05 0 0)
(2.5352884e-05 1.3153422e-05 0 1.5827001e-05 0 0)
(2.1182798e-05 1.1769077e-05 0 1.4971196e-05 0 0)
(1.7847097e-05 1.0256926e-05 0 1.3935399e-05 0 0)
(1.4942351e-05 8.776605e-06 0 1.2746338e-05 0 0)
(1.2356714e-05 7.3508231e-06 0 1.1385277e-05 0 0)
(1.0079585e-05 6.0066363e-06 0 9.9593308e-06 0 0)
(8.1627283e-06 4.7642367e-06 0 8.4603028e-06 0 0)
(6.5739235e-06 3.656098e-06 0 6.9586198e-06 0 0)
(5.2954798e-06 2.7198548e-06 0 5.4900685e-06 0 0)
(4.2655123e-06 1.955604e-06 0 4.1318858e-06 0 0)
(3.4528407e-06 1.3638322e-06 0 2.9297708e-06 0 0)
(2.8122534e-06 9.1579449e-07 0 1.9265202e-06 0 0)
(2.3205279e-06 5.8868453e-07 0 1.1380767e-06 0 0)
(1.9509226e-06 3.5023579e-07 0 5.6599074e-07 0 0)
(1.6890807e-06 1.7592901e-07 0 1.988471e-07 0 0)
(1.5257965e-06 4.8350938e-08 0 2.1372214e-08 0 0)
(4.6664553e-05 -1.1246474e-05 0 3.1533264e-05 0 0)
(7.3463219e-05 3.7838011e-06 0 5.3464246e-05 0 0)
(8.9725695e-05 -7.2488571e-06 0 5.6676321e-05 0 0)
(8.8912122e-05 2.2564978e-06 0 6.1305405e-05 0 0)
(9.2027342e-05 9.2782906e-07 0 5.9402812e-05 0 0)
(8.5601268e-05 9.3246823e-06 0 5.231751e-05 0 0)
(7.35735e-05 9.6071611e-06 0 4.3326015e-05 0 0)
(5.9615679e-05 1.2834743e-05 0 3.3535561e-05 0 0)
(4.6777511e-05 1.4248563e-05 0 2.6519929e-05 0 0)
(3.6510814e-05 1.4746199e-05 0 2.1561691e-05 0 0)
(2.8921221e-05 1.4045987e-05 0 1.9116799e-05 0 0)
(2.3629405e-05 1.2681968e-05 0 1.7506614e-05 0 0)
(1.9729508e-05 1.1107235e-05 0 1.6167736e-05 0 0)
(1.6534772e-05 9.6071053e-06 0 1.4758885e-05 0 0)
(1.3741467e-05 8.156265e-06 0 1.3267449e-05 0 0)
(1.1255795e-05 6.7505956e-06 0 1.1758869e-05 0 0)
(9.1513772e-06 5.4178422e-06 0 1.0190256e-05 0 0)
(7.4038044e-06 4.1982386e-06 0 8.6003832e-06 0 0)
(5.9936935e-06 3.145873e-06 0 7.0013351e-06 0 0)
(4.8513115e-06 2.2752989e-06 0 5.4753358e-06 0 0)
(3.9394239e-06 1.5975268e-06 0 4.0753216e-06 0 0)
(3.2090974e-06 1.0856178e-06 0 2.8614186e-06 0 0)
(2.6343615e-06 7.1782198e-07 0 1.8622105e-06 0 0)
(2.1865928e-06 4.5577235e-07 0 1.0902923e-06 0 0)
(1.8501571e-06 2.7076965e-07 0 5.379599e-07 0 0)
(1.6112994e-06 1.3596806e-07 0 1.8781958e-07 0 0)
(1.4660827e-06 3.7211814e-08 0 2.0087118e-08 0 0)
(7.4539207e-05 -2.7402697e-05 0 4.6032892e-05 0 0)
(0.00011291048 -3.1982524e-05 0 6.1343612e-05 0 0)
(0.00010441339 2.4212248e-06 0 8.5702729e-05 0 0)
(0.00012447911 -1.2675239e-05 0 9.0767115e-05 0 0)
(0.00012016007 -2.2302954e-06 0 9.1279966e-05 0 0)
(0.00011708299 -2.1110691e-06 0 8.3658594e-05 0 0)
(0.00010259582 7.6404279e-06 0 6.7930573e-05 0 0)
(8.1859155e-05 1.0131956e-05 0 5.2839767e-05 0 0)
(6.221686e-05 1.369292e-05 0 3.876266e-05 0 0)
(4.6291485e-05 1.5004463e-05 0 3.0009602e-05 0 0)
(3.4934969e-05 1.4803002e-05 0 2.4384811e-05 0 0)
(2.7346034e-05 1.3511448e-05 0 2.1404208e-05 0 0)
(2.2281145e-05 1.1904556e-05 0 1.9072746e-05 0 0)
(1.8470574e-05 1.0373263e-05 0 1.7174222e-05 0 0)
(1.5324808e-05 8.9412179e-06 0 1.5373073e-05 0 0)
(1.257974e-05 7.5211348e-06 0 1.3710072e-05 0 0)
(1.0244628e-05 6.1134641e-06 0 1.205627e-05 0 0)
(8.3176877e-06 4.7844356e-06 0 1.0394664e-05 0 0)
(6.7695101e-06 3.6074206e-06 0 8.6891841e-06 0 0)
(5.5152903e-06 2.6167204e-06 0 7.0134125e-06 0 0)
(4.5066086e-06 1.837596e-06 0 5.4229854e-06 0 0)
(3.6880703e-06 1.2478289e-06 0 3.9954432e-06 0 0)
(3.0303588e-06 8.2875081e-07 0 2.7746296e-06 0 0)
(2.5031904e-06 5.3719504e-07 0 1.7883587e-06 0 0)
(2.0905648e-06 3.3997984e-07 0 1.0379326e-06 0 0)
(1.7767078e-06 2.0251147e-07 0 5.0852617e-07 0 0)
(1.5545175e-06 1.0228454e-07 0 1.7656534e-07 0 0)
(1.4224534e-06 2.7881467e-08 0 1.8801429e-08 0 0)
(0.00013434947 -4.2137985e-05 0 5.0333272e-05 0 0)
(0.0001645853 -5.728228e-05 0 9.4302586e-05 0 0)
(0.00016381849 -5.4039954e-05 0 0.00011322297 0 0)
(0.00015611446 4.3873231e-07 0 0.00013793323 0 0)
(0.00017469869 -1.8996822e-05 0 0.00013800827 0 0)
(0.00016226613 -8.9065528e-06 0 0.00013111523 0 0)
(0.00014740008 -5.0866471e-06 0 0.00011136759 0 0)
(0.00011984904 7.0538281e-06 0 8.4604667e-05 0 0)
(8.9141345e-05 1.1154479e-05 0 6.2449378e-05 0 0)
(6.4067243e-05 1.4640323e-05 0 4.4654384e-05 0 0)
(4.5717142e-05 1.5189766e-05 0 3.4413506e-05 0 0)
(3.380925e-05 1.4189821e-05 0 2.7710858e-05 0 0)
(2.6277558e-05 1.2568096e-05 0 2.3537687e-05 0 0)
(2.117882e-05 1.1054699e-05 0 2.0333448e-05 0 0)
(1.7284724e-05 9.6592601e-06 0 1.7880951e-05 0 0)
(1.4114634e-05 8.2883953e-06 0 1.5872319e-05 0 0)
(1.1475284e-05 6.849677e-06 0 1.4070142e-05 0 0)
(9.3211479e-06 5.4201206e-06 0 1.2335526e-05 0 0)
(7.6178229e-06 4.1114391e-06 0 1.0546681e-05 0 0)
(6.2512143e-06 2.9869057e-06 0 8.7451385e-06 0 0)
(5.1503148e-06 2.0899886e-06 0 6.9782561e-06 0 0)
(4.2482463e-06 1.4063505e-06 0 5.3395984e-06 0 0)
(3.5103163e-06 9.2281162e-07 0 3.8885673e-06 0 0)
(2.9050593e-06 5.9262292e-07 0 2.6725612e-06 0 0)
(2.4146809e-06 3.7963093e-07 0 1.7061165e-06 0 0)
(2.024449e-06 2.4019923e-07 0 9.8235226e-07 0 0)
(1.7258397e-06 1.451749e-07 0 4.7829795e-07 0 0)
(1.5144083e-06 7.4238703e-08 0 1.652861e-07 0 0)
(1.3915737e-06 2.0138497e-08 0 1.7532576e-08 0 0)
(0.00024298367 -5.783663e-05 0 6.5697171e-05 0 0)
(0.00023623223 -9.1400514e-05 0 0.00011619413 0 0)
(0.00023850198 -9.6000759e-05 0 0.00016661589 0 0)
(0.0002385723 -7.5092612e-05 0 0.00019495843 0 0)
(0.00023767587 -2.2216337e-06 0 0.00021474092 0 0)
(0.00024163304 -2.789386e-05 0 0.00020010976 0 0)
(0.00021353007 -1.5553153e-05 0 0.00017781785 0 0)
(0.00017967748 -6.5744341e-06 0 0.00014150674 0 0)
(0.00013615518 7.2745646e-06 0 0.00010193653 0 0)
(9.5737492e-05 1.2391945e-05 0 7.2976044e-05 0 0)
(6.5783909e-05 1.4993353e-05 0 5.1951298e-05 0 0)
(4.5709226e-05 1.4460684e-05 0 3.9583291e-05 0 0)
(3.3368419e-05 1.301822e-05 0 3.0818565e-05 0 0)
(2.5518598e-05 1.1555607e-05 0 2.5174713e-05 0 0)
(2.0101739e-05 1.0282998e-05 0 2.1150456e-05 0 0)
(1.6030559e-05 9.0083784e-06 0 1.8415315e-05 0 0)
(1.2909182e-05 7.6097602e-06 0 1.6283487e-05 0 0)
(1.043998e-05 6.1100248e-06 0 1.443078e-05 0 0)
(8.5393563e-06 4.6664213e-06 0 1.256997e-05 0 0)
(7.0523018e-06 3.3936624e-06 0 1.0667639e-05 0 0)
(5.8643412e-06 2.3611105e-06 0 8.7447335e-06 0 0)
(4.886276e-06 1.5661813e-06 0 6.9036758e-06 0 0)
(4.0742089e-06 1.0023157e-06 0 5.2186312e-06 0 0)
(3.3947361e-06 6.2148017e-07 0 3.7588096e-06 0 0)
(2.8279388e-06 3.8583451e-07 0 2.5565004e-06 0 0)
(2.3598351e-06 2.4311049e-07 0 1.6177198e-06 0 0)
(1.9832276e-06 1.5677113e-07 0 9.247089e-07 0 0)
(1.6926708e-06 9.7625224e-08 0 4.478263e-07 0 0)
(1.4873634e-06 5.1175313e-08 0 1.5414233e-07 0 0)
(1.3706815e-06 1.3771466e-08 0 1.6292266e-08 0 0)
(0.00042187168 -7.1294338e-05 -5.2206737e-26 7.5881585e-05 9.1756774e-26 1.8235356e-46)
(0.00035789225 -0.00011622762 0 0.00015586719 0 0)
(0.00032381038 -0.00015223163 0 0.00022004448 0 0)
(0.00034466356 -0.00014153478 0 0.00027628029 0 0)
(0.00034877792 -9.3268953e-05 0 0.00031127265 0 0)
(0.00035297806 -7.120634e-06 0 0.00031802571 0 0)
(0.00032363364 -3.7917699e-05 0 0.00027441318 0 0)
(0.00026957552 -2.0227491e-05 0 0.00022955225 0 0)
(0.00021202156 -7.0413308e-06 0 0.00017328113 0 0)
(0.00015191879 8.200394e-06 0 0.00012078492 0 0)
(0.0001021661 1.2990713e-05 0 8.559915e-05 0 0)
(6.8172257e-05 1.4113262e-05 0 6.0410219e-05 0 0)
(4.6563568e-05 1.297018e-05 0 4.439444e-05 0 0)
(3.3305774e-05 1.1783345e-05 0 3.3131678e-05 0 0)
(2.4705665e-05 1.0716118e-05 0 2.6141225e-05 0 0)
(1.8842715e-05 9.6547824e-06 0 2.1700714e-05 0 0)
(1.4703865e-05 8.3559147e-06 0 1.8856563e-05 0 0)
(1.1739451e-05 6.8504435e-06 0 1.6728128e-05 0 0)
(9.5520585e-06 5.2815997e-06 0 1.4769051e-05 0 0)
(7.9157307e-06 3.8457083e-06 0 1.2782753e-05 0 0)
(6.6418582e-06 2.6578715e-06 0 1.0725185e-05 0 0)
(5.5972506e-06 1.7326993e-06 0 8.6961905e-06 0 0)
(4.7199899e-06 1.0709526e-06 0 6.7789112e-06 0 0)
(3.9730764e-06 6.2448641e-07 0 5.0651737e-06 0 0)
(3.3339874e-06 3.5614611e-07 0 3.6072423e-06 0 0)
(2.7898438e-06 2.0550547e-07 0 2.4295879e-06 0 0)
(2.3330703e-06 1.2933566e-07 0 1.5252948e-06 0 0)
(1.9609831e-06 8.7829031e-08 0 8.6653136e-07 0 0)
(1.6730314e-06 5.8917478e-08 0 4.1771014e-07 0 0)
(1.4703565e-06 3.2429428e-08 0 1.4324595e-07 0 0)
(1.3575146e-06 8.5964209e-09 0 1.508829e-08 0 0)
(0.00067615023 -8.4488088e-05 9.1903158e-26 9.5438941e-05 -1.5034357e-25 5.5181146e-46)
(0.00054636949 -0.00014713852 1.2919005e-25 0.00019626724 9.4051553e-27 1.9913354e-46)
(0.00045272584 -0.00018795562 0 0.00028772409 0 0)
(0.00044736128 -0.00022566392 0 0.00037464774 0 0)
(0.00049504447 -0.00019575549 0 0.00043897146 0 0)
(0.00050461054 -0.00010994654 0 0.00046826765 0 0)
(0.00049985462 -1.2211515e-05 0 0.0004415229 0 0)
(0.00041365361 -4.7032898e-05 0 0.00036069151 0 0)
(0.00032843967 -2.3830785e-05 0 0.00028457891 0 0)
(0.00024451765 -6.2003494e-06 0 0.00020729057 0 0)
(0.00016740344 8.8496368e-06 0 0.00014280961 0 0)
(0.00010930877 1.1904496e-05 0 9.9981851e-05 0 0)
(7.161779e-05 1.2185086e-05 0 6.8318167e-05 0 0)
(4.7868588e-05 1.143085e-05 0 4.7924916e-05 0 0)
(3.305065e-05 1.0861898e-05 0 3.4422335e-05 0 0)
(2.3534015e-05 1.0142376e-05 0 2.6688353e-05 0 0)
(1.7380825e-05 9.0741312e-06 0 2.2152107e-05 0 0)
(1.3368367e-05 7.6115163e-06 0 1.938319e-05 0 0)
(1.0717609e-05 5.9630143e-06 0 1.7195346e-05 0 0)
(8.8540004e-06 4.3536299e-06 0 1.5107041e-05 0 0)
(7.4803309e-06 2.9878569e-06 0 1.2928388e-05 0 0)
(6.3764834e-06 1.9115532e-06 0 1.0725869e-05 0 0)
(5.4449811e-06 1.1328923e-06 0 8.5828241e-06 0 0)
(4.6395848e-06 6.0396572e-07 0 6.6099387e-06 0 0)
(3.9350475e-06 2.8931324e-07 0 4.8794243e-06 0 0)
(3.31959e-06 1.2285533e-07 0 3.4379661e-06 0 0)
(2.7836587e-06 5.528604e-08 0 2.2949452e-06 0 0)
(2.3276976e-06 3.5193669e-08 0 1.4302396e-06 0 0)
(1.953677e-06 3.2342697e-08 0 8.0849447e-07 0 0)
(1.6637158e-06 2.7952174e-08 0 3.8818751e-07 0 0)
(1.4609674e-06 1.7398822e-08 0 1.3266313e-07 0 0)
(1.3502192e-06 4.4607718e-09 0 1.3926333e-08 0 0)
(0.0010234664 -9.1663656e-05 -8.1592587e-26 0.00011520975 1.6054734e-25 5.5632925e-46)
(0.00079825418 -0.00017146854 -3.1513433e-25 0.0002548777 -4.5669869e-27 1.230668e-45)
(0.0006483187 -0.00023711362 0 0.00037179905 0 0)
(0.00058601723 -0.00027425834 0 0.00048243165 0 0)
(0.00062157973 -0.00031593677 0 0.00060019767 0 0)
(0.00069261322 -0.00025844174 0 0.0006651681 0 0)
(0.00070799855 -0.00012265326 0 0.00066172302 0 0)
(0.00066134641 -1.7150103e-05 0 0.00058080978 0 0)
(0.00050872635 -5.5596046e-05 0 0.00045637094 0 0)
(0.00038988503 -2.5769817e-05 0 0.00034293721 0 0)
(0.00027661107 -5.2363909e-06 0 0.0002458477 0 0)
(0.00018351195 7.4542842e-06 0 0.00016742262 0 0)
(0.00011770461 9.3564162e-06 0 0.00011349342 0 0)
(7.5524208e-05 1.0266246e-05 0 7.4171367e-05 0 0)
(4.8730846e-05 1.0412065e-05 0 4.9890389e-05 0 0)
(3.2161281e-05 1.0381288e-05 0 3.505224e-05 0 0)
(2.1962428e-05 9.6964073e-06 0 2.7116875e-05 0 0)
(1.5829849e-05 8.3961625e-06 0 2.2770319e-05 0 0)
(1.2183524e-05 6.6863299e-06 0 2.0010444e-05 0 0)
(9.9251643e-06 4.9266049e-06 0 1.7706329e-05 0 0)
(8.3923837e-06 3.3584913e-06 0 1.5380916e-05 0 0)
(7.2244612e-06 2.1076613e-06 0 1.3008477e-05 0 0)
(6.2479912e-06 1.1922956e-06 0 1.0644651e-05 0 0)
(5.3938061e-06 5.6299091e-07 0 8.411291e-06 0 0)
(4.6321731e-06 1.8607471e-07 0 6.3952283e-06 0 0)
(3.9523106e-06 -8.0087266e-09 0 4.6667866e-06 0 0)
(3.3414485e-06 -7.2057411e-08 0 3.2553852e-06 0 0)
(2.8026318e-06 -6.9325903e-08 0 2.1548691e-06 0 0)
(2.3389797e-06 -3.9727935e-08 0 1.334912e-06 0 0)
(1.9573742e-06 -1.165045e-08 0 7.5122058e-07 0 0)
(1.6620827e-06 3.553678e-09 0 3.594235e-07 0 0)
(1.4572074e-06 5.5778502e-09 0 1.2244582e-07 0 0)
(1.3472604e-06 1.2451616e-09 0 1.2811707e-08 0 0)
(0.0014563054 -9.6315948e-05 0 0.00013910742 0 0)
(0.0011274373 -0.00019138831 2.7877916e-25 0.00032167769 3.174834e-26 1.2348575e-45)
(0.00089286047 -0.00027062171 0 0.00047340352 0 0)
(0.00078841202 -0.00034405341 0 0.00062715776 0 0)
(0.00077523307 -0.00038395834 0 0.00076949565 0 0)
(0.00085083017 -0.00042551331 0 0.00090949858 0 0)
(0.00093645892 -0.00031228314 0 0.00095150632 0 0)
(0.00094869452 -0.00012681736 0 0.00089001032 0 0)
(0.00082497306 -2.4026656e-05 0 0.0007291555 0 0)
(0.00060926956 -6.102265e-05 0 0.00056001222 0 0)
(0.00045157399 -2.7170663e-05 0 0.0004081772 0 0)
(0.00030898513 -6.9412244e-06 0 0.00028815822 0 0)
(0.00020103442 4.1084445e-06 0 0.00019063805 0 0)
(0.00012647468 6.9586603e-06 0 0.0001237667 0 0)
(7.8570853e-05 9.1509259e-06 0 7.7652043e-05 0 0)
(4.8532606e-05 1.0082008e-05 0 5.0804432e-05 0 0)
(3.057862e-05 1.0155691e-05 0 3.5510813e-05 0 0)
(2.0166691e-05 9.1618637e-06 0 2.7835056e-05 0 0)
(1.4425833e-05 7.4665869e-06 0 2.3615669e-05 0 0)